Membrane in water
40155
    1TCq1    O1    1   3.258   0.570  10.434 -0.3022 -0.7462 -0.1540
    1TCq1    C1    2   3.197   0.646  10.346  0.8459  0.4305 -0.1119
    1TCq1    O2    3   3.128   0.594  10.255  0.6595 -0.2797  0.3701
    1TCq1    C2    4   3.225   0.782  10.366 -0.1663  0.1288 -0.2825
    1TCq1    C3    5   3.151   0.888  10.311  0.6295  0.3953 -0.1088
    1TCq1    C4    6   3.191   1.016  10.332 -0.4015  0.1452 -0.7672
    1TCq1    C5    7   3.306   1.040  10.403  0.0681  0.2750  0.0567
    1TCq1    C6    8   3.387   0.939  10.446  0.3651  0.5089  0.1196
    1TCq1    C7    9   3.337   0.807  10.438  0.3797 -0.4918  0.5502
    1TCq1    C8   10   3.468   0.963  10.565 -0.5262  0.0195 -0.0995
    1TCq1    O4   11   3.458   0.892  10.660  0.2175  0.1983  0.1030
    1TCq1    C9   12   3.095   1.119  10.309 -0.2797  0.8622 -1.0303
    1TCq1    O5   13   3.009   1.099  10.224 -0.3611 -0.2394 -0.0554
    1TCq1    O6   14   3.112   1.223  10.367  1.1055  0.2030  0.2747
    1TCq1    H1   15   3.280   0.615  10.518 -0.0342 -0.7993 -0.1936
    1TCq1    H2   16   3.059   0.852  10.265 -0.0226  0.8801  0.8071
    1TCq1    H3   17   3.327   1.142  10.434 -1.3502  0.1068  1.5991
    1TCq1    H4   18   3.398   0.728  10.482  0.5318 -0.5627  0.2087
    2MPD2     C   19   3.727   1.309  10.832  0.6355 -0.0761  0.2580
    2MPD2    C1   20   3.605   1.245  10.856  0.6815  0.8559  0.5140
    2MPD2    C2   21   3.556   1.156  10.757  0.4811  0.3019 -0.0187
    2MPD2    C3   22   3.621   1.138  10.635  0.0482  1.0681  0.4717
    2MPD2    C4   23   3.734   1.216  10.610 -0.5231 -0.5076  0.0162
    2MPD2    C5   24   3.785   1.292  10.713 -0.0735 -1.0126 -0.2660
    2MPD2     H   25   3.461   1.107  10.777  1.5238 -0.6806  2.4919
    2MPD2    H1   26   3.791   1.211  10.518  3.2762  1.6196  2.2739
    2MPD2    H2   27   3.768   1.391  10.890 -0.2587  0.8443 -0.4276
    2MPD2    H3   28   3.880   1.341  10.696  0.0475 -0.5007  1.9247
    2MPD2     N   29   3.563   1.057  10.538 -0.1963  0.3616  0.7593
    2MPD2    H5   30   3.563   1.102  10.447 -0.4736 -0.4799  0.3405
    2MPD2    N1   31   3.529   1.267  10.976 -0.0197  0.1235  0.3773
    2MPD2    H7   32   3.455   1.203  11.003 -0.3399  0.4926  0.3827
    3TCq1    O1   33   3.044   2.371   9.585 -0.3555  0.1621  0.0273
    3TCq1    C1   34   3.049   2.261   9.664 -0.2768 -0.9594  0.6637
    3TCq1    O2   35   2.998   2.150   9.653  0.3339 -0.2683  0.0033
    3TCq1    C2   36   3.115   2.291   9.790  0.5378  0.4276 -0.3256
    3TCq1    C3   37   3.219   2.385   9.789 -0.5630  0.4056 -0.3812
    3TCq1    C4   38   3.261   2.434   9.913 -0.9296 -0.4827 -0.2275
    3TCq1    C5   39   3.204   2.379  10.028 -0.4047  1.1559  0.3236
    3TCq1    C6   40   3.100   2.287  10.014  0.1200  0.2332 -0.0631
    3TCq1    C7   41   3.059   2.238   9.900 -0.1125  0.7590 -0.1325
    3TCq1    C8   42   3.010   2.271  10.123 -0.4356  0.0772  0.0210
    3TCq1    O4   43   2.944   2.170  10.148 -0.9046 -0.0555 -0.9958
    3TCq1    C9   44   3.354   2.539   9.929  0.0301 -0.1347  0.1467
    3TCq1    O5   45   3.401   2.591   9.823 -0.3447  0.1806 -0.1861
    3TCq1    O6   46   3.372   2.579  10.049  0.6927 -0.1692 -0.7857
    3TCq1    H1   47   3.069   2.454   9.631  0.9866  0.0907 -0.5886
    3TCq1    H2   48   3.277   2.399   9.698 -0.8407  0.2448 -0.5810
    3TCq1    H3   49   3.233   2.411  10.127  3.0907 -0.5544 -0.1613
    3TCq1    H4   50   2.982   2.162   9.902 -0.0051  0.5972 -2.1343
    4MPD2     C   51   2.796   2.444  10.549 -0.7069 -0.1438  0.1765
    4MPD2    C1   52   2.855   2.550  10.483  0.1672  0.1829 -0.1785
    4MPD2    C2   53   2.912   2.530  10.364 -0.0744 -0.4122  1.0739
    4MPD2    C3   54   2.928   2.400  10.317 -0.1156  1.0495  0.5999
    4MPD2    C4   55   2.880   2.293  10.398 -0.5499  0.6711  0.1349
    4MPD2    C5   56   2.806   2.315  10.507  0.9569 -0.2542 -0.1778
    4MPD2     H   57   2.966   2.607  10.309 -2.1966  1.0211  0.9679
    4MPD2    H1   58   2.903   2.191  10.369 -1.7129  0.7888 -1.2068
    4MPD2    H2   59   2.728   2.458  10.633 -1.0763 -0.8010 -0.0087
    4MPD2    H3   60   2.779   2.227  10.564 -0.7424  0.4770  0.1421
    4MPD2     N   61   2.998   2.387  10.195 -0.5156 -0.3523 -0.8098
    4MPD2    H5   62   3.048   2.464  10.152 -0.6462 -0.8485 -1.8391
    4MPD2    N1   63   2.830   2.684  10.510 -0.3743  0.1754  0.1237
    4MPD2    H7   64   2.841   2.748  10.432 -2.7769 -0.4267 -0.7191
    5TCq1    O1   65   3.076   0.008  10.397 -0.2814 -0.2062  0.6595
    5TCq1    C1   66   3.131   4.659  10.292  0.6662  0.2524  0.1930
    5TCq1    O2   67   3.251   4.670  10.268 -0.5009 -0.4005 -0.1538
    5TCq1    C2   68   3.087   4.520  10.334 -0.8124  0.4020  0.0648
    5TCq1    C3   69   2.970   4.475  10.295  0.6095  0.0517 -0.4284
    5TCq1    C4   70   2.939   4.345  10.305 -0.7032  0.4165 -0.0709
    5TCq1    C5   71   3.033   4.262  10.355  0.0579 -0.4980 -0.3562
    5TCq1    C6   72   3.157   4.311  10.392 -0.0362  0.1609  0.0190
    5TCq1    C7   73   3.191   4.439  10.371  0.8876  0.3296  0.1366
    5TCq1    C8   74   3.263   4.208  10.402  0.7298  0.0439  0.8894
    5TCq1    O4   75   3.212   4.093  10.418 -0.0925 -0.6784 -0.1805
    5TCq1    C9   76   2.817   4.304  10.240  0.5216 -0.0405 -0.3746
    5TCq1    O5   77   2.723   4.389  10.244  0.6417 -0.2675  0.4232
    5TCq1    O6   78   2.786   4.181  10.240 -0.1255  0.6419  0.1863
    5TCq1    H1   79   2.982   4.708  10.413 -0.2953 -0.6849 -0.0983
    5TCq1    H2   80   2.893   4.543  10.259 -0.9122 -1.0887  0.6696
    5TCq1    H3   81   3.003   4.158  10.362 -1.0321 -0.2105 -0.6327
    5TCq1    H4   82   3.285   4.473  10.415  0.6566 -0.5904  1.3495
    6MPD2     C   83   3.636   4.206  10.340  0.5958 -0.2520  0.2816
    6MPD2    C1   84   3.507   4.161  10.380 -0.0365 -1.0918 -0.6316
    6MPD2    C2   85   3.500   4.029  10.421 -0.6666 -0.4990 -0.3478
    6MPD2    C3   86   3.609   3.953  10.452  0.0450  0.8638  0.2559
    6MPD2    C4   87   3.735   4.008  10.422  0.5950  0.2833 -0.0394
    6MPD2    C5   88   3.750   4.132  10.360 -0.1238 -0.7554  0.4244
    6MPD2     H   89   3.411   3.978  10.457 -0.3125  0.1317  1.4327
    6MPD2    H1   90   3.820   3.943  10.439  0.4308 -0.9254 -3.8371
    6MPD2    H2   91   3.647   4.307  10.301  0.2139 -0.7072 -1.0213
    6MPD2    H3   92   3.846   4.168  10.325 -1.1599  0.0372 -1.6294
    6MPD2     N   93   3.590   3.820  10.505  0.7087 -0.4392 -1.0304
    6MPD2    H5   94   3.493   3.793  10.515  0.9194 -1.1442 -0.8948
    6MPD2    N1   95   3.396   4.249  10.369  0.2939 -0.2904  0.2372
    6MPD2    H7   96   3.414   4.345  10.339  1.3544  0.0795  2.0504
    7TCq1    O1   97   0.994   4.043  12.770 -0.0118  0.2289  0.2167
    7TCq1    C1   98   0.922   3.972  12.850  0.3996  0.6683 -0.4128
    7TCq1    O2   99   0.871   3.863  12.821 -0.4185  0.4530  0.0912
    7TCq1    C2  100   0.948   4.019  12.987  1.2190 -0.4126  0.3927
    7TCq1    C3  101   0.974   4.150  13.025 -0.2770  0.1475  0.4423
    7TCq1    C4  102   0.951   4.187  13.156 -0.2848  0.7665  0.0110
    7TCq1    C5  103   0.927   4.098  13.259  0.3197  0.8577 -0.4046
    7TCq1    C6  104   0.896   3.969  13.219  0.4541  1.0620 -0.4831
    7TCq1    C7  105   0.904   3.931  13.083  0.6315  0.4623 -0.3076
    7TCq1    C8  106   0.876   3.859  13.317 -0.1704 -0.1866  0.2434
    7TCq1    O4  107   0.832   3.755  13.266 -0.7753 -0.4971 -0.4241
    7TCq1    C9  108   0.969   4.331  13.186 -0.0894  1.3598 -0.0043
    7TCq1    O5  109   1.043   4.393  13.105 -0.9026 -0.4983  0.0021
    7TCq1    O6  110   0.934   4.368  13.301  0.0199 -0.1365 -0.2935
    7TCq1    H1  111   1.054   4.103  12.818 -1.6786  2.7455 -0.8591
    7TCq1    H2  112   1.001   4.227  12.953  2.1352 -2.2444 -1.1843
    7TCq1    H3  113   0.927   4.133  13.362  1.6598 -0.8770  0.1751
    7TCq1    H4  114   0.881   3.830  13.051 -0.1027  0.6213 -0.2660
    8MPD2     C  115   0.856   3.643  13.767  0.4559 -0.0201 -0.4819
    8MPD2    C1  116   0.838   3.587  13.641  0.5658 -0.6380  0.2254
    8MPD2    C2  117   0.857   3.671  13.538  0.1374 -0.5907 -0.2526
    8MPD2    C3  118   0.888   3.806  13.557 -0.2288 -0.5209  0.4249
    8MPD2    C4  119   0.917   3.850  13.684 -0.2125 -0.2093 -0.5462
    8MPD2    C5  120   0.907   3.764  13.790 -0.2108 -0.3702 -0.5011
    8MPD2     H  121   0.830   3.637  13.439 -0.1603  2.0678 -1.0947
    8MPD2    H1  122   0.948   3.953  13.695 -0.3490 -0.2879  0.5864
    8MPD2    H2  123   0.844   3.580  13.855 -1.6413  0.6140 -0.3223
    8MPD2    H3  124   0.929   3.804  13.889 -0.9814  0.2845 -0.5990
    8MPD2     N  125   0.899   3.896  13.448 -0.5556  0.2217  0.5223
    8MPD2    H5  126   0.927   3.992  13.468  2.2813 -0.3728 -0.6933
    8MPD2    N1  127   0.809   3.449  13.635  0.6025 -0.3923 -0.2874
    8MPD2    H7  128   0.781   3.395  13.716  2.3511 -1.0742 -0.1365
    9TCq1    O1  129   2.821   1.532  10.808 -0.3553 -0.2690  1.0354
    9TCq1    C1  130   2.819   1.665  10.783  0.0921  0.1690  0.2076
    9TCq1    O2  131   2.792   1.749  10.867 -0.0369  0.0113  0.6580
    9TCq1    C2  132   2.936   1.690  10.700 -0.6684 -0.0598  0.6493
    9TCq1    C3  133   2.962   1.618  10.590 -0.3543 -0.4668  0.1150
    9TCq1    C4  134   3.088   1.628  10.529  0.6753  0.6794 -0.0722
    9TCq1    C5  135   3.182   1.711  10.584 -0.1017 -0.3795 -0.4629
    9TCq1    C6  136   3.156   1.784  10.694 -0.2198 -0.6737  0.2386
    9TCq1    C7  137   3.035   1.768  10.761  0.1009 -0.2410  0.1175
    9TCq1    C8  138   3.266   1.879  10.724 -0.1219  0.5199  0.7881
    9TCq1    O4  139   3.368   1.864  10.657  0.3148 -0.2211 -0.5098
    9TCq1    C9  140   3.123   1.574  10.399  0.3864 -0.4995  0.1063
    9TCq1    O5  141   3.244   1.574  10.363 -0.7778 -0.4704 -0.3868
    9TCq1    O6  142   3.031   1.503  10.349  0.1823 -0.4303  0.4507
    9TCq1    H1  143   2.872   1.475  10.746 -0.3714  1.5894 -0.6700
    9TCq1    H2  144   2.894   1.555  10.534 -0.0794  0.3716 -1.1897
    9TCq1    H3  145   3.265   1.732  10.517 -0.8318  1.4713 -0.8000
    9TCq1    H4  146   3.015   1.809  10.860 -1.5156  2.4361 -1.3287
   10MPD2     C  147   3.440   2.088  10.843  0.1472 -0.1386  0.2154
   10MPD2    C1  148   3.313   2.053  10.894  0.2886 -0.0159  0.0622
   10MPD2    C2  149   3.275   2.096  11.016 -0.4549  0.4187  0.0573
   10MPD2    C3  150   3.340   2.192  11.088  0.2502 -0.0142  0.2906
   10MPD2    C4  151   3.462   2.236  11.032 -0.4068 -0.0188 -0.0196
   10MPD2    C5  152   3.510   2.184  10.907 -0.3626  0.2852  0.4564
   10MPD2     H  153   3.184   2.056  11.059 -0.1639 -0.8221 -0.4630
   10MPD2    H1  154   3.516   2.309  11.091  2.0432 -0.2631 -1.9740
   10MPD2    H2  155   3.489   2.048  10.755 -2.0021  0.1245 -1.1026
   10MPD2    H3  156   3.603   2.220  10.865 -0.0292  0.4561  1.3336
   10MPD2     N  157   3.278   2.242  11.206 -0.1513  0.0524 -0.3397
   10MPD2    H5  158   3.195   2.193  11.237  0.4008 -0.0225  1.0296
   10MPD2    N1  159   3.230   1.959  10.832  0.2282 -0.7384 -0.4965
   10MPD2    H7  160   3.138   1.935  10.865 -0.4581  0.1073 -1.8090
   11TCq1    O1  161   4.338   2.536  14.306  0.3877  0.8002 -0.2366
   11TCq1    C1  162   4.297   2.449  14.213  0.9933  0.2952 -0.4338
   11TCq1    O2  163   4.293   2.464  14.090  0.2324 -0.2688  1.0153
   11TCq1    C2  164   4.183   2.376  14.271 -0.0154  0.3087 -0.3804
   11TCq1    C3  165   4.177   2.344  14.403 -0.2406 -0.4252 -0.4870
   11TCq1    C4  166   4.064   2.301  14.455 -0.0330 -0.2315  0.3038
   11TCq1    C5  167   3.953   2.297  14.375 -0.4604  0.3609  0.0612
   11TCq1    C6  168   3.957   2.319  14.242 -0.1713 -0.8421  0.7674
   11TCq1    C7  169   4.073   2.362  14.192  0.5551  0.5417  0.5673
   11TCq1    C8  170   3.840   2.304  14.154 -0.8340  0.1680  0.8808
   11TCq1    O4  171   3.748   2.226  14.182 -0.1791  0.1798  0.5238
   11TCq1    C9  172   4.051   2.279  14.598  0.8938  0.1177  0.5526
   11TCq1    O5  173   3.933   2.275  14.638  0.0691  0.1119 -0.5748
   11TCq1    O6  174   4.153   2.263  14.669 -0.2197 -0.4192  0.0527
   11TCq1    H1  175   4.346   2.500  14.397 -1.3835  0.0172 -0.4023
   11TCq1    H2  176   4.265   2.358  14.466 -0.3711 -0.9185 -0.2037
   11TCq1    H3  177   3.858   2.270  14.420 -0.5209 -0.2455 -0.4308
   11TCq1    H4  178   4.093   2.368  14.085 -1.0565  1.1818  0.3082
   12MPD2     C  179   3.781   2.495  13.837 -0.1725  0.0253 -0.7130
   12MPD2    C1  180   3.769   2.395  13.931 -0.1768  0.0063 -0.0979
   12MPD2    C2  181   3.687   2.291  13.890  0.6972  0.3750  0.6166
   12MPD2    C3  182   3.643   2.278  13.762  0.5924 -0.4804  0.0834
   12MPD2    C4  183   3.653   2.383  13.674  0.1895 -0.4271  0.0761
   12MPD2    C5  184   3.720   2.492  13.715 -0.6551  0.2917 -0.1496
   12MPD2     H  185   3.684   2.209  13.962  0.9789 -0.4656 -0.3222
   12MPD2    H1  186   3.623   2.377  13.570  3.1036  1.2684 -0.8651
   12MPD2    H2  187   3.843   2.579  13.866 -1.3132  0.2345  1.1351
   12MPD2    H3  188   3.736   2.570  13.641  0.2686 -0.0561 -0.3153
   12MPD2     N  189   3.586   2.151  13.717 -0.1110  0.5751 -0.5547
   12MPD2    H5  190   3.545   2.148  13.624 -1.2922  0.5833 -0.0212
   12MPD2    N1  191   3.847   2.397  14.051  0.2285 -0.5286 -0.3795
   12MPD2    H7  192   3.922   2.466  14.047 -0.1537 -0.3787 -4.1343
   13TCq1    O1  193   3.927   1.728  10.518  0.0854  0.4691  0.0875
   13TCq1    C1  194   3.858   1.658  10.612  0.1280 -0.1318  0.8951
   13TCq1    O2  195   3.905   1.618  10.719  0.9199 -0.1258  0.3917
   13TCq1    C2  196   3.708   1.652  10.587 -0.7201 -0.0732  0.2426
   13TCq1    C3  197   3.671   1.584  10.476 -0.3963  0.1892 -0.6543
   13TCq1    C4  198   3.552   1.511  10.481  0.2408 -0.9579  0.5818
   13TCq1    C5  199   3.471   1.509  10.592  0.1046  0.3985 -0.8489
   13TCq1    C6  200   3.505   1.589  10.697  0.2175  0.5673 -0.2926
   13TCq1    C7  201   3.622   1.661  10.692  0.0240 -0.5510  0.6796
   13TCq1    C8  202   3.418   1.592  10.814  0.2593  0.4649  0.5863
   13TCq1    O4  203   3.446   1.675  10.900 -0.2770  0.2540 -0.5069
   13TCq1    C9  204   3.529   1.420  10.369 -0.1586  0.7036 -0.2835
   13TCq1    O5  205   3.555   1.463  10.252  0.2461 -0.3361  0.2108
   13TCq1    O6  206   3.450   1.328  10.392  0.5656 -0.1658  0.0421
   13TCq1    H1  207   3.860   1.764  10.456 -1.2965 -0.7466  0.8761
   13TCq1    H2  208   3.734   1.598  10.389  0.3361  0.4109 -0.0895
   13TCq1    H3  209   3.381   1.450  10.582  1.7565 -2.2510 -0.0272
   13TCq1    H4  210   3.645   1.712  10.784 -1.5469  2.3312 -0.5243
   14MPD2     C  211   3.182   1.340  10.947 -0.0482  0.2382  0.1976
   14MPD2    C1  212   3.235   1.465  10.932 -0.2791  0.2622  0.2170
   14MPD2    C2  213   3.191   1.562  11.021  0.3407 -0.8532 -0.0999
   14MPD2    C3  214   3.109   1.536  11.129 -0.0569  0.0735  0.2494
   14MPD2    C4  215   3.062   1.405  11.144 -0.0021 -0.0289  0.0422
   14MPD2    C5  216   3.104   1.307  11.057 -0.2263 -0.5652 -1.2404
   14MPD2     H  217   3.237   1.660  11.014 -1.2171 -0.1933 -1.0380
   14MPD2    H1  218   2.991   1.383  11.222 -2.4076  2.5848 -1.4135
   14MPD2    H2  219   3.215   1.266  10.876 -1.3987  0.6777 -0.8736
   14MPD2    H3  220   3.065   1.208  11.077  3.0860 -1.5437  0.4549
   14MPD2     N  221   3.070   1.643  11.217 -0.0906 -0.1301  0.7681
   14MPD2    H5  222   3.120   1.729  11.196 -2.3254  1.1716  0.7402
   14MPD2    N1  223   3.323   1.488  10.827 -0.0240  0.5916 -0.3967
   14MPD2    H7  224   3.335   1.414  10.758 -1.4531  1.0403 -1.1145
   15TCq1    O1  225   4.019   1.470   1.880 -0.4063  0.1822  0.6385
   15TCq1    C1  226   4.131   1.546   1.900  0.5114 -0.4036  0.6834
   15TCq1    O2  227   4.136   1.667   1.895  0.2342 -0.9121 -0.0688
   15TCq1    C2  228   4.235   1.449   1.923 -0.3287  0.3545 -0.5275
   15TCq1    C3  229   4.347   1.497   1.987 -0.2214 -0.1467  0.3209
   15TCq1    C4  230   4.460   1.414   1.993  0.1098 -0.3563 -0.2649
   15TCq1    C5  231   4.460   1.295   1.929 -1.2034  0.0403  0.1529
   15TCq1    C6  232   4.345   1.255   1.855  0.6170  0.5379 -0.0094
   15TCq1    C7  233   4.233   1.329   1.848 -0.6649 -0.1284  0.5918
   15TCq1    C8  234   4.361   1.134   1.769 -0.5676  0.4505 -0.7170
   15TCq1    O4  235   4.440   1.056   1.818 -0.0297 -1.0322  0.1754
   15TCq1    C9  236   4.578   1.457   2.055  0.4435  0.6280  0.3850
   15TCq1    O5  237   4.677   1.385   2.023  0.7872  0.2487 -0.0707
   15TCq1    O6  238   4.572   1.544   2.143 -0.2066 -0.3142  0.5265
   15TCq1    H1  239   4.018   1.388   1.934  2.1228  0.1905  0.7188
   15TCq1    H2  240   4.350   1.598   2.027  1.0681 -0.2994  0.5890
   15TCq1    H3  241   4.554   1.243   1.915 -0.7543  1.0873 -0.6845
   15TCq1    H4  242   4.145   1.303   1.791 -1.0676 -1.8440  1.9787
   16MPD2     C  243   4.270   1.091   1.420 -0.2044  0.2104  0.2909
   16MPD2    C1  244   4.323   1.064   1.545 -0.0573 -0.1272  0.1578
   16MPD2    C2  245   4.402   0.949   1.545  0.4014 -0.1199 -0.6867
   16MPD2    C3  246   4.422   0.872   1.427 -0.2426 -0.5257 -0.8958
   16MPD2    C4  247   4.364   0.914   1.310 -0.7903 -0.1900 -0.0334
   16MPD2    C5  248   4.282   1.022   1.306 -0.1372  0.1308 -1.1684
   16MPD2     H  249   4.464   0.929   1.632 -1.5590 -2.5613  0.1385
   16MPD2    H1  250   4.376   0.859   1.217 -1.4293 -2.5486  1.2931
   16MPD2    H2  251   4.218   1.185   1.405  0.3452  0.4741  0.0178
   16MPD2    H3  252   4.228   1.056   1.218 -1.7487  0.5414 -0.0099
   16MPD2     N  253   4.521   0.768   1.437  0.0855  0.0728  0.4703
   16MPD2    H5  254   4.559   0.757   1.531 -2.9951  0.1203  1.7172
   16MPD2    N1  255   4.298   1.153   1.654 -0.1486  0.2796 -0.3405
   16MPD2    H7  256   4.255   1.241   1.629  0.8441  0.2683 -2.0792
   17TCq1    O1  257   3.000   0.940  10.020  0.1305  0.0245  0.0635
   17TCq1    C1  258   3.104   0.920   9.929  0.2173  0.5129 -0.1390
   17TCq1    O2  259   3.138   0.819   9.874  0.1356  0.0318 -0.3742
   17TCq1    C2  260   3.195   1.025   9.964  0.2716 -0.3039 -0.1979
   17TCq1    C3  261   3.156   1.152   9.977  0.1284  0.5400 -0.6347
   17TCq1    C4  262   3.252   1.239  10.019  0.8105 -0.1757  0.4893
   17TCq1    C5  263   3.374   1.209  10.060 -1.0710  0.6267  0.1219
   17TCq1    C6  264   3.410   1.073  10.058  0.0355 -0.1605 -0.4526
   17TCq1    C7  265   3.323   0.981  10.000  0.3295  0.0890 -0.1481
   17TCq1    C8  266   3.535   1.026  10.107 -0.1010  0.5525 -0.2623
   17TCq1    O4  267   3.555   0.907  10.088  0.1143 -0.0638 -0.5403
   17TCq1    C9  268   3.210   1.376  10.013 -0.5791  0.0663 -0.5884
   17TCq1    O5  269   3.246   1.445  10.112  0.1832 -1.0583  0.8475
   17TCq1    O6  270   3.101   1.400   9.951 -0.5715  0.9309 -0.1021
   17TCq1    H1  271   3.016   1.016  10.079  0.1661  2.0828 -2.5950
   17TCq1    H2  272   3.065   1.178   9.925  0.0427  1.2202 -0.1478
   17TCq1    H3  273   3.440   1.293  10.082 -0.8538  0.4522  0.1408
   17TCq1    H4  274   3.355   0.878   9.985  1.1935  0.1276  1.4891
   18MPD2     C  275   3.819   1.010  10.114 -0.5652 -0.0141 -0.1775
   18MPD2    C1  276   3.759   1.115  10.176 -0.1774 -0.6265  0.6920
   18MPD2    C2  277   3.836   1.215  10.240  0.3409 -0.1011 -0.2312
   18MPD2    C3  278   3.968   1.203  10.237  0.4928  0.0173  0.0885
   18MPD2    C4  279   4.026   1.084  10.195 -0.1184 -0.1578 -0.4857
   18MPD2    C5  280   3.951   0.989  10.123  0.3217 -0.0270 -0.3015
   18MPD2     H  281   3.790   1.298  10.293 -0.1005 -0.3042 -0.2958
   18MPD2    H1  282   4.134   1.078  10.205 -0.1848  1.7335  1.3667
   18MPD2    H2  283   3.762   0.948  10.046 -0.0659  1.6460 -2.1218
   18MPD2    H3  284   3.996   0.903  10.075  0.0944 -0.9561  1.1528
   18MPD2     N  285   4.055   1.288  10.310 -0.3923  0.7659 -0.1173
   18MPD2    H5  286   4.155   1.270  10.307 -0.7106 -1.3021  1.7052
   18MPD2    N1  287   3.619   1.129  10.164  0.7515 -0.4380 -0.1030
   18MPD2    H7  288   3.576   1.218  10.188  0.9663 -0.9961  2.3350
   19TMC2    C1  289   0.113   1.850  13.830 -0.1042 -0.8724 -0.1781
   19TMC2    C2  290   0.106   1.943  13.725 -0.3685 -0.9437  0.7058
   19TMC2    C3  291   4.703   1.997  13.697  0.4408  0.4714 -0.3040
   19TMC2    C4  292   4.723   1.800  13.881 -0.9940  0.3218 -0.1708
   19TMC2    C5  293   4.605   1.856  13.849 -0.1686  0.4524  0.7059
   19TMC2    C6  294   4.591   1.954  13.757  0.5443  0.4861 -0.6740
   19TMC2     C  295   0.224   1.759  13.831 -0.8351  0.1520 -0.2183
   19TMC2     O  296   0.285   1.736  13.727 -0.3015  0.0981 -0.3007
   19TMC2     H  297   0.196   1.974  13.673 -0.3058 -2.0207  0.1567
   19TMC2    H1  298   0.004   1.721  13.955  0.7767  0.3895 -0.2035
   19TMC2    H2  299   4.492   1.998  13.746  0.4825 -0.1204 -2.4849
   19TMC2    C7  300   4.486   1.800  13.911  0.6070 -0.5829  0.6038
   19TMC2    C8  301   4.694   2.081  13.580  0.4606 -0.7385  0.4965
   19TMC2    O1  302   4.496   1.712  13.997 -0.4135  0.4821  0.1816
   19TMC2    O2  303   4.613   2.051  13.488 -0.0099  0.3782 -0.2504
   19TMC2    O5  304   4.696   2.205  13.630  0.2683  0.1954 -0.6812
   19TMC2    H5  305   0.024   2.188  13.712 -0.1377 -1.0894 -0.6846
   20MPD2     C  306   0.412   1.556  13.919  0.5828  0.4890 -0.3915
   20MPD2    C1  307   0.350   1.643  14.006 -0.6044  0.4794  0.1254
   20MPD2    C2  308   0.389   1.654  14.139 -0.1082 -0.2579 -0.5911
   20MPD2    C3  309   0.498   1.579  14.191 -0.7454 -0.3596 -0.0488
   20MPD2    C4  310   0.552   1.487  14.106  0.0545 -0.5835  0.2153
   20MPD2    C5  311   0.509   1.477  13.975  0.4831  0.1604  0.0366
   20MPD2     H  312   0.348   1.729  14.205 -0.2890 -2.6624  2.0282
   20MPD2    H1  313   0.640   1.433  14.138  0.0283 -0.8944 -0.2369
   20MPD2    H2  314   0.377   1.542  13.818  1.2059  1.6651 -0.7695
   20MPD2    H3  315   0.552   1.402  13.909 -0.3077 -0.4251  0.1991
   20MPD2     N  316   0.551   1.589  14.318 -0.2787 -0.6067  0.0179
   20MPD2    H5  317   0.615   1.514  14.343 -0.4821 -0.2347  1.6821
   20MPD2    N1  318   0.248   1.729  13.959 -0.6780  0.6051  0.3210
   20MPD2    H7  319   0.192   1.783  14.023 -0.1425  0.7806  0.6411
   21MPD2     C  320   2.697   2.507  14.197 -0.4422 -0.4631 -0.3539
   21MPD2    C1  321   2.782   2.421  14.262 -0.1827  0.0989  0.2264
   21MPD2    C2  322   2.744   2.360  14.378  0.0279 -0.1064  0.4453
   21MPD2    C3  323   2.617   2.382  14.428  0.1562 -0.6360  0.3880
   21MPD2    C4  324   2.536   2.465  14.357  0.1537 -0.1754  0.7885
   21MPD2    C5  325   2.574   2.538  14.248  0.1721 -0.3371 -0.3024
   21MPD2     H  326   2.810   2.284  14.418  2.3949  0.2494 -2.8161
   21MPD2    H1  327   2.435   2.477  14.396 -0.6513 -3.0247 -0.4156
   21MPD2    H2  328   2.730   2.562  14.109  4.6565  0.8994  2.4385
   21MPD2    H3  329   2.499   2.599  14.198 -0.9818 -0.5518  1.1646
   21MPD2     N  330   2.558   2.321  14.544 -0.0668 -0.3602 -0.3536
   21MPD2    H5  331   2.462   2.343  14.566  0.2580 -0.7717  1.4563
   21MPD2    N1  332   2.907   2.392  14.207  0.4531 -0.3338  0.1210
   21MPD2    H7  333   2.976   2.341  14.260  1.2656  0.7989  0.1598
   22TCq2    C1  334   2.613   2.218  14.612  0.3565  0.1975 -0.4586
   22TCq2    O2  335   2.716   2.156  14.590  0.0611 -0.0678  0.4189
   22TCq2    C2  336   2.543   2.181  14.739  0.2469 -0.6476  0.5504
   22TCq2    C3  337   2.581   2.064  14.805 -0.1868 -0.3798 -0.2756
   22TCq2    C4  338   2.505   2.026  14.913  0.7787 -0.5218  0.8171
   22TCq2    C5  339   2.404   2.098  14.960 -0.1090  0.3650 -0.0817
   22TCq2    C6  340   2.372   2.213  14.893 -0.5873  0.6584 -0.0702
   22TCq2    C7  341   2.440   2.260  14.782  0.6489  0.2129 -0.2057
   22TCq2    C8  342   2.281   2.311  14.956 -0.2638  0.4630 -0.0730
   22TCq2    O4  343   2.270   2.311  15.080  0.4156 -0.0804 -0.4433
   22TCq2    C9  344   2.546   1.904  14.981  0.2293 -0.6493 -0.2720
   22TCq2    O5  345   2.659   1.851  14.947 -0.1205  0.3041  0.2956
   22TCq2    O6  346   2.467   1.873  15.078 -0.1043 -0.3899  0.0922
   22TCq2    H2  347   2.662   2.009  14.758 -0.6686 -2.3316  1.1552
   22TCq2    H3  348   2.357   2.081  15.056 -3.2948 -1.0192 -1.8711
   22TCq2    H4  349   2.432   2.363  14.749  0.6233 -0.3228 -1.8813
   23MPD2     C  350   3.995   3.686  14.890  0.2534  0.2625  0.2134
   23MPD2    C1  351   3.891   3.643  14.969 -0.0627 -0.2682 -0.1214
   23MPD2    C2  352   3.766   3.620  14.913 -0.2839 -0.2286  0.3267
   23MPD2    C3  353   3.737   3.667  14.788  0.0104  0.3374  0.2809
   23MPD2    C4  354   3.840   3.722  14.715 -0.9823 -0.9823 -0.2990
   23MPD2    C5  355   3.968   3.728  14.758 -0.1215 -0.4798  0.0892
   23MPD2     H  356   3.693   3.563  14.969  0.9046 -1.3991  0.6979
   23MPD2    H1  357   3.818   3.755  14.613 -1.0909  1.1414  0.4164
   23MPD2    H2  358   4.097   3.695  14.924  0.6451 -0.8914 -0.6891
   23MPD2    H3  359   4.042   3.758  14.685 -0.3518  0.4557  0.2394
   23MPD2     N  360   3.603   3.670  14.739 -0.5092  0.3805  0.0310
   23MPD2    H5  361   3.597   3.702  14.642 -1.1079 -1.8791 -0.6876
   23MPD2    N1  362   3.920   3.596  15.101 -0.4436  0.5742 -0.2438
   23MPD2    H7  363   3.854   3.537  15.150 -0.8321  1.7769  0.6603
   24TCq2    C1  364   3.480   3.642  14.805 -0.5101  0.9111 -0.5400
   24TCq2    O2  365   3.463   3.616  14.924 -0.1245  0.1707 -0.0151
   24TCq2    C2  366   3.362   3.653  14.722  0.3717 -0.2136 -0.1096
   24TCq2    C3  367   3.249   3.705  14.774  0.3736 -0.4208 -0.3515
   24TCq2    C4  368   3.142   3.719  14.687 -0.0165 -0.1445  0.0815
   24TCq2    C5  369   3.142   3.668  14.560  0.3168  0.7772 -0.0028
   24TCq2    C6  370   3.255   3.601  14.521  0.1746  0.3194 -0.3795
   24TCq2    C7  371   3.369   3.594  14.598  0.9820 -0.1565  0.2949
   24TCq2    C8  372   3.255   3.528  14.395 -0.0980 -0.1361 -0.2539
   24TCq2    O4  373   3.357   3.482  14.354  0.8036  0.4487  0.1010
   24TCq2    C9  374   3.020   3.786  14.728  0.6848 -0.3713  0.3709
   24TCq2    O5  375   3.031   3.853  14.833  0.0063 -0.5229  0.1995
   24TCq2    O6  376   2.931   3.801  14.635 -0.0639  0.1898  0.2986
   24TCq2    H2  377   3.237   3.730  14.879 -0.1323 -1.3897 -0.1784
   24TCq2    H3  378   3.056   3.687  14.496  0.5558  0.2354 -0.4817
   24TCq2    H4  379   3.457   3.544  14.559  1.9484  0.9867  1.0146
   25TMC2    C1  380   3.047   0.082  11.895  0.3360  0.4970  0.9879
   25TMC2    C2  381   3.126   0.047  11.996  0.1135  0.5657 -0.0277
   25TMC2    C3  382   3.151   0.140  12.095  0.0869 -0.5184 -0.2463
   25TMC2    C4  383   2.987   0.204  11.893  0.2642  0.1131 -0.7439
   25TMC2    C5  384   3.004   0.292  11.998  0.1786 -0.2251  0.4535
   25TMC2    C6  385   3.088   0.262  12.102 -0.7797  0.3516  0.0293
   25TMC2     C  386   3.004   4.702  11.800 -0.2501  0.5460  0.2315
   25TMC2     O  387   3.060   4.595  11.803  0.1321  0.0658 -0.0707
   25TMC2     H  388   3.187   4.682  11.982  2.3018  1.7018  2.2493
   25TMC2    H1  389   2.929   0.239  11.808  0.9550 -0.8738 -1.6243
   25TMC2    H2  390   3.111   0.336  12.178  0.0431 -0.0869  0.2148
   25TMC2    C7  391   2.952   0.429  11.999 -0.0173 -0.9517  0.3775
   25TMC2    C8  392   3.221   0.078  12.198  0.3077 -0.8104  0.4622
   25TMC2    O1  393   2.927   0.477  12.109 -0.2936  0.1327  0.1794
   25TMC2    O2  394   3.297   4.713  12.163  0.1850  0.0194 -0.1481
   25TMC2    O5  395   3.218   0.145  12.312  0.0422 -0.5616  0.0162
   25TMC2    H5  396   3.142   0.205  12.330  0.8523 -0.0964  1.8646
   26MPD2     C  397   2.771   4.568  11.371  0.4761  0.4755 -0.6462
   26MPD2    C1  398   2.679   4.635  11.456  0.0037  0.4713 -0.3176
   26MPD2    C2  399   2.729   4.704  11.565  0.3531 -0.2819 -0.2536
   26MPD2    C3  400   2.858   4.686  11.607 -0.2944  0.1858  0.0516
   26MPD2    C4  401   2.944   4.608  11.531 -0.7942  0.0064 -0.0696
   26MPD2    C5  402   2.903   4.547  11.407 -0.6819  0.4221  0.2819
   26MPD2     H  403   2.667   0.040  11.631 -1.2692 -0.5219 -1.5730
   26MPD2    H1  404   3.043   4.574  11.559 -0.6247 -0.2349 -0.9611
   26MPD2    H2  405   2.728   4.519  11.284 -1.0645  2.0597 -0.7810
   26MPD2    H3  406   2.966   4.479  11.351 -1.4526 -0.7049  0.7872
   26MPD2     N  407   2.892   0.020  11.728 -0.2798  0.1999 -0.5388
   26MPD2    H5  408   2.836   0.093  11.770 -0.5356 -2.2849  3.4538
   26MPD2    N1  409   2.549   4.650  11.413  0.0092 -0.2621  0.4433
   26MPD2    H7  410   2.531   4.603  11.325  0.4808 -0.5528  0.5063
   27TMC2    C1  411   2.005   2.945  11.794 -0.4831 -0.1048  0.0280
   27TMC2    C2  412   2.023   2.933  11.665  0.4503 -0.7794  1.0042
   27TMC2    C3  413   2.013   3.041  11.584 -0.0743 -0.2470 -0.3591
   27TMC2    C4  414   1.998   3.065  11.856 -0.1275  0.1005 -0.3567
   27TMC2    C5  415   1.990   3.172  11.777 -0.3423  0.1655 -0.2415
   27TMC2    C6  416   1.999   3.168  11.644  0.2301 -0.1506 -0.5588
   27TMC2     C  417   1.961   2.829  11.869  0.3513  0.5661 -0.1743
   27TMC2     O  418   2.037   2.730  11.877 -0.0856  0.1627  0.4818
   27TMC2     H  419   2.033   2.838  11.614  0.5900  1.6949 -3.5237
   27TMC2    H1  420   2.013   3.073  11.963 -1.2864 -1.5387 -0.0790
   27TMC2    H2  421   1.991   3.256  11.581  0.4631  1.3475  1.5319
   27TMC2    C7  422   1.888   3.265  11.817  0.1666 -0.2965 -0.2248
   27TMC2    C8  423   2.023   3.023  11.443  0.3261  0.4111  0.6503
   27TMC2    O1  424   1.824   3.317  11.722 -0.6300 -0.4434 -0.1452
   27TMC2    O2  425   2.092   2.929  11.400  0.0887 -0.1026  0.1428
   27TMC2    O5  426   1.964   3.120  11.374  0.1742 -0.2547 -0.3299
   27TMC2    H5  427   1.911   3.185  11.425 -1.6840 -0.7959 -1.5707
   28MPD2     C  428   1.663   2.616  12.231  0.2821  0.3755  0.0362
   28MPD2    C1  429   1.600   2.738  12.183 -1.0687  0.0840 -0.5490
   28MPD2    C2  430   1.656   2.808  12.078 -0.3132  0.4451 -0.1722
   28MPD2    C3  431   1.780   2.766  12.027 -0.0317  0.4261 -0.0300
   28MPD2    C4  432   1.838   2.647  12.073  0.1327  0.3180  0.3021
   28MPD2    C5  433   1.781   2.575  12.175  0.5895  0.1664 -0.0374
   28MPD2     H  434   1.617   2.900  12.035  0.5445  0.2321 -1.3981
   28MPD2    H1  435   1.928   2.610  12.024 -0.2460 -1.3326  0.8816
   28MPD2    H2  436   1.621   2.548  12.305  1.1470 -2.2606 -1.8963
   28MPD2    H3  437   1.828   2.487  12.218 -2.3124 -0.1383  2.4954
   28MPD2     N  438   1.835   2.844  11.924 -0.8169 -0.0645  0.1141
   28MPD2    H5  439   1.788   2.926  11.889  0.4471 -0.2324 -1.9514
   28MPD2    N1  440   1.474   2.762  12.243 -0.3828 -0.1218 -0.5849
   28MPD2    H7  441   1.436   2.708  12.320  0.3949 -3.5397 -2.5848
   29MPD2     C  442   0.801   0.188  14.306  0.0008  0.2959 -0.1500
   29MPD2    C1  443   0.874   0.170  14.419  0.8043 -0.4307  0.1725
   29MPD2    C2  444   0.882   0.275  14.505  0.6569 -0.7601 -0.0218
   29MPD2    C3  445   0.826   0.393  14.486 -0.0762  0.2965  0.4550
   29MPD2    C4  446   0.771   0.415  14.363 -0.4697 -0.4669  0.7109
   29MPD2    C5  447   0.752   0.312  14.279  0.6478  0.1778  0.2602
   29MPD2     H  448   0.945   0.261  14.592 -0.5870 -0.8456  0.8669
   29MPD2    H1  449   0.745   0.515  14.333  1.1255 -0.7889 -1.7189
   29MPD2    H2  450   0.784   0.111  14.231  0.3361  0.6684 -0.6079
   29MPD2    H3  451   0.707   0.321  14.181  1.8645  0.1029 -0.2999
   29MPD2     N  452   0.835   0.497  14.579  0.2008 -0.2508  0.8334
   29MPD2    H5  453   0.813   0.590  14.545 -0.6533 -0.4167  0.9531
   29MPD2    N1  454   0.942   0.048  14.447  0.1223  0.3504 -0.2729
   29MPD2    H7  455   1.008   0.057  14.523 -2.6641  2.6151  1.8875
   30TCq2    C1  456   0.869   0.473  14.708  1.2028  0.7097  0.1343
   30TCq2    O2  457   0.879   0.370  14.772 -0.8249 -0.0454  0.3273
   30TCq2    C2  458   0.896   0.589  14.782  0.7067  0.6409 -0.4270
   30TCq2    C3  459   0.892   0.573  14.920 -0.0778  0.3850 -0.0741
   30TCq2    C4  460   0.931   0.670  15.008  0.0805  0.0064 -0.4595
   30TCq2    C5  461   0.988   0.786  14.965 -0.5766 -0.2924 -1.1892
   30TCq2    C6  462   0.986   0.809  14.827  1.2538  0.3248 -0.2628
   30TCq2    C7  463   0.936   0.713  14.735  0.5879  0.0731  0.6048
   30TCq2    C8  464   1.010   0.944  14.778 -0.2708 -0.1368  0.2639
   30TCq2    O4  465   0.953   0.976  14.674  0.0075 -0.6990 -0.3106
   30TCq2    C9  466   0.914   0.656  15.143 -0.2538 -0.0360  0.0943
   30TCq2    O5  467   0.969   0.734  15.221  0.0305 -0.0221  0.1868
   30TCq2    O6  468   0.835   0.570  15.182  0.2088 -0.5250  0.2905
   30TCq2    H2  469   0.853   0.487  14.971  0.9981  0.3972  0.7820
   30TCq2    H3  470   1.010   0.868  15.032  0.2190 -0.2989 -1.4395
   30TCq2    H4  471   0.933   0.737  14.629 -2.6025  1.2020  0.9360
   31MPD2     C  472   4.125   4.176  14.521 -0.1897  0.4594  0.7483
   31MPD2    C1  473   3.991   4.159  14.503 -0.8699  0.1688 -0.6581
   31MPD2    C2  474   3.917   4.123  14.620 -0.0821  0.5560  0.2127
   31MPD2    C3  475   3.975   4.115  14.746 -0.5271 -0.1559  0.1902
   31MPD2    C4  476   4.110   4.133  14.758 -0.5211  0.1904  0.0094
   31MPD2    C5  477   4.185   4.171  14.647  0.2094 -0.0203 -0.0979
   31MPD2     H  478   3.812   4.097  14.618  0.0504  0.1409 -1.6705
   31MPD2    H1  479   4.164   4.113  14.850 -2.5322  2.2713  1.6526
   31MPD2    H2  480   4.195   4.196  14.441  2.5138 -1.1705  2.6879
   31MPD2    H3  481   4.289   4.190  14.672  0.4919 -0.5585 -0.8487
   31MPD2     N  482   3.906   4.068  14.865 -0.2447  0.0205 -0.7641
   31MPD2    H5  483   3.972   4.052  14.941  1.0111 -0.4062 -1.9319
   31MPD2    N1  484   3.937   4.168  14.370 -0.1175  0.6292 -0.7238
   31MPD2    H7  485   4.005   4.156  14.296 -0.8055 -0.2147 -1.2075
   32TCq2    C1  486   3.773   4.035  14.877  0.6276  1.2496 -0.0698
   32TCq2    O2  487   3.689   4.049  14.790  0.1767 -0.5860 -0.4248
   32TCq2    C2  488   3.742   3.982  15.011  0.0089  0.9474  0.2937
   32TCq2    C3  489   3.617   3.938  15.030 -0.1225  0.0504 -0.6370
   32TCq2    C4  490   3.584   3.871  15.145  0.0432  0.5536  0.1325
   32TCq2    C5  491   3.675   3.861  15.250 -0.0812  0.1336 -1.0030
   32TCq2    C6  492   3.800   3.910  15.231 -0.1876  0.7026 -0.7587
   32TCq2    C7  493   3.837   3.975  15.116  0.1239 -0.5266  0.5939
   32TCq2    C8  494   3.886   3.902  15.352 -0.0366 -0.9508  0.0792
   32TCq2    O4  495   3.860   3.820  15.440  0.1663 -0.0263  0.0424
   32TCq2    C9  496   3.443   3.831  15.149  0.2644  0.4721  0.2879
   32TCq2    O5  497   3.366   3.910  15.089 -0.1790 -0.5165  0.1467
   32TCq2    O6  498   3.402   3.764  15.253  0.1451 -0.2353 -0.0255
   32TCq2    H2  499   3.552   3.950  14.944 -0.5840 -4.1591 -0.8609
   32TCq2    H3  500   3.650   3.803  15.339 -2.2741 -0.2628 -1.8599
   32TCq2    H4  501   3.933   4.023  15.106 -1.3410  2.4396  0.7217
   33MPD2     C  502   4.618   1.957  10.195  0.0841  0.3532  0.5750
   33MPD2    C1  503   4.484   1.922  10.172  0.1239  0.0402 -0.1593
   33MPD2    C2  504   4.397   2.010  10.109  0.5354  0.1209  0.2499
   33MPD2    C3  505   4.446   2.136  10.068  0.1889 -0.1502 -0.2884
   33MPD2    C4  506   4.583   2.158  10.083  0.2160  0.1977 -0.5613
   33MPD2    C5  507   4.667   2.071  10.142 -0.0577 -0.2574  0.9528
   33MPD2     H  508   4.291   1.991  10.094  0.7375 -0.5115 -0.3764
   33MPD2    H1  509   4.635   2.247  10.051 -2.5159  1.2433 -2.0222
   33MPD2    H2  510   4.684   1.894  10.253  1.0281  0.0437 -0.8353
   33MPD2    H3  511   0.047   2.099  10.163 -0.5588  1.5680  0.9172
   33MPD2     N  512   4.363   2.238  10.005  0.2289  0.5286  0.0794
   33MPD2    H5  513   4.404   2.323   9.967 -2.7757  1.4118 -1.2259
   33MPD2    N1  514   4.440   1.804  10.240  0.1449 -0.6274 -0.1432
   33MPD2    H7  515   4.510   1.741  10.277  1.6266  0.2999 -1.3206
   34TCq2    C1  516   4.227   2.230   9.998 -0.2217  0.8147  0.4183
   34TCq2    O2  517   4.148   2.157  10.056 -0.4888  0.1941  0.1952
   34TCq2    C2  518   4.163   2.328   9.903  0.6494 -0.2010  0.9046
   34TCq2    C3  519   4.029   2.329   9.888 -0.0967 -0.8440 -0.6401
   34TCq2    C4  520   3.973   2.409   9.787  0.1344 -0.1097 -1.0473
   34TCq2    C5  521   4.043   2.497   9.709  0.0627 -0.0736 -0.4458
   34TCq2    C6  522   4.179   2.490   9.731 -0.0876  0.0350 -0.0013
   34TCq2    C7  523   4.242   2.409   9.829  0.9457 -0.2846  0.7660
   34TCq2    C8  524   4.258   2.594   9.666 -0.0591 -0.3715 -0.5699
   34TCq2    O4  525   4.377   2.601   9.706 -0.1869 -0.2981  0.3942
   34TCq2    C9  526   3.828   2.415   9.786  0.4115  0.4099 -0.2009
   34TCq2    O5  527   3.765   2.393   9.893 -0.2194 -0.1378  0.0482
   34TCq2    O6  528   3.777   2.466   9.683 -0.6536  0.3242  0.2528
   34TCq2    H2  529   3.965   2.282   9.962  0.7782  0.0801  0.7055
   34TCq2    H3  530   3.992   2.568   9.646 -1.7293 -0.5657  0.4427
   34TCq2    H4  531   4.348   2.389   9.821  0.6565 -1.7125  0.3461
   35MPD2     C  532   1.064   3.237  11.576 -1.0191  0.3781  1.0349
   35MPD2    C1  533   1.026   3.104  11.592  0.8207 -0.6156 -0.5076
   35MPD2    C2  534   0.919   3.059  11.516  0.5629  0.3372  0.7501
   35MPD2    C3  535   0.850   3.148  11.441  0.6643 -0.1623 -0.2810
   35MPD2    C4  536   0.889   3.281  11.425  0.6328 -1.0614  0.1834
   35MPD2    C5  537   0.999   3.327  11.493  0.1401 -0.2031  0.2787
   35MPD2     H  538   0.883   2.959  11.532 -0.1115  0.9396  3.0247
   35MPD2    H1  539   0.831   3.347  11.361  0.5050  0.6149  2.0463
   35MPD2    H2  540   1.155   3.280  11.617 -1.8408  0.6288  2.5636
   35MPD2    H3  541   1.042   3.426  11.477  1.2246  0.0096  4.6180
   35MPD2     N  542   0.739   3.090  11.367  0.0110 -0.1911  0.7752
   35MPD2    H5  543   0.727   2.990  11.378  0.8701 -0.4102 -0.2630
   35MPD2    N1  544   1.108   3.019  11.672  0.4649 -0.1331 -0.3246
   35MPD2    H7  545   1.159   3.064  11.747  0.6034 -1.8353  0.6044
   36TCq2    C1  546   0.647   3.150  11.282  0.0139 -0.0363 -0.4533
   36TCq2    O2  547   0.638   3.265  11.246 -0.5301 -0.8002 -0.3107
   36TCq2    C2  548   0.545   3.068  11.223  0.5207  0.3651  0.1150
   36TCq2    C3  549   0.467   3.104  11.118  0.0829  0.4510 -0.2138
   36TCq2    C4  550   0.370   3.015  11.076  0.3151 -0.2009 -0.6304
   36TCq2    C5  551   0.340   2.903  11.147  0.6145  0.6509  0.6909
   36TCq2    C6  552   0.411   2.884  11.263 -0.0083 -0.0643  0.2701
   36TCq2    C7  553   0.522   2.950  11.295  0.4551 -0.2226 -0.3561
   36TCq2    C8  554   0.371   2.775  11.346  0.5530  0.1138 -0.0213
   36TCq2    O4  555   0.450   2.718  11.417 -0.4916 -0.0725 -0.1930
   36TCq2    C9  556   0.272   3.070  10.983  0.3447 -0.3088  0.6425
   36TCq2    O5  557   0.164   3.005  10.972 -0.2069 -0.5640 -0.2731
   36TCq2    O6  558   0.312   3.144  10.888  0.3136  0.3344 -0.4251
   36TCq2    H2  559   0.488   3.195  11.062 -0.0599 -0.1335 -1.2152
   36TCq2    H3  560   0.264   2.835  11.109  0.5997 -0.1531  2.1669
   36TCq2    H4  561   0.565   2.932  11.393  0.1207 -0.6695 -0.2908
   37TMC2    C1  562   2.768   3.209  11.399 -0.1901 -0.3533 -0.5245
   37TMC2    C2  563   2.770   3.127  11.291  0.2533 -0.5407  0.0905
   37TMC2    C3  564   2.886   3.101  11.224  0.7802 -0.0718  0.4702
   37TMC2    C4  565   2.885   3.273  11.436 -0.4514 -0.5622  0.5392
   37TMC2    C5  566   2.996   3.257  11.356 -0.6095  0.4830 -0.1414
   37TMC2    C6  567   2.997   3.170  11.254  0.1612 -0.1988 -0.8356
   37TMC2     C  568   2.642   3.212  11.478  0.1064 -0.1629  0.1343
   37TMC2     O  569   2.545   3.154  11.433 -0.1497  0.5669 -0.2095
   37TMC2     H  570   2.682   3.067  11.267 -0.5489  0.7674 -0.2242
   37TMC2    H1  571   2.887   3.358  11.504 -2.2323 -0.9062  1.0325
   37TMC2    H2  572   3.088   3.151  11.197  1.2591  2.9203 -0.1100
   37TMC2    C7  573   3.117   3.294  11.418 -0.1399 -1.1007  0.2129
   37TMC2    C8  574   2.874   3.025  11.099  0.5103  0.1435  0.4277
   37TMC2    O1  575   3.113   3.321  11.536  0.0248  0.4224  0.7270
   37TMC2    O2  576   2.761   3.016  11.048 -0.2558  0.2426 -0.0858
   37TMC2    O5  577   2.974   2.939  11.082 -0.0895  0.1601  0.4444
   37TMC2    H5  578   3.058   2.962  11.127 -0.2382  3.0527 -0.7900
   38MPD2     C  579   2.369   3.224  11.911  0.1356 -0.6722  0.5312
   38MPD2    C1  580   2.504   3.234  11.947  0.2311  0.2737  0.5756
   38MPD2    C2  581   2.594   3.245  11.838  0.9210  0.4759  0.4290
   38MPD2    C3  582   2.559   3.239  11.708 -0.0385  0.5777  0.7748
   38MPD2    C4  583   2.427   3.250  11.679  0.6420  0.1356  0.3905
   38MPD2    C5  584   2.334   3.242  11.782  0.1119  0.2110 -0.2998
   38MPD2     H  585   2.699   3.258  11.859  0.1138  3.5612  2.6520
   38MPD2    H1  586   2.395   3.253  11.576 -0.4405  0.3540  0.7409
   38MPD2    H2  587   2.292   3.224  11.987  0.7021  0.6047  1.1066
   38MPD2    H3  588   2.236   3.259  11.740 -0.6195  0.6032  1.5969
   38MPD2     N  589   2.660   3.243  11.606 -0.4051  0.9466 -0.0380
   38MPD2    H5  590   2.753   3.267  11.637 -0.7573  1.0017  0.9817
   38MPD2    N1  591   2.545   3.239  12.081 -0.4343 -0.6526 -0.4121
   38MPD2    H7  592   2.642   3.241  12.110 -1.1591 -1.3837  2.0914
   39MPD2     C  593   0.183   4.708   1.689  0.5337  0.2026 -0.5351
   39MPD2    C1  594   0.183   0.116   1.720  0.0438 -0.2578 -0.0011
   39MPD2    C2  595   0.067   0.187   1.708 -0.2362 -0.0183  0.2721
   39MPD2    C3  596   4.671   0.131   1.676  0.1349 -0.3759  0.6112
   39MPD2    C4  597   4.679   0.002   1.626 -0.1225 -0.7614 -0.7305
   39MPD2    C5  598   0.066   4.649   1.645 -0.3844 -0.6102  0.1632
   39MPD2     H  599   0.071   0.294   1.720  1.3091 -0.1872  1.3490
   39MPD2    H1  600   4.591   4.672   1.591 -0.6767 -0.6567  0.5163
   39MPD2    H2  601   0.269   4.645   1.707  0.1047 -0.3353 -0.3364
   39MPD2    H3  602   0.055   4.544   1.617 -4.2378 -1.2072  3.8425
   39MPD2     N  603   4.555   0.202   1.656 -0.2304  0.4765 -0.2852
   39MPD2    H5  604   4.479   0.145   1.619 -1.0484  1.4822 -0.1653
   39MPD2    N1  605   0.298   0.171   1.789  0.7414  0.3468  0.3026
   39MPD2    H7  606   0.383   0.115   1.792  0.2371 -0.6530 -4.0212
   40TCq2    C1  607   0.302   0.293   1.848 -0.3733  0.0323 -0.1960
   40TCq2    O2  608   0.207   0.367   1.866  0.0983 -0.5060  0.3199
   40TCq2    C2  609   0.434   0.328   1.903 -0.2874  0.2026  0.6754
   40TCq2    C3  610   0.437   0.411   2.011 -0.5749 -0.5514  0.1608
   40TCq2    C4  611   0.555   0.436   2.076  1.0572 -0.1398 -0.2811
   40TCq2    C5  612   0.668   0.385   2.028 -0.6368  0.2625  0.4380
   40TCq2    C6  613   0.667   0.301   1.920  0.4542 -0.0283 -0.9018
   40TCq2    C7  614   0.549   0.270   1.857 -0.0617 -0.7498  0.1775
   40TCq2    C8  615   0.783   0.234   1.870  0.1281 -0.4431 -0.6654
   40TCq2    O4  616   0.776   0.141   1.798 -0.0136  0.5013  0.0039
   40TCq2    C9  617   0.551   0.528   2.187  0.4169 -0.1188 -0.6360
   40TCq2    O5  618   0.432   0.559   2.233  0.3784 -0.2237  0.1299
   40TCq2    O6  619   0.664   0.560   2.236  0.5846  0.0030  0.6243
   40TCq2    H2  620   0.345   0.453   2.049  0.2691  3.0360 -1.7516
   40TCq2    H3  621   0.759   0.407   2.082  0.5559  0.5766 -1.7316
   40TCq2    H4  622   0.548   0.209   1.768  0.3008  1.1440 -1.1276
   41TMC2    C1  623   4.691   3.271  13.746 -0.6045 -0.6329 -0.2133
   41TMC2    C2  624   4.573   3.305  13.804  0.2176 -0.2476 -0.1754
   41TMC2    C3  625   4.507   3.397  13.728  0.2469 -0.0183  0.5211
   41TMC2    C4  626   0.006   3.317  13.621 -0.3679 -0.4499  0.0963
   41TMC2    C5  627   4.653   3.402  13.555 -0.2255 -0.9656  0.1370
   41TMC2    C6  628   4.536   3.447  13.613 -0.1929 -0.6627 -0.0916
   41TMC2     C  629   0.040   3.150  13.796  0.2380 -0.6332 -0.1654
   41TMC2     O  630   0.095   3.082  13.709 -0.3609  0.2813  0.3244
   41TMC2     H  631   4.524   3.251  13.885  2.6600 -0.2132  1.3255
   41TMC2    H1  632   0.105   3.298  13.581  0.2095 -0.5780  1.5780
   41TMC2    H2  633   4.476   3.523  13.565 -0.3582 -1.8467 -1.7722
   41TMC2    C7  634   4.688   3.456  13.424  0.3777  0.3364  0.4040
   41TMC2    C8  635   4.379   3.437  13.769 -0.2655  0.8134 -0.5511
   41TMC2    O1  636   4.612   3.543  13.377  0.0328 -0.3724 -0.1293
   41TMC2    O2  637   4.279   3.445  13.700  0.1942  0.1314  0.7612
   41TMC2    O5  638   4.392   3.440  13.902 -0.0469 -0.9136  0.0953
   41TMC2    H5  639   4.476   3.484  13.928 -0.9032  0.7080  0.1851
   42MPD2     C  640   0.085   2.887  13.939  0.5709  0.0166  0.9010
   42MPD2    C1  641   0.034   3.001  13.994 -0.3683 -0.1890  0.2816
   42MPD2    C2  642   4.701   2.991  14.117 -0.1690 -0.3251  0.2426
   42MPD2    C3  643   4.689   2.863  14.178  0.8080  0.3965  0.1553
   42MPD2    C4  644   0.024   2.751  14.122  0.0163  0.2145  0.0352
   42MPD2    C5  645   0.090   2.767  14.002 -0.4921  0.1875 -0.2751
   42MPD2     H  646   4.656   3.081  14.157  2.3515  1.1834 -0.2993
   42MPD2    H1  647   0.012   2.659  14.178  0.3516 -0.1004 -0.4153
   42MPD2    H2  648   0.122   2.886  13.837 -1.3004 -2.4034  0.2620
   42MPD2    H3  649   0.131   2.680  13.952  0.8368  1.5104 -1.4921
   42MPD2     N  650   4.625   2.836  14.304  0.5993  0.1472  0.5403
   42MPD2    H5  651   4.621   2.739  14.335 -0.9824  0.0756  0.1049
   42MPD2    N1  652   0.007   3.123  13.925  0.0390 -0.2522  0.2015
   42MPD2    H7  653   4.692   3.199  13.981  0.8052 -0.4057  0.9218
   43MPD2     C  654   1.367   1.495   1.033 -0.3515  0.1565 -0.7419
   43MPD2    C1  655   1.376   1.387   1.125  0.1900  0.4435 -0.4347
   43MPD2    C2  656   1.254   1.355   1.191 -1.3312 -0.6689 -0.2724
   43MPD2    C3  657   1.136   1.431   1.166 -0.0941 -0.0592 -0.7247
   43MPD2    C4  658   1.149   1.538   1.090 -0.9596 -0.2578  0.5376
   43MPD2    C5  659   1.257   1.567   1.012 -0.6222 -0.1746 -0.3307
   43MPD2     H  660   1.250   1.269   1.257  0.1049 -0.0798  0.5718
   43MPD2    H1  661   1.073   1.614   1.076  1.0038  1.6725  0.1875
   43MPD2    H2  662   1.452   1.523   0.972  0.0943  1.8663  0.6480
   43MPD2    H3  663   1.270   1.653   0.947 -0.6015 -1.0293 -1.4618
   43MPD2     N  664   1.011   1.405   1.218  0.1595  0.7167  0.4434
   43MPD2    H5  665   0.946   1.480   1.198 -0.3771  0.0502 -0.2971
   43MPD2    N1  666   1.496   1.307   1.152 -0.6088  0.1535  0.6920
   43MPD2    H7  667   1.477   1.224   1.207  1.3940 -1.1672 -0.5852
   44TCq2    C1  668   0.685   1.655   1.388 -0.2777  0.0402  0.1298
   44TCq2    O2  669   0.676   1.679   1.267  0.1121 -0.2790  0.2417
   44TCq2    C2  670   0.727   1.524   1.422  0.0845  0.8215  0.7046
   44TCq2    C3  671   0.716   1.481   1.554  0.2271  0.3125  0.4663
   44TCq2    C4  672   0.768   1.359   1.589  0.1271  0.5831  0.2052
   44TCq2    C5  673   0.835   1.280   1.499  0.2811 -0.4828  0.6433
   44TCq2    C6  674   0.846   1.328   1.368  0.3307  0.5102 -0.0677
   44TCq2    C7  675   0.792   1.447   1.329  0.0056 -0.1638  0.2066
   44TCq2    C8  676   0.973   1.301   1.300  0.1688  0.3687 -0.1403
   44TCq2    O4  677   1.043   1.203   1.336 -0.0249  0.0126 -0.3695
   44TCq2    C9  678   0.761   1.304   1.724  0.1634  0.3446 -0.1002
   44TCq2    O5  679   0.700   1.373   1.812 -0.5543  0.2192  0.3769
   44TCq2    O6  680   0.811   1.189   1.743 -0.3368  0.5920 -0.0383
   44TCq2    H2  681   0.644   1.527   1.621  1.3542  1.7374  0.6927
   44TCq2    H3  682   0.883   1.189   1.531 -0.1869 -1.2227 -0.7647
   44TCq2    H4  683   0.782   1.473   1.225 -0.7612 -0.2740  0.2513
   45TMC2    C1  684   2.578   3.924   9.488 -0.6445 -0.2079  0.3765
   45TMC2    C2  685   2.604   3.883   9.356 -0.1207 -0.1149  0.0758
   45TMC2    C3  686   2.609   3.983   9.259 -0.0483  0.6664 -0.3056
   45TMC2    C4  687   2.537   4.050   9.511 -0.1209  0.2770 -0.0243
   45TMC2    C5  688   2.530   4.140   9.414 -0.6689 -0.0159 -0.0802
   45TMC2    C6  689   2.582   4.113   9.285  0.3044 -0.2766 -0.6968
   45TMC2     C  690   2.569   3.819   9.594 -0.3156 -0.0380 -1.2461
   45TMC2     O  691   2.541   3.855   9.710 -0.2391  0.2216 -0.5167
   45TMC2     H  692   2.646   3.785   9.333  1.7091  1.0381 -1.4955
   45TMC2    H1  693   2.524   4.076   9.616  0.9910 -0.9193  0.4060
   45TMC2    H2  694   2.598   4.199   9.220  1.0164  0.0025 -0.1488
   45TMC2    C7  695   2.491   4.278   9.441  0.4915 -0.4317  0.4806
   45TMC2    C8  696   2.703   3.962   9.151 -0.3728 -0.1127 -0.2703
   45TMC2    O1  697   2.479   4.349   9.342 -0.0853 -0.3467 -0.0993
   45TMC2    O2  698   2.733   4.056   9.077  0.2306  0.4134 -0.5758
   45TMC2    O5  699   2.691   3.836   9.110 -0.4576 -0.0678 -0.0800
   45TMC2    H5  700   2.633   3.775   9.160  0.6875 -0.5127  0.7061
   46MPD2     C  701   2.557   3.532   9.716 -0.3269 -0.1223 -0.5332
   46MPD2    C1  702   2.525   3.567   9.587 -0.3414  0.8482  0.1343
   46MPD2    C2  703   2.472   3.471   9.504  0.1140 -0.8631  0.0685
   46MPD2    C3  704   2.447   3.341   9.551  0.1640 -0.3571 -0.5666
   46MPD2    C4  705   2.481   3.303   9.681  0.4406 -0.4841 -0.5288
   46MPD2    C5  706   2.536   3.404   9.760  0.0601  0.3681 -0.6849
   46MPD2     H  707   2.438   3.499   9.405  0.8836 -1.9395 -0.4942
   46MPD2    H1  708   2.483   3.201   9.717  1.6714 -0.1871  0.2661
   46MPD2    H2  709   2.582   3.607   9.790 -0.7560 -0.4542 -0.0568
   46MPD2    H3  710   2.566   3.362   9.855 -0.9202  0.1322 -0.4745
   46MPD2     N  711   2.387   3.244   9.463  0.1214  0.2787 -0.1320
   46MPD2    H5  712   2.370   3.277   9.368 -0.4532  2.0035  0.5845
   46MPD2    N1  713   2.552   3.697   9.531 -0.1673  0.3116  0.5513
   46MPD2    H7  714   2.543   3.705   9.430 -1.5392 -3.0286  0.4202
   47TMC2    C1  715   4.483   4.398   8.579 -0.4640  0.2869 -0.6876
   47TMC2    C2  716   4.432   4.469   8.470  0.2195 -0.5804 -0.0037
   47TMC2    C3  717   4.303   4.520   8.480  0.4469 -0.2411 -0.5805
   47TMC2    C4  718   4.395   4.368   8.687  0.2743 -0.0433 -0.3048
   47TMC2    C5  719   4.261   4.417   8.686 -1.2003  0.5103 -0.1578
   47TMC2    C6  720   4.220   4.491   8.579  0.1632  0.1132  0.6425
   47TMC2     C  721   4.620   4.358   8.585 -0.4296 -0.2086  0.2064
   47TMC2     O  722   4.674   4.351   8.476 -0.2446 -0.3730  0.3978
   47TMC2     H  723   4.491   4.477   8.380  0.2222 -0.4533  0.0104
   47TMC2    H1  724   4.429   4.307   8.770 -0.4991 -0.2327 -0.1299
   47TMC2    H2  725   4.114   4.513   8.574  0.5437  1.6177 -0.7597
   47TMC2    C7  726   4.160   4.354   8.774 -0.2539  0.3551  0.0361
   47TMC2    C8  727   4.250   4.614   8.383 -0.1614  0.3744 -1.1045
   47TMC2    O1  728   4.186   4.238   8.803 -0.3347 -0.7724 -0.1713
   47TMC2    O2  729   4.130   4.612   8.360  0.2168 -0.2733  0.0710
   47TMC2    O5  730   4.343   4.687   8.326 -0.0299 -0.4708 -0.1068
   47TMC2    H5  731   4.432   4.676   8.364 -0.4259 -0.1735  0.9096
   48MPD2     C  732   0.110   4.182   8.676  0.3976 -0.1541  0.0781
   48MPD2    C1  733   0.057   4.276   8.755  0.0933  0.4785 -0.0982
   48MPD2    C2  734   0.115   4.304   8.876 -0.4182  0.3038  0.8601
   48MPD2    C3  735   0.217   4.232   8.927 -0.2764  0.2895 -0.1397
   48MPD2    C4  736   0.275   4.141   8.840 -0.0130 -0.2362 -0.9153
   48MPD2    C5  737   0.223   4.117   8.717  0.0648 -0.6237  0.2869
   48MPD2     H  738   0.079   4.385   8.938 -2.0724  0.0922  0.1858
   48MPD2    H1  739   0.374   4.105   8.864 -0.0303  0.9114  0.8566
   48MPD2    H2  740   0.062   4.148   8.586 -0.8363  2.2503 -0.1706
   48MPD2    H3  741   0.261   4.032   8.662 -1.4575 -1.4224  0.4907
   48MPD2     N  742   0.267   4.262   9.057 -0.0479 -0.7023  0.1336
   48MPD2    H5  743   0.211   4.328   9.110  1.6254  1.4457 -0.7319
   48MPD2    N1  744   4.670   4.350   8.718  0.2289  0.0740 -0.7610
   48MPD2    H7  745   4.622   4.404   8.790  0.1720 -1.2674  0.1923
   49MPD2     C  746   2.158   0.676  10.618 -0.4853  0.1113 -0.0527
   49MPD2    C1  747   2.189   0.670  10.752 -0.1713 -0.0080 -0.6058
   49MPD2    C2  748   2.306   0.733  10.790 -0.1116 -0.2947  0.3439
   49MPD2    C3  749   2.380   0.807  10.703  0.7399 -0.1584  0.5985
   49MPD2    C4  750   2.339   0.825  10.579  0.1751 -0.4171 -0.4880
   49MPD2    C5  751   2.224   0.758  10.537 -0.1112 -0.0166  0.0635
   49MPD2     H  752   2.347   0.710  10.888  1.7253  0.0250 -0.3651
   49MPD2    H1  753   2.409   0.875  10.513 -0.9712  1.2211 -0.4427
   49MPD2    H2  754   2.074   0.624  10.573  0.1054 -0.2430 -0.7403
   49MPD2    H3  755   2.183   0.765  10.437  2.5719 -1.3779 -1.1132
   49MPD2     N  756   2.501   0.877  10.732  0.3458  0.1577  0.9237
   49MPD2    H5  757   2.542   0.922  10.651 -1.1402 -2.8857 -1.5091
   49MPD2    N1  758   2.124   0.580  10.840  0.1329  0.0932  0.3196
   49MPD2    H7  759   2.172   0.560  10.927  0.5270 -0.2163  0.0329
   50TCq2    C1  760   2.004   0.512  10.818  0.4487  0.2714 -0.1547
   50TCq2    O2  761   1.921   0.522  10.729  0.5065 -0.0653 -0.6117
   50TCq2    C2  762   1.963   0.438  10.937 -0.2639  0.0948 -0.4737
   50TCq2    C3  763   1.826   0.404  10.941  0.0093 -0.2561  0.3731
   50TCq2    C4  764   1.782   0.341  11.053  0.2971  0.2880 -0.0645
   50TCq2    C5  765   1.857   0.330  11.166 -0.2707  0.4543 -0.1602
   50TCq2    C6  766   1.980   0.377  11.157 -0.0077  0.5533  0.1862
   50TCq2    C7  767   2.040   0.420  11.046  0.4769  0.5494  0.4403
   50TCq2    C8  768   2.065   0.366  11.279 -0.4940  0.8099 -0.6519
   50TCq2    O4  769   2.186   0.367  11.270  0.1581 -0.1925 -0.1583
   50TCq2    C9  770   1.638   0.307  11.055  0.1851  0.5380  0.2528
   50TCq2    O5  771   1.581   0.324  10.947  0.1979 -0.0770 -0.3171
   50TCq2    O6  772   1.595   0.240  11.150  0.2122 -0.0162 -0.9809
   50TCq2    H2  773   1.761   0.436  10.860 -2.1098 -0.2830  2.0596
   50TCq2    H3  774   1.820   0.285  11.257 -1.0148 -0.6879 -1.0283
   50TCq2    H4  775   2.145   0.448  11.055  0.1149  2.2448 -0.6785
   51MPD2     C  776   3.267   4.378   0.865  0.7632  0.4302 -0.1622
   51MPD2    C1  777   3.161   4.455   0.822  0.5175  0.2686  0.7131
   51MPD2    C2  778   3.107   4.540   0.913 -0.0855 -0.3653  0.1074
   51MPD2    C3  779   3.163   4.562   1.040  0.0714 -0.0513  0.1821
   51MPD2    C4  780   3.283   4.498   1.069 -1.2109  0.3339  0.0020
   51MPD2    C5  781   3.343   4.424   0.975 -0.2778  0.2219  0.0536
   51MPD2     H  782   3.007   4.577   0.894 -0.3177 -1.3608 -0.6218
   51MPD2    H1  783   3.336   4.513   1.163 -1.7186  3.1938 -0.1791
   51MPD2    H2  784   3.320   4.311   0.798  1.5196 -0.3927  1.2470
   51MPD2    H3  785   3.445   4.389   0.988 -0.6104 -0.4651  0.8846
   51MPD2     N  786   3.111   4.653   1.139 -0.5939 -0.4347 -1.2492
   51MPD2    H5  787   3.155   4.649   1.230 -1.4941 -0.7649 -0.8289
   51MPD2    N1  788   3.087   4.426   0.706 -0.5419 -0.2181  0.3448
   51MPD2    H7  789   2.996   4.471   0.697  0.5284  1.8137 -0.2962
   52TCq2    C1  790   3.005   0.018   1.116  0.1766  0.3131  0.3131
   52TCq2    O2  791   2.944   0.047   1.015  1.1134  0.0058  0.4385
   52TCq2    C2  792   2.951   0.064   1.244 -0.1548 -0.2164 -1.0556
   52TCq2    C3  793   2.954   4.701   1.347 -0.1094 -0.2858  1.0894
   52TCq2    C4  794   2.887   0.019   1.462 -0.0269  0.0754 -0.5395
   52TCq2    C5  795   2.840   0.148   1.473 -0.5063 -0.4658  0.4303
   52TCq2    C6  796   2.833   0.225   1.358 -0.5956 -0.6953 -0.1914
   52TCq2    C7  797   2.889   0.184   1.241 -0.1640 -0.2119 -0.0664
   52TCq2    C8  798   2.804   0.360   1.379 -0.3420 -0.0222  0.1856
   52TCq2    O4  799   2.812   0.407   1.494  0.3803 -0.1909 -0.0244
   52TCq2    C9  800   2.872   4.667   1.584  0.4055 -0.4440 -0.2192
   52TCq2    O5  801   2.814   4.711   1.686  0.6807 -0.4837 -0.0492
   52TCq2    O6  802   2.914   4.548   1.572 -0.1168  0.0869 -0.2063
   52TCq2    H2  803   2.985   4.599   1.330  0.4577  0.0616  0.0795
   52TCq2    H3  804   2.805   0.182   1.570 -1.8452 -0.8511  0.0820
   52TCq2    H4  805   2.887   0.252   1.156 -1.0644 -1.1912 -0.8195
   53TMC2    C1  806   3.652   3.348  11.912 -1.4382 -0.1043 -0.8175
   53TMC2    C2  807   3.752   3.314  12.006 -0.2749  0.4376  0.1416
   53TMC2    C3  808   3.712   3.332  12.135 -0.2296  0.6874 -0.3289
   53TMC2    C4  809   3.535   3.407  11.949  0.5364 -0.3687  0.2507
   53TMC2    C5  810   3.515   3.442  12.081 -0.1447 -0.0358 -0.2532
   53TMC2    C6  811   3.595   3.395  12.175  0.6582  0.3411  0.3811
   53TMC2     C  812   3.655   3.296  11.775  0.8806  0.0560  0.5011
   53TMC2     O  813   3.744   3.213  11.750  0.1278  0.1245  0.2533
   53TMC2     H  814   3.852   3.282  11.980  0.3003  2.1088  0.2353
   53TMC2    H1  815   3.477   3.463  11.876 -0.2632  0.5760  1.5953
   53TMC2    H2  816   3.578   3.410  12.281 -0.9139  1.1700  0.0151
   53TMC2    C7  817   3.386   3.500  12.108 -0.4191  0.2591 -0.6474
   53TMC2    C8  818   3.799   3.307  12.241 -0.0445 -0.0876 -0.4146
   53TMC2    O1  819   3.313   3.508  12.011 -0.6252  0.1834 -0.4494
   53TMC2    O2  820   3.835   3.391  12.323 -0.3260  0.6941  0.3355
   53TMC2    O5  821   3.842   3.184  12.234 -0.6398 -0.4282  0.1002
   53TMC2    H5  822   3.794   3.130  12.167  0.3224  0.8015 -1.5732
   54MPD2     C  823   3.630   3.277  11.470 -0.0601 -0.3713 -0.4661
   54MPD2    C1  824   3.527   3.308  11.556 -0.1531  0.7248 -0.3079
   54MPD2    C2  825   3.392   3.308  11.516 -0.2143  0.1071  0.2502
   54MPD2    C3  826   3.362   3.279  11.389 -0.1547 -0.0669  0.0449
   54MPD2    C4  827   3.464   3.255  11.299  0.2907  1.3090  0.0766
   54MPD2    C5  828   3.590   3.244  11.340 -0.0829  0.0307 -0.4383
   54MPD2     H  829   3.319   3.327  11.594 -1.2753  1.0002 -0.9692
   54MPD2    H1  830   3.439   3.221  11.199  0.1417  0.6207  0.3433
   54MPD2    H2  831   3.732   3.258  11.503 -0.3851 -1.0563  0.1434
   54MPD2    H3  832   3.675   3.221  11.277 -0.7339  0.5755 -1.5085
   54MPD2     N  833   3.228   3.282  11.341  0.2825  0.1983  0.3673
   54MPD2    H5  834   3.223   3.260  11.242 -1.0364 -2.8888  1.1262
   54MPD2    N1  835   3.550   3.332  11.698  0.1426 -0.0894  0.0157
   54MPD2    H7  836   3.471   3.366  11.752  1.1250  3.0025 -0.5472
   55MPD2     C  837   3.376   1.709   0.128  0.1485  0.4550 -0.1628
   55MPD2    C1  838   3.394   1.586   0.193  0.3644  0.1711 -0.5336
   55MPD2    C2  839   3.332   1.562   0.312  0.0549 -0.4703  0.1681
   55MPD2    C3  840   3.256   1.660   0.373 -0.4405 -0.4786 -0.6787
   55MPD2    C4  841   3.248   1.783   0.317  0.1038  0.1408  0.4499
   55MPD2    C5  842   3.294   1.800   0.193 -0.1556  0.3605 -0.1090
   55MPD2     H  843   3.352   1.473   0.372  2.3609 -0.5467 -0.7142
   55MPD2    H1  844   3.195   1.866   0.363  0.5096  1.6158 -1.7132
   55MPD2    H2  845   3.421   1.727   0.031 -0.7811  1.9042 -0.3352
   55MPD2    H3  846   3.274   1.895   0.146 -1.3823  0.8136  1.3464
   55MPD2     N  847   3.201   1.626   0.501 -0.8516 -0.5413  0.2392
   55MPD2    H5  848   3.238   1.539   0.537 -0.9588 -0.8089 -0.3029
   55MPD2    N1  849   3.477   1.492   0.128 -0.0179 -0.2492 -0.1900
   55MPD2    H7  850   3.527   1.533   0.049 -0.1884  2.2942  0.9943
   56TCq2    C1  851   3.487   1.360   0.155 -0.5565  0.1109  0.6888
   56TCq2    O2  852   3.414   1.291   0.228  0.3637 -0.6717  0.1169
   56TCq2    C2  853   3.597   1.297   0.081  0.1738 -0.5354  0.0043
   56TCq2    C3  854   3.679   1.369  17.692  0.5617  0.2668 -0.4317
   56TCq2    C4  855   3.789   1.310  17.635 -1.0630  0.5721  0.6882
   56TCq2    C5  856   3.819   1.180  17.656 -0.2198 -0.3830  0.0857
   56TCq2    C6  857   3.737   1.110   0.043 -0.3312 -0.0971  0.4790
   56TCq2    C7  858   3.624   1.163   0.101 -0.5165 -0.0450 -0.6570
   56TCq2    C8  859   3.760   0.964   0.054 -0.1139 -0.1145  1.2579
   56TCq2    O4  860   3.852   0.928  17.675  0.3039 -0.0862 -0.5770
   56TCq2    C9  861   3.861   1.386  17.531 -0.2515 -0.6687 -0.3628
   56TCq2    O5  862   3.834   1.509  17.512  0.1060 -0.1865  0.3822
   56TCq2    O6  863   3.954   1.324  17.464  0.9484 -0.1673 -0.0932
   56TCq2    H2  864   3.669   1.476  17.678 -1.3461 -0.0587 -1.4899
   56TCq2    H3  865   3.909   1.144  17.607  1.0585  0.3562  1.8786
   56TCq2    H4  866   3.556   1.103   0.160  1.7576  0.3710  2.4124
   57TMC2    C1  867   2.907   2.111  13.270 -0.0189  0.5916 -0.1023
   57TMC2    C2  868   2.821   2.115  13.163 -0.0391  0.0743  0.6932
   57TMC2    C3  869   2.872   2.151  13.042 -0.2246 -0.6383 -0.7175
   57TMC2    C4  870   3.034   2.160  13.267  0.2814  0.3793  0.7044
   57TMC2    C5  871   3.079   2.184  13.141 -0.2046 -0.1058 -0.3314
   57TMC2    C6  872   2.999   2.195  13.030  0.4974 -0.8042 -0.0882
   57TMC2     C  873   2.845   2.086  13.401  0.1389 -1.1066 -0.2612
   57TMC2     O  874   2.725   2.067  13.404 -0.2204 -0.0381 -0.5078
   57TMC2     H  875   2.720   2.082  13.183  0.6026 -2.2447  0.0664
   57TMC2    H1  876   3.100   2.155  13.352 -1.1813  1.1008  1.8862
   57TMC2    H2  877   3.042   2.223  12.935  0.0317  2.1619  0.5905
   57TMC2    C7  878   3.226   2.181  13.127 -0.0269 -0.2432 -0.1429
   57TMC2    C8  879   2.798   2.092  12.937  0.3770  0.0381 -0.3659
   57TMC2    O1  880   3.293   2.117  13.209  0.2955  0.5257  0.5337
   57TMC2    O2  881   2.760   1.975  12.953 -0.2437 -0.2869 -0.2262
   57TMC2    O5  882   2.837   2.145  12.819 -0.5322 -0.3655  0.3254
   57TMC2    H5  883   2.850   2.242  12.827  0.8861 -0.6164  1.1376
   58MPD2     C  884   2.837   2.005  13.906 -0.4828 -0.0727  0.1954
   58MPD2    C1  885   2.752   2.066  13.819  0.0854 -0.2948 -0.6667
   58MPD2    C2  886   2.776   2.074  13.684  1.3352 -0.3653 -0.4900
   58MPD2    C3  887   2.899   2.032  13.633 -0.5646 -0.8524 -0.3419
   58MPD2    C4  888   2.982   1.973  13.720  0.0792 -0.3889  0.4903
   58MPD2    C5  889   2.953   1.954  13.855  0.3147 -0.0527  0.4460
   58MPD2     H  890   2.700   2.115  13.618  2.5260  0.6321 -1.2432
   58MPD2    H1  891   3.083   1.938  13.700 -0.1289 -1.5204  1.3783
   58MPD2    H2  892   2.810   1.979  14.007 -1.0807 -1.7919 -0.4034
   58MPD2    H3  893   3.024   1.894  13.911 -0.2439 -0.0566  1.1429
   58MPD2     N  894   2.934   2.048  13.499 -0.3593 -0.8124 -0.0035
   58MPD2    H5  895   3.031   2.034  13.472 -1.0885 -0.3635 -2.9497
   58MPD2    N1  896   2.630   2.125  13.863  0.0528  0.0707 -0.2896
   58MPD2    H7  897   2.560   2.164  13.801 -0.1071 -0.5177 -0.4785
   59MPD2     C  898   1.369   2.442  12.885 -1.0976  0.0490 -0.3089
   59MPD2    C1  899   1.492   2.381  12.896 -0.6878  0.3613 -0.5535
   59MPD2    C2  900   1.569   2.408  13.010 -0.4430  1.2068 -0.1679
   59MPD2    C3  901   1.527   2.511  13.095  0.4157 -1.1627 -0.0868
   59MPD2    C4  902   1.405   2.569  13.083 -0.9423 -0.0969 -0.4290
   59MPD2    C5  903   1.318   2.522  12.987 -0.4701 -0.0548  0.9911
   59MPD2     H  904   1.662   2.353  13.016 -0.2646  1.7887  2.2025
   59MPD2    H1  905   1.360   2.628  13.162 -1.2184 -0.3729 -0.3791
   59MPD2    H2  906   1.294   2.412  12.814 -1.1853 -1.3016  0.3499
   59MPD2    H3  907   1.215   2.557  12.989 -0.9312 -1.3661  0.1846
   59MPD2     N  908   1.604   2.557  13.209 -0.1746 -0.4682 -0.5941
   59MPD2    H5  909   1.562   2.633  13.262  1.1070  0.2983 -0.6879
   59MPD2    N1  910   1.538   2.289  12.806  0.0629  0.9334 -0.0625
   59MPD2    H7  911   1.608   2.231  12.850 -0.4804  0.8339  0.6839
   60TCq2    C1  912   1.490   2.272  12.679  0.7269  0.0221 -0.3592
   60TCq2    O2  913   1.407   2.343  12.625  0.6327  0.6096  0.6285
   60TCq2    C2  914   1.558   2.171  12.609  0.7103 -0.2055 -0.1051
   60TCq2    C3  915   1.638   2.083  12.680  0.1275  0.2066  0.1948
   60TCq2    C4  916   1.753   2.030  12.616 -0.3951  0.5451  0.0265
   60TCq2    C5  917   1.774   2.051  12.485 -0.9384 -0.0555 -0.3408
   60TCq2    C6  918   1.684   2.131  12.417 -0.0621  0.0255  0.0607
   60TCq2    C7  919   1.582   2.198  12.480  0.2318 -0.3708  0.1213
   60TCq2    C8  920   1.710   2.161  12.278  0.0536  0.5028 -1.1610
   60TCq2    O4  921   1.810   2.112  12.228  0.3209  0.0002  0.1511
   60TCq2    C9  922   1.853   1.957  12.689  0.3217  0.1794  0.5663
   60TCq2    O5  923   1.833   1.946  12.815 -0.8483  0.0077  0.1953
   60TCq2    O6  924   1.960   1.925  12.630  0.2447 -0.2847  0.0831
   60TCq2    H2  925   1.618   2.038  12.776  0.7220 -0.0761  0.1922
   60TCq2    H3  926   1.848   1.986  12.440 -0.8717 -1.7704  2.2501
   60TCq2    H4  927   1.530   2.282  12.435 -1.7298 -0.7035  1.7345
   61MPD2     C  928   0.232   3.854  14.320 -0.1325 -0.0071 -0.1685
   61MPD2    C1  929   0.140   3.804  14.413  0.7227 -0.6476 -0.8033
   61MPD2    C2  930   0.009   3.796  14.378  0.1764  0.2007  0.0098
   61MPD2    C3  931   4.672   3.847  14.266  0.0614 -0.1207 -0.8599
   61MPD2    C4  932   0.036   3.900  14.173  0.3235 -0.1751  0.6256
   61MPD2    C5  933   0.173   3.893  14.199  0.4357 -0.1472 -0.0714
   61MPD2     H  934   4.673   3.756  14.460 -0.8539 -1.6262 -1.6149
   61MPD2    H1  935   0.005   3.938  14.077  2.3722  0.5011  0.2443
   61MPD2    H2  936   0.336   3.870  14.344 -0.0670 -2.1017  0.9224
   61MPD2    H3  937   0.240   3.927  14.121  0.4803  1.1618  0.5340
   61MPD2     N  938   4.534   3.858  14.238 -0.7897 -0.0068 -0.7594
   61MPD2    H5  939   4.526   3.878  14.139  1.7879  0.4658 -0.8615
   61MPD2    N1  940   0.168   3.758  14.543  0.8060 -0.1252 -0.1518
   61MPD2    H7  941   0.099   3.713  14.602  1.3041 -1.8689 -0.8643
   62TCq2    C1  942   0.294   3.753  14.600 -0.1907 -0.1172  0.1710
   62TCq2    O2  943   0.401   3.770  14.543  0.1101  0.0722  0.0442
   62TCq2    C2  944   0.285   3.732  14.743  1.0693 -0.1947 -0.4231
   62TCq2    C3  945   0.393   3.668  14.801 -0.9720 -0.0961 -0.1014
   62TCq2    C4  946   0.412   3.680  14.939 -0.2381  0.2343 -0.5897
   62TCq2    C5  947   0.324   3.759  15.012 -0.2473  0.1486  0.3135
   62TCq2    C6  948   0.224   3.819  14.952 -0.5786  0.5837 -0.0193
   62TCq2    C7  949   0.202   3.807  14.821  0.0482 -0.1387 -0.6108
   62TCq2    C8  950   0.149   3.920  15.034 -0.3450  0.4383 -0.4152
   62TCq2    O4  951   0.209   4.005  15.100  0.0167 -0.2064 -0.2089
   62TCq2    C9  952   0.532   3.640  15.000  0.2914 -0.3605 -0.4567
   62TCq2    O5  953   0.558   3.676  15.118  0.3204 -0.6299  0.1233
   62TCq2    O6  954   0.623   3.592  14.925 -0.4454 -0.6031 -0.3102
   62TCq2    H2  955   0.462   3.605  14.747 -0.0889 -0.3640  1.3310
   62TCq2    H3  956   0.334   3.773  15.119  0.2415 -2.4154  0.6123
   62TCq2    H4  957   0.121   3.864  14.777 -0.3992 -0.1785  0.1558
   63TMC2    C1  958   4.536   3.763  10.726 -0.7163  0.2426  0.5422
   63TMC2    C2  959   4.644   3.750  10.812  0.3210 -0.0856 -0.0067
   63TMC2    C3  960   0.032   3.831  10.799  0.7228 -0.2072 -1.1943
   63TMC2    C4  961   4.544   3.843  10.617 -0.4265  0.2793 -1.1369
   63TMC2    C5  962   4.654   3.926  10.609 -0.6738 -0.0087  0.1642
   63TMC2    C6  963   0.041   3.922  10.693  0.4029 -0.1716  1.0419
   63TMC2     C  964   4.432   3.664  10.719  0.6927 -0.1991 -0.4598
   63TMC2     O  965   4.456   3.573  10.797  0.1962 -0.1578 -0.2387
   63TMC2     H  966   4.643   3.681  10.895  1.8376 -0.3802 -0.2322
   63TMC2    H1  967   4.466   3.857  10.543 -0.7724 -0.1350 -0.8469
   63TMC2    H2  968   0.116   4.000  10.691  0.2905 -0.1020 -0.3690
   63TMC2    C7  969   4.659   4.007  10.484 -0.3045 -0.5139 -0.1645
   63TMC2    C8  970   0.108   3.860  10.918 -0.0542  0.0060 -0.1459
   63TMC2    O1  971   4.559   3.997  10.413 -0.1629  0.0394  0.5248
   63TMC2    O2  972   0.071   3.802  11.024  0.1018  0.1391 -0.0538
   63TMC2    O5  973   0.240   3.887  10.887  0.2875  0.3162 -0.0732
   63TMC2    H5  974   0.248   3.924  10.796  0.1345  1.0273  0.1980
   64MPD2     C  975   4.111   3.385  10.425  0.0031  0.0274  0.7745
   64MPD2    C1  976   4.194   3.349  10.527  0.2193 -0.4245  0.1046
   64MPD2    C2  977   4.271   3.446  10.593 -0.9797  0.0623  0.1399
   64MPD2    C3  978   4.262   3.578  10.557 -0.0932 -0.3183 -0.7774
   64MPD2    C4  979   4.180   3.611  10.453  1.0192 -0.2373  0.0524
   64MPD2    C5  980   4.108   3.515  10.385 -0.8761 -0.3834 -0.2202
   64MPD2     H  981   4.335   3.417  10.676  0.2974 -0.7257 -1.1246
   64MPD2    H1  982   4.154   3.714  10.430  1.7468 -0.3735 -1.3309
   64MPD2    H2  983   4.053   3.310  10.372  0.4993  0.1427  0.0755
   64MPD2    H3  984   4.052   3.538  10.296 -0.2505  0.3856 -0.4187
   64MPD2     N  985   4.347   3.682  10.615 -0.6733  0.5413 -0.0534
   64MPD2    H5  986   4.333   3.776  10.581  0.8848  0.5063 -0.7615
   64MPD2    N1  987   4.227   3.214  10.547 -0.5817  0.1818 -0.1240
   64MPD2    H7  988   4.316   3.195  10.593 -1.1064 -0.2760  0.7064
   65MPD2     C  989   0.413   3.433  15.848 -0.1713 -0.3155 -0.4362
   65MPD2    C1  990   0.467   3.399  15.726 -0.4239  0.0109 -0.4893
   65MPD2    C2  991   0.401   3.316  15.641 -0.3499  0.3981 -0.2963
   65MPD2    C3  992   0.282   3.257  15.680 -0.2413 -0.2367  0.1080
   65MPD2    C4  993   0.232   3.290  15.799 -1.1178 -0.3455 -0.1146
   65MPD2    C5  994   0.294   3.377  15.878  0.4564  0.8559  0.5597
   65MPD2     H  995   0.450   3.301  15.545 -1.5438 -3.2776 -0.3263
   65MPD2    H1  996   0.137   3.244  15.827 -1.8658  1.2413 -0.0206
   65MPD2    H2  997   0.458   3.492  15.926  2.8324 -0.2565 -2.1977
   65MPD2    H3  998   0.253   3.415  15.970 -0.1566 -0.0101  0.6420
   65MPD2     N  999   0.195   3.187  15.596 -0.0974 -0.3600 -0.1392
   65MPD2    H5 1000   0.111   3.155  15.643 -0.3256  1.3373  0.6280
   65MPD2    N1 1001   0.588   3.456  15.685 -0.3956 -0.6890  0.0651
   65MPD2    H7 1002   0.620   3.427  15.594 -2.7733  1.6603 -1.5232
   66TCq2    C1 1003   0.658   3.549  15.752 -0.1674 -0.0887  0.2332
   66TCq2    O2 1004   0.645   3.608  15.861  0.4218  0.1991  0.1965
   66TCq2    C2 1005   0.761   3.604  15.668  0.2896  0.8218  1.5378
   66TCq2    C3 1006   0.792   3.536  15.558  0.0473 -0.0642 -0.1514
   66TCq2    C4 1007   0.835   3.601  15.442 -0.8958 -0.7078 -0.3967
   66TCq2    C5 1008   0.843   3.733  15.440 -0.2010  0.5142 -0.3493
   66TCq2    C6 1009   0.809   3.801  15.552 -0.3211 -0.7679 -0.7567
   66TCq2    C7 1010   0.766   3.739  15.669 -0.1869  0.1029 -0.3969
   66TCq2    C8 1011   0.798   3.946  15.538  0.1228 -0.5511 -0.3390
   66TCq2    O4 1012   0.858   3.990  15.444 -0.2152 -0.2513 -0.2014
   66TCq2    C9 1013   0.878   3.520  15.329 -0.0151  0.2815  0.0495
   66TCq2    O5 1014   0.899   3.394  15.356 -0.0519 -0.1838 -0.1036
   66TCq2    O6 1015   0.882   3.576  15.215  0.3729  0.5871  0.7337
   66TCq2    H2 1016   0.784   3.428  15.553  0.2608 -0.0191 -1.5970
   66TCq2    H3 1017   0.881   3.778  15.350  1.5904 -2.1634 -0.9411
   66TCq2    H4 1018   0.748   3.790  15.764  0.5373 -1.4990  0.5924
   67MPD2     C 1019   1.137   2.519  14.065  0.0483  0.4653  0.0801
   67MPD2    C1 1020   1.031   2.501  14.149 -0.8767  0.4214 -1.1074
   67MPD2    C2 1021   0.915   2.466  14.088 -0.5360  0.0813  0.2839
   67MPD2    C3 1022   0.903   2.456  13.949  0.4612  0.3738 -0.6643
   67MPD2    C4 1023   1.006   2.480  13.865 -1.1961 -0.2771 -0.3376
   67MPD2    C5 1024   1.124   2.501  13.931  0.2275  0.4263  0.6720
   67MPD2     H 1025   0.833   2.443  14.155 -0.1825  1.1202  1.0736
   67MPD2    H1 1026   1.001   2.464  13.758 -1.1847 -0.8898 -0.2426
   67MPD2    H2 1027   1.232   2.557  14.099  1.0410 -1.3967 -0.6342
   67MPD2    H3 1028   1.217   2.522  13.879  1.0575  0.4593  2.1884
   67MPD2     N 1029   0.780   2.411  13.886  0.1064 -0.4732  0.2173
   67MPD2    H5 1030   0.768   2.429  13.787 -1.3625  1.1018  0.6791
   67MPD2    N1 1031   1.017   2.531  14.286 -0.0102  0.4785 -0.4783
   67MPD2    H7 1032   0.923   2.533  14.324  0.9954  2.1162  1.8540
   68TCq2    C1 1033   1.125   2.553  14.369 -0.0465 -0.9464 -0.1865
   68TCq2    O2 1034   1.245   2.549  14.342  0.5711 -0.0978 -0.3281
   68TCq2    C2 1035   1.088   2.574  14.507  0.7052 -0.7602 -0.0026
   68TCq2    C3 1036   0.973   2.643  14.531  0.9137 -0.1261 -0.1250
   68TCq2    C4 1037   0.967   2.719  14.645  0.6644  0.1626  0.5055
   68TCq2    C5 1038   1.072   2.715  14.737 -0.3325  0.1700  0.1893
   68TCq2    C6 1039   1.180   2.633  14.712  0.2610  0.3059 -0.8764
   68TCq2    C7 1040   1.199   2.575  14.594  0.0676 -0.9891 -0.4969
   68TCq2    C8 1041   1.287   2.629  14.811  0.1359 -0.2626 -0.5416
   68TCq2    O4 1042   1.393   2.582  14.775 -0.2761  0.7773  0.6187
   68TCq2    C9 1043   0.846   2.780  14.685  0.0052  0.5265  0.3681
   68TCq2    O5 1044   0.816   2.789  14.812  0.7344  0.1574 -0.5845
   68TCq2    O6 1045   0.766   2.822  14.595  0.1492  0.3127  0.1680
   68TCq2    H2 1046   0.879   2.643  14.477  0.7094 -2.1462  0.2091
   68TCq2    H3 1047   1.054   2.770  14.829 -2.2432 -0.5671  0.2511
   68TCq2    H4 1048   1.286   2.515  14.569 -0.7948 -1.7788 -1.6212
   69TMC2    C1 1049   3.070   3.946  12.212  0.3863 -0.5114 -1.1595
   69TMC2    C2 1050   2.980   3.974  12.121  0.5150 -1.0718 -0.4336
   69TMC2    C3 1051   3.014   3.955  11.993  0.5800 -0.5475  0.2914
   69TMC2    C4 1052   3.195   3.914  12.181 -0.6216 -0.5772  0.0374
   69TMC2    C5 1053   3.229   3.892  12.051  0.0549 -0.7377 -0.1600
   69TMC2    C6 1054   3.137   3.909  11.956  0.4741 -0.3848 -0.2953
   69TMC2     C 1055   3.034   3.966  12.348 -1.3722  0.1452  0.4025
   69TMC2     O 1056   2.920   4.006  12.370 -0.1793  0.3618 -0.4170
   69TMC2     H 1057   2.877   4.000  12.143  1.0423  0.5512  0.1643
   69TMC2    H1 1058   3.263   3.886  12.261 -0.4877 -0.1728  0.0657
   69TMC2    H2 1059   3.158   3.908  11.849 -1.3939  0.8382 -0.6659
   69TMC2    C7 1060   3.360   3.861  11.994  0.0970 -0.1079 -0.6037
   69TMC2    C8 1061   2.912   4.006  11.901 -0.0125 -0.5087 -0.1486
   69TMC2    O1 1062   3.380   3.845  11.872 -0.4939 -0.1195 -0.0935
   69TMC2    O2 1063   2.801   3.960  11.910 -0.3812 -0.4104  0.5256
   69TMC2    O5 1064   2.975   4.040  11.789 -0.6855  0.0530  0.0332
   69TMC2    H5 1065   3.062   4.084  11.803 -1.3907  1.6242 -0.6202
   70MPD2     C 1066   3.237   4.006  12.655 -0.4358 -0.0020  0.1307
   70MPD2    C1 1067   3.130   3.976  12.580 -0.6097 -0.8197 -0.5616
   70MPD2    C2 1068   3.012   3.953  12.645 -0.0174  0.0524  0.5600
   70MPD2    C3 1069   3.004   3.936  12.773 -0.2965 -0.0521  0.0935
   70MPD2    C4 1070   3.116   3.966  12.848  0.2474 -0.2120  0.4771
   70MPD2    C5 1071   3.235   4.008  12.789  0.4718  0.4791  0.0126
   70MPD2     H 1072   2.926   3.919  12.588  0.5866 -2.1215  0.9252
   70MPD2    H1 1073   3.105   3.955  12.955  1.2555  2.1993  0.8375
   70MPD2    H2 1074   3.331   4.043  12.614  0.6518  0.0946  2.6875
   70MPD2    H3 1075   3.323   4.034  12.846  1.4093 -1.1160 -0.6859
   70MPD2     N 1076   2.886   3.892  12.841  0.0214  0.1293  0.4031
   70MPD2    H5 1077   2.887   3.877  12.942  0.3410 -2.5325  0.0168
   70MPD2    N1 1078   3.140   3.974  12.435  0.5255 -0.2803  0.0069
   70MPD2    H7 1079   3.234   3.964  12.398  0.5712  0.9907 -0.2305
   71TMC2    C1 1080   4.322   4.644   1.919 -1.0519  0.1722 -0.0844
   71TMC2    C2 1081   4.381   4.659   2.043 -0.0779 -0.7761  0.8142
   71TMC2    C3 1082   4.310   4.708   2.144  0.4057 -0.0373  0.2158
   71TMC2    C4 1083   4.195   4.694   1.894 -0.4614 -0.2874  0.5386
   71TMC2    C5 1084   4.129   0.004   2.010  0.2834 -0.3803  0.1176
   71TMC2    C6 1085   4.179   0.026   2.138  0.0088 -0.2865  0.2591
   71TMC2     C 1086   4.390   4.571   1.814  0.0473 -0.4322  0.7443
   71TMC2     O 1087   4.364   4.607   1.700 -0.3906  0.4897 -0.0265
   71TMC2     H 1088   4.486   4.636   2.053  0.2940 -0.4070 -2.4617
   71TMC2    H1 1089   4.151   4.693   1.795  0.3990  2.4350  0.1334
   71TMC2    H2 1090   4.121   0.053   2.226 -0.1313 -1.6993  0.6130
   71TMC2    C7 1091   4.003   0.081   1.993  0.6684  0.2618  0.1577
   71TMC2    C8 1092   4.375   0.002   2.273  0.7477  0.1955  0.4877
   71TMC2    O1 1093   3.986   0.178   2.070  0.1333 -0.2472 -0.8517
   71TMC2    O2 1094   4.324   4.705   2.382 -0.0696 -0.3872  0.0432
   71TMC2    O5 1095   4.462   0.097   2.242  0.0229 -0.1820 -0.2400
   71TMC2    H5 1096   4.473   0.121   2.148 -2.3459 -2.1918 -1.0259
   72MPD2     C 1097   4.719   4.209   1.664  0.2710  0.8098  0.1192
   72MPD2    C1 1098   4.630   4.275   1.587 -0.3179  0.2368 -0.4176
   72MPD2    C2 1099   4.562   4.375   1.655 -0.4791 -0.4973  0.0044
   72MPD2    C3 1100   4.572   4.396   1.793 -0.0750  0.6844 -0.1703
   72MPD2    C4 1101   4.666   4.330   1.867 -0.2713  0.7248  0.2490
   72MPD2    C5 1102   0.018   4.233   1.797  0.8164  0.8709 -0.6749
   72MPD2     H 1103   4.498   4.448   1.606  0.2053 -0.5430 -0.9481
   72MPD2    H1 1104   4.681   4.361   1.970  3.7573 -0.5982  0.0813
   72MPD2    H2 1105   0.066   4.140   1.618 -0.6938  0.5414 -0.9487
   72MPD2    H3 1106   0.095   4.186   1.857 -0.5906  1.0698  1.2658
   72MPD2     N 1107   4.476   4.477   1.862  0.2958 -0.1980 -0.1187
   72MPD2    H5 1108   4.466   4.462   1.962 -1.0278  0.2393 -0.1820
   72MPD2    N1 1109   4.609   4.265   1.451  1.0483 -0.1831 -0.1439
   72MPD2    H7 1110   4.562   4.334   1.393 -0.9356 -0.5578  1.0311
   73TMC2    C1 1111   4.705   1.444  14.218 -0.2444 -0.0821 -0.3758
   73TMC2    C2 1112   4.710   1.585  14.220  1.1172 -0.3411 -0.7355
   73TMC2    C3 1113   0.067   1.632  14.320  0.2315 -0.4038 -0.2510
   73TMC2    C4 1114   0.052   1.364  14.307 -0.1214  1.1240 -0.1069
   73TMC2    C5 1115   0.136   1.419  14.390 -0.4217  0.5010  0.6823
   73TMC2    C6 1116   0.149   1.551  14.401 -0.6052  0.6330  0.9868
   73TMC2     C 1117   0.015   1.401  14.084  0.3363  0.0646 -0.8488
   73TMC2     O 1118   0.066   1.286  14.088  0.3619 -0.0974 -0.4309
   73TMC2     H 1119   4.654   1.648  14.152  2.0956  0.8510 -0.4340
   73TMC2    H1 1120   0.022   1.260  14.320 -0.4485  1.2685  0.2588
   73TMC2    H2 1121   0.224   1.595  14.465  1.2783 -1.8969  0.5435
   73TMC2    C7 1122   0.249   1.349  14.414  0.2580 -0.0424 -0.5472
   73TMC2    C8 1123   0.068   1.764  14.371  0.3561 -0.2071  0.6470
   73TMC2    O1 1124   0.322   1.384  14.504 -0.6669  0.1626  0.0930
   73TMC2    O2 1125   0.167   1.828  14.399  0.9244  0.2640  1.1578
   73TMC2    O5 1126   4.670   1.815  14.357  0.1825 -0.5593 -0.0764
   73TMC2    H5 1127   4.606   1.748  14.325  0.7677  0.2207 -2.8574
   74MPD2     C 1128   0.118   1.429  13.589  0.0368  0.1429 -0.6089
   74MPD2    C1 1129   0.172   1.343  13.686  0.0693  0.2866 -0.1076
   74MPD2    C2 1130   0.132   1.367  13.817  0.1328  0.1718 -0.3906
   74MPD2    C3 1131   0.019   1.444  13.851 -0.2760 -0.1976 -0.6712
   74MPD2    C4 1132   4.693   1.527  13.747  0.0396  0.3563  0.6013
   74MPD2    C5 1133   0.025   1.523  13.619  0.0193  0.4444 -0.5600
   74MPD2     H 1134   0.183   1.313  13.896  0.1006  0.5189 -0.1351
   74MPD2    H1 1135   4.608   1.591  13.771 -1.1869 -0.7633 -0.7478
   74MPD2    H2 1136   0.141   1.414  13.484 -0.2685  1.6023 -0.8841
   74MPD2    H3 1137   4.701   1.581  13.541 -2.4808  0.1672  0.7637
   74MPD2     N 1138   4.698   1.473  13.981 -0.3010  0.4851  0.3363
   74MPD2    H5 1139   4.619   1.534  13.997 -1.3111 -0.9105  0.6952
   74MPD2    N1 1140   0.265   1.244  13.659 -0.4354 -0.1532  0.2066
   74MPD2    H7 1141   0.300   1.204  13.746 -1.2044 -0.4933  0.3623
   75TCq2    C1 1142   0.686   2.337  13.953 -0.0773 -0.1265 -0.3001
   75TCq2    O2 1143   0.678   2.286  14.062  0.4243 -0.4677  0.5420
   75TCq2    C2 1144   0.568   2.302  13.874 -0.3103 -0.3192 -0.4546
   75TCq2    C3 1145   0.455   2.260  13.940 -0.2271 -0.1534 -0.7771
   75TCq2    C4 1146   0.338   2.253  13.865 -0.6198 -0.7634 -0.3201
   75TCq2    C5 1147   0.344   2.262  13.729 -0.1082 -0.2191  0.1063
   75TCq2    C6 1148   0.455   2.305  13.667  0.1246  0.4146 -0.0197
   75TCq2    C7 1149   0.569   2.332  13.739 -0.0299 -0.5193  0.5575
   75TCq2    C8 1150   0.428   2.390  13.555  0.2997 -0.2805 -0.2009
   75TCq2    O4 1151   0.472   2.349  13.452 -0.0985 -0.5888  0.5951
   75TCq2    C9 1152   0.215   2.205  13.922 -0.2650  0.1984 -0.2066
   75TCq2    O5 1153   0.218   2.187  14.049  0.4740 -0.0590 -0.1523
   75TCq2    O6 1154   0.112   2.223  13.850 -0.0581  0.0720 -0.0885
   75TCq2    H2 1155   0.463   2.247  14.047 -1.6548 -0.0617 -0.6619
   75TCq2    H3 1156   0.256   2.243  13.668  0.3017 -0.5480 -0.3839
   75TCq2    H4 1157   0.653   2.377  13.687  0.4978 -2.1575  0.0079
   76MPD2     C 1158   4.518   3.424  11.764 -0.2716  0.2473 -0.7466
   76MPD2    C1 1159   4.407   3.346  11.735  0.0449  0.0912 -0.8992
   76MPD2    C2 1160   4.416   3.205  11.754 -0.0263 -0.1895  0.3548
   76MPD2    C3 1161   4.529   3.144  11.807  0.6530 -0.1590  1.0881
   76MPD2    C4 1162   4.635   3.229  11.842 -0.0634 -0.4980  0.4633
   76MPD2    C5 1163   4.624   3.367  11.821 -0.8600  0.1489 -0.0906
   76MPD2     H 1164   4.337   3.140  11.719  0.2897 -0.4461  0.1239
   76MPD2    H1 1165   0.004   3.194  11.887 -0.2758  2.2048  3.0682
   76MPD2    H2 1166   4.521   3.531  11.746  0.1027  0.9858  3.9208
   76MPD2    H3 1167   4.701   3.439  11.847  0.2044 -1.2734  0.6720
   76MPD2     N 1168   4.555   3.007  11.814  0.2740  0.3371  0.0368
   76MPD2    H5 1169   4.649   2.987  11.846  0.2742  0.0798 -0.1182
   76MPD2    N1 1170   4.297   3.400  11.669  0.3915  0.1482 -0.5407
   76MPD2    H7 1171   4.231   3.334  11.630  0.2831 -0.0897  0.0433
   77TCq2    C1 1172   4.480   2.909  11.760 -0.0276 -0.1467 -0.8987
   77TCq2    O2 1173   4.366   2.906  11.715  0.2878  0.2891  0.5721
   77TCq2    C2 1174   4.554   2.784  11.771 -0.0635  0.5539  0.2267
   77TCq2    C3 1175   4.489   2.668  11.735  0.5088  0.0368 -0.3629
   77TCq2    C4 1176   4.549   2.547  11.757  0.7376 -0.1043  0.1499
   77TCq2    C5 1177   4.671   2.538  11.815 -0.5621 -0.8650  0.4275
   77TCq2    C6 1178   0.012   2.654  11.858  0.0155 -0.5680  0.4830
   77TCq2    C7 1179   4.682   2.778  11.833 -0.8142  0.3646  0.0546
   77TCq2    C8 1180   0.135   2.642  11.936 -0.5090  0.1803  0.1875
   77TCq2    O4 1181   0.189   2.530  11.930  0.0999 -0.0351  0.2516
   77TCq2    C9 1182   4.482   2.417  11.718 -0.2087 -0.2801 -0.5506
   77TCq2    O5 1183   4.543   2.312  11.747 -0.0469  0.4109 -0.7432
   77TCq2    O6 1184   4.358   2.431  11.690 -0.5909  0.2882  0.6036
   77TCq2    H2 1185   4.395   2.672  11.682  0.1462  0.5080  0.3217
   77TCq2    H3 1186   4.716   2.439  11.821 -1.9348 -1.4472  1.1401
   77TCq2    H4 1187   0.024   2.861  11.856  0.7246 -0.5870 -0.8435
   78MPD1     C 1188   4.175   4.028   1.551  0.2203  0.0423 -0.3910
   78MPD1    C1 1189   4.189   4.106   1.664 -0.7489 -0.6935  0.0430
   78MPD1    C2 1190   4.291   4.084   1.756 -0.3634  0.5322  0.1925
   78MPD1    C3 1191   4.384   3.990   1.729 -0.0256  0.1589  0.6775
   78MPD1    C4 1192   4.372   3.914   1.615 -0.3933 -0.7188  0.4386
   78MPD1    C5 1193   4.269   3.936   1.526 -0.4989  0.6968 -0.2145
   78MPD1     H 1194   4.293   4.129   1.854  1.2435  1.0033 -0.0640
   78MPD1    H1 1195   4.424   3.825   1.583  2.2054 -0.5570  4.1630
   78MPD1    H2 1196   4.091   4.030   1.483 -0.3051  1.1862  0.2967
   78MPD1    H3 1197   4.257   3.885   1.431  0.0417 -0.5913  0.4061
   78MPD1     N 1198   4.493   3.983   1.815 -0.2083 -0.7272 -0.0021
   78MPD1    H5 1199   4.500   4.040   1.898 -4.1719 -0.7456  0.3443
   78MPD1    N1 1200   4.078   4.180   1.700  0.0215  0.7308  0.1115
   78MPD1    H6 1201   4.021   4.203   1.618 -1.4282  1.3628  1.3017
   78MPD1    H7 1202   4.089   4.255   1.768  0.3016  1.4380 -0.7048
   79TCq2    C1 1203   4.599   3.895   1.799  0.5299  0.0800  0.8938
   79TCq2    O2 1204   4.613   3.805   1.716 -0.3701 -0.4804 -0.0243
   79TCq2    C2 1205   4.707   3.905   1.900  0.6651  0.0355  0.4801
   79TCq2    C3 1206   4.695   3.990   2.003 -0.1451  0.4912  0.2512
   79TCq2    C4 1207   0.078   4.023   2.083 -0.4240 -0.3327  0.2759
   79TCq2    C5 1208   0.200   3.958   2.066  0.4852 -0.3765 -0.1458
   79TCq2    C6 1209   0.211   3.868   1.962 -0.4679 -0.8463 -0.3776
   79TCq2    C7 1210   0.099   3.839   1.877 -0.1462 -0.1606  0.3181
   79TCq2    C8 1211   0.339   3.813   1.930 -0.5773 -0.4663 -0.0880
   79TCq2    O4 1212   0.441   3.870   1.979 -0.3017  0.3336  0.3095
   79TCq2    C9 1213   0.068   4.134   2.168 -0.0965 -0.3278 -0.1266
   79TCq2    O5 1214   4.682   4.196   2.172 -0.2854  0.5028  0.4230
   79TCq2    O6 1215   0.174   4.167   2.226  0.0476 -0.3172  0.5446
   79TCq2    H2 1216   4.603   4.045   2.023 -0.6130 -0.0425 -0.4640
   79TCq2    H3 1217   0.285   3.987   2.125  0.3576  1.1259 -0.6992
   79TCq2    H4 1218   0.101   3.767   1.797 -0.1202  1.0871 -0.8038
   80MPD2     C 1219   3.315   3.125  12.076 -0.3549  0.4358  0.1184
   80MPD2    C1 1220   3.187   3.089  12.028 -0.0212  0.1968  0.1162
   80MPD2    C2 1221   3.079   3.121  12.107 -0.3097  0.0171 -0.7739
   80MPD2    C3 1222   3.101   3.177  12.232 -0.0288 -0.2443 -0.1303
   80MPD2    C4 1223   3.226   3.188  12.289 -1.0316 -0.5310  0.3281
   80MPD2    C5 1224   3.332   3.160  12.211 -0.0022 -0.2839 -0.2809
   80MPD2     H 1225   2.977   3.119  12.071  0.2508 -1.6385 -2.2242
   80MPD2    H1 1226   3.234   3.227  12.389 -0.5088 -1.9265  0.8291
   80MPD2    H2 1227   3.403   3.108  12.016 -1.3072  1.5242 -1.6013
   80MPD2    H3 1228   3.432   3.183  12.246 -0.6694 -1.1197  2.1406
   80MPD2     N 1229   2.991   3.223  12.314  0.0084 -0.1342  0.1937
   80MPD2    H5 1230   3.009   3.240  12.413 -1.0159  2.4464 -0.0652
   80MPD2    N1 1231   3.153   3.061  11.891  0.4436  0.1087 -0.6391
   80MPD2    H7 1232   3.055   3.046  11.872 -0.1760  0.9577  1.9108
   81TCq2    C1 1233   3.240   3.057  11.786  0.5213 -0.2841  0.6506
   81TCq2    O2 1234   3.363   3.074  11.783  1.0660 -0.5145  0.4262
   81TCq2    C2 1235   3.178   3.002  11.667  1.5184 -0.1058  0.0344
   81TCq2    C3 1236   3.255   2.984  11.556 -0.4944  0.2187  0.0294
   81TCq2    C4 1237   3.202   2.933  11.438 -0.0185 -0.1278  0.0146
   81TCq2    C5 1238   3.078   2.880  11.432  0.5956 -0.1226  0.0452
   81TCq2    C6 1239   2.996   2.911  11.543  0.2802  0.1659  0.7202
   81TCq2    C7 1240   3.042   2.963  11.663  0.2995  0.0150  0.8426
   81TCq2    C8 1241   2.905   2.800  11.566  0.0718 -0.1853  0.1344
   81TCq2    O4 1242   2.874   2.742  11.462 -0.4570  0.2237 -0.2854
   81TCq2    C9 1243   3.285   2.932  11.319  0.2199 -0.1583 -0.1633
   81TCq2    O5 1244   3.408   2.906  11.328 -0.3086  0.1699 -0.7243
   81TCq2    O6 1245   3.223   2.943  11.207 -0.1860 -0.1265  0.4102
   81TCq2    H2 1246   3.350   3.034  11.548 -0.0958 -0.1580  2.5689
   81TCq2    H3 1247   3.041   2.821  11.349 -1.0606 -1.6550  1.8804
   81TCq2    H4 1248   2.975   2.994  11.742  1.5503  0.9901  1.5050
   82MPD2     C 1249   1.588   2.426  10.649  0.2082 -0.1076 -0.2846
   82MPD2    C1 1250   1.504   2.376  10.744 -0.2588  0.3857  0.3920
   82MPD2    C2 1251   1.541   2.349  10.869 -0.0234  0.1542 -0.1161
   82MPD2    C3 1252   1.672   2.372  10.903 -0.4607 -0.0471  0.4984
   82MPD2    C4 1253   1.761   2.423  10.808 -0.6612  0.4160  1.0824
   82MPD2    C5 1254   1.716   2.469  10.689 -0.7168  0.0394 -0.1200
   82MPD2     H 1255   1.471   2.317  10.945  0.3944  1.2075  0.7187
   82MPD2    H1 1256   1.860   2.436  10.850  1.4222 -0.5348 -3.5179
   82MPD2    H2 1257   1.555   2.442  10.547 -0.7168 -0.5523 -0.0544
   82MPD2    H3 1258   1.783   2.506  10.612 -1.1645 -2.1135 -1.5257
   82MPD2     N 1259   1.724   2.330  11.024 -0.7785  0.0222  0.2888
   82MPD2    H5 1260   1.823   2.349  11.037 -0.5910  0.0240 -1.1208
   82MPD2    N1 1261   1.378   2.329  10.692  0.8084 -0.0020  0.0981
   82MPD2    H7 1262   1.365   2.318  10.592  1.4416 -1.0582  0.1388
   83TCq2    C1 1263   1.659   2.282  11.135 -0.0080 -0.3455  0.4887
   83TCq2    O2 1264   1.532   2.265  11.153  0.0570 -0.1576 -0.0405
   83TCq2    C2 1265   1.747   2.245  11.240 -0.2928 -0.4500 -0.4735
   83TCq2    C3 1266   1.881   2.280  11.235 -0.4969  1.2428  0.3279
   83TCq2    C4 1267   1.955   2.216  11.333  0.2986  0.2578  0.2577
   83TCq2    C5 1268   1.905   2.132  11.429 -0.8068  0.0479  0.3271
   83TCq2    C6 1269   1.774   2.113  11.426 -0.3715  1.1046 -0.3852
   83TCq2    C7 1270   1.693   2.164  11.334  0.2425 -0.6467 -0.1906
   83TCq2    C8 1271   1.710   2.015  11.512  0.0022 -0.3197 -0.6036
   83TCq2    O4 1272   1.597   2.048  11.551 -0.4645  0.2635 -0.1801
   83TCq2    C9 1273   2.095   2.249  11.335  0.5235  0.3738  0.2563
   83TCq2    O5 1274   2.139   2.323  11.243  0.0913  0.0233 -0.3767
   83TCq2    O6 1275   2.154   2.220  11.440 -0.1121 -0.3396 -0.0668
   83TCq2    H2 1276   1.916   2.353  11.163  2.6636 -0.8588 -0.2459
   83TCq2    H3 1277   1.962   2.089  11.510 -2.6126 -1.4335  0.7980
   83TCq2    H4 1278   1.593   2.120  11.334  0.1878 -0.5958 -4.5708
   84TCq2    C1 1279   2.555   0.906  10.856  0.7117  0.1890 -0.3579
   84TCq2    O2 1280   2.517   0.858  10.965  0.3612 -0.2896 -0.3728
   84TCq2    C2 1281   2.648   1.019  10.866  0.7356 -0.2890  0.4812
   84TCq2    C3 1282   2.696   1.074  10.753  0.4119  0.7783 -0.2455
   84TCq2    C4 1283   2.785   1.178  10.769 -0.4425 -0.1598  0.0385
   84TCq2    C5 1284   2.817   1.225  10.896 -0.2889  0.8838  0.4262
   84TCq2    C6 1285   2.753   1.173  11.008 -0.3138  0.2118  0.0028
   84TCq2    C7 1286   2.678   1.063  10.993  0.3648  0.1582 -0.0614
   84TCq2    C8 1287   2.738   1.255  11.125  0.3115  0.5659 -0.0355
   84TCq2    O4 1288   2.679   1.200  11.219  0.2122  0.1553  0.0917
   84TCq2    C9 1289   2.846   1.235  10.653  0.2870  0.0882 -0.4218
   84TCq2    O5 1290   2.826   1.180  10.540 -0.0544 -0.2595 -0.2357
   84TCq2    O6 1291   2.913   1.341  10.659 -0.1479  0.4781  0.2514
   84TCq2    H2 1292   2.665   1.045  10.653 -1.2756  1.7023  0.0098
   84TCq2    H3 1293   2.889   1.305  10.904  0.9826 -0.4328  2.1061
   84TCq2    H4 1294   2.629   1.020  11.079 -0.9719  0.7407 -0.5227
   85MPD2     C 1295   2.626   4.388  16.019 -0.2062  0.4872  0.3247
   85MPD2    C1 1296   2.705   4.292  15.958 -0.0543  0.4007  0.1772
   85MPD2    C2 1297   2.798   4.326  15.862  0.3432 -0.5345 -0.7775
   85MPD2    C3 1298   2.813   4.459  15.820 -0.3209 -0.2714 -0.4644
   85MPD2    C4 1299   2.733   4.553  15.878 -0.2070  0.3557 -0.4311
   85MPD2    C5 1300   2.631   4.515  15.967 -0.1273  0.2003  0.7603
   85MPD2     H 1301   2.864   4.251  15.820 -0.1304 -1.1882 -0.3435
   85MPD2    H1 1302   2.734   4.658  15.854  0.6749  0.1337 -1.3624
   85MPD2    H2 1303   2.554   4.362  16.097 -0.0142 -0.6266  0.1249
   85MPD2    H3 1304   2.576   4.594  16.018 -0.1310  0.2625  0.6617
   85MPD2     N 1305   2.896   4.490  15.713 -0.1768 -0.2118 -0.1149
   85MPD2    H5 1306   2.949   4.414  15.673  3.3384  2.2377 -0.1988
   85MPD2    N1 1307   2.691   4.148  15.992  0.0228  0.6987  0.1374
   85MPD2    H7 1308   2.753   4.081  15.949  1.5212  1.9111  0.4160
   86TCq2    C1 1309   2.929   4.613  15.664  0.0490 -0.6055  0.0421
   86TCq2    O2 1310   2.888   0.000  15.699 -0.1235  0.5125 -0.0351
   86TCq2    C2 1311   3.049   4.605  15.577 -0.8486 -0.5883  0.7698
   86TCq2    C3 1312   3.089   4.718  15.519  0.1128  0.0485  0.3616
   86TCq2    C4 1313   3.199   4.721  15.445  0.3414  0.7498  0.7280
   86TCq2    C5 1314   3.279   4.611  15.429  0.5798  0.1128  0.5346
   86TCq2    C6 1315   3.241   4.496  15.491  0.4059 -0.0340 -0.2660
   86TCq2    C7 1316   3.126   4.489  15.568  0.2740 -0.9224 -0.3217
   86TCq2    C8 1317   3.334   4.391  15.502 -0.8228  0.0972  0.0293
   86TCq2    O4 1318   3.294   4.280  15.535  0.0479  0.4229 -0.3630
   86TCq2    C9 1319   3.240   0.115  15.376 -0.4758 -0.1284  0.3867
   86TCq2    O5 1320   3.158   0.213  15.369  0.2372  0.0510 -0.5776
   86TCq2    O6 1321   3.356   0.121  15.328  0.9128  0.0123  0.1941
   86TCq2    H2 1322   3.028   0.082  15.497 -0.6038 -0.9213 -1.5479
   86TCq2    H3 1323   3.372   4.623  15.374  1.8794 -0.1163  2.6631
   86TCq2    H4 1324   3.099   4.393  15.610 -0.3855 -0.5683  0.0696
   87MPD2     C 1325   4.561   3.490   1.378 -0.0987 -0.4076  0.1028
   87MPD2    C1 1326   4.541   3.399   1.272  0.3382 -0.0567  0.5701
   87MPD2    C2 1327   4.489   3.441   1.148 -0.1372 -0.2837  0.9531
   87MPD2    C3 1328   4.457   3.573   1.124  0.9567  0.1155  0.2229
   87MPD2    C4 1329   4.476   3.663   1.231  0.2443 -0.0867  0.6526
   87MPD2    C5 1330   4.529   3.622   1.351  0.6917 -0.2189 -0.1488
   87MPD2     H 1331   4.460   3.369   1.073  0.5659 -0.9553  1.3293
   87MPD2    H1 1332   4.454   3.769   1.226  0.6001  0.0404  1.7069
   87MPD2    H2 1333   4.583   3.459   1.480 -1.8886  0.9992  0.9169
   87MPD2    H3 1334   4.542   3.694   1.431  3.1604 -2.1440  1.2018
   87MPD2     N 1335   4.407   3.621   1.000 -0.6994 -0.6876 -0.4397
   87MPD2    H5 1336   4.386   3.720   1.003 -0.7472 -0.6446 -2.5773
   87MPD2    N1 1337   4.585   3.267   1.295 -0.0028 -0.4240  0.3811
   87MPD2    H7 1338   4.640   3.252   1.378  3.0317  0.4947 -1.4794
   88TCq2    C1 1339   4.606   3.177   1.195 -0.2881 -0.0427 -0.9695
   88TCq2    O2 1340   4.559   3.174   1.081 -0.2993  0.4440 -0.2289
   88TCq2    C2 1341   4.715   3.082   1.222 -0.2088 -0.9083 -0.2412
   88TCq2    C3 1342   0.010   3.027   1.346  0.2872 -0.4928 -0.5661
   88TCq2    C4 1343   0.066   2.901   1.367  0.1195  0.3423 -0.1928
   88TCq2    C5 1344   0.091   2.822   1.257  0.7391  0.3372 -0.6921
   88TCq2    C6 1345   0.068   2.874   1.131 -0.6051  0.4391 -0.3636
   88TCq2    C7 1346   0.019   3.002   1.117 -1.3657 -0.2234 -0.1142
   88TCq2    C8 1347   0.119   2.816   1.012 -0.7922  0.3549  0.2008
   88TCq2    O4 1348   0.142   2.897   0.921 -0.0968  0.0037  0.4138
   88TCq2    C9 1349   0.086   2.844   1.501 -0.5245  0.6628  0.2253
   88TCq2    O5 1350   0.108   2.927   1.591 -0.0581  0.1278 -0.4060
   88TCq2    O6 1351   0.107   2.723   1.507 -0.8846  0.2348  0.0680
   88TCq2    H2 1352   4.720   3.083   1.438  0.6419 -1.3319  0.0049
   88TCq2    H3 1353   0.121   2.719   1.275 -0.6387  0.2300  1.0517
   88TCq2    H4 1354   0.009   3.047   1.019  1.3126  0.3168 -0.1164
   89MPD2     C 1355   1.075   0.160   1.876  0.0772 -0.3156  0.2412
   89MPD2    C1 1356   1.025   0.287   1.894 -0.5473  0.2238  0.5786
   89MPD2    C2 1357   1.117   0.392   1.896 -0.3904  0.4388  0.1498
   89MPD2    C3 1358   1.253   0.373   1.882  0.2084 -0.4600  0.0752
   89MPD2    C4 1359   1.302   0.243   1.874  0.0504  0.5199 -0.2515
   89MPD2    C5 1360   1.216   0.144   1.872 -0.2633 -0.7752  0.5152
   89MPD2     H 1361   1.071   0.490   1.898 -1.2470  0.0515 -0.4163
   89MPD2    H1 1362   1.408   0.221   1.871  0.0855  0.7238 -0.5603
   89MPD2    H2 1363   1.012   0.073   1.885 -0.6930  0.2545  0.4004
   89MPD2    H3 1364   1.248   0.040   1.869 -1.0301 -0.9544 -1.2136
   89MPD2     N 1365   1.332   0.485   1.869  0.1487  0.1229  0.3134
   89MPD2    H5 1366   1.286   0.575   1.858 -0.6276 -0.1077  1.8174
   89MPD2    N1 1367   0.890   0.313   1.904 -0.5638 -0.0000  0.5371
   89MPD2    H7 1368   0.859   0.407   1.926 -0.2938 -0.8203  4.4008
   90TCq2    C1 1369   1.466   0.494   1.846  0.8372  1.0168 -0.3987
   90TCq2    O2 1370   1.546   0.406   1.878 -0.2494  0.4296  0.5849
   90TCq2    C2 1371   1.508   0.625   1.809  0.0063 -0.7718 -0.2214
   90TCq2    C3 1372   1.641   0.660   1.830 -0.4384  0.5915  0.7683
   90TCq2    C4 1373   1.698   0.766   1.771  0.9941 -0.5934 -0.8429
   90TCq2    C5 1374   1.622   0.849   1.696  0.2108 -0.7877 -0.3913
   90TCq2    C6 1375   1.489   0.819   1.673  0.2474 -0.0966 -0.0451
   90TCq2    C7 1376   1.428   0.710   1.735 -0.0635  0.7380  1.0630
   90TCq2    C8 1377   1.405   0.920   1.619  0.6434 -0.2668 -0.6151
   90TCq2    O4 1378   1.283   0.901   1.637 -0.0711 -0.1887 -0.2214
   90TCq2    C9 1379   1.840   0.799   1.799  0.4668 -0.4315 -0.0106
   90TCq2    O5 1380   1.889   0.908   1.755  0.1663 -0.3708  0.7411
   90TCq2    O6 1381   1.902   0.718   1.873 -0.1786 -0.4173 -0.4094
   90TCq2    H2 1382   1.709   0.591   1.878 -0.6907  1.0764  1.8143
   90TCq2    H3 1383   1.674   0.925   1.638  1.7256 -1.0987  0.5553
   90TCq2    H4 1384   1.329   0.682   1.700  0.4282  0.4281 -0.0445
   91TMC2    C1 1385   2.732   1.034  16.169 -0.9769 -0.2308 -0.2361
   91TMC2    C2 1386   2.768   1.020  16.299  0.0259 -0.1978 -0.1364
   91TMC2    C3 1387   2.676   0.965  16.383  0.5280 -0.4927 -0.1162
   91TMC2    C4 1388   2.610   1.001  16.120  0.2636 -0.1829  0.2962
   91TMC2    C5 1389   2.530   0.938  16.212 -0.2403 -1.1436 -0.8843
   91TMC2    C6 1390   2.557   0.923  16.343  0.4128 -0.6664 -0.4363
   91TMC2     C 1391   2.831   1.059  16.062 -0.0520 -0.5710  0.2726
   91TMC2     O 1392   2.800   1.039  15.947  0.5674 -0.1388  0.2606
   91TMC2     H 1393   2.872   1.036  16.329 -0.4699  2.0333  0.4079
   91TMC2    H1 1394   2.587   1.025  16.017  1.1233  0.6299  0.2905
   91TMC2    H2 1395   2.484   0.862  16.395 -0.7582 -1.3560 -2.9080
   91TMC2    C7 1396   2.399   0.896  16.174 -0.1875 -0.0492  0.2298
   91TMC2    C8 1397   2.727   0.906  16.501  0.0460  0.4218  0.5087
   91TMC2    O1 1398   2.320   0.911  16.266 -0.0762 -0.7277  0.0070
   91TMC2    O2 1399   2.703   0.791  16.538  0.2375  0.3921 -0.2106
   91TMC2    O5 1400   2.810   0.990  16.561 -0.3051 -0.1216 -0.3768
   91TMC2    H5 1401   2.805   1.082  16.527  0.4069  0.0490 -0.0178
   92MPD2     C 1402   3.070   1.140  15.911 -0.0128 -0.4336  0.2106
   92MPD2    C1 1403   3.076   1.092  16.041  0.2421  1.1080 -0.0078
   92MPD2    C2 1404   3.191   1.051  16.106  0.6694  1.1529 -0.3009
   92MPD2    C3 1405   3.305   1.058  16.032 -0.3971 -0.0371 -0.4470
   92MPD2    C4 1406   3.302   1.120  15.908 -0.7624  0.6640 -0.3661
   92MPD2    C5 1407   3.185   1.156  15.848  0.1783  0.7245 -0.1353
   92MPD2     H 1408   3.190   1.005  16.204  0.1955 -0.8152 -1.2328
   92MPD2    H1 1409   3.391   1.118  15.847 -0.1524  0.9133  0.5092
   92MPD2    H2 1410   2.980   1.169  15.859 -0.4919 -0.6224  0.9179
   92MPD2    H3 1411   3.178   1.209  15.754  0.5908 -2.5297 -1.9972
   92MPD2     N 1412   3.419   1.005  16.090 -0.5942  0.1510  0.3843
   92MPD2    H5 1413   3.418   0.972  16.186 -0.0221  0.2672  0.4319
   92MPD2    N1 1414   2.956   1.069  16.115  0.2101 -0.3868 -0.0368
   92MPD2    H7 1415   2.975   1.020  16.202 -0.8350  0.0557  0.4336
   93MPD2     C 1416   0.108   0.309  13.565 -0.6061  0.0936  0.0782
   93MPD2    C1 1417   0.066   0.411  13.646  0.0328 -0.0655 -0.4220
   93MPD2    C2 1418   4.657   0.446  13.632 -0.0308 -0.4216  0.0732
   93MPD2    C3 1419   4.571   0.392  13.543 -0.0455  0.6515 -0.7339
   93MPD2    C4 1420   4.624   0.299  13.456  0.3603  0.4171 -0.1975
   93MPD2    C5 1421   0.032   0.257  13.463 -0.0710 -1.0759 -0.0211
   93MPD2     H 1422   4.608   0.503  13.710  3.7816  1.6274  0.9597
   93MPD2    H1 1423   4.573   0.255  13.371  1.9008  1.0674 -1.4617
   93MPD2    H2 1424   0.210   0.274  13.557  0.1401  1.6964  2.4902
   93MPD2    H3 1425   0.077   0.187  13.394 -0.1023 -0.6175 -0.5030
   93MPD2     N 1426   4.440   0.437  13.512  0.0734  0.5543 -0.1462
   93MPD2    H5 1427   4.411   0.388  13.428  0.4410  1.9548 -1.0871
   93MPD2    N1 1428   0.142   0.465  13.751 -0.0172 -0.1010 -0.4922
   93MPD2    H7 1429   0.095   0.518  13.824 -0.8587 -1.0359 -0.3492
   94TCq2    C1 1430   0.277   0.465  13.757  1.3052 -0.3096  0.7025
   94TCq2    O2 1431   0.350   0.402  13.681 -0.4175 -0.4319 -0.5734
   94TCq2    C2 1432   0.324   0.548  13.866  0.1381  0.2840  0.1968
   94TCq2    C3 1433   0.247   0.641  13.928 -0.6406  0.7626 -0.5968
   94TCq2    C4 1434   0.293   0.708  14.034 -0.2775  0.0849  0.5105
   94TCq2    C5 1435   0.418   0.684  14.080  0.5402 -0.3873 -0.6655
   94TCq2    C6 1436   0.500   0.584  14.021  0.0436 -0.5394  0.8965
   94TCq2    C7 1437   0.452   0.527  13.904  0.0843  0.4258 -0.2322
   94TCq2    C8 1438   0.641   0.585  14.043 -0.3717 -0.3884  0.1246
   94TCq2    O4 1439   0.708   0.498  13.989 -0.3361 -0.6326 -0.3064
   94TCq2    C9 1440   0.208   0.798  14.095  0.3092 -0.4416 -0.4027
   94TCq2    O5 1441   0.247   0.861  14.195  0.0037 -0.5645  0.1610
   94TCq2    O6 1442   0.110   0.836  14.030  0.5301 -0.2776 -0.3529
   94TCq2    H2 1443   0.147   0.666  13.893 -1.1936  2.3650  2.0573
   94TCq2    H3 1444   0.438   0.733  14.174 -0.5675  1.5675 -1.4412
   94TCq2    H4 1445   0.508   0.458  13.842  0.4126 -0.2088  0.7825
   95TMC2    C1 1446   4.567   2.317  15.958  0.4782 -0.3026 -0.1393
   95TMC2    C2 1447   4.607   2.186  15.958 -0.4641 -0.2438 -0.4325
   95TMC2    C3 1448   4.609   2.124  16.078  0.3233 -1.1430  0.0637
   95TMC2    C4 1449   4.542   2.389  16.075 -0.4483  0.3526 -0.5776
   95TMC2    C5 1450   4.543   2.320  16.189 -0.1774 -0.3775 -0.0311
   95TMC2    C6 1451   4.582   2.188  16.199 -0.2320 -0.1940 -0.6739
   95TMC2     C 1452   4.587   2.394  15.836 -0.7705 -0.3190 -0.2616
   95TMC2     O 1453   4.613   2.511  15.854  0.2002 -0.2305  0.2632
   95TMC2     H 1454   4.618   2.125  15.868 -0.7731  1.0634 -1.3545
   95TMC2    H1 1455   4.511   2.492  16.079  0.2086  0.4514  2.4353
   95TMC2    H2 1456   4.600   2.123  16.284  1.6397  1.2944  0.0654
   95TMC2    C7 1457   4.527   2.391  16.305 -0.0303 -0.2008 -0.5821
   95TMC2    C8 1458   4.605   1.981  16.088  0.4155 -0.0185  0.0928
   95TMC2    O1 1459   4.574   2.503  16.302  0.4014 -0.0989  0.0974
   95TMC2    O2 1460   4.550   1.913  16.172  0.1633  0.1250 -0.3536
   95TMC2    O5 1461   4.714   1.920  16.022  0.1532 -0.2108  0.4736
   95TMC2    H5 1462   0.045   1.986  15.973 -0.1271 -1.2121 -1.1965
   96MPD2     C 1463   4.692   2.433  15.339  0.2603  0.1816 -0.3331
   96MPD2    C1 1464   4.683   2.527  15.438  0.1408 -1.2132 -0.3003
   96MPD2    C2 1465   4.664   2.499  15.569 -0.2077 -0.5301 -0.1771
   96MPD2    C3 1466   4.628   2.366  15.601  0.0247 -0.0851 -0.3426
   96MPD2    C4 1467   4.627   2.271  15.498 -0.0990  0.3081 -0.4082
   96MPD2    C5 1468   4.655   2.305  15.372  0.1653 -0.7324 -1.0280
   96MPD2     H 1469   4.670   2.582  15.639  3.4434  0.3652 -1.5447
   96MPD2    H1 1470   4.587   2.171  15.506  1.7340 -0.5212 -1.5441
   96MPD2    H2 1471   4.720   2.459  15.238 -0.5272 -0.7435 -0.7974
   96MPD2    H3 1472   4.650   2.235  15.288 -1.0309 -0.4532 -1.1939
   96MPD2     N 1473   4.584   2.317  15.724 -0.2945  0.4555  0.2601
   96MPD2    H5 1474   4.560   2.219  15.727  0.1109  0.3860  1.2479
   96MPD2    N1 1475   4.700   2.659  15.391 -0.0637  0.4362  0.3878
   96MPD2    H7 1476   0.008   2.660  15.295 -0.7671 -3.4197  0.0878
   97MPD2     C 1477   2.366   4.479   0.936  0.3137  0.0416  0.0616
   97MPD2    C1 1478   2.230   4.469   0.916  1.1715  0.2738  0.1663
   97MPD2    C2 1479   2.179   4.493   0.794 -0.5320 -0.4495 -0.2455
   97MPD2    C3 1480   2.264   4.536   0.690  0.7066 -0.3243 -0.4422
   97MPD2    C4 1481   2.395   4.548   0.709 -0.3803  0.4306 -0.0096
   97MPD2    C5 1482   2.449   4.516   0.831  0.0016 -0.2287  0.3950
   97MPD2     H 1483   2.072   4.495   0.779 -0.4134 -0.8731 -1.1443
   97MPD2    H1 1484   2.463   4.579   0.630  0.9337 -2.4003  0.0258
   97MPD2    H2 1485   2.409   4.472   1.035 -0.0550 -2.2491  0.0697
   97MPD2    H3 1486   2.556   4.533   0.838  0.0866 -1.4375  2.0684
   97MPD2     N 1487   2.206   4.567   0.558 -0.2360  0.7085  0.2848
   97MPD2    H5 1488   2.274   4.583   0.484  0.9719  2.0824  1.6786
   97MPD2    N1 1489   2.160   4.432   1.033  0.0063  0.1603 -0.2505
   97MPD2    H7 1490   2.217   4.419   1.117 -0.4949 -0.1399  0.0380
   98TCq2    C1 1491   2.070   4.580   0.521 -0.5089 -0.0685  0.0961
   98TCq2    O2 1492   1.969   4.567   0.590 -0.6354 -0.1918  0.2173
   98TCq2    C2 1493   2.046   4.628   0.387 -0.0915  0.0876 -0.5420
   98TCq2    C3 1494   1.925   4.599   0.332  0.0579 -0.5777 -0.6880
   98TCq2    C4 1495   1.902   4.658   0.211 -0.5520 -0.0081 -0.0157
   98TCq2    C5 1496   1.984   0.028   0.166 -0.2278  0.1730  0.2357
   98TCq2    C6 1497   2.108   0.049   0.220 -0.0615 -0.2501 -0.5082
   98TCq2    C7 1498   2.140   4.707   0.334 -0.6326  0.2605 -0.1678
   98TCq2    C8 1499   2.195   0.151   0.173  1.1658 -0.0944  0.1694
   98TCq2    O4 1500   2.281   0.200   0.247 -0.6060 -0.1423  0.1902
   98TCq2    C9 1501   1.790   4.623   0.134  0.5762 -0.4041 -0.2881
   98TCq2    O5 1502   1.806   4.570   0.018 -0.9098 -0.1364 -0.7544
   98TCq2    O6 1503   1.687   4.631   0.197  0.2849 -0.4209 -0.1561
   98TCq2    H2 1504   1.858   4.525   0.373 -1.7624  0.5003 -1.6857
   98TCq2    H3 1505   1.955   0.079   0.074  0.1557  0.0773  0.0630
   98TCq2    H4 1506   2.232   0.002   0.389  0.4588 -0.7691 -1.6707
   99MPD2     C 1507   0.743   2.147   1.535 -0.2515  0.0009  0.1824
   99MPD2    C1 1508   0.731   2.072   1.651 -0.9247  0.6564 -0.5680
   99MPD2    C2 1509   0.708   1.934   1.633  0.3543 -0.1819 -0.1423
   99MPD2    C3 1510   0.698   1.874   1.508  0.4397 -0.2654 -0.6205
   99MPD2    C4 1511   0.716   1.953   1.398 -0.2821 -0.8205 -0.4554
   99MPD2    C5 1512   0.735   2.085   1.412  0.0267  1.5649 -0.2672
   99MPD2     H 1513   0.699   1.865   1.716  1.0994  0.0089  0.0890
   99MPD2    H1 1514   0.729   1.907   1.301 -0.3036  3.7399 -2.6141
   99MPD2    H2 1515   0.761   2.254   1.530  2.7711 -0.5043  0.3446
   99MPD2    H3 1516   0.768   2.140   1.325  2.2594  1.0360  0.2337
   99MPD2     N 1517   0.698   1.738   1.501  0.7717 -0.3545 -0.0081
   99MPD2    H5 1518   0.711   1.699   1.593 -1.1007  0.2729  0.5382
   99MPD2    N1 1519   0.739   2.125   1.781  0.3481  0.1637  0.3380
   99MPD2    H7 1520   0.700   2.065   1.852  1.0980 -1.8774 -0.9825
  100TCq2    C1 1521   0.759   2.259   1.813  0.2942 -0.4981  0.5275
  100TCq2    O2 1522   0.809   2.354   1.754  0.1071 -0.3647  0.4930
  100TCq2    C2 1523   0.726   2.293   1.948 -0.3605 -0.3352 -0.3671
  100TCq2    C3 1524   0.812   2.377   2.010 -0.1709  0.6093  0.5134
  100TCq2    C4 1525   0.797   2.407   2.146 -0.0987  0.5256  0.3295
  100TCq2    C5 1526   0.693   2.364   2.217 -0.0632 -0.7212  0.3362
  100TCq2    C6 1527   0.605   2.285   2.151  0.2934  0.0420 -0.3049
  100TCq2    C7 1528   0.615   2.252   2.016 -0.1055  0.1471 -0.3180
  100TCq2    C8 1529   0.467   2.266   2.213  0.3959  0.2576 -0.9400
  100TCq2    O4 1530   0.454   2.307   2.329 -0.4872 -0.4192 -0.1039
  100TCq2    C9 1531   0.882   2.502   2.212 -0.1495  0.0336 -1.0737
  100TCq2    O5 1532   0.860   2.531   2.332  0.2369 -0.2680  0.0785
  100TCq2    O6 1533   0.981   2.545   2.142  0.1160 -0.2569  0.5565
  100TCq2    H2 1534   0.906   2.411   1.968 -0.8990  0.9045 -0.8751
  100TCq2    H3 1535   0.680   2.383   2.323 -0.2670  1.7194 -0.1303
  100TCq2    H4 1536   0.538   2.199   1.961 -1.0855 -0.7771  1.9582
  101MPD2     C 1537   2.146   3.208  12.991  0.1260  0.2030  0.2960
  101MPD2    C1 1538   2.031   3.139  12.950  0.8448 -0.3081 -1.2876
  101MPD2    C2 1539   1.985   3.043  13.040  0.0918  0.1843  0.4555
  101MPD2    C3 1540   2.059   3.009  13.152  0.7194 -0.2378  0.0157
  101MPD2    C4 1541   2.171   3.074  13.183  0.3165 -0.6355  0.8579
  101MPD2    C5 1542   2.206   3.183  13.111 -0.0118 -0.1910 -0.6834
  101MPD2     H 1543   1.888   2.998  13.021 -0.4599  1.3262  0.5617
  101MPD2    H1 1544   2.226   3.055  13.275  0.5731  0.0203  0.8386
  101MPD2    H2 1545   2.195   3.285  12.933  0.9988 -1.5387 -1.2689
  101MPD2    H3 1546   2.302   3.230  13.130  0.1001 -1.6501  2.3297
  101MPD2     N 1547   2.003   2.905  13.228  0.2057 -0.3956 -0.1615
  101MPD2    H5 1548   1.934   2.848  13.180 -0.5226  0.2732  0.0979
  101MPD2    N1 1549   1.953   3.193  12.847 -0.0158  0.1478  0.3699
  101MPD2    H7 1550   1.993   3.273  12.799  0.6666  1.1189  2.5904
  102TCq2    C1 1551   1.874   3.395  12.402  0.2415  0.4650  0.5450
  102TCq2    O2 1552   1.989   3.352  12.399  0.5743 -0.3268 -0.0225
  102TCq2    C2 1553   1.797   3.363  12.521  0.1952 -0.1704  0.1621
  102TCq2    C3 1554   1.668   3.406  12.538 -0.7954 -0.8089  0.3571
  102TCq2    C4 1555   1.593   3.359  12.645  0.1987  0.8135 -0.1213
  102TCq2    C5 1556   1.647   3.269  12.729  0.1083 -0.1834 -0.6652
  102TCq2    C6 1557   1.777   3.230  12.706 -0.1247  0.1837 -0.4857
  102TCq2    C7 1558   1.855   3.276  12.606 -0.0691  0.0996  0.3701
  102TCq2    C8 1559   1.840   3.131  12.794 -0.2037  0.4084  0.3718
  102TCq2    O4 1560   1.776   3.037  12.839 -0.0578  0.0324  0.4012
  102TCq2    C9 1561   1.452   3.400  12.656  0.1811  0.3466 -0.5935
  102TCq2    O5 1562   1.380   3.346  12.747  0.1308 -0.2090 -0.3102
  102TCq2    O6 1563   1.415   3.487  12.578 -0.6799 -0.0847 -0.1874
  102TCq2    H2 1564   1.623   3.479  12.471  1.1418 -0.5615 -0.6750
  102TCq2    H3 1565   1.594   3.250  12.822 -3.2018  2.9951 -1.8995
  102TCq2    H4 1566   1.950   3.226  12.594  0.1405  0.0330  2.3356
  103TMC2    C1 1567   0.331   2.907  12.670 -0.6526 -0.1686  0.4786
  103TMC2    C2 1568   0.432   2.823  12.705 -0.6029  0.2978  0.1000
  103TMC2    C3 1569   0.480   2.844  12.829 -0.0343 -0.0290 -0.1831
  103TMC2    C4 1570   0.267   2.992  12.753  0.5522  0.6618  0.1803
  103TMC2    C5 1571   0.328   3.005  12.880  0.5241  0.3354  0.1422
  103TMC2    C6 1572   0.437   2.928  12.917 -0.2489  0.1292 -0.7570
  103TMC2     C 1573   0.291   2.905  12.535 -0.2751 -0.3369 -0.0691
  103TMC2     O 1574   0.174   2.925  12.506  0.4306 -0.6115  0.0051
  103TMC2     H 1575   0.474   2.745  12.643  1.6542 -0.1587  2.2377
  103TMC2    H1 1576   0.180   3.046  12.718 -0.5081 -0.8452  0.4826
  103TMC2    H2 1577   0.460   2.906  13.021  0.2611 -1.9996 -1.3251
  103TMC2    C7 1578   0.241   3.068  12.979  0.0379 -0.8456 -0.2752
  103TMC2    C8 1579   0.583   2.744  12.865  0.6423  0.7886  0.7790
  103TMC2    O1 1580   0.241   3.025  13.093  0.9828  0.1864  0.2410
  103TMC2    O2 1581   0.576   2.635  12.807 -0.1308  0.3997 -0.4779
  103TMC2    O5 1582   0.685   2.823  12.852  0.4913  0.0298 -0.2954
  103TMC2    H5 1583   0.661   2.899  12.908 -1.1005  0.0244 -0.9760
  104MPD2     C 1584   0.482   2.733  12.287  0.6524  0.0345  0.3248
  104MPD2    C1 1585   0.375   2.809  12.326  0.0369 -0.6693  0.1194
  104MPD2    C2 1586   0.261   2.812  12.243 -0.2998  0.0168 -0.7790
  104MPD2    C3 1587   0.268   2.741  12.125 -0.0943 -0.4790  0.3018
  104MPD2    C4 1588   0.378   2.660  12.094  0.4142 -0.4342  0.1876
  104MPD2    C5 1589   0.487   2.660  12.176  0.0542 -0.3117 -0.2784
  104MPD2     H 1590   0.168   2.862  12.270 -0.1944 -0.2734  0.1370
  104MPD2    H1 1591   0.383   2.598  12.005  1.4001  0.8091 -0.6187
  104MPD2    H2 1592   0.572   2.724  12.346  0.5491 -0.4480  0.4111
  104MPD2    H3 1593   0.580   2.611  12.152 -0.0339 -0.8153  0.4226
  104MPD2     N 1594   0.160   2.736  12.029 -0.1236 -0.0140 -0.0582
  104MPD2    H5 1595   0.090   2.808  12.043  0.0626 -0.4195  3.0722
  104MPD2    N1 1596   0.390   2.863  12.454 -0.3223 -0.0811 -0.3276
  104MPD2    H7 1597   0.479   2.856  12.502  0.1306  0.6746 -1.0496
  105MPD2     C 1598   1.189   2.497  17.610 -0.4288 -0.1549 -0.6020
  105MPD2    C1 1599   1.141   2.623  17.602  0.7121  0.4830 -0.2554
  105MPD2    C2 1600   1.023   2.658  17.666  0.4374  0.3920  0.4441
  105MPD2    C3 1601   0.963   2.569   0.058 -0.7141  0.2758  0.4512
  105MPD2    C4 1602   1.012   2.443   0.072 -0.0974 -0.1020 -0.5993
  105MPD2    C5 1603   1.129   2.403   0.002 -0.5914 -0.1407 -0.3837
  105MPD2     H 1604   0.981   2.757  17.656 -1.3037 -0.1956  1.8530
  105MPD2    H1 1605   0.948   2.370   0.121  2.7931 -0.4343  2.6709
  105MPD2    H2 1606   1.282   2.465  17.564  1.0305  4.3141 -0.7263
  105MPD2    H3 1607   1.148   2.297   0.014  4.4484  0.6260 -1.6893
  105MPD2     N 1608   0.849   2.624   0.120 -0.1348 -0.2039 -0.4908
  105MPD2    H5 1609   0.829   2.722   0.107  0.0301 -0.1355 -0.2175
  105MPD2    N1 1610   1.178   2.708  17.491  0.3487  0.1298 -0.6191
  105MPD2    H7 1611   1.109   2.778  17.468 -0.7015 -0.0913  1.8528
  106TCq2    C1 1612   0.757   2.557   0.194 -0.4110  0.4836  0.0097
  106TCq2    O2 1613   0.758   2.442   0.239  0.3556  0.3275 -0.3184
  106TCq2    C2 1614   0.640   2.632   0.215  0.2657  0.3706 -0.5821
  106TCq2    C3 1615   0.652   2.765   0.237 -0.0902  0.2344 -0.9251
  106TCq2    C4 1616   0.578   2.834   0.332  0.4135  0.2746  0.0105
  106TCq2    C5 1617   0.488   2.767   0.408 -0.0978  0.3917  0.0497
  106TCq2    C6 1618   0.467   2.638   0.378  0.4061  0.6962  0.3309
  106TCq2    C7 1619   0.547   2.571   0.287  0.4561 -0.1052  0.3717
  106TCq2    C8 1620   0.420   2.553   0.485 -0.0953 -0.3372 -0.2318
  106TCq2    O4 1621   0.462   2.436   0.483  0.1239 -0.1764 -0.5832
  106TCq2    C9 1622   0.583   2.979   0.350  0.1584  0.3946 -0.0698
  106TCq2    O5 1623   0.483   3.034   0.409 -0.4467  0.2091  0.1610
  106TCq2    O6 1624   0.684   3.046   0.308 -0.4454  0.0322 -0.0371
  106TCq2    H2 1625   0.731   2.832   0.205  1.0336  0.9488  3.3550
  106TCq2    H3 1626   0.426   2.824   0.476 -0.6080  0.1122 -0.1739
  106TCq2    H4 1627   0.533   2.464   0.274 -0.2190  0.1468 -0.9196
  107TMC2    C1 1628   2.519   1.549  11.990  0.0890 -0.2179  0.5639
  107TMC2    C2 1629   2.614   1.457  12.025 -0.1447  0.0062 -0.5063
  107TMC2    C3 1630   2.675   1.407  11.912  0.7518  1.2947 -0.3750
  107TMC2    C4 1631   2.483   1.596  11.869  0.1269  0.0827 -0.0621
  107TMC2    C5 1632   2.551   1.535  11.763 -0.5993  0.1255 -0.7747
  107TMC2    C6 1633   2.644   1.436  11.780 -0.2034 -0.2587 -0.7374
  107TMC2     C 1634   2.451   1.602  12.105 -0.4862 -0.0089  0.0835
  107TMC2     O 1635   2.463   1.544  12.211  0.3373  0.6138 -0.3909
  107TMC2     H 1636   2.640   1.419  12.123  1.0012 -0.4212 -0.9789
  107TMC2    H1 1637   2.389   1.648  11.851 -0.2749 -0.7752 -0.4588
  107TMC2    H2 1638   2.719   1.414  11.705 -0.8121  1.0097 -1.7336
  107TMC2    C7 1639   2.533   1.583  11.630  0.1033 -0.1077 -0.0698
  107TMC2    C8 1640   2.770   1.293  11.936  0.3273  0.0627 -0.2053
  107TMC2    O1 1641   2.475   1.693  11.613 -0.1000  0.5283  0.2024
  107TMC2    O2 1642   2.816   1.262  12.045  0.1632 -0.4931 -0.3088
  107TMC2    O5 1643   2.763   1.208  11.830 -0.2227 -0.2559  0.4192
  107TMC2    H5 1644   2.696   1.228  11.762  0.1382 -1.1452 -0.2017
  108MPD2     C 1645   2.287   1.932  12.153  0.1133  0.3946 -0.4185
  108MPD2    C1 1646   2.322   1.801  12.188  0.3207 -0.2650  0.5664
  108MPD2    C2 1647   2.278   1.745  12.318  0.6442 -0.2622 -0.2589
  108MPD2    C3 1648   2.190   1.813  12.397 -0.9783  0.3307 -0.3819
  108MPD2    C4 1649   2.146   1.933  12.349  0.4080  0.4829  0.6170
  108MPD2    C5 1650   2.200   1.993  12.237 -0.3381 -0.1773 -0.2025
  108MPD2     H 1651   2.305   1.643  12.344 -0.8201 -0.2447  1.2937
  108MPD2    H1 1652   2.072   1.986  12.407  0.3770  0.7113  0.3664
  108MPD2    H2 1653   2.312   1.966  12.054  0.4275 -0.4500 -0.6250
  108MPD2    H3 1654   2.171   2.094  12.210  1.9511 -0.4042 -3.4036
  108MPD2     N 1655   2.139   1.758  12.516 -0.0252 -0.4427 -0.1425
  108MPD2    H5 1656   2.060   1.806  12.557 -2.0968 -3.3338 -0.7952
  108MPD2    N1 1657   2.402   1.728  12.094 -0.1744  1.0307  0.1880
  108MPD2    H7 1658   2.435   1.783  12.016  0.9592  1.5089  1.0061
  109MPD2     C 1659   1.494   3.506   2.148  1.0995 -0.0941  0.0463
  109MPD2    C1 1660   1.522   3.529   2.020  0.5067  0.5844 -0.4473
  109MPD2    C2 1661   1.647   3.513   1.976  0.6575  0.2976  0.2858
  109MPD2    C3 1662   1.753   3.494   2.058 -0.4818  0.1415  0.6793
  109MPD2    C4 1663   1.728   3.471   2.195 -0.2755  0.6317  0.5670
  109MPD2    C5 1664   1.596   3.476   2.232 -0.1701 -0.5981 -0.1495
  109MPD2     H 1665   1.670   3.530   1.871 -2.6920  0.9157 -0.3355
  109MPD2    H1 1666   1.799   3.449   2.274  0.5648 -0.8933 -0.6110
  109MPD2    H2 1667   1.395   3.511   2.191  0.2130  0.5665 -2.0759
  109MPD2    H3 1668   1.570   3.471   2.338 -0.5649  0.3984 -0.2027
  109MPD2     N 1669   1.883   3.489   2.004  0.3138 -0.1536 -0.4346
  109MPD2    H5 1670   1.897   3.522   1.909  4.3351 -0.5809  0.0279
  109MPD2    N1 1671   1.412   3.573   1.935 -0.8515 -1.0123 -0.4634
  109MPD2    H7 1672   1.327   3.579   1.990  0.0650 -0.3314  0.8926
  110TCq2    C1 1673   1.997   3.462   2.078 -0.1853 -0.2901  0.0224
  110TCq2    O2 1674   2.019   3.401   2.180  0.1770  0.0302  0.4118
  110TCq2    C2 1675   2.112   3.498   1.993 -0.0435  0.4072  0.5905
  110TCq2    C3 1676   2.236   3.449   2.027 -0.4319  0.0049  0.2238
  110TCq2    C4 1677   2.350   3.501   1.969 -0.9265 -0.1048 -0.2511
  110TCq2    C5 1678   2.336   3.606   1.880 -0.5946  0.0543 -0.0691
  110TCq2    C6 1679   2.210   3.652   1.849  0.2328  0.1035 -0.1983
  110TCq2    C7 1680   2.099   3.608   1.910 -0.3930  0.8528  0.4418
  110TCq2    C8 1681   2.196   3.770   1.767 -0.4006  0.4127 -0.1014
  110TCq2    O4 1682   2.083   3.785   1.722 -0.2456 -0.1314  0.5449
  110TCq2    C9 1683   2.480   3.442   2.012  0.5675  0.6247  0.4421
  110TCq2    O5 1684   2.583   3.497   1.961 -0.7708  0.3716  0.1101
  110TCq2    O6 1685   2.473   3.342   2.082 -0.4597 -0.2897  0.0433
  110TCq2    H2 1686   2.244   3.370   2.102  1.8348  1.1101  1.1422
  110TCq2    H3 1687   2.421   3.630   1.818 -0.1096 -0.0747  0.5505
  110TCq2    H4 1688   2.002   3.654   1.897 -1.7041 -2.0685 -0.0298
  111TMC2    C1 1689   2.493   3.519  10.999 -0.2138  0.4682  0.1835
  111TMC2    C2 1690   2.576   3.487  10.896  0.3448 -0.0086  0.5648
  111TMC2    C3 1691   2.701   3.475  10.946  0.2021 -0.1480 -0.1963
  111TMC2    C4 1692   2.521   3.583  11.119  0.1726  0.1430  0.3645
  111TMC2    C5 1693   2.652   3.567  11.152  0.7067  0.2284  0.5468
  111TMC2    C6 1694   2.742   3.495  11.074  0.1637 -0.5869  0.6333
  111TMC2     C 1695   2.352   3.508  10.964 -0.0523  0.4942  0.2629
  111TMC2     O 1696   2.326   3.538  10.850  0.0563  0.1716  0.5548
  111TMC2     H 1697   2.543   3.441  10.804  0.9447 -0.7573  0.7189
  111TMC2    H1 1698   2.444   3.617  11.187  1.0386  0.2862  1.2714
  111TMC2    H2 1699   2.846   3.473  11.097  0.7573 -0.3212 -1.8280
  111TMC2    C7 1700   2.687   3.561  11.291  0.3492 -0.2386  0.4430
  111TMC2    C8 1701   2.801   3.417  10.867  0.0905  0.5344  0.0615
  111TMC2    O1 1702   2.584   3.545  11.356 -0.2541 -0.5129  0.6528
  111TMC2    O2 1703   2.892   3.340  10.901 -0.2450 -0.1376 -0.0466
  111TMC2    O5 1704   2.772   3.435  10.737  0.5596  0.0100 -0.2003
  111TMC2    H5 1705   2.713   3.512  10.725  0.8290 -0.0405 -1.9548
  112MPD2     C 1706   1.857   3.419  11.052 -0.0564 -0.4854 -0.5337
  112MPD2    C1 1707   1.918   3.502  10.957 -0.0655  0.6676  0.0621
  112MPD2    C2 1708   2.052   3.523  10.972 -0.1848 -0.6131  0.4267
  112MPD2    C3 1709   2.128   3.468  11.074 -0.3353  0.3535 -0.0553
  112MPD2    C4 1710   2.060   3.393  11.172 -0.1571  0.0020  0.1171
  112MPD2    C5 1711   1.930   3.359  11.152 -0.1275  0.0646 -0.1081
  112MPD2     H 1712   2.096   3.582  10.892  0.3997 -0.2534  1.0146
  112MPD2    H1 1713   2.118   3.345  11.250 -1.3390 -1.9116 -0.1746
  112MPD2    H2 1714   1.752   3.394  11.041 -0.0265 -0.2744 -1.3129
  112MPD2    H3 1715   1.876   3.297  11.223  0.7490  0.3921  0.8456
  112MPD2     N 1716   2.272   3.465  11.069 -0.4032  0.5672 -0.3314
  112MPD2    H5 1717   2.310   3.419  11.150 -2.3848  0.2640  0.4246
  112MPD2    N1 1718   1.858   3.552  10.837 -0.3864  0.2192 -0.0595
  112MPD2    H7 1719   1.906   3.609  10.768  1.5915  0.7025  1.7117
  113MPD2     C 1720   4.697   2.019   1.570  0.5176 -0.3143  0.2891
  113MPD2    C1 1721   4.635   2.132   1.518  0.3355  0.4713  0.8346
  113MPD2    C2 1722   4.599   2.137   1.385  0.2164 -0.1394  0.0765
  113MPD2    C3 1723   4.609   2.028   1.306  0.2654  0.0211 -0.3219
  113MPD2    C4 1724   4.654   1.909   1.360 -0.4383 -0.1173  0.1376
  113MPD2    C5 1725   4.695   1.905   1.488  0.0362 -0.9847 -0.1953
  113MPD2     H 1726   4.546   2.218   1.335 -1.7517 -1.1221  0.5797
  113MPD2    H1 1727   4.678   1.819   1.304  0.1101 -0.0617  0.2735
  113MPD2    H2 1728   0.011   2.008   1.671 -1.9969  0.6354  1.2897
  113MPD2    H3 1729   0.000   1.805   1.520  1.4516  0.5019  3.2740
  113MPD2     N 1730   4.568   2.022   1.168  0.2000 -0.3651  1.1395
  113MPD2    H5 1731   4.566   1.930   1.127 -0.1784 -0.5055  1.4795
  113MPD2    N1 1732   4.594   2.235   1.598  0.0637 -0.6472  0.1546
  113MPD2    H7 1733   4.549   2.313   1.552  1.2470  0.3647  0.6778
  114TCq2    C1 1734   4.508   2.122   1.092  0.5451 -0.1715  0.4654
  114TCq2    O2 1735   4.511   2.243   1.102  0.0922 -0.1110 -0.3771
  114TCq2    C2 1736   4.442   2.067   0.972  0.3335 -0.0250  0.6678
  114TCq2    C3 1737   4.422   2.156   0.869 -0.7584  0.3067 -0.2824
  114TCq2    C4 1738   4.371   2.095   0.752  0.1059  0.5516 -0.9111
  114TCq2    C5 1739   4.336   1.962   0.752 -0.9656  0.5312 -0.8216
  114TCq2    C6 1740   4.361   1.881   0.862 -0.1120  0.8438  0.2040
  114TCq2    C7 1741   4.419   1.935   0.970 -0.5610  0.3473 -0.2790
  114TCq2    C8 1742   4.316   1.742   0.864 -0.0678  0.3557  0.1037
  114TCq2    O4 1743   4.322   1.676   0.759 -0.0682 -0.0785 -0.1482
  114TCq2    C9 1744   4.316   2.190   0.651 -0.1320  0.0282 -0.0824
  114TCq2    O5 1745   4.358   2.310   0.662 -0.0706 -0.3903 -0.8112
  114TCq2    O6 1746   4.277   2.143   0.541  0.0992  0.1556 -0.2454
  114TCq2    H2 1747   4.438   2.263   0.884  0.0627 -0.2171  2.4961
  114TCq2    H3 1748   4.281   1.916   0.670 -1.8493 -0.3067  0.2379
  114TCq2    H4 1749   4.428   1.868   1.055  0.6329 -0.6518 -1.1826
  115TMC2    C1 1750   0.690   4.700  17.466 -0.5768  0.6776 -0.2193
  115TMC2    C2 1751   0.801   4.637  17.501 -0.0392  0.0176 -0.2329
  115TMC2    C3 1752   0.918   4.703  17.504  0.2702 -0.6861 -0.3631
  115TMC2    C4 1753   0.684   0.111  17.438  0.0330  0.2730  0.4171
  115TMC2    C5 1754   0.806   0.173  17.448 -0.1864  0.0044  0.1724
  115TMC2    C6 1755   0.927   0.114  17.478 -0.4442 -0.0825  0.1577
  115TMC2     C 1756   0.572   4.626  17.457 -0.7430 -0.1708  0.3349
  115TMC2     O 1757   0.582   4.506  17.443  0.2028 -0.0953 -0.0194
  115TMC2     H 1758   0.794   4.532  17.524 -2.9087 -0.1407 -1.7275
  115TMC2    H1 1759   0.599   0.174  17.416  1.1634  0.9411 -2.0058
  115TMC2    H2 1760   1.015   0.174  17.497 -0.1930 -0.6363  0.7518
  115TMC2    C7 1761   0.795   0.316  17.459  0.5102  0.0509 -0.5185
  115TMC2    C8 1762   1.040   4.637  17.552 -0.1587 -0.0656 -0.1901
  115TMC2    O1 1763   0.695   0.367  17.498 -0.0068  0.5596  0.1643
  115TMC2    O2 1764   1.111   4.688  17.639 -0.2604  0.2412  0.5302
  115TMC2    O5 1765   1.043   4.512  17.505 -0.6443  0.1880  0.0748
  115TMC2    H5 1766   0.981   4.486  17.434 -1.4055  1.5247  0.2453
  116MPD2     C 1767   0.063   4.566  17.556  0.5832  0.2353  0.0211
  116MPD2    C1 1768   0.154   4.481  17.490  0.3007  0.3540  0.3801
  116MPD2    C2 1769   0.285   4.523  17.473  0.5068 -0.2496 -0.0718
  116MPD2    C3 1770   0.326   4.644  17.515 -0.9037  0.4366 -0.2915
  116MPD2    C4 1771   0.241   0.007  17.579  0.7560  0.2851 -0.1144
  116MPD2    C5 1772   0.109   4.695  17.597  0.8252  0.1655  0.9540
  116MPD2     H 1773   0.355   4.462  17.417  0.8021  0.6543 -0.6852
  116MPD2    H1 1774   0.273   0.096  17.632  1.1666 -0.4026  0.8028
  116MPD2    H2 1775   4.685   4.530  17.566 -0.0227  1.6138 -1.1094
  116MPD2    H3 1776   0.045   0.044  17.647  1.7870  0.7707  1.3221
  116MPD2     N 1777   0.458   4.695  17.492 -0.5765  0.1626 -0.0710
  116MPD2    H5 1778   0.474   0.070  17.513 -0.8303  0.0568  0.6103
  116MPD2    N1 1779   0.110   4.351  17.446  0.2480 -0.6410 -0.4481
  116MPD2    H7 1780   0.012   4.335  17.464  0.6022 -1.6333  0.5555
  117TMC2    C1 1781   3.925   1.182  14.230  0.4940 -0.0938 -0.1643
  117TMC2    C2 1782   3.927   1.170  14.367  0.4863  0.0071  0.5750
  117TMC2    C3 1783   4.008   1.255  14.441  0.5999  0.5604 -0.9262
  117TMC2    C4 1784   3.978   1.295  14.174  0.1994  0.5515 -0.5795
  117TMC2    C5 1785   4.043   1.386  14.251  0.9394  0.4093  0.2466
  117TMC2    C6 1786   4.068   1.370  14.390 -0.2746  0.3423  0.6817
  117TMC2     C 1787   3.798   1.136  14.165 -0.7901  0.0880 -0.5468
  117TMC2     O 1788   3.732   1.052  14.221  0.2102  0.0361  0.2226
  117TMC2     H 1789   3.882   1.089  14.423  0.8689 -1.3404 -1.0696
  117TMC2    H1 1790   3.989   1.304  14.066 -1.9218  0.5746 -0.7971
  117TMC2    H2 1791   4.127   1.435  14.453 -1.5027  1.6841  0.4652
  117TMC2    C7 1792   4.116   1.491  14.182 -0.0953  0.3078  0.4835
  117TMC2    C8 1793   3.993   1.226  14.586 -0.5191  0.1606 -0.0285
  117TMC2    O1 1794   4.229   1.523  14.214 -0.5851  0.6616 -0.2027
  117TMC2    O2 1795   4.001   1.314  14.669 -0.3680  0.0307  0.3715
  117TMC2    O5 1796   4.034   1.098  14.602  0.1368 -0.1233  0.2722
  117TMC2    H5 1797   4.076   1.058  14.522  0.5286  1.5200 -0.3475
  118MPD2     C 1798   3.989   1.681  13.895 -0.2046  0.9858  0.0340
  118MPD2    C1 1799   4.084   1.628  13.981  0.6680  0.2426 -0.1673
  118MPD2    C2 1800   4.211   1.675  13.966 -0.3864 -0.4869 -0.4505
  118MPD2    C3 1801   4.242   1.765  13.860  0.7712 -0.7017  0.1152
  118MPD2    C4 1802   4.147   1.798  13.771  0.2036  0.4568 -0.1358
  118MPD2    C5 1803   4.014   1.767  13.793 -0.9219 -0.6481 -0.1528
  118MPD2     H 1804   4.286   1.646  14.039 -1.4499  0.8380  1.1841
  118MPD2    H1 1805   4.170   1.854  13.681  2.7906 -0.1714  0.1380
  118MPD2    H2 1806   3.886   1.661  13.921  0.4731  1.1783  2.8158
  118MPD2    H3 1807   3.931   1.800  13.732  1.0210 -0.7314 -2.8390
  118MPD2     N 1808   4.371   1.820  13.838  0.4177  0.3460  0.4787
  118MPD2    H5 1809   4.379   1.878  13.755 -2.1706  0.3061  0.1991
  118MPD2    N1 1810   4.042   1.543  14.081  0.6837  0.6629 -0.1534
  118MPD2    H7 1811   3.943   1.521  14.084  1.1795 -1.4921  0.8511
  119MPD2     C 1812   2.695   2.501  13.622  0.2279  0.1106  0.3755
  119MPD2    C1 1813   2.592   2.509  13.704  0.1698  0.3277 -0.7498
  119MPD2    C2 1814   2.479   2.437  13.666 -0.6621  0.9489 -0.1070
  119MPD2    C3 1815   2.472   2.355  13.555  0.4364  0.8426  0.3080
  119MPD2    C4 1816   2.586   2.350  13.477 -0.4961  0.2981  0.3049
  119MPD2    C5 1817   2.699   2.422  13.510 -0.4634  0.1273 -0.2919
  119MPD2     H 1818   2.386   2.460  13.716 -2.2194 -1.0339 -2.0640
  119MPD2    H1 1819   2.587   2.285  13.389 -1.3190  2.6399 -1.4357
  119MPD2    H2 1820   2.790   2.544  13.650  0.7466 -1.0467  0.3838
  119MPD2    H3 1821   2.790   2.415  13.451 -0.4423  1.0668 -0.3650
  119MPD2     N 1822   2.360   2.277  13.518  0.1201 -0.1035 -0.1453
  119MPD2    H5 1823   2.359   2.249  13.420 -1.2774 -0.3934 -0.0494
  119MPD2    N1 1824   2.590   2.608  13.804  0.8186  0.1236  0.2628
  119MPD2    H7 1825   2.655   2.686  13.799 -2.5076  2.7846 -1.1916
  120TCq2    C1 1826   2.258   2.243  13.607 -0.2899  0.7589 -0.9039
  120TCq2    O2 1827   2.251   2.266  13.727 -0.2628  0.3897  0.4965
  120TCq2    C2 1828   2.140   2.175  13.548  0.1360 -0.3398  0.0096
  120TCq2    C3 1829   2.133   2.152  13.416 -0.1601 -0.2640 -0.3251
  120TCq2    C4 1830   2.013   2.110  13.365  0.6119 -0.3388  0.6957
  120TCq2    C5 1831   1.901   2.099  13.445 -0.6925 -0.7123 -0.5447
  120TCq2    C6 1832   1.911   2.124  13.576  0.4482  0.0989 -0.6271
  120TCq2    C7 1833   2.033   2.160  13.633  0.3316  0.6589  0.6261
  120TCq2    C8 1834   1.797   2.070  13.651  0.0078 -0.0057  0.1020
  120TCq2    O4 1835   1.693   2.092  13.592 -0.6487  0.4169 -0.6560
  120TCq2    C9 1836   2.004   2.083  13.226 -0.0388 -0.0879  1.2617
  120TCq2    O5 1837   2.111   2.062  13.170  0.3612 -0.0414 -0.3604
  120TCq2    O6 1838   1.889   2.062  13.179 -0.2235  0.3978  0.2008
  120TCq2    H2 1839   2.215   2.153  13.345 -0.4631 -0.4129 -0.6825
  120TCq2    H3 1840   1.808   2.061  13.405 -1.3821 -0.1734  0.5548
  120TCq2    H4 1841   2.043   2.176  13.740 -0.2272  0.0751  0.7693
  121TMC2    C1 1842   3.961   4.022  13.827  0.1580  0.2626 -0.4762
  121TMC2    C2 1843   3.940   3.908  13.900 -0.1263  0.6666  0.4970
  121TMC2    C3 1844   3.812   3.872  13.940  0.4459 -0.8995 -0.2040
  121TMC2    C4 1845   3.851   4.096  13.782  0.3127 -0.7974  0.3858
  121TMC2    C5 1846   3.725   4.064  13.829  0.7061  0.0555  0.0303
  121TMC2    C6 1847   3.705   3.950  13.906  0.2181  0.0171 -0.0852
  121TMC2     C 1848   4.092   4.073  13.810  0.1317 -0.0071  0.0420
  121TMC2     O 1849   4.166   4.052  13.904  0.1173 -0.8382  0.0785
  121TMC2     H 1850   4.026   3.853  13.938  0.2448  0.0081 -1.3268
  121TMC2    H1 1851   3.874   4.193  13.739  1.8637  0.2558  3.5466
  121TMC2    H2 1852   3.616   3.923  13.962  0.9684 -3.6303 -0.6658
  121TMC2    C7 1853   3.617   4.124  13.752 -0.1100  0.6560 -0.2390
  121TMC2    C8 1854   3.796   3.793  14.058 -0.1333 -0.3541 -0.1311
  121TMC2    O1 1855   3.660   4.198  13.667 -0.0079 -0.0708  0.5940
  121TMC2    O2 1856   3.686   3.768  14.109  0.6615  0.3311 -0.1337
  121TMC2    O5 1857   3.904   3.829  14.131  0.0239 -0.0914 -0.2982
  121TMC2    H5 1858   3.984   3.851  14.079  0.8261  0.9904  1.3613
  122MPD2     C 1859   4.362   4.145  13.702  0.0285 -0.1039 -0.4172
  122MPD2    C1 1860   4.241   4.184  13.643 -0.4789  0.0242 -0.1092
  122MPD2    C2 1861   4.245   4.256  13.526  0.9750  0.3242  0.0916
  122MPD2    C3 1862   4.363   4.289  13.455 -0.2188 -0.1243  0.8540
  122MPD2    C4 1863   4.476   4.245  13.513 -0.1713 -0.2456 -0.2360
  122MPD2    C5 1864   4.476   4.176  13.630  0.3851 -0.0400 -0.4078
  122MPD2     H 1865   4.144   4.285  13.499  1.3034  1.8517  0.5332
  122MPD2    H1 1866   4.570   4.233  13.460 -0.0904  0.4370 -0.2469
  122MPD2    H2 1867   4.371   4.087  13.793 -1.6518  3.1952  1.8472
  122MPD2    H3 1868   4.561   4.121  13.669 -1.0120 -1.2559  0.9088
  122MPD2     N 1869   4.366   4.351  13.327 -1.0295  0.4052  0.2572
  122MPD2    H5 1870   4.457   4.361  13.283 -0.0261 -0.2716  2.1881
  122MPD2    N1 1871   4.112   4.152  13.694 -0.3978 -0.2747  0.1850
  122MPD2    H7 1872   4.036   4.159  13.626 -0.0707  2.6633  0.1124
  123MPD2     C 1873   1.231   2.383   9.664  0.0076  0.1708 -0.3632
  123MPD2    C1 1874   1.360   2.347   9.634  0.3245  0.0010 -0.2551
  123MPD2    C2 1875   1.381   2.213   9.608  0.8366 -0.3771  0.0806
  123MPD2    C3 1876   1.284   2.120   9.606  0.7426 -0.6540  0.0030
  123MPD2    C4 1877   1.153   2.153   9.622 -0.3144 -0.3072 -0.8237
  123MPD2    C5 1878   1.127   2.287   9.657  0.3863 -0.7253  0.1237
  123MPD2     H 1879   1.483   2.180   9.589  0.2607 -2.1439  0.0567
  123MPD2    H1 1880   1.073   2.080   9.614  1.8393 -2.8944  1.3763
  123MPD2    H2 1881   1.207   2.487   9.683 -1.9672 -0.5231  0.9157
  123MPD2    H3 1882   1.030   2.328   9.681  0.5400 -1.4747  2.0692
  123MPD2     N 1883   1.331   1.989   9.580 -0.6551  0.0937 -0.0742
  123MPD2    H5 1884   1.432   1.978   9.584 -0.6991 -0.7314 -1.1235
  123MPD2    N1 1885   1.459   2.448   9.614 -0.3381  0.4056 -0.3855
  123MPD2    H7 1886   1.419   2.540   9.631  1.3466  1.0014  0.3580
  124TCq2    C1 1887   1.255   1.886   9.540 -0.0322 -0.6270 -0.0935
  124TCq2    O2 1888   1.139   1.869   9.507  0.2917  0.2367 -0.4735
  124TCq2    C2 1889   1.335   1.762   9.549  0.3821  0.1206  0.0254
  124TCq2    C3 1890   1.334   1.682   9.436 -0.4336  0.0641  0.2272
  124TCq2    C4 1891   1.447   1.615   9.399 -0.4500  0.6259 -0.4365
  124TCq2    C5 1892   1.553   1.609   9.482  0.3213 -0.1922  0.0562
  124TCq2    C6 1893   1.557   1.689   9.598 -0.3370 -0.0486 -0.2533
  124TCq2    C7 1894   1.443   1.758   9.632 -0.2695  0.5035  0.7472
  124TCq2    C8 1895   1.658   1.664   9.703  0.3229 -0.5159 -0.1942
  124TCq2    O4 1896   1.773   1.628   9.672  0.4922 -0.3634  0.0492
  124TCq2    C9 1897   1.437   1.519   9.291 -0.5379 -0.4764 -0.4555
  124TCq2    O5 1898   1.319   1.506   9.239  0.2323 -0.0602 -0.0659
  124TCq2    O6 1899   1.543   1.464   9.251 -0.0479  0.3346  0.1761
  124TCq2    H2 1900   1.241   1.678   9.380 -0.5684  0.9819  0.3806
  124TCq2    H3 1901   1.643   1.556   9.453 -0.9715 -3.1031  1.3865
  124TCq2    H4 1902   1.442   1.820   9.721 -2.3381  2.3696 -0.5839
  125TMC2    C1 1903   3.548   3.727   9.215 -0.3060  0.1318 -0.5102
  125TMC2    C2 1904   3.590   3.642   9.111  0.2704 -0.7118  0.3601
  125TMC2    C3 1905   3.668   3.705   9.009  0.7389 -0.2765  0.0917
  125TMC2    C4 1906   3.583   3.862   9.215 -0.2368 -0.6221  0.5334
  125TMC2    C5 1907   3.654   3.913   9.110  0.3966  0.6011 -0.6706
  125TMC2    C6 1908   3.695   3.836   9.005  0.3211  0.1573  0.2960
  125TMC2     C 1909   3.469   3.656   9.314  0.4363 -0.6766 -0.2784
  125TMC2     O 1910   3.451   3.537   9.294  0.1974  0.2047 -0.2552
  125TMC2     H 1911   3.581   3.534   9.114  1.5353 -0.8421 -0.6609
  125TMC2    H1 1912   3.575   3.928   9.300 -0.7549  1.5858 -1.2361
  125TMC2    H2 1913   3.755   3.871   8.923  1.5372 -3.8775 -0.5453
  125TMC2    C7 1914   3.665   4.062   9.102  0.0576  0.1421 -0.5877
  125TMC2    C8 1915   3.741   3.614   8.918 -0.2004 -0.0969  0.7814
  125TMC2    O1 1916   3.585   4.122   9.176 -0.5542  0.0413  0.1842
  125TMC2    O2 1917   3.744   3.494   8.945  0.3181 -0.2901  0.5489
  125TMC2    O5 1918   3.751   3.671   8.794  0.5031 -0.1169 -0.2453
  125TMC2    H5 1919   3.747   3.769   8.788 -0.1254 -0.2212 -1.6326
  126MPD1     C 1920   3.153   3.654   9.725 -0.5811  1.3754  0.2461
  126MPD1    C1 1921   3.228   3.771   9.716 -0.4454  0.5954  0.2738
  126MPD1    C2 1922   3.330   3.775   9.623 -0.1804  0.2780 -0.3160
  126MPD1    C3 1923   3.344   3.686   9.521  0.3457  0.5103  0.3045
  126MPD1    C4 1924   3.256   3.581   9.517  0.0067 -0.6164  0.7860
  126MPD1    C5 1925   3.168   3.563   9.621 -0.3837  1.0666  0.1953
  126MPD1     H 1926   3.407   3.848   9.640  1.9476 -1.7895 -1.0484
  126MPD1    H1 1927   3.245   3.515   9.432  2.0720  0.7307 -0.5281
  126MPD1    H2 1928   3.085   3.616   9.800 -0.0162 -0.5376 -0.2272
  126MPD1    H3 1929   3.104   3.476   9.610  1.4999 -0.6744  3.1123
  126MPD1     N 1930   3.448   3.723   9.430  0.2543 -0.4429  0.3214
  126MPD1    H5 1931   3.506   3.803   9.453 -0.6695 -0.2588  2.0228
  126MPD1    N1 1932   3.241   3.851   9.823 -0.3055  0.1259 -0.0590
  126MPD1    H6 1933   3.152   3.855   9.873 -0.0380 -1.5393  0.5423
  126MPD1    H7 1934   3.269   3.948   9.804  2.3735 -0.6899 -0.2576
  127MPD2     C 1935   0.345   3.656   9.814  0.0724  0.2497 -0.4589
  127MPD2    C1 1936   0.256   3.664   9.709 -0.0310  0.5572  0.6619
  127MPD2    C2 1937   0.252   3.774   9.633 -0.0825 -0.5962  0.4302
  127MPD2    C3 1938   0.350   3.876   9.654  0.5295 -0.0451  0.0148
  127MPD2    C4 1939   0.450   3.858   9.751  0.0687 -0.8686 -0.0703
  127MPD2    C5 1940   0.433   3.752   9.840 -0.3186 -0.2163 -1.1498
  127MPD2     H 1941   0.183   3.770   9.549 -0.4581  0.3589  0.6888
  127MPD2    H1 1942   0.520   3.940   9.764 -1.0289  0.0241  0.2339
  127MPD2    H2 1943   0.347   3.575   9.885  1.0405  2.4826  2.0672
  127MPD2    H3 1944   0.503   3.726   9.919 -0.4696 -0.8149 -1.2120
  127MPD2     N 1945   0.352   3.985   9.565 -1.4344  0.2107  0.3770
  127MPD2    H5 1946   0.306   3.974   9.475 -1.1245  0.9836  0.1168
  127MPD2    N1 1947   0.164   3.559   9.694  0.5973 -0.3813  0.9492
  127MPD2    H7 1948   0.169   3.481   9.760 -1.0045  1.0627  2.7745
  128TCq2    C1 1949   0.056   3.555   9.609  0.3062  0.1536  0.7534
  128TCq2    O2 1950   0.014   3.627   9.517  0.5633 -0.0058  0.2818
  128TCq2    C2 1951   4.698   3.444   9.645  0.5768  0.6248  0.1664
  128TCq2    C3 1952   4.690   3.412   9.774  0.0443 -0.3553  0.0157
  128TCq2    C4 1953   4.638   3.287   9.805  0.1260  0.5899  0.1684
  128TCq2    C5 1954   4.604   3.193   9.715 -0.7793  0.3224  0.6516
  128TCq2    C6 1955   4.624   3.228   9.583  0.6251  0.0432 -0.2434
  128TCq2    C7 1956   4.674   3.351   9.547  0.2237 -0.2378 -0.1765
  128TCq2    C8 1957   4.548   3.158   9.482 -0.8267 -0.4678 -0.0332
  128TCq2    O4 1958   4.572   3.182   9.366 -1.0066 -0.1797  0.1175
  128TCq2    C9 1959   4.629   3.250   9.944  0.4620  0.6068  0.1370
  128TCq2    O5 1960   4.693   3.316  10.029  0.0208 -0.2167  0.0794
  128TCq2    O6 1961   4.555   3.155   9.975 -0.6032  0.2518  0.1210
  128TCq2    H2 1962   4.719   3.482   9.852  1.0085 -0.9745  0.2239
  128TCq2    H3 1963   4.566   3.096   9.746  0.0839 -0.9662 -2.3096
  128TCq2    H4 1964   4.673   3.391   9.446 -1.9674 -0.6937 -0.3149
  129MPD2     C 1965   2.295   4.161   0.796  0.2277  0.1778 -0.0047
  129MPD2    C1 1966   2.409   4.130   0.866  0.0189  0.7988 -0.6189
  129MPD2    C2 1967   2.527   4.144   0.793  0.5053  0.3325  0.4516
  129MPD2    C3 1968   2.536   4.190   0.669 -0.5438  0.4948 -0.3070
  129MPD2    C4 1969   2.422   4.221   0.597  0.8116 -0.6065 -0.0949
  129MPD2    C5 1970   2.306   4.203   0.662 -0.1107  0.1239 -0.1672
  129MPD2     H 1971   2.620   4.126   0.845  1.4904  2.6618 -0.5312
  129MPD2    H1 1972   2.415   4.260   0.496 -0.0041 -1.4820 -0.3651
  129MPD2    H2 1973   2.194   4.143   0.831 -0.2949 -1.6502 -2.4196
  129MPD2    H3 1974   2.218   4.228   0.604  1.2100  1.9940 -1.3503
  129MPD2     N 1975   2.671   4.201   0.610 -0.6202  0.2722 -0.0318
  129MPD2    H5 1976   2.749   4.177   0.671 -1.1383 -0.2493  0.4203
  129MPD2    N1 1977   2.423   4.083   1.003  0.2680  0.2702 -0.2669
  129MPD2    H7 1978   2.514   4.045   1.029  1.7343  4.4790  0.7230
  130TCq2    C1 1979   2.322   4.049   1.092  0.2230 -0.3156 -0.3225
  130TCq2    O2 1980   2.204   4.037   1.072 -0.0630  0.2376  0.0156
  130TCq2    C2 1981   2.383   3.988   1.209  0.3674  0.7711 -0.0218
  130TCq2    C3 1982   2.511   4.002   1.240 -0.6139  0.5727 -0.5035
  130TCq2    C4 1983   2.563   3.933   1.344 -0.3127 -0.5493 -0.4228
  130TCq2    C5 1984   2.488   3.832   1.402  0.1346 -0.3631 -0.4237
  130TCq2    C6 1985   2.360   3.816   1.372  0.4524  0.1957  0.2183
  130TCq2    C7 1986   2.304   3.898   1.281 -0.2265  0.0061 -0.0421
  130TCq2    C8 1987   2.283   3.706   1.432 -0.5994 -0.7684  0.2627
  130TCq2    O4 1988   2.165   3.728   1.452  0.1088  0.0177 -0.0385
  130TCq2    C9 1989   2.705   3.945   1.370  1.3150  0.4388 -0.3082
  130TCq2    O5 1990   2.751   3.882   1.467  0.7738 -0.2319 -0.1678
  130TCq2    O6 1991   2.768   4.015   1.284 -0.2919 -0.0619 -0.5705
  130TCq2    H2 1992   2.557   4.092   1.202 -2.3190  0.7550 -2.1693
  130TCq2    H3 1993   2.534   3.773   1.480  0.7238  1.3540  0.5145
  130TCq2    H4 1994   2.197   3.886   1.267 -0.3940  0.5895  0.7397
  131MPD2     C 1995   2.430   2.754   9.239 -0.0380 -0.7542 -0.8699
  131MPD2    C1 1996   2.427   2.767   9.370 -0.3232 -0.3127 -0.7024
  131MPD2    C2 1997   2.322   2.725   9.448 -0.1737  0.4054 -0.2405
  131MPD2    C3 1998   2.211   2.698   9.385  0.2357 -0.1947 -0.0423
  131MPD2    C4 1999   2.219   2.666   9.251 -0.0093 -0.0096 -0.3948
  131MPD2    C5 2000   2.327   2.698   9.170 -0.4682 -1.1389  0.5346
  131MPD2     H 2001   2.319   2.749   9.553 -1.5620  0.5852 -0.3095
  131MPD2    H1 2002   2.130   2.641   9.196 -0.6001  0.7428  0.2142
  131MPD2    H2 2003   2.518   2.773   9.177 -0.0482  2.1864  0.0397
  131MPD2    H3 2004   2.331   2.692   9.062  0.4945  2.8971  0.3625
  131MPD2     N 2005   2.098   2.690   9.470  0.7891  0.0519 -0.5341
  131MPD2    H5 2006   2.102   2.701   9.571 -1.4891  1.8886 -0.6545
  131MPD2    N1 2007   2.545   2.805   9.434 -0.3758  0.5494  0.1795
  131MPD2    H7 2008   2.618   2.836   9.369 -2.4630  3.1270 -0.9596
  132TCq2    C1 2009   2.800   3.234   9.440 -0.4901 -0.1931  0.0110
  132TCq2    O2 2010   2.785   3.198   9.323  0.0292  0.1898  1.0685
  132TCq2    C2 2011   2.756   3.138   9.547 -0.3903  0.6413  0.7474
  132TCq2    C3 2012   2.798   3.159   9.675 -0.1129  0.2773 -0.1861
  132TCq2    C4 2013   2.761   3.063   9.764  0.4676  0.1107  0.5111
  132TCq2    C5 2014   2.697   2.946   9.734 -0.0395  0.3953  0.1340
  132TCq2    C6 2015   2.666   2.924   9.601  0.4870 -0.6315 -0.6370
  132TCq2    C7 2016   2.680   3.029   9.513  0.0809  0.9616  0.1312
  132TCq2    C8 2017   2.566   2.821   9.566  0.0688  0.5446  0.2337
  132TCq2    O4 2018   2.499   2.779   9.663 -0.0127 -0.6519  0.1392
  132TCq2    C9 2019   2.800   3.081   9.907  0.0067 -0.2378 -0.1386
  132TCq2    O5 2020   2.842   3.195   9.945  0.2881 -0.5335  0.7845
  132TCq2    O6 2021   2.800   2.979   9.980 -0.6462 -0.0988  0.7454
  132TCq2    H2 2022   2.869   3.235   9.704 -1.2378  0.9448  0.8394
  132TCq2    H3 2023   2.684   2.867   9.808 -0.3820  1.3938  1.1446
  132TCq2    H4 2024   2.665   3.016   9.406  0.3863 -0.2513  0.2408
  133MPD2     C 2025   2.033   3.398   8.642 -0.2264 -0.7726  0.2113
  133MPD2    C1 2026   2.071   3.458   8.761  0.2498 -0.4622  0.9336
  133MPD2    C2 2027   2.122   3.378   8.862  0.2384  0.0555 -0.4362
  133MPD2    C3 2028   2.131   3.245   8.845  0.1891 -0.4425 -0.0781
  133MPD2    C4 2029   2.088   3.184   8.724 -0.4297 -0.8075 -0.2457
  133MPD2    C5 2030   2.047   3.264   8.625 -0.2988  0.1151  0.0117
  133MPD2     H 2031   2.131   3.429   8.957 -4.1700 -0.8289  0.4526
  133MPD2    H1 2032   2.106   3.078   8.707  1.3394 -0.6287  0.5435
  133MPD2    H2 2033   2.003   3.454   8.555  1.3877  0.9365  0.7437
  133MPD2    H3 2034   2.027   3.221   8.528  0.6302 -1.7589  0.6627
  133MPD2     N 2035   2.192   3.167   8.950 -0.1657 -0.0267  0.1997
  133MPD2    H5 2036   2.191   3.066   8.940  0.3706  0.1322 -1.4961
  133MPD2    N1 2037   2.027   3.595   8.775  0.2713 -0.2659 -0.1674
  133MPD2    H7 2038   1.993   3.646   8.695 -1.3712  1.7096  1.7766
  134TCq2    C1 2039   2.035   3.658   8.893 -0.0386 -0.2018  0.0515
  134TCq2    O2 2040   2.064   3.616   9.003  0.2144 -0.2901  0.1671
  134TCq2    C2 2041   2.001   3.800   8.888  0.0352 -0.1659  0.1593
  134TCq2    C3 2042   1.960   3.860   8.770  0.3184  0.1392  0.0781
  134TCq2    C4 2043   1.882   3.971   8.786 -0.0540 -0.7226 -0.2755
  134TCq2    C5 2044   1.842   4.020   8.907  0.0948  0.4395  0.5508
  134TCq2    C6 2045   1.901   3.957   9.016 -0.0690  0.1473  0.4400
  134TCq2    C7 2046   1.992   3.858   9.013  0.4500 -0.2230  0.0027
  134TCq2    C8 2047   1.883   4.015   9.147  0.3984 -0.6018  0.2568
  134TCq2    O4 2048   1.869   4.135   9.161  0.4580 -0.6849 -0.2247
  134TCq2    C9 2049   1.829   4.035   8.667 -0.2642 -0.0767  0.3133
  134TCq2    O5 2050   1.776   4.146   8.690 -0.4079  0.0780  0.0947
  134TCq2    O6 2051   1.848   3.971   8.561 -0.0321  0.0196 -0.1445
  134TCq2    H2 2052   2.006   3.833   8.675  0.0321 -0.1056  0.0102
  134TCq2    H3 2053   1.772   4.100   8.926 -1.1508 -0.5001 -0.0960
  134TCq2    H4 2054   2.040   3.814   9.100 -0.4806  3.9321  2.6204
  135MPD2     C 2055   4.639   0.302   9.369 -0.2006 -0.1853  0.2846
  135MPD2    C1 2056   4.542   0.220   9.307 -0.6414 -0.4946  0.0082
  135MPD2    C2 2057   4.566   0.171   9.182 -0.1832 -0.0530 -0.2233
  135MPD2    C3 2058   4.696   0.174   9.132  0.7391  0.5512 -0.4253
  135MPD2    C4 2059   0.068   0.231   9.207 -0.2851  0.1163  0.0943
  135MPD2    C5 2060   0.040   0.300   9.316 -0.0616 -0.2607  0.0475
  135MPD2     H 2061   4.494   0.107   9.133 -0.5306 -1.5945  2.2728
  135MPD2    H1 2062   0.170   0.232   9.168 -0.0156  1.6429  0.8357
  135MPD2    H2 2063   4.622   0.342   9.469  1.1560 -1.5102  1.0465
  135MPD2    H3 2064   0.128   0.339   9.365 -0.9691 -1.1077  2.3443
  135MPD2     N 2065   0.014   0.107   9.009  0.3781  0.8318 -0.7720
  135MPD2    H5 2066   0.113   0.087   8.999  0.4158  0.5155  0.2221
  135MPD2    N1 2067   4.416   0.189   9.367  0.4059 -0.3326 -0.6224
  135MPD2    H7 2068   4.361   0.111   9.331  0.5523 -0.8526  0.2888
  136TCq2    C1 2069   4.366   0.246   9.484 -0.1555  0.2475  1.0022
  136TCq2    O2 2070   4.406   0.349   9.540  0.3618 -0.0482  1.0510
  136TCq2    C2 2071   4.260   0.170   9.550  0.8931  0.6001 -0.0311
  136TCq2    C3 2072   4.196   0.219   9.669  0.1232  0.1622 -0.2433
  136TCq2    C4 2073   4.110   0.147   9.742  0.4042  0.5018 -0.7450
  136TCq2    C5 2074   4.105   0.017   9.724 -0.0611 -0.5065 -0.4247
  136TCq2    C6 2075   4.178   4.690   9.616 -0.1619 -0.2263  0.3691
  136TCq2    C7 2076   4.250   0.042   9.525 -0.0800 -0.1350  0.0124
  136TCq2    C8 2077   4.177   4.548   9.591 -0.5316 -0.3336  0.1701
  136TCq2    O4 2078   4.260   4.498   9.514  0.2632 -0.1657  0.1218
  136TCq2    C9 2079   4.039   0.202   9.859  0.3730 -0.1370 -0.2152
  136TCq2    O5 2080   4.030   0.327   9.866  0.2332  0.0716  0.0601
  136TCq2    O6 2081   3.968   0.123   9.926  0.1523 -0.1442 -0.6193
  136TCq2    H2 2082   4.210   0.323   9.696 -2.1342  0.3951  0.0613
  136TCq2    H3 2083   4.022   4.689   9.773  0.5909 -0.8211  0.3574
  136TCq2    H4 2084   4.279   4.713   9.434 -0.1485 -0.4832  0.1916
  137MPD2     C 2085   4.010   3.699   9.100 -0.1286  0.2026  0.3750
  137MPD2    C1 2086   3.962   3.777   9.208 -0.5582 -0.4557 -0.3331
  137MPD2    C2 2087   3.929   3.714   9.325 -0.3162  0.0214  0.1062
  137MPD2    C3 2088   3.917   3.573   9.327  0.2523  0.2041  0.3267
  137MPD2    C4 2089   3.968   3.496   9.223  0.4135  0.7339  0.6421
  137MPD2    C5 2090   4.018   3.566   9.116  0.3044  0.1337 -0.3152
  137MPD2     H 2091   3.906   3.777   9.411  0.4902 -1.0459  1.0967
  137MPD2    H1 2092   3.981   3.389   9.219  2.5979  1.0512 -0.8594
  137MPD2    H2 2093   4.051   3.742   9.009 -0.6940  0.1033  0.0756
  137MPD2    H3 2094   4.047   3.506   9.030 -0.2504 -0.3410 -0.1745
  137MPD2     N 2095   3.866   3.517   9.445 -0.4533 -0.4760  0.7540
  137MPD2    H5 2096   3.854   3.578   9.525  2.7079  1.0418  0.0836
  137MPD2    N1 2097   3.993   3.913   9.206  0.5540  0.2504 -1.0444
  137MPD2    H7 2098   4.056   3.948   9.135  1.6172  1.7960  0.6320
  138TCq2    C1 2099   3.942   4.008   9.291 -0.0414  0.3090 -0.4182
  138TCq2    O2 2100   3.846   3.996   9.370 -0.0759 -0.6324 -0.3867
  138TCq2    C2 2101   3.982   4.147   9.267 -0.1917  0.5234 -0.7766
  138TCq2    C3 2102   4.095   4.191   9.199  0.1052  0.1880  0.9188
  138TCq2    C4 2103   4.121   4.324   9.186  0.9982 -0.3954  0.0124
  138TCq2    C5 2104   4.034   4.422   9.219  0.2240  0.4681 -0.2199
  138TCq2    C6 2105   3.916   4.375   9.275 -0.5229  0.3087 -0.2415
  138TCq2    C7 2106   3.894   4.245   9.311 -0.0695 -0.3356  0.5878
  138TCq2    C8 2107   3.808   4.473   9.289 -0.2993 -0.5445  0.8247
  138TCq2    O4 2108   3.837   4.590   9.277 -0.3080  0.2020  0.0054
  138TCq2    C9 2109   4.258   4.358   9.161 -0.1858  0.1867 -0.0969
  138TCq2    O5 2110   4.286   4.479   9.139  0.2902  0.1580 -0.3263
  138TCq2    O6 2111   4.348   4.266   9.175  0.4864 -0.2813 -0.2382
  138TCq2    H2 2112   4.172   4.118   9.179  1.6745  2.5142 -1.3777
  138TCq2    H3 2113   4.068   4.525   9.222  1.8399 -0.0558 -0.7281
  138TCq2    H4 2114   3.803   4.212   9.360 -0.3259 -1.0283 -0.3526
  139TMC2    C1 2115   3.825   2.279  13.078  0.7362  0.7177  0.1868
  139TMC2    C2 2116   3.879   2.361  12.991  0.0968  0.1530  0.7007
  139TMC2    C3 2117   3.819   2.483  12.984 -0.1449 -0.6484  0.0485
  139TMC2    C4 2118   3.712   2.309  13.149  0.9167 -1.2115 -0.0803
  139TMC2    C5 2119   3.653   2.429  13.132  0.3155  0.7249 -0.2006
  139TMC2    C6 2120   3.707   2.525  13.052  0.5034 -0.0147  0.1831
  139TMC2     C 2121   3.903   2.157  13.094 -0.5148 -0.6232  0.8022
  139TMC2     O 2122   4.007   2.151  13.031  0.4269  0.4738  0.1824
  139TMC2     H 2123   3.961   2.337  12.924 -0.6877 -0.6447  0.0292
  139TMC2    H1 2124   3.668   2.241  13.221  0.2718 -3.2442 -2.4009
  139TMC2    H2 2125   3.664   2.623  13.034  0.7342 -0.1564 -1.1250
  139TMC2    C7 2126   3.551   2.474  13.221  0.1626  0.7228  0.8347
  139TMC2    C8 2127   3.863   2.563  12.870  0.2761 -1.0982 -0.0723
  139TMC2    O1 2128   3.512   2.590  13.209 -0.0539 -0.2321 -0.2689
  139TMC2    O2 2129   3.841   2.526  12.758 -0.6576 -0.0317  0.0248
  139TMC2    O5 2130   3.876   2.693  12.913 -0.5804 -0.8257 -0.0035
  139TMC2    H5 2131   3.860   2.709  13.008  0.0709  0.2794 -0.0797
  140MPD2     C 2132   3.833   1.881  13.319  0.1662  0.2766 -0.2311
  140MPD2    C1 2133   3.893   1.942  13.215  0.6418  0.7022  0.6527
  140MPD2    C2 2134   4.015   1.884  13.170 -0.3595 -0.5114  0.8456
  140MPD2    C3 2135   4.057   1.761  13.215 -0.0946 -0.1242  0.1460
  140MPD2    C4 2136   3.990   1.700  13.320 -0.4974 -0.7369  0.3639
  140MPD2    C5 2137   3.873   1.760  13.365  0.0039 -0.1683  0.2700
  140MPD2     H 2138   4.074   1.933  13.094 -1.4727 -0.6044 -0.0863
  140MPD2    H1 2139   4.021   1.604  13.358 -3.0062 -1.1644  1.3517
  140MPD2    H2 2140   3.738   1.920  13.356 -0.0553 -1.6289  1.1774
  140MPD2    H3 2141   3.820   1.709  13.444  2.4007 -3.2542 -0.1268
  140MPD2     N 2142   4.175   1.698  13.155  0.1965 -0.0927  0.3596
  140MPD2    H5 2143   4.222   1.743  13.078 -0.5320  0.7820  0.4225
  140MPD2    N1 2144   3.844   2.070  13.180 -0.1029 -0.8965  0.2156
  140MPD2    H7 2145   3.757   2.089  13.227 -1.0917 -2.7155 -0.8775
  141TCq2    C1 2146   4.570   2.925  14.389  0.6827 -0.0196 -0.4000
  141TCq2    O2 2147   4.567   3.050  14.380 -0.4849  0.5504 -0.0266
  141TCq2    C2 2148   4.513   2.871  14.508 -1.0558  0.4432 -0.4034
  141TCq2    C3 2149   4.486   2.737  14.525 -0.0191  0.0192 -1.1350
  141TCq2    C4 2150   4.419   2.699  14.643  0.7262  0.2598  0.0044
  141TCq2    C5 2151   4.376   2.785  14.730 -0.2212 -0.1797 -0.0354
  141TCq2    C6 2152   4.400   2.915  14.704 -0.9047  0.4142 -0.1040
  141TCq2    C7 2153   4.479   2.961  14.600  0.9931  0.1965 -0.2063
  141TCq2    C8 2154   4.378   3.009  14.813 -0.0648 -0.3061  0.0107
  141TCq2    O4 2155   4.380   2.977  14.929  0.2396 -0.0085  1.1254
  141TCq2    C9 2156   4.398   2.561  14.660  0.6685 -0.7263 -0.9656
  141TCq2    O5 2157   4.331   2.529  14.764 -0.2778 -0.4237  0.1116
  141TCq2    O6 2158   4.414   2.491  14.559  0.5849  0.3752  0.1144
  141TCq2    H2 2159   4.503   2.663  14.448  1.9969 -1.4792  0.7383
  141TCq2    H3 2160   4.328   2.753  14.822 -1.2564 -0.2422 -0.5940
  141TCq2    H4 2161   4.508   3.063  14.581 -1.4494  1.3716  2.3828
  142MPD2     C 2162   2.392   1.285  10.828  0.0778  0.5915  0.1126
  142MPD2    C1 2163   2.305   1.255  10.728 -0.2044  0.3506 -0.4620
  142MPD2    C2 2164   2.313   1.314  10.604  0.0534  0.4016 -0.1056
  142MPD2    C3 2165   2.420   1.404  10.580 -0.4188  0.1490 -0.1471
  142MPD2    C4 2166   2.509   1.438  10.678  0.1189 -0.4528 -0.1007
  142MPD2    C5 2167   2.501   1.371  10.801 -0.2524 -0.0996  0.2970
  142MPD2     H 2168   2.236   1.306  10.529  0.6807 -2.1178 -0.4857
  142MPD2    H1 2169   2.586   1.511  10.652  1.8947 -2.1417  0.4267
  142MPD2    H2 2170   2.391   1.226  10.918 -1.5143 -2.6151 -2.0247
  142MPD2    H3 2171   2.557   1.397  10.890 -2.5049  0.5384  1.5133
  142MPD2     N 2172   2.435   1.476  10.462  0.2181  0.0924 -0.0608
  142MPD2    H5 2173   2.473   1.569  10.469  1.8089 -0.7186  2.3015
  142MPD2    N1 2174   2.201   1.166  10.748 -0.4148  0.3413  0.4275
  142MPD2    H7 2175   2.192   1.131  10.843 -0.7454 -0.0061  0.2680
  143TCq2    C1 2176   2.377   1.450  10.337  0.7427  0.1453 -0.1742
  143TCq2    O2 2177   2.341   1.342  10.289  0.4228  0.0069 -0.2293
  143TCq2    C2 2178   2.351   1.564  10.252  0.1517  0.0825 -0.2779
  143TCq2    C3 2179   2.447   1.656  10.227  0.6672  0.3381  0.0450
  143TCq2    C4 2180   2.445   1.741  10.112  0.8178  0.5635 -1.0073
  143TCq2    C5 2181   2.338   1.734  10.029  0.2223 -0.6732 -0.5545
  143TCq2    C6 2182   2.236   1.650  10.064 -0.2344  0.3207  0.2696
  143TCq2    C7 2183   2.251   1.557  10.163  0.6121  0.0710 -0.2391
  143TCq2    C8 2184   2.102   1.683  10.010  0.4409 -0.3448 -1.1584
  143TCq2    O4 2185   2.091   1.743   9.902 -0.4378 -0.5836 -0.1812
  143TCq2    C9 2186   2.556   1.817  10.077  0.6699 -0.1633  0.1134
  143TCq2    O5 2187   2.538   1.897   9.985 -0.2952 -0.7416  0.3120
  143TCq2    O6 2188   2.666   1.807  10.140 -0.0946  0.2621  0.0942
  143TCq2    H2 2189   2.539   1.660  10.286 -0.5012  2.7830  1.7236
  143TCq2    H3 2190   2.342   1.783   9.933  2.3535 -0.9330 -0.6070
  143TCq2    H4 2191   2.184   1.474  10.180 -2.2761  2.4661  0.1178
  144MPD2     C 2192   4.029   0.880   0.925  0.2287  0.9496 -0.4496
  144MPD2    C1 2193   4.115   0.965   0.852  0.3081 -0.1661  0.4775
  144MPD2    C2 2194   4.247   0.955   0.881  0.4516  0.2999  0.2230
  144MPD2    C3 2195   4.297   0.865   0.970 -0.1163 -0.4270 -0.2941
  144MPD2    C4 2196   4.211   0.772   1.029  0.4440 -0.0198 -0.2920
  144MPD2    C5 2197   4.076   0.787   1.013 -0.1023  0.0234 -0.0290
  144MPD2     H 2198   4.310   1.018   0.820 -2.0029  2.1440 -0.3943
  144MPD2    H1 2199   4.252   0.701   1.100 -0.0362  0.7297  0.7339
  144MPD2    H2 2200   3.923   0.881   0.904 -0.2624  1.3775  2.0054
  144MPD2    H3 2201   4.006   0.723   1.066 -0.3367 -0.1846 -0.5844
  144MPD2     N 2202   4.435   0.849   0.993 -0.1469  0.4096 -0.7646
  144MPD2    H5 2203   4.462   0.766   1.045  0.7717  1.7661  0.9128
  144MPD2    N1 2204   4.082   1.042   0.738  0.4748 -0.1505 -0.5417
  144MPD2    H7 2205   4.154   1.095   0.689  0.6220 -1.7435 -2.0648
  145TCq2    C1 2206   4.533   0.947   0.979  0.0751  0.1732  0.4407
  145TCq2    O2 2207   4.537   1.070   0.953  0.5255  0.3192 -0.3686
  145TCq2    C2 2208   4.656   0.902   1.043  0.2569 -0.0338  0.0978
  145TCq2    C3 2209   4.699   0.774   1.018 -0.2998  0.5843 -0.4397
  145TCq2    C4 2210   0.081   0.720   1.081  0.4977 -0.5052  0.3729
  145TCq2    C5 2211   0.141   0.782   1.190 -0.0938  0.5784 -0.1635
  145TCq2    C6 2212   0.101   0.905   1.219  0.2200  0.2113 -0.0249
  145TCq2    C7 2213   4.711   0.963   1.155  0.9774 -0.2270  0.1691
  145TCq2    C8 2214   0.146   0.952   1.347 -0.3948 -0.3738  0.9320
  145TCq2    O4 2215   0.250   0.903   1.386  0.9275 -0.3624 -0.0384
  145TCq2    C9 2216   0.130   0.589   1.045  0.3644 -0.1159  0.3148
  145TCq2    O5 2217   0.249   0.555   1.070 -0.1022 -0.2444 -0.2083
  145TCq2    O6 2218   0.054   0.514   0.975  0.2255  0.3696  0.1979
  145TCq2    H2 2219   4.666   0.721   0.930 -1.1084  2.0793 -1.0381
  145TCq2    H3 2220   0.220   0.726   1.240  0.2508  0.3618 -0.9586
  145TCq2    H4 2221   4.667   1.059   1.182 -0.0480 -1.2346  2.1165
  146TMC2    C1 2222   1.634   4.584  12.705  0.5898  0.9405  0.3745
  146TMC2    C2 2223   1.581   4.680  12.623 -0.0664  0.5081 -0.3746
  146TMC2    C3 2224   1.502   4.635  12.524 -0.1538  0.1054  0.6846
  146TMC2    C4 2225   1.640   4.450  12.667  0.9836 -0.1519 -0.5869
  146TMC2    C5 2226   1.579   4.410  12.554  0.0438  0.8540  0.4081
  146TMC2    C6 2227   1.503   4.503  12.483  0.2406 -0.1184  0.0996
  146TMC2     C 2228   1.708   4.637  12.812 -0.8936 -0.6025 -0.9641
  146TMC2     O 2229   1.756   0.031  12.803  0.6233 -0.5421  0.5324
  146TMC2     H 2230   1.570   0.061  12.647  1.2586  0.3406  0.9822
  146TMC2    H1 2231   1.707   4.388  12.726  1.4237 -0.6759 -1.6369
  146TMC2    H2 2232   1.461   4.468  12.389  0.5861  2.7934 -1.1506
  146TMC2    C7 2233   1.571   4.273  12.514  0.1301  0.6120 -0.3769
  146TMC2    C8 2234   1.413   0.004  12.459  0.5438  0.1572 -0.7195
  146TMC2    O1 2235   1.486   4.241  12.432 -0.6372  0.7259 -0.0806
  146TMC2    O2 2236   1.378   0.010  12.342  0.0914  0.1367 -0.5781
  146TMC2    O5 2237   1.340   0.057  12.561 -0.0084  0.3680 -0.1166
  146TMC2    H5 2238   1.350   0.006  12.644  1.0890 -0.6833 -0.8951
  147MPD2     C 2239   1.624   3.776  12.609 -0.7054 -0.0615 -0.0838
  147MPD2    C1 2240   1.711   3.845  12.691 -0.2290  0.1037  0.1064
  147MPD2    C2 2241   1.720   3.986  12.684  0.2589 -0.3848  0.0558
  147MPD2    C3 2242   1.658   4.049  12.574 -0.7672  0.2086 -0.4097
  147MPD2    C4 2243   1.586   3.977  12.481  0.4579  0.5011  0.3166
  147MPD2    C5 2244   1.563   3.837  12.501  0.1002  0.4222 -0.2674
  147MPD2     H 2245   1.777   4.037  12.761 -0.1765 -2.2407  1.6222
  147MPD2    H1 2246   1.538   4.033  12.402  0.0924  1.0332  0.9176
  147MPD2    H2 2247   1.614   3.668  12.621  0.7709 -0.5131 -2.9697
  147MPD2    H3 2248   1.504   3.776  12.434  1.4253 -1.0005 -0.1408
  147MPD2     N 2249   1.656   4.186  12.578 -0.0687  0.3644 -0.0346
  147MPD2    H5 2250   1.716   4.225  12.650 -2.5550  1.5085  1.4082
  147MPD2    N1 2251   1.781   3.771  12.791  0.5227  0.0724  0.0254
  147MPD2    H7 2252   1.759   3.672  12.782  0.1418  0.0812  0.8586
  148MPD2     C 2253   2.506   2.738  10.405 -0.8837  0.2734  0.7064
  148MPD2    C1 2254   2.506   2.617  10.338  0.0419 -0.4859 -0.0181
  148MPD2    C2 2255   2.415   2.519  10.374 -1.1790  0.4519 -0.0134
  148MPD2    C3 2256   2.329   2.535  10.483  0.0141 -0.2499  0.1277
  148MPD2    C4 2257   2.334   2.655  10.556 -0.4349  0.1667  0.3921
  148MPD2    C5 2258   2.423   2.749  10.518  0.0486 -0.4171  0.5455
  148MPD2     H 2259   2.428   2.421  10.329 -0.2648 -0.1330  1.5531
  148MPD2    H1 2260   2.275   2.670  10.645 -1.4379  0.9598 -0.3979
  148MPD2    H2 2261   2.576   2.818  10.384 -1.5350  0.7670  0.3971
  148MPD2    H3 2262   2.430   2.838  10.578 -1.7329 -2.0522  3.2097
  148MPD2     N 2263   2.237   2.436  10.528  0.3269  0.1603  0.0078
  148MPD2    H5 2264   2.186   2.463  10.611 -1.6374  0.1989 -1.2181
  148MPD2    N1 2265   2.585   2.589  10.226  0.3747 -0.0981  0.1074
  148MPD2    H7 2266   2.564   2.499  10.184  1.3732  0.4277 -1.5361
  149TCq2    C1 2267   2.678   2.678  10.168  0.4785 -0.6494  0.7157
  149TCq2    O2 2268   2.704   2.792  10.201 -0.1674  0.2912 -0.0413
  149TCq2    C2 2269   2.719   2.630  10.033 -0.2573 -0.1049  1.2431
  149TCq2    C3 2270   2.841   2.669   9.985 -0.5672  0.0199 -0.4043
  149TCq2    C4 2271   2.873   2.639   9.853  0.2017  0.1637  0.6115
  149TCq2    C5 2272   2.788   2.559   9.784 -0.5888 -0.4270  0.0503
  149TCq2    C6 2273   2.668   2.524   9.836 -0.6208  0.1048  0.3876
  149TCq2    C7 2274   2.631   2.554   9.958  0.6208 -0.0068  0.0575
  149TCq2    C8 2275   2.579   2.436   9.761 -1.2146  0.1570  0.5602
  149TCq2    O4 2276   2.513   2.362   9.833 -0.0828  0.1143  0.2957
  149TCq2    C9 2277   3.006   2.664   9.806 -0.6191 -0.1036  0.0900
  149TCq2    O5 2278   3.081   2.724   9.890  0.1969 -0.1731 -0.3387
  149TCq2    O6 2279   3.046   2.615   9.698  0.5310  0.5724  0.0065
  149TCq2    H2 2280   2.901   2.717  10.062 -1.9258 -0.2400  0.8083
  149TCq2    H3 2281   2.817   2.513   9.690 -3.9081 -1.8726 -0.2875
  149TCq2    H4 2282   2.524   2.552   9.980  0.4816  0.5552 -0.5773
  150MPD2     C 2283   3.268   2.750  11.997 -0.4105  0.8684  0.8739
  150MPD2    C1 2284   3.329   2.722  11.875  0.1927 -0.0857 -0.3305
  150MPD2    C2 2285   3.454   2.758  11.845 -0.1548 -0.2734  0.3410
  150MPD2    C3 2286   3.531   2.822  11.938 -0.1062  0.3071  0.5681
  150MPD2    C4 2287   3.481   2.846  12.065  0.0260 -0.4640  0.0217
  150MPD2    C5 2288   3.350   2.811  12.092 -0.2054  1.4583  0.0496
  150MPD2     H 2289   3.498   2.735  11.749 -1.3871 -2.1165  0.2149
  150MPD2    H1 2290   3.534   2.894  12.146 -1.1188 -1.5983  1.4481
  150MPD2    H2 2291   3.167   2.721  12.022 -0.4687  0.5331  0.2489
  150MPD2    H3 2292   3.300   2.830  12.186  0.6864  0.9272  0.6381
  150MPD2     N 2293   3.664   2.859  11.898  0.0668  0.2487 -0.1728
  150MPD2    H5 2294   3.679   2.805  11.813 -0.7332 -1.6111  0.8656
  150MPD2    N1 2295   3.253   2.640  11.789  0.1813  0.3001 -0.6464
  150MPD2    H7 2296   3.177   2.586  11.828  1.6698 -0.2100  1.5680
  151TCq2    C1 2297   3.755   2.933  11.963  0.3779 -0.2557 -0.4667
  151TCq2    O2 2298   3.749   3.001  12.066  0.4143 -0.0926  0.3229
  151TCq2    C2 2299   3.883   2.912  11.885  0.2986  0.0537 -0.1104
  151TCq2    C3 2300   3.884   2.836  11.774 -0.1422  0.3927  0.2396
  151TCq2    C4 2301   3.998   2.762  11.760  0.4213  0.2812 -0.3051
  151TCq2    C5 2302   4.111   2.790  11.828  0.1864  0.0105 -0.5496
  151TCq2    C6 2303   4.115   2.897  11.916 -0.1036  0.3497 -1.0165
  151TCq2    C7 2304   3.998   2.955  11.953 -0.5922 -0.9194 -0.6669
  151TCq2    C8 2305   4.230   2.952  11.986  0.0230 -0.1544  0.5326
  151TCq2    O4 2306   4.223   3.070  12.018 -0.0612  0.4124 -0.6748
  151TCq2    C9 2307   4.003   2.643  11.679 -0.8293 -0.3689 -0.5191
  151TCq2    O5 2308   4.101   2.566  11.690  0.7125 -0.0459 -0.2503
  151TCq2    O6 2309   3.890   2.604  11.638 -1.1423  0.3134 -0.5598
  151TCq2    H2 2310   3.798   2.809  11.713 -1.2849 -1.6134  2.7150
  151TCq2    H3 2311   4.202   2.739  11.798 -1.1140 -0.4111 -3.8022
  151TCq2    H4 2312   3.989   3.015  12.043  1.7431  0.7265 -1.5183
  152MPD2     C 2313   3.602   2.725  12.665 -0.2135 -0.3781 -0.0464
  152MPD2    C1 2314   3.593   2.698  12.532  0.9391  0.3415  0.3036
  152MPD2    C2 2315   3.474   2.645  12.481  0.6841  0.1132  0.2279
  152MPD2    C3 2316   3.371   2.619  12.567 -0.4075  0.0462  0.0599
  152MPD2    C4 2317   3.385   2.644  12.704  0.3240 -0.2962  0.1591
  152MPD2    C5 2318   3.497   2.701  12.752 -0.1392  0.2382 -0.1668
  152MPD2     H 2319   3.462   2.636  12.374 -1.9950  0.4255  0.4913
  152MPD2    H1 2320   3.317   2.616  12.785  0.2686  2.2532  0.9779
  152MPD2    H2 2321   3.692   2.772  12.702 -0.7218  0.6387 -0.1084
  152MPD2    H3 2322   3.500   2.734  12.856  2.3827 -1.0471  0.1846
  152MPD2     N 2323   3.270   2.546  12.510  0.3266 -0.1281 -0.3690
  152MPD2    H5 2324   3.288   2.524  12.413  0.7003 -1.2289 -0.0506
  152MPD2    N1 2325   3.712   2.726  12.456  0.0395  0.3212  0.0148
  152MPD2    H7 2326   3.784   2.770  12.511 -1.6860  0.5340  2.1349
  153TCq2    C1 2327   3.733   2.698  12.323  0.5730 -0.1633 -0.0069
  153TCq2    O2 2328   3.664   2.627  12.249 -0.0985  0.3836  0.4867
  153TCq2    C2 2329   3.866   2.731  12.273  0.3668 -0.0750  0.7652
  153TCq2    C3 2330   3.918   2.645  12.181 -0.0620 -0.5269 -0.7797
  153TCq2    C4 2331   4.052   2.646  12.160  0.7678 -0.4927 -0.3192
  153TCq2    C5 2332   4.135   2.720  12.237 -0.0415  1.0315  0.9412
  153TCq2    C6 2333   4.085   2.805  12.329 -0.6868 -0.2189 -0.0338
  153TCq2    C7 2334   3.944   2.823  12.342  0.5303  0.0748 -0.1395
  153TCq2    C8 2335   4.171   2.894  12.414 -0.5592 -0.9617 -0.3683
  153TCq2    O4 2336   4.136   3.008  12.427  0.2932  0.2131  0.0498
  153TCq2    C9 2337   4.106   2.559  12.052  0.8877  0.0148  0.0744
  153TCq2    O5 2338   4.228   2.570  12.031  0.0127  0.2412 -0.1644
  153TCq2    O6 2339   4.035   2.466  12.001 -0.3758  0.2779 -0.1345
  153TCq2    H2 2340   3.861   2.564  12.136 -0.6431 -1.5084  1.7117
  153TCq2    H3 2341   4.242   2.713  12.220 -0.1827 -1.4531  1.1115
  153TCq2    H4 2342   3.904   2.895  12.413 -1.5829 -1.7747  0.5460
  154MPD2     C 2343   0.268   1.980   0.944  0.4190 -0.9658 -0.8939
  154MPD2    C1 2344   0.230   2.056   1.051 -0.0045  0.8937  0.1503
  154MPD2    C2 2345   0.141   2.159   1.031 -0.4101  0.8158 -0.3714
  154MPD2    C3 2346   0.097   2.189   0.899  0.4246 -0.3095 -0.3343
  154MPD2    C4 2347   0.139   2.109   0.800 -0.6371 -0.3067 -0.3581
  154MPD2    C5 2348   0.222   2.000   0.816 -0.4806  0.3144  0.1146
  154MPD2     H 2349   0.107   2.211   1.120 -1.3694  0.0928 -0.3182
  154MPD2    H1 2350   0.120   2.127   0.694  3.1599 -1.8516 -1.2808
  154MPD2    H2 2351   0.341   1.900   0.959 -0.1351 -1.5725 -1.4201
  154MPD2    H3 2352   0.254   1.941   0.731  2.3057 -1.7523  2.5728
  154MPD2     N 2353   0.021   2.302   0.878  0.6366  0.3584 -1.0027
  154MPD2    H5 2354   4.702   2.337   0.963  0.6513 -1.4779 -0.2514
  154MPD2    N1 2355   0.288   2.009   1.170 -0.1616 -0.1736 -0.7765
  154MPD2    H7 2356   0.330   1.916   1.176  1.1755  0.5894  1.5403
  155TCq2    C1 2357   0.297   2.092   1.279 -0.0843  0.0434  0.4625
  155TCq2    O2 2358   0.282   2.213   1.294  0.0021  0.3040  0.0264
  155TCq2    C2 2359   0.344   2.014   1.396 -0.1481  0.2136  0.4147
  155TCq2    C3 2360   0.380   2.081   1.508 -0.4835 -0.3904  0.5923
  155TCq2    C4 2361   0.372   2.018   1.630 -0.1655 -0.1176  0.1205
  155TCq2    C5 2362   0.335   1.884   1.635  0.1632  0.0360  0.2589
  155TCq2    C6 2363   0.316   1.811   1.516 -0.4065 -0.4403  0.1765
  155TCq2    C7 2364   0.316   1.876   1.397 -0.1942  0.4569 -0.1446
  155TCq2    C8 2365   0.342   1.669   1.528 -0.0380  0.3077  0.1806
  155TCq2    O4 2366   0.357   1.627   1.643  0.2133 -0.1667  0.7312
  155TCq2    C9 2367   0.416   2.079   1.752  0.2617  0.2919  0.6530
  155TCq2    O5 2368   0.442   2.006   1.850  0.1020 -0.1804  0.7238
  155TCq2    O6 2369   0.434   2.204   1.739 -0.3941 -0.3593  0.1049
  155TCq2    H2 2370   0.394   2.188   1.505 -0.5908 -0.3610  1.2675
  155TCq2    H3 2371   0.321   1.831   1.729 -1.5596 -1.6263 -0.9491
  155TCq2    H4 2372   0.288   1.822   1.307 -0.5488  0.0519  0.2078
  156MPD2     C 2373   3.955   4.267  11.920  0.2105  0.0922 -0.4598
  156MPD2    C1 2374   3.917   4.400  11.911 -0.1766  0.6622  0.2176
  156MPD2    C2 2375   3.814   4.438  11.988 -0.0003  0.2035  0.3138
  156MPD2    C3 2376   3.749   4.349  12.067 -0.7717  0.7117 -0.1573
  156MPD2    C4 2377   3.791   4.214  12.075  0.1662  0.1088  0.1067
  156MPD2    C5 2378   3.899   4.184  12.004 -0.2960  0.2759 -0.4016
  156MPD2     H 2379   3.779   4.540  11.991  1.1776  0.5699  1.7281
  156MPD2    H1 2380   3.750   4.126  12.124 -0.0738  0.3385  0.3145
  156MPD2    H2 2381   4.040   4.228  11.865  0.8684  0.7207  0.1189
  156MPD2    H3 2382   3.940   4.085  12.018  0.4244  0.9126  2.0422
  156MPD2     N 2383   3.650   4.396  12.146 -0.0217 -0.3130  0.0694
  156MPD2    H5 2384   3.636   4.496  12.152 -1.3963 -0.5064  0.1775
  156MPD2    N1 2385   3.984   4.484  11.826  0.5795  0.2035 -0.0271
  156MPD2    H7 2386   4.072   4.447  11.792  0.1161 -0.7223 -0.2007
  157TCq2    C1 2387   3.939   4.603  11.782 -0.6390  0.0282  0.6302
  157TCq2    O2 2388   3.835   4.660  11.812 -0.3506  0.4165 -0.2418
  157TCq2    C2 2389   3.987   4.642  11.648  0.5163 -0.1808  0.0669
  157TCq2    C3 2390   4.020   4.544  11.547  0.0678  0.8411  0.5048
  157TCq2    C4 2391   4.004   4.586  11.417  0.1671 -0.3385 -0.4045
  157TCq2    C5 2392   3.960   4.715  11.393  1.1062  0.4874 -0.3283
  157TCq2    C6 2393   3.926   0.079  11.489 -0.5129 -0.1062 -0.9846
  157TCq2    C7 2394   3.949   0.046  11.622  0.0145 -0.2724 -0.2018
  157TCq2    C8 2395   3.871   0.205  11.444 -0.9999  0.1842 -0.0078
  157TCq2    O4 2396   3.915   0.256  11.341 -0.5861  0.0495 -0.2851
  157TCq2    C9 2397   4.040   4.500  11.306  0.0167  0.1684 -0.0412
  157TCq2    O5 2398   4.011   4.539  11.190 -0.4183  0.1163 -0.1838
  157TCq2    O6 2399   4.090   4.387  11.335 -0.3002  0.3361  0.4136
  157TCq2    H2 2400   4.062   4.446  11.566 -0.8673  0.4308  0.4205
  157TCq2    H3 2401   3.942   0.018  11.289 -1.1558  2.5495  0.5964
  157TCq2    H4 2402   3.926   0.113  11.704 -0.0712  1.8744 -2.0161
  158TMC2    C1 2403   4.293   3.323  13.366  0.4226  0.2162 -0.1708
  158TMC2    C2 2404   4.348   3.401  13.267 -0.9689  0.0673 -0.2640
  158TMC2    C3 2405   4.287   3.525  13.244 -0.1997 -0.1585 -0.0017
  158TMC2    C4 2406   4.171   3.351  13.422  0.0422 -0.0693 -0.1087
  158TMC2    C5 2407   4.112   3.468  13.384 -0.2415  0.2712 -0.5602
  158TMC2    C6 2408   4.170   3.565  13.302 -0.2820 -0.2870 -0.0360
  158TMC2     C 2409   4.358   3.194  13.393 -0.0918  0.3360  0.0323
  158TMC2     O 2410   4.445   3.154  13.318  0.2877  0.4550 -0.4351
  158TMC2     H 2411   4.453   3.388  13.241 -0.7128  1.7087 -0.0991
  158TMC2    H1 2412   4.138   3.296  13.510 -0.3865  1.7911  0.8873
  158TMC2    H2 2413   4.115   3.656  13.282 -2.2338 -1.0085  2.0572
  158TMC2    C7 2414   4.000   3.516  13.463  0.5281  0.5906  0.5025
  158TMC2    C8 2415   4.329   3.612  13.137  0.0306 -0.2824  0.6792
  158TMC2    O1 2416   3.988   3.634  13.474  0.2142  0.0405 -0.4909
  158TMC2    O2 2417   4.263   3.690  13.069 -0.6495  0.6132 -0.2040
  158TMC2    O5 2418   4.460   3.622  13.151  0.0796 -0.4322 -0.3398
  158TMC2    H5 2419   4.494   3.574  13.230  1.1765 -0.6011 -0.9033
  159MPD2     C 2420   4.497   2.843  13.739  0.2343 -0.7770  0.4115
  159MPD2    C1 2421   4.418   2.943  13.800 -0.2965 -0.5873  0.1965
  159MPD2    C2 2422   4.383   3.048  13.730 -0.7293 -0.2145 -0.2953
  159MPD2    C3 2423   4.420   3.065  13.599 -0.3663 -0.5907 -0.4896
  159MPD2    C4 2424   4.503   2.972  13.544 -0.2244  0.0252  0.6764
  159MPD2    C5 2425   4.542   2.862  13.614 -0.2774  0.2275 -0.0377
  159MPD2     H 2426   4.312   3.120  13.770 -1.2604 -0.2141 -1.2346
  159MPD2    H1 2427   4.522   2.979  13.437 -0.2429 -0.7617  0.6248
  159MPD2    H2 2428   4.536   2.757  13.791  1.0539 -1.2387 -0.9584
  159MPD2    H3 2429   4.610   2.785  13.579 -2.2384 -1.3994 -0.2803
  159MPD2     N 2430   4.349   3.161  13.527  0.3494 -0.7382 -0.2243
  159MPD2    H5 2431   4.288   3.220  13.584  3.1622 -0.5805  2.6600
  159MPD2    N1 2432   4.385   2.919  13.932  0.2709  0.5795 -0.3626
  159MPD2    H7 2433   4.429   2.839  13.977  0.1169 -0.5747 -2.2776
  160TMC2    C1 2434   3.222   1.642   1.192  0.5213  0.0498  0.5057
  160TMC2    C2 2435   3.203   1.727   1.295  0.0313  0.3682 -0.3327
  160TMC2    C3 2436   3.309   1.778   1.358  0.1841  0.4286  0.2626
  160TMC2    C4 2437   3.343   1.599   1.150  0.2432 -0.0152  0.0433
  160TMC2    C5 2438   3.451   1.635   1.232  0.2049 -0.5097 -0.0525
  160TMC2    C6 2439   3.435   1.720   1.338  0.1102 -0.3316  0.7424
  160TMC2     C 2440   3.109   1.579   1.128 -0.4879  0.6454 -0.3700
  160TMC2     O 2441   3.131   1.464   1.084  0.3342 -0.0734 -0.0031
  160TMC2     H 2442   3.107   1.772   1.318  1.0077  0.4282  3.7555
  160TMC2    H1 2443   3.355   1.540   1.060 -0.1011 -0.1899  0.1100
  160TMC2    H2 2444   3.527   1.762   1.376 -0.3387  1.2815  0.0507
  160TMC2    C7 2445   3.574   1.625   1.164  0.2090 -0.2109  0.5426
  160TMC2    C8 2446   3.279   1.882   1.461  0.1767 -0.2681 -0.4921
  160TMC2    O1 2447   3.581   1.535   1.078 -0.0083 -0.4563 -0.0560
  160TMC2    O2 2448   3.166   1.924   1.481 -0.3568 -0.4862 -0.1960
  160TMC2    O5 2449   3.375   1.873   1.554  0.7088 -0.0158  0.1412
  160TMC2    H5 2450   3.451   1.814   1.533  0.8854  0.1801  0.2332
  161MPD2     C 2451   2.838   1.477   1.142 -0.1341 -0.4258  0.1590
  161MPD2    C1 2452   2.873   1.611   1.141 -0.0741  0.6566  0.1732
  161MPD2    C2 2453   2.771   1.696   1.165  0.1623 -0.3602  0.4504
  161MPD2    C3 2454   2.639   1.653   1.182 -0.2156 -0.3472  0.3908
  161MPD2    C4 2455   2.609   1.518   1.173  0.6059  0.5518 -0.1311
  161MPD2    C5 2456   2.713   1.431   1.155  0.6178 -0.0321 -0.1402
  161MPD2     H 2457   2.791   1.803   1.172  1.9957 -0.7033  0.4829
  161MPD2    H1 2458   2.506   1.488   1.184  0.0839  1.8830 -1.3002
  161MPD2    H2 2459   2.914   1.402   1.120  1.5619  1.2593  0.3239
  161MPD2    H3 2460   2.694   1.324   1.155  1.1755 -0.1277  0.2206
  161MPD2     N 2461   2.531   1.745   1.197 -0.9804 -0.1485  0.2991
  161MPD2    H5 2462   2.436   1.711   1.186 -0.6518 -1.2674  0.9524
  161MPD2    N1 2463   3.002   1.661   1.133  0.3720 -0.2248  0.4163
  161MPD2    H7 2464   3.016   1.761   1.146  1.7191 -0.0584 -2.1883
  162TMC2    C1 2465   1.384   3.904   0.883 -0.3739 -0.7678  0.5246
  162TMC2    C2 2466   1.314   4.012   0.853  0.0986 -0.4255 -0.8966
  162TMC2    C3 2467   1.202   4.044   0.924 -0.8446 -1.0788  0.0822
  162TMC2    C4 2468   1.343   3.823   0.994  0.5599 -0.0460 -0.5365
  162TMC2    C5 2469   1.225   3.853   1.054  0.1508 -0.9875  0.0944
  162TMC2    C6 2470   1.149   3.962   1.013 -0.5365  0.0105 -0.4378
  162TMC2     C 2471   1.497   3.866   0.793 -0.3408 -0.4884  0.2867
  162TMC2     O 2472   1.502   3.939   0.696  0.0274  0.4562  0.0142
  162TMC2     H 2473   1.345   4.076   0.771  0.9770  1.7518  1.1400
  162TMC2    H1 2474   1.376   3.720   1.002  4.7488  1.3126 -0.6566
  162TMC2    H2 2475   1.047   3.978   1.046 -0.0886 -0.0204  0.9667
  162TMC2    C7 2476   1.177   3.761   1.159  0.0416  0.2426  0.7130
  162TMC2    C8 2477   1.106   4.132   0.866  0.1286  0.4796 -0.0831
  162TMC2    O1 2478   1.063   3.788   1.184  0.3759 -0.8237  0.1104
  162TMC2    O2 2479   1.016   4.176   0.932  0.0794 -0.6318  0.7785
  162TMC2    O5 2480   1.097   4.114   0.731 -0.3884  0.2205 -0.6122
  162TMC2    H5 2481   1.155   4.043   0.696 -1.9495 -2.0620  1.3922
  163MPD2     C 2482   1.909   3.571   0.699  0.2014  0.5261 -0.0795
  163MPD2    C1 2483   1.827   3.638   0.608  0.1221 -0.3020  0.3638
  163MPD2    C2 2484   1.720   3.716   0.659  0.0738 -0.0266  0.5523
  163MPD2    C3 2485   1.691   3.709   0.794 -0.5695  0.2053 -0.0950
  163MPD2    C4 2486   1.771   3.626   0.875 -0.5511  0.5728 -0.1055
  163MPD2    C5 2487   1.881   3.569   0.832 -0.1220 -0.3116  0.4346
  163MPD2     H 2488   1.658   3.782   0.600  0.4469  1.5691  1.9474
  163MPD2    H1 2489   1.745   3.609   0.979  1.1085 -0.7567  0.0931
  163MPD2    H2 2490   1.997   3.524   0.658 -0.5180 -1.3527  0.5144
  163MPD2    H3 2491   1.940   3.523   0.911 -2.2185  0.4942  2.4645
  163MPD2     N 2492   1.576   3.769   0.848  0.3201 -1.0917  0.0888
  163MPD2    H5 2493   1.569   3.744   0.946 -0.8150  1.9905  0.8305
  163MPD2    N1 2494   1.847   3.615   0.469 -0.3253 -0.4413  0.5212
  163MPD2    H7 2495   1.928   3.557   0.450 -0.9602 -1.2299  0.2371
  164TCq2    C1 2496   2.761   2.732  10.616 -0.0812 -0.2776 -0.0967
  164TCq2    O2 2497   2.732   2.673  10.720  0.4041  0.1687 -0.3510
  164TCq2    C2 2498   2.746   2.874  10.610 -0.3569 -0.5602 -0.1603
  164TCq2    C3 2499   2.779   2.945  10.489  0.4455 -1.2097  0.0214
  164TCq2    C4 2500   2.763   3.077  10.489  0.2311 -0.1869 -0.2016
  164TCq2    C5 2501   2.709   3.145  10.596 -0.0796 -0.2795  0.7812
  164TCq2    C6 2502   2.664   3.073  10.707  0.4212  0.0609 -0.0124
  164TCq2    C7 2503   2.686   2.936  10.715 -0.3648  0.2023  0.9495
  164TCq2    C8 2504   2.545   3.136  10.768 -0.5608 -0.1447  0.0432
  164TCq2    O4 2505   2.478   3.211  10.695 -0.3466  0.9160 -0.1066
  164TCq2    C9 2506   2.787   3.147  10.364  0.5648  0.2955  0.9290
  164TCq2    O5 2507   2.774   3.273  10.366 -0.4753  0.1354  0.5823
  164TCq2    O6 2508   2.795   3.076  10.257 -0.0768 -0.1617  0.2694
  164TCq2    H2 2509   2.816   2.894  10.401  1.2916 -1.3930  0.4822
  164TCq2    H3 2510   2.694   3.252  10.585  1.5504 -0.2823 -1.3202
  164TCq2    H4 2511   2.644   2.883  10.800  1.8039 -0.8496  1.3623
  165MPD2     C 2512   2.587   0.571   1.175  0.0232  0.3005  0.2206
  165MPD2    C1 2513   2.680   0.543   1.280  0.7055  0.7767  0.3060
  165MPD2    C2 2514   2.711   0.642   1.376 -0.3413 -0.9355  0.2964
  165MPD2    C3 2515   2.651   0.767   1.369 -0.1883 -0.0601  0.0378
  165MPD2    C4 2516   2.566   0.796   1.265  0.2870  1.2031 -1.2388
  165MPD2    C5 2517   2.529   0.694   1.177  0.5619  0.1252 -0.6553
  165MPD2     H 2518   2.774   0.621   1.462  0.8335  0.4585 -0.2420
  165MPD2    H1 2519   2.530   0.898   1.254 -1.3770  0.4730 -2.6494
  165MPD2    H2 2520   2.576   0.502   1.091  1.5386  0.1891  0.1152
  165MPD2    H3 2521   2.466   0.718   1.092 -1.1292 -0.2380  0.5023
  165MPD2     N 2522   2.680   0.873   1.460  0.1035  0.3042  0.8134
  165MPD2    H5 2523   2.630   0.960   1.447  1.5232  1.2458  1.6184
  165MPD2    N1 2524   2.730   0.413   1.281 -0.4340  0.4306 -0.4274
  165MPD2    H7 2525   2.702   0.357   1.201 -1.1329 -0.9366  0.7764
  166TCq2    C1 2526   2.769   0.874   1.566 -0.4788  0.2801 -0.0956
  166TCq2    O2 2527   2.858   0.797   1.588 -0.5133  0.3316  0.0305
  166TCq2    C2 2528   2.768   1.000   1.639 -0.0869  0.6013 -0.0264
  166TCq2    C3 2529   2.654   1.074   1.656 -0.0369  0.2982  0.5942
  166TCq2    C4 2530   2.659   1.180   1.746  0.1267 -0.4616  0.1534
  166TCq2    C5 2531   2.778   1.216   1.804  1.4446  0.7404  0.5877
  166TCq2    C6 2532   2.883   1.133   1.787 -0.3134  0.3222  0.0907
  166TCq2    C7 2533   2.877   1.023   1.710  0.7834 -0.1914  0.3217
  166TCq2    C8 2534   3.012   1.198   1.806 -0.6143 -0.1931  0.2836
  166TCq2    O4 2535   3.110   1.148   1.755  0.4787 -0.2867 -0.1943
  166TCq2    C9 2536   2.548   1.263   1.765 -0.2573  0.2449 -0.1288
  166TCq2    O5 2537   2.549   1.352   1.849 -0.3524 -0.0692 -0.1379
  166TCq2    O6 2538   2.443   1.238   1.703  0.2013 -0.5691 -0.0918
  166TCq2    H2 2539   2.561   1.038   1.614  1.0885 -1.1282 -0.6275
  166TCq2    H3 2540   2.764   1.280   1.891 -1.5271  0.6766  0.1333
  166TCq2    H4 2541   2.958   0.951   1.716  1.1664  0.2190  0.1241
  167TMC2    C1 2542   1.454   3.030  12.500 -0.6322  0.1677 -0.5110
  167TMC2    C2 2543   1.380   3.064  12.605 -0.0392 -0.2626  1.1861
  167TMC2    C3 2544   1.394   2.998  12.720 -0.3545 -0.2259  0.1530
  167TMC2    C4 2545   1.558   2.940  12.516 -0.5202 -0.0124  0.3793
  167TMC2    C5 2546   1.565   2.875  12.636  0.1774  0.3300  0.4849
  167TMC2    C6 2547   1.490   2.910  12.741  0.2032 -0.3414  1.3590
  167TMC2     C 2548   1.460   3.131  12.393 -0.0105 -0.0196  0.5243
  167TMC2     O 2549   1.356   3.195  12.379 -0.0837 -0.3912 -0.5102
  167TMC2     H 2550   1.296   3.130  12.583  0.7210 -0.0225 -1.0583
  167TMC2    H1 2551   1.608   2.894  12.432 -1.9429 -0.6935 -0.0978
  167TMC2    H2 2552   1.489   2.854  12.834  1.2274 -1.3184  0.7717
  167TMC2    C7 2553   1.635   2.749  12.646  0.1829 -0.0122  0.3080
  167TMC2    C8 2554   1.291   3.006  12.820  0.2721 -1.0021 -0.1465
  167TMC2    O1 2555   1.624   2.688  12.752 -0.0454 -0.2175 -0.2387
  167TMC2    O2 2556   1.245   2.901  12.865 -0.8318  0.3491  0.5353
  167TMC2    O5 2557   1.233   3.130  12.818 -0.1356 -0.2047  0.0509
  167TMC2    H5 2558   1.297   3.199  12.790 -0.8215  0.1621 -0.6500
  168MPD2     C 2559   1.478   3.246  12.123 -0.1283 -0.0019 -0.0779
  168MPD2    C1 2560   1.582   3.188  12.193  0.0486 -0.3251 -0.3237
  168MPD2    C2 2561   1.703   3.190  12.128 -0.7176 -0.7166 -0.2241
  168MPD2    C3 2562   1.729   3.259  12.010 -0.5357  0.0968 -0.3329
  168MPD2    C4 2563   1.625   3.322  11.952 -0.0186  0.2126 -0.1655
  168MPD2    C5 2564   1.500   3.308  12.008 -0.1562  0.8619 -0.5303
  168MPD2     H 2565   1.792   3.136  12.158  0.1061 -1.2825 -3.6775
  168MPD2    H1 2566   1.640   3.380  11.861  0.2515 -0.9463 -0.8611
  168MPD2    H2 2567   1.374   3.237  12.154  0.1365  0.5894  0.9952
  168MPD2    H3 2568   1.414   3.361  11.969 -0.6988  0.6816  0.4180
  168MPD2     N 2569   1.856   3.245  11.950 -0.0139  0.2427  0.2476
  168MPD2    H5 2570   1.928   3.214  12.015  1.0997 -1.2253 -1.6891
  168MPD2    N1 2571   1.570   3.122  12.313 -0.3108  0.0069 -0.5786
  168MPD2    H7 2572   1.648   3.066  12.346 -1.3205 -0.8889  0.3387
  169MPD1     C 2573   0.234   1.624   9.299  0.4092  0.7390  0.0085
  169MPD1    C1 2574   0.102   1.610   9.265  0.1596 -0.4750  0.6034
  169MPD1    C2 2575   0.037   1.725   9.240 -0.1634  0.6829 -0.2145
  169MPD1    C3 2576   0.084   1.853   9.265  0.7487  0.0224  0.0014
  169MPD1    C4 2577   0.218   1.861   9.297 -0.2452 -0.0715 -0.1146
  169MPD1    C5 2578   0.295   1.748   9.313  0.2080 -0.6943 -0.0447
  169MPD1     H 2579   4.654   1.715   9.220 -0.3442  1.4931  0.3371
  169MPD1    H1 2580   0.266   1.958   9.307 -0.2269 -0.1062  0.1278
  169MPD1    H2 2581   0.301   1.540   9.311 -1.2819 -0.6199 -0.0518
  169MPD1    H3 2582   0.396   1.766   9.347  0.5490  0.2761 -1.5520
  169MPD1     N 2583   4.716   1.962   9.260  0.6964 -0.3693 -0.1093
  169MPD1    H5 2584   4.618   1.935   9.260  0.6955 -0.3399 -1.4543
  169MPD1    N1 2585   0.043   1.487   9.227 -0.1185  0.5410  0.1554
  169MPD1    H6 2586   4.665   1.487   9.217 -0.2738 -2.2850  1.6296
  169MPD1    H7 2587   0.067   1.413   9.294  0.7430  0.3259 -0.3891
  170MPD1     C 2588   2.101   0.053  13.598  0.5080  0.9602 -0.5458
  170MPD1    C1 2589   2.104   0.084  13.727 -0.1588  1.0596  0.1204
  170MPD1    C2 2590   2.188   0.185  13.769  0.0353  0.1630 -0.3722
  170MPD1    C3 2591   2.260   0.254  13.673  0.1454 -0.2087  0.2191
  170MPD1    C4 2592   2.248   0.221  13.534  0.4594  0.1078 -0.4589
  170MPD1    C5 2593   2.171   0.113  13.500 -0.5758 -0.6936  0.2395
  170MPD1     H 2594   2.206   0.204  13.874 -0.3556 -0.1008 -0.2618
  170MPD1    H1 2595   2.284   0.276  13.448  0.9473  0.2361 -0.1716
  170MPD1    H2 2596   2.031   4.705  13.556  0.1412  1.1169 -0.2045
  170MPD1    H3 2597   2.155   0.091  13.395  0.9403  0.6874 -0.2847
  170MPD1     N 2598   2.353   0.344  13.717 -0.2514 -0.3194  0.4329
  170MPD1    H5 2599   2.348   0.373  13.813 -1.0501 -0.9714  0.5924
  170MPD1    N1 2600   2.046   0.006  13.822  0.3113 -0.4221  0.6508
  170MPD1    H6 2601   2.035   0.055  13.911  0.2185  4.1654 -1.8596
  170MPD1    H7 2602   1.968   4.670  13.795 -0.4803  0.8179  0.1838
  171MPD1     C 2603   1.276   1.967  15.466 -0.4949 -0.5042  0.0900
  171MPD1    C1 2604   1.214   1.845  15.436  0.1673  0.0866 -0.4860
  171MPD1    C2 2605   1.256   1.735  15.503 -0.0805 -0.8903 -0.6767
  171MPD1    C3 2606   1.359   1.749  15.598  0.3441 -0.1986  0.0607
  171MPD1    C4 2607   1.417   1.870  15.625 -0.8571  0.3374 -0.5216
  171MPD1    C5 2608   1.379   1.974  15.549  0.4977 -0.0061 -0.2877
  171MPD1     H 2609   1.211   1.639  15.484  0.0567 -1.1152  0.1192
  171MPD1    H1 2610   1.502   1.879  15.693 -0.6467 -1.0806 -0.6041
  171MPD1    H2 2611   1.241   2.065  15.433  1.4684  0.6312  1.3458
  171MPD1    H3 2612   1.425   2.072  15.553  2.4864 -0.9982  1.1747
  171MPD1     N 2613   1.411   1.639  15.667 -0.5625  0.1785 -1.1884
  171MPD1    H5 2614   1.470   1.647  15.748  0.8556  1.0384 -2.3032
  171MPD1    N1 2615   1.095   1.844  15.364  0.3039  0.0143 -0.1071
  171MPD1    H6 2616   1.072   1.927  15.309 -2.8822 -0.6170  0.2812
  171MPD1    H7 2617   1.072   1.755  15.320 -4.5936  0.8491  0.6854
  172MPD1     C 2618   0.548   0.845   0.949 -0.4042 -0.4756  0.4388
  172MPD1    C1 2619   0.645   0.893   0.857 -0.0373 -0.3180 -0.0348
  172MPD1    C2 2620   0.598   0.971   0.757 -0.1035  0.6189  0.2678
  172MPD1    C3 2621   0.470   1.026   0.755  0.1409  0.5412 -0.3892
  172MPD1    C4 2622   0.385   0.988   0.854 -0.4666  0.1770 -0.7279
  172MPD1    C5 2623   0.418   0.892   0.946  0.4774  0.5472 -0.8134
  172MPD1     H 2624   0.663   1.007   0.679  1.9247  0.9287  2.1123
  172MPD1    H1 2625   0.292   1.039   0.879  0.2931  1.7242 -1.0133
  172MPD1    H2 2626   0.575   0.778   1.030 -1.8217  2.9672  3.7478
  172MPD1    H3 2627   0.345   0.862   1.021  0.1351 -1.2963 -1.9058
  172MPD1     N 2628   0.433   1.129   0.656 -0.0617 -0.6754  0.4837
  172MPD1    H5 2629   0.512   1.160   0.600 -0.6642 -0.3081 -0.1571
  172MPD1    N1 2630   0.768   0.825   0.841 -0.5059  0.1548 -0.2931
  172MPD1    H6 2631   0.810   0.789   0.927  0.1872  0.1581 -0.6307
  172MPD1    H7 2632   0.834   0.876   0.783  1.5253 -1.8305  0.2663
  173MPD1     C 2633   1.641   1.142  14.689  0.7047  0.0990 -0.8394
  173MPD1    C1 2634   1.603   1.088  14.569 -0.0617  0.1677  0.6177
  173MPD1    C2 2635   1.514   0.982  14.571 -0.7117  0.5579 -0.3551
  173MPD1    C3 2636   1.458   0.940  14.693  0.1893 -0.4128 -0.0230
  173MPD1    C4 2637   1.482   1.009  14.805 -0.3985  0.5604 -0.5843
  173MPD1    C5 2638   1.575   1.109  14.806 -0.1807 -0.0549 -0.0421
  173MPD1     H 2639   1.495   0.917  14.486 -1.8100  0.5167 -0.0802
  173MPD1    H1 2640   1.455   0.976  14.905 -0.2783 -1.7052 -1.2922
  173MPD1    H2 2641   1.722   1.213  14.702  1.5198 -1.2948  1.7855
  173MPD1    H3 2642   1.611   1.159  14.896 -1.3365 -1.5022  1.2258
  173MPD1     N 2643   1.383   0.821  14.692 -0.1522 -0.1479  0.6744
  173MPD1    H5 2644   1.392   0.763  14.609  1.1013  0.1875  0.5715
  173MPD1    N1 2645   1.675   1.103  14.451  0.7533  0.2774 -0.4142
  173MPD1    H6 2646   1.614   1.069  14.377  1.5979 -0.2005 -0.8975
  173MPD1    H7 2647   1.704   1.200  14.439  2.1125 -0.1828 -0.9002
  174MPD1     C 2648   1.127   0.109  14.075  0.6852 -0.1289  0.5394
  174MPD1    C1 2649   1.064   0.227  14.101  0.0732  0.0156  0.1444
  174MPD1    C2 2650   1.095   0.296  14.210  0.6540 -0.3032  0.4747
  174MPD1    C3 2651   1.179   0.247  14.313 -0.5081 -0.0987 -0.2732
  174MPD1    C4 2652   1.242   0.125  14.281  0.0700  0.5399  0.5671
  174MPD1    C5 2653   1.212   0.054  14.169 -0.7081 -0.0876 -0.3429
  174MPD1     H 2654   1.050   0.394  14.218  2.2450  0.1759  3.7343
  174MPD1    H1 2655   1.323   0.084  14.341 -0.9344  0.5321  1.9244
  174MPD1    H2 2656   1.126   0.055  13.981 -2.2106 -1.6834  1.4722
  174MPD1    H3 2657   1.266   4.688  14.140  1.5684  1.1945 -0.0579
  174MPD1     N 2658   1.200   0.301  14.439  0.3428  0.1481  0.4312
  174MPD1    H5 2659   1.237   0.239  14.510 -1.4745  0.3191  1.5313
  174MPD1    N1 2660   0.985   0.281  13.997 -0.7655 -0.3976  0.1941
  174MPD1    H6 2661   0.948   0.205  13.939  0.4391 -1.5146  0.8941
  174MPD1    H7 2662   0.912   0.334  14.043 -0.0424 -0.8887  1.9176
  175MPD1     C 2663   4.366   1.625  15.340 -0.6103  0.1324 -0.7950
  175MPD1    C1 2664   4.441   1.720  15.412 -0.9352 -0.4989 -0.3478
  175MPD1    C2 2665   4.447   1.710  15.552  0.7354  0.4309 -0.4315
  175MPD1    C3 2666   4.363   1.624  15.617 -0.2761  0.4695  0.2699
  175MPD1    C4 2667   4.282   1.539  15.543 -0.6027  0.3147 -1.0059
  175MPD1    C5 2668   4.289   1.534  15.411  0.3766  0.1438  0.2788
  175MPD1     H 2669   4.488   1.786  15.617 -2.4326  2.3442 -0.6404
  175MPD1    H1 2670   4.209   1.473  15.589  0.6055 -0.0782  0.3534
  175MPD1    H2 2671   4.369   1.621  15.232 -1.9674 -1.9726 -0.7482
  175MPD1    H3 2672   4.237   1.460  15.351  0.3936 -0.0454  0.4978
  175MPD1     N 2673   4.350   1.629  15.756  0.1278  0.2210  0.1505
  175MPD1    H5 2674   4.265   1.586  15.791 -0.0063  0.5051  0.1772
  175MPD1    N1 2675   4.490   1.828  15.334 -0.1791 -0.5159 -0.1553
  175MPD1    H6 2676   4.467   1.823  15.235  0.1807  2.3489 -0.3877
  175MPD1    H7 2677   4.469   1.918  15.375  0.0658 -0.6747  0.3282
  176MPD1     C 2678   1.711   2.926  16.657  0.1523  0.1689  0.7939
  176MPD1    C1 2679   1.767   2.950  16.779 -1.4343  0.7245 -0.6092
  176MPD1    C2 2680   1.739   3.069  16.834 -0.2694 -0.2153  0.8160
  176MPD1    C3 2681   1.641   3.152  16.787 -0.1275 -0.6711  0.4464
  176MPD1    C4 2682   1.567   3.121  16.676 -0.6995  0.1587  0.5266
  176MPD1    C5 2683   1.602   3.003  16.610 -0.3701  0.0305  0.1826
  176MPD1     H 2684   1.785   3.113  16.921  0.5327 -1.8012  1.1729
  176MPD1    H1 2685   1.491   3.182  16.629 -1.2522 -0.4490  0.6399
  176MPD1    H2 2686   1.739   2.841  16.596 -3.7478  0.0495 -0.8359
  176MPD1    H3 2687   1.556   2.985  16.514 -2.4389  2.0866  0.7921
  176MPD1     N 2688   1.610   3.264  16.870  0.3035  0.4470 -0.7028
  176MPD1    H5 2689   1.659   3.272  16.958 -1.5524 -0.6812  0.4267
  176MPD1    N1 2690   1.878   2.875  16.825 -0.1195 -0.4812 -0.3956
  176MPD1    H6 2691   1.884   2.784  16.780  0.8383  0.1091 -1.4557
  176MPD1    H7 2692   1.887   2.878  16.926  0.6381  1.2454 -0.5228
  177MPD1     C 2693   0.139   0.193   9.781  0.5806 -0.1225  0.1993
  177MPD1    C1 2694   0.213   0.099   9.849 -0.8370  0.1375  0.3654
  177MPD1    C2 2695   0.271   4.719   9.778 -0.8344  1.1544 -0.6086
  177MPD1    C3 2696   0.247   4.696   9.639 -0.3851 -0.1733 -0.0966
  177MPD1    C4 2697   0.188   0.077   9.575  0.2425 -0.1671  0.5492
  177MPD1    C5 2698   0.133   0.183   9.643 -0.2459  0.2763  0.1946
  177MPD1     H 2699   0.333   4.644   9.825 -2.4695  0.0019 -0.2657
  177MPD1    H1 2700   0.185   0.083   9.467 -1.7107  3.7226  0.8055
  177MPD1    H2 2701   0.080   0.270   9.831  0.8360 -0.6125  1.2462
  177MPD1    H3 2702   0.088   0.263   9.586  1.6994  0.8764 -0.5128
  177MPD1     N 2703   0.306   4.591   9.567 -0.7077 -0.4978 -0.0620
  177MPD1    H5 2704   0.345   4.522   9.630  1.1520 -0.1450 -0.8067
  177MPD1    N1 2705   0.234   0.098   9.987  0.3376 -0.0121  0.0365
  177MPD1    H6 2706   0.146   0.129  10.026 -0.0824 -2.4143  0.9610
  177MPD1    H7 2707   0.272   0.010  10.021 -1.4861 -0.2461  1.4376
  178MPD1     C 2708   2.180   4.547  17.644  0.7226 -0.1559  0.1789
  178MPD1    C1 2709   2.129   4.623  17.544 -0.0767 -0.0999  0.1338
  178MPD1    C2 2710   2.212   4.658  17.441  0.3133 -0.1713  0.3614
  178MPD1    C3 2711   2.342   4.611  17.444  0.0336 -0.2307 -0.9366
  178MPD1    C4 2712   2.387   4.528  17.546  0.9610 -0.1747 -0.3878
  178MPD1    C5 2713   2.307   4.501  17.647 -0.4548 -0.0623 -0.2590
  178MPD1     H 2714   2.173   0.009  17.374  1.3652  1.2648  1.3478
  178MPD1    H1 2715   2.487   4.487  17.543  1.4580  1.0822 -1.1034
  178MPD1    H2 2716   2.101   4.520   0.017 -1.4041  0.5705 -1.9880
  178MPD1    H3 2717   2.341   4.446   0.039  0.7584  1.2658  0.1006
  178MPD1     N 2718   2.437   4.637  17.346  1.3038 -0.5624 -0.4360
  178MPD1    H5 2719   2.521   4.584  17.365  0.6579 -0.7444  1.9203
  178MPD1    N1 2720   2.000   4.678  17.552  0.2858 -0.1450  0.7333
  178MPD1    H6 2721   1.933   4.628  17.610 -0.4344 -0.8867 -0.7381
  178MPD1    H7 2722   1.948   4.692  17.465  1.1852 -0.5124  0.1364
  179MPD1     C 2723   2.071   3.062  15.561  0.1242 -0.2037  0.6965
  179MPD1    C1 2724   2.178   2.995  15.610  0.8098 -0.2034  0.9648
  179MPD1    C2 2725   2.153   2.896  15.711  0.1103  0.5282  0.2044
  179MPD1    C3 2726   2.025   2.867  15.758  0.0015  0.6846 -0.3394
  179MPD1    C4 2727   1.918   2.932  15.702  0.1218  0.5160 -0.6468
  179MPD1    C5 2728   1.945   3.026  15.608  0.4067 -0.1868  0.0317
  179MPD1     H 2729   2.240   2.840  15.742 -0.3277 -0.6499 -0.6331
  179MPD1    H1 2730   1.819   2.908  15.739  0.6008 -0.3433  0.0601
  179MPD1    H2 2731   2.066   3.146  15.492 -0.6873 -0.9918 -0.2031
  179MPD1    H3 2732   1.864   3.088  15.572 -1.8669 -2.4532  1.2119
  179MPD1     N 2733   1.993   2.758  15.840 -0.7676  0.0528  0.4396
  179MPD1    H5 2734   1.900   2.723  15.822 -1.1946  2.3469 -2.0079
  179MPD1    N1 2735   2.303   3.044  15.582 -0.1223  0.0904 -0.1485
  179MPD1    H6 2736   2.310   3.069  15.483  2.3996  3.7725  0.9751
  179MPD1    H7 2737   2.377   2.975  15.583  0.8949  1.1944  0.5206
  180MPD1     C 2738   1.916   3.970  15.155 -0.1913  0.7250  0.3786
  180MPD1    C1 2739   2.004   3.931  15.060 -0.1277 -0.7509 -1.0136
  180MPD1    C2 2740   1.954   3.912  14.933  0.4379  0.0852  0.2058
  180MPD1    C3 2741   1.822   3.932  14.900  0.0310 -0.0648 -0.9909
  180MPD1    C4 2742   1.731   3.965  15.000  0.1456  0.5932  0.0644
  180MPD1    C5 2743   1.785   3.983  15.128 -0.1189  0.1049  0.1668
  180MPD1     H 2744   2.019   3.894  14.848 -0.1828 -1.8186  0.1415
  180MPD1    H1 2745   1.630   3.999  14.980 -0.5362 -0.7716  1.1864
  180MPD1    H2 2746   1.953   3.981  15.256  2.2849 -0.8606 -0.3620
  180MPD1    H3 2747   1.728   4.005  15.217 -1.2981  1.1341 -0.8400
  180MPD1     N 2748   1.791   3.937  14.761 -0.0644 -0.6719 -0.5952
  180MPD1    H5 2749   1.865   3.902  14.700  1.0698  0.4008  0.1587
  180MPD1    N1 2750   2.136   3.896  15.100  0.2008 -0.3543 -0.0587
  180MPD1    H6 2751   2.200   3.882  15.022 -1.0547 -1.1633 -0.9501
  180MPD1    H7 2752   2.187   3.955  15.165  0.8845  0.0577 -0.9672
  181MPD1     C 2753   3.963   0.631   9.350 -0.0053  0.2052 -0.1625
  181MPD1    C1 2754   3.907   0.735   9.426 -0.3050  0.1062 -0.0595
  181MPD1    C2 2755   3.975   0.785   9.539 -0.7180  0.3487  0.5213
  181MPD1    C3 2756   4.100   0.743   9.572 -0.3718 -0.2920  0.6206
  181MPD1    C4 2757   4.160   0.640   9.504 -0.0150 -0.3871 -0.2423
  181MPD1    C5 2758   4.083   0.588   9.397  0.3127  0.0680  0.3673
  181MPD1     H 2759   3.929   0.871   9.587 -1.3592 -1.0115  2.3530
  181MPD1    H1 2760   4.257   0.598   9.528 -0.7104 -1.3086  0.9405
  181MPD1    H2 2761   3.910   0.582   9.270 -1.9680 -0.7638  1.7284
  181MPD1    H3 2762   4.135   0.508   9.345  0.0663  0.9362 -1.2134
  181MPD1     N 2763   4.173   0.786   9.683  0.2518  1.4044 -0.8984
  181MPD1    H5 2764   4.266   0.746   9.687 -0.8601 -0.8909  2.5407
  181MPD1    N1 2765   3.782   0.791   9.392  0.2645  0.0652  0.0784
  181MPD1    H6 2766   3.731   0.728   9.330  0.0024  0.5563 -0.2012
  181MPD1    H7 2767   3.719   0.829   9.462  1.0618  1.4699  0.0206
  182MPD1     C 2768   4.466   0.390   2.125 -0.8228 -0.1796 -0.2215
  182MPD1    C1 2769   4.462   0.314   2.013  1.0541 -0.1156  0.4679
  182MPD1    C2 2770   4.343   0.321   1.935  0.4949 -0.4789  0.1740
  182MPD1    C3 2771   4.244   0.414   1.961 -0.5174  0.0039  0.2294
  182MPD1    C4 2772   4.258   0.498   2.063  0.3786  0.0096 -0.4319
  182MPD1    C5 2773   4.370   0.487   2.151  0.1443  0.0250  1.3231
  182MPD1     H 2774   4.323   0.244   1.861 -0.2535  1.2489 -1.4135
  182MPD1    H1 2775   4.175   0.564   2.086 -0.0441 -0.6147 -0.1567
  182MPD1    H2 2776   4.540   0.382   2.204 -0.0129 -1.2060 -1.0966
  182MPD1    H3 2777   4.375   0.555   2.235  1.4394  1.9263 -0.2802
  182MPD1     N 2778   4.127   0.433   1.885  0.8679 -0.4781 -0.4634
  182MPD1    H5 2779   4.069   0.507   1.924  2.1047 -0.9257  2.2359
  182MPD1    N1 2780   4.549   0.207   1.997 -0.3781  0.9270  0.4124
  182MPD1    H6 2781   4.556   0.189   1.897  0.5592  0.5527  0.5475
  182MPD1    H7 2782   4.642   0.229   2.032 -0.0438  0.3465 -0.1070
  183MPD1     C 2783   1.556   0.882   9.008 -0.6437  0.3010 -0.1837
  183MPD1    C1 2784   1.553   0.972   9.114  0.7519 -0.0601  0.1319
  183MPD1    C2 2785   1.433   0.986   9.179  0.6803 -0.0984 -0.5676
  183MPD1    C3 2786   1.332   0.895   9.158 -0.1118  0.1421 -0.0536
  183MPD1    C4 2787   1.352   0.805   9.059 -0.6572  0.5308  0.4583
  183MPD1    C5 2788   1.458   0.798   8.979 -0.7440  0.4681  0.2446
  183MPD1     H 2789   1.421   1.069   9.248  0.5600 -1.9785  1.7060
  183MPD1    H1 2790   1.281   0.726   9.035 -0.9367  0.4346  1.6043
  183MPD1    H2 2791   1.629   0.895   8.929 -1.0463  0.7699 -0.4751
  183MPD1    H3 2792   1.455   0.729   8.895 -0.4833 -1.3059  1.6946
  183MPD1     N 2793   1.219   0.893   9.247 -0.0087  0.1187 -0.5326
  183MPD1    H5 2794   1.214   0.969   9.314  0.9418 -0.5383  0.2996
  183MPD1    N1 2795   1.649   1.072   9.121  0.2946 -0.0474  0.3800
  183MPD1    H6 2796   1.740   1.035   9.095  0.6975  2.0773 -1.2214
  183MPD1    H7 2797   1.655   1.099   9.219  0.0246  0.7061  0.1910
  184MPD1     C 2798   4.086   2.589  10.206 -0.6537  0.4088 -0.3125
  184MPD1    C1 2799   3.988   2.587  10.110 -0.7292  0.2060 -0.2847
  184MPD1    C2 2800   3.988   2.681  10.005 -0.3418 -0.3726 -0.0251
  184MPD1    C3 2801   4.086   2.780   9.994 -0.3851  0.4347  0.0652
  184MPD1    C4 2802   4.187   2.779  10.089  0.2261  0.0370 -0.1304
  184MPD1    C5 2803   4.185   2.687  10.188 -0.8942  0.1852  0.6048
  184MPD1     H 2804   3.912   2.671   9.928 -0.1265  1.5348 -0.4920
  184MPD1    H1 2805   4.271   2.848  10.091  0.4812 -0.3098  1.1003
  184MPD1    H2 2806   4.085   2.508  10.277  1.6080  0.1545 -0.5681
  184MPD1    H3 2807   4.259   2.699  10.267 -1.4088  1.9809  0.8053
  184MPD1     N 2808   4.095   2.879   9.882 -0.0029 -0.8202 -0.2225
  184MPD1    H5 2809   4.169   2.948   9.888 -1.0377  0.3488 -0.9605
  184MPD1    N1 2810   3.875   2.507  10.138 -0.0214 -0.4625 -0.1999
  184MPD1    H6 2811   3.840   2.481  10.046  1.7299  0.8578 -1.2522
  184MPD1    H7 2812   3.891   2.423  10.193  3.8780 -0.3283 -1.0755
  185MPD1     C 2813   3.993   2.989   8.824 -0.4435 -0.4820 -1.0879
  185MPD1    C1 2814   3.988   2.884   8.910  0.4462  0.0956 -0.5989
  185MPD1    C2 2815   3.986   2.920   9.046  0.6842 -0.0703  0.1677
  185MPD1    C3 2816   4.006   3.051   9.088 -0.0316 -0.2481 -0.2062
  185MPD1    C4 2817   4.027   3.154   9.000 -0.5833 -0.4430  0.2365
  185MPD1    C5 2818   4.020   3.114   8.870 -0.5815  0.0262  0.3107
  185MPD1     H 2819   3.960   2.844   9.119  0.3769  0.5105  0.6557
  185MPD1    H1 2820   4.033   3.259   9.027 -1.0835 -0.7137  1.3877
  185MPD1    H2 2821   3.983   2.970   8.717 -1.4249 -0.9270 -0.9126
  185MPD1    H3 2822   4.045   3.186   8.793 -1.7181  0.2349  0.1437
  185MPD1     N 2823   4.006   3.080   9.224 -0.0256  0.1040  0.2045
  185MPD1    H5 2824   4.061   3.162   9.248  0.0740  0.5254 -1.4181
  185MPD1    N1 2825   3.944   2.759   8.863  0.4253  0.4439 -1.1000
  185MPD1    H6 2826   3.952   2.688   8.935 -1.5603  0.3170 -0.9878
  185MPD1    H7 2827   3.972   2.720   8.773  0.5726  1.2940 -1.4214
  186MPD1     C 2828   3.083   2.624  15.910 -0.0024  0.1346  0.4889
  186MPD1    C1 2829   2.953   2.590  15.936 -0.3589  0.5465 -0.2266
  186MPD1    C2 2830   2.875   2.690  15.993 -0.1369  0.2356  0.2689
  186MPD1    C3 2831   2.916   2.810  16.036  1.0461  0.3981  0.2772
  186MPD1    C4 2832   3.049   2.832  16.025  0.3527  0.3261 -0.2199
  186MPD1    C5 2833   3.130   2.735  15.962 -0.1394 -0.4021 -0.3659
  186MPD1     H 2834   2.770   2.667  16.004  1.0000 -4.0148  2.3528
  186MPD1    H1 2835   3.094   2.927  16.052 -1.2571  0.5213  1.7654
  186MPD1    H2 2836   3.157   2.559  15.865 -0.5705  0.7272 -1.3158
  186MPD1    H3 2837   3.232   2.758  15.934 -0.1571  1.5933  1.2174
  186MPD1     N 2838   2.825   2.905  16.097 -0.3132 -0.0994  0.2591
  186MPD1    H5 2839   2.869   2.988  16.134  2.8358 -1.3983 -0.5861
  186MPD1    N1 2840   2.888   2.482  15.879 -0.1498  0.4736 -0.1478
  186MPD1    H6 2841   2.950   2.402  15.867 -0.6934 -0.2017  1.4813
  186MPD1    H7 2842   2.819   2.439  15.940 -0.2145 -2.0654 -2.0300
  187MPD1     C 2843   1.642   4.060   0.288  0.4288 -0.0030 -0.4966
  187MPD1    C1 2844   1.556   4.047   0.189 -0.2192  0.1634 -0.2242
  187MPD1    C2 2845   1.529   4.148   0.102 -0.3286 -0.5198  0.7811
  187MPD1    C3 2846   1.567   4.283   0.123 -0.4495  0.5086 -1.0719
  187MPD1    C4 2847   1.651   4.299   0.236 -0.0937  0.2801  0.8389
  187MPD1    C5 2848   1.680   4.193   0.317  0.5970  1.0673  0.1341
  187MPD1     H 2849   1.477   4.117   0.012 -0.9216  0.4333  0.7875
  187MPD1    H1 2850   1.700   4.391   0.264 -2.1676  0.8874  2.4502
  187MPD1    H2 2851   1.668   3.980   0.356 -0.5949 -0.4246 -0.6117
  187MPD1    H3 2852   1.734   4.221   0.407 -3.4220  2.7515  2.0061
  187MPD1     N 2853   1.532   4.397   0.049  1.4493  0.2752 -0.1584
  187MPD1    H5 2854   1.580   4.481   0.079  0.5684  0.6735  0.1504
  187MPD1    N1 2855   1.537   3.915   0.137 -0.5045  0.4355 -0.1258
  187MPD1    H6 2856   1.448   3.913   0.088 -0.6055  1.8200  0.0055
  187MPD1    H7 2857   1.542   3.847   0.213 -0.3659 -1.4973 -1.8617
  188MPD1     C 2858   1.848   0.128   9.271 -0.2294 -0.3825  0.3571
  188MPD1    C1 2859   1.890   0.029   9.181 -0.4580  0.9853 -0.5971
  188MPD1    C2 2860   1.942   4.635   9.234  0.7789 -0.8855 -0.3058
  188MPD1    C3 2861   1.960   4.623   9.371 -0.0275 -0.1930  0.4815
  188MPD1    C4 2862   1.911   4.712   9.460 -0.8565 -0.4783  0.0759
  188MPD1    C5 2863   1.856   0.105   9.411  1.0312  0.2791 -0.2958
  188MPD1     H 2864   1.979   4.558   9.167 -1.6987 -1.7203 -0.7092
  188MPD1    H1 2865   1.914   4.698   9.567  1.7164 -0.1215  0.0682
  188MPD1    H2 2866   1.834   0.231   9.240  0.0340 -0.1172  1.1275
  188MPD1    H3 2867   1.821   0.180   9.481 -0.5177 -0.0826 -0.6587
  188MPD1     N 2868   1.998   4.504   9.429 -0.3507 -0.2580 -0.1916
  188MPD1    H5 2869   1.975   4.491   9.527 -0.4505  1.3751 -0.0097
  188MPD1    N1 2870   1.905   0.064   9.048 -0.4221 -0.2055 -0.0570
  188MPD1    H6 2871   1.823   0.113   9.013  0.3827  1.0455 -0.2123
  188MPD1    H7 2872   1.929   4.705   8.993 -1.3144 -0.4459 -0.0823
  189MPD1     C 2873   3.332   0.415   0.159  0.0282  0.4537 -0.6171
  189MPD1    C1 2874   3.217   0.349   0.195 -0.3945  0.4626 -0.5151
  189MPD1    C2 2875   3.092   0.414   0.196 -0.7058 -0.2018  0.0311
  189MPD1    C3 2876   3.084   0.549   0.164 -0.5813 -0.1509  0.1646
  189MPD1    C4 2877   3.205   0.616   0.140  0.8170 -0.6390 -0.0626
  189MPD1    C5 2878   3.324   0.549   0.145  0.5548  0.3144 -0.0816
  189MPD1     H 2879   3.004   0.354   0.215 -1.1621 -0.1168 -1.8240
  189MPD1    H1 2880   3.203   0.719   0.109 -0.3534 -0.1152  1.7691
  189MPD1    H2 2881   3.429   0.367   0.156 -1.0903 -1.8021 -1.3502
  189MPD1    H3 2882   3.413   0.604   0.119  0.4463  0.7521  0.4525
  189MPD1     N 2883   2.957   0.616   0.170  0.5141 -0.1378 -0.1560
  189MPD1    H5 2884   2.880   0.553   0.192 -0.1004  0.7049  0.0909
  189MPD1    N1 2885   3.224   0.204   0.200 -0.5780  0.2414  0.2261
  189MPD1    H6 2886   3.145   0.154   0.241 -0.4190 -1.0032 -1.0325
  189MPD1    H7 2887   3.302   0.182   0.261 -1.1010  1.0863  1.2331
  190MPD1     C 2888   1.848   3.468  16.260  0.3563  0.2691  0.4387
  190MPD1    C1 2889   1.851   3.607  16.276 -0.1847 -0.7473  0.2446
  190MPD1    C2 2890   1.945   3.672  16.199  0.7848 -0.0152 -0.6881
  190MPD1    C3 2891   2.032   3.608  16.106  0.3080  0.8562  0.0061
  190MPD1    C4 2892   2.028   3.470  16.107 -0.0420  0.2981  0.6605
  190MPD1    C5 2893   1.936   3.404  16.185  1.1019  0.2511  0.1544
  190MPD1     H 2894   1.944   3.780  16.206 -1.2369  0.0891 -2.4368
  190MPD1    H1 2895   2.096   3.408  16.050 -2.2890 -1.5858  0.0162
  190MPD1    H2 2896   1.766   3.427  16.318  1.5339 -1.3758  0.9429
  190MPD1    H3 2897   1.940   3.296  16.189  0.6377  0.3467  3.3063
  190MPD1     N 2898   2.120   3.682  16.023  0.5800 -0.3756  0.5162
  190MPD1    H5 2899   2.113   3.783  16.018 -0.5892 -0.4577  0.4540
  190MPD1    N1 2900   1.736   3.669  16.327 -0.7806  0.5157  0.4218
  190MPD1    H6 2901   1.699   3.615  16.405 -1.1336  0.0179 -0.0908
  190MPD1    H7 2902   1.764   3.760  16.362  0.1468 -0.4754  2.2508
  191MPD1     C 2903   1.332   0.348  12.798 -0.4196 -0.4741  0.1018
  191MPD1    C1 2904   1.332   0.431  12.905  0.0955  0.1018  0.1154
  191MPD1    C2 2905   1.358   0.566  12.884 -0.3073  0.5671 -0.1323
  191MPD1    C3 2906   1.388   0.617  12.755  0.0141 -0.6332  0.5465
  191MPD1    C4 2907   1.391   0.527  12.648 -0.7181 -0.0376 -0.5265
  191MPD1    C5 2908   1.365   0.397  12.675 -0.2641 -0.4028  0.4837
  191MPD1     H 2909   1.366   0.633  12.969  0.7394  0.7668 -0.3828
  191MPD1    H1 2910   1.419   0.561  12.549 -0.3900 -1.6664 -0.9858
  191MPD1    H2 2911   1.318   0.241  12.811  1.4303 -0.6191  0.8563
  191MPD1    H3 2912   1.373   0.326  12.593  0.7532  0.2198  0.0335
  191MPD1     N 2913   1.409   0.755  12.743 -0.2429 -0.3349  0.2034
  191MPD1    H5 2914   1.410   0.809  12.829  1.0715 -0.2296  0.1325
  191MPD1    N1 2915   1.283   0.390  13.026  0.6579  0.4634  0.5323
  191MPD1    H6 2916   1.341   0.428  13.101  1.5704 -0.6144  0.3711
  191MPD1    H7 2917   1.300   0.292  13.046  0.4125 -0.1221 -2.2754
  192MPD1     C 2918   1.301   1.539  13.240 -0.2625  0.3748 -0.0611
  192MPD1    C1 2919   1.218   1.442  13.188  0.7506 -0.5468  0.3616
  192MPD1    C2 2920   1.249   1.392  13.065 -1.1576 -0.5812 -0.1598
  192MPD1    C3 2921   1.367   1.423  12.998 -0.3673 -0.7228  0.3421
  192MPD1    C4 2922   1.452   1.515  13.056 -0.1761 -0.5068  0.4342
  192MPD1    C5 2923   1.417   1.568  13.178 -0.2256  0.5194  0.6074
  192MPD1     H 2924   1.182   1.316  13.027  0.8859 -2.8383  0.7289
  192MPD1    H1 2925   1.554   1.536  13.024 -0.6620  0.8406 -0.2088
  192MPD1    H2 2926   1.288   1.599  13.330  1.0716  0.0553  0.3499
  192MPD1    H3 2927   1.487   1.633  13.230  1.1686 -0.2699 -0.3075
  192MPD1     N 2928   1.408   1.357  12.884 -0.2006 -0.3070  0.2856
  192MPD1    H5 2929   1.485   1.409  12.842  1.1325 -0.5839  2.3912
  192MPD1    N1 2930   1.098   1.406  13.252 -0.1675 -0.7551 -0.2240
  192MPD1    H6 2931   1.063   1.318  13.215 -2.5241  0.7808 -1.6635
  192MPD1    H7 2932   1.085   1.415  13.352  0.3792 -0.5265 -0.1767
  193MPD1     C 2933   1.036   1.243  16.119  0.5381  0.0211  0.2109
  193MPD1    C1 2934   0.988   1.366  16.154 -0.7047 -1.0188  0.3061
  193MPD1    C2 2935   1.038   1.426  16.271  0.3804 -0.2006 -1.2240
  193MPD1    C3 2936   1.135   1.367  16.342  0.7244  0.7880 -0.6230
  193MPD1    C4 2937   1.194   1.252  16.294  0.5249  0.1969 -1.0407
  193MPD1    C5 2938   1.142   1.191  16.187 -0.0370 -0.0132 -0.0590
  193MPD1     H 2939   0.994   1.517  16.310  1.3609  0.3001 -1.2771
  193MPD1    H1 2940   1.283   1.206  16.334  0.5751  1.0033 -0.2201
  193MPD1    H2 2941   1.015   1.190  16.027 -3.0587 -1.1109  1.6839
  193MPD1    H3 2942   1.193   1.107  16.141  2.7333  1.8774 -0.4497
  193MPD1     N 2943   1.185   1.418  16.464 -0.1762  0.2085 -0.1835
  193MPD1    H5 2944   1.270   1.370  16.495  0.9734  1.7374 -1.0111
  193MPD1    N1 2945   0.875   1.420  16.086  0.1270 -0.4250  0.5530
  193MPD1    H6 2946   0.865   1.521  16.096  3.0842  0.0089 -0.6403
  193MPD1    H7 2947   0.859   1.394  15.989 -1.3044 -1.8129  1.1800
  194MPD1     C 2948   2.864   3.386  16.955 -0.4813  0.0770  0.3139
  194MPD1    C1 2949   2.924   3.343  16.836  0.2813  0.2813  0.6128
  194MPD1    C2 2950   3.021   3.252  16.845 -0.0589 -0.4414  0.3187
  194MPD1    C3 2951   3.077   3.207  16.965  0.1741  0.1487  0.3451
  194MPD1    C4 2952   3.026   3.253  17.076  0.1240  0.2403 -0.0223
  194MPD1    C5 2953   2.919   3.336  17.075 -0.1126 -0.2612 -0.2369
  194MPD1     H 2954   3.055   3.210  16.751 -0.9007  0.4959 -0.3906
  194MPD1    H1 2955   3.059   3.232  17.178  0.2387 -0.3337 -0.1797
  194MPD1    H2 2956   2.773   3.443  16.970 -1.5673 -1.9211  1.1764
  194MPD1    H3 2957   2.879   3.366  17.172  0.9726  0.4684 -0.0210
  194MPD1     N 2958   3.178   3.110  16.966  0.5219  0.6530  0.1665
  194MPD1    H5 2959   3.209   3.080  17.058 -0.0474 -0.9848 -0.1867
  194MPD1    N1 2960   2.858   3.369  16.713  0.2302 -0.4696  0.6586
  194MPD1    H6 2961   2.929   3.368  16.639 -0.7769 -0.6146 -0.3047
  194MPD1    H7 2962   2.811   3.458  16.714 -1.9404 -1.6584  3.3064
  195MPD1     C 2963   1.368   4.632   0.754  0.6043  0.2609  0.3852
  195MPD1    C1 2964   1.375   4.496   0.788  0.4940  0.3182  0.2448
  195MPD1    C2 2965   1.328   4.403   0.701  0.5054 -0.4018  0.7582
  195MPD1    C3 2966   1.284   4.452   0.579 -0.8468  0.1374 -0.2086
  195MPD1    C4 2967   1.267   4.584   0.557 -0.4102 -0.0058  0.0491
  195MPD1    C5 2968   1.308   4.680   0.644  0.2823 -0.0006 -0.3243
  195MPD1     H 2969   1.335   4.298   0.723 -1.0622 -0.5374  0.6276
  195MPD1    H1 2970   1.227   4.628   0.466  0.1906 -1.8862 -1.1072
  195MPD1    H2 2971   1.413   4.708   0.816  0.9823 -0.0912  0.5441
  195MPD1    H3 2972   1.296   0.063   0.625 -0.1400  0.4441  2.5030
  195MPD1     N 2973   1.239   4.374   0.473 -0.0215  0.3946 -0.4980
  195MPD1    H5 2974   1.203   4.421   0.390 -0.3951  2.3878  0.7702
  195MPD1    N1 2975   1.406   4.468   0.925 -0.6170  0.0937  0.2045
  195MPD1    H6 2976   1.461   4.547   0.957  0.5791 -0.3420 -0.7774
  195MPD1    H7 2977   1.451   4.381   0.954  0.1502  0.9748  1.6285
  196MPD1     C 2978   4.664   3.647   0.524 -0.0235  0.2015  0.4936
  196MPD1    C1 2979   4.646   3.610   0.650  0.5880  0.1432 -1.3490
  196MPD1    C2 2980   4.652   3.706   0.748  0.0738  0.1887 -0.0105
  196MPD1    C3 2981   4.665   3.838   0.717  0.4685 -0.2373  0.3575
  196MPD1    C4 2982   4.663   3.873   0.581 -0.5251  0.4241  0.6545
  196MPD1    C5 2983   4.670   3.776   0.481 -0.3251 -0.0951 -0.2818
  196MPD1     H 2984   4.655   3.672   0.851  0.0987 -2.0493 -0.7427
  196MPD1    H1 2985   4.678   3.977   0.554 -0.4437  0.4720  0.8809
  196MPD1    H2 2986   4.669   3.575   0.443  0.2508  0.2330  0.4830
  196MPD1    H3 2987   4.684   3.805   0.378  1.0860 -0.1599 -0.1118
  196MPD1     N 2988   4.664   3.944   0.807  0.9428  0.6193 -0.2581
  196MPD1    H5 2989   4.665   4.036   0.766  2.0255  0.3339 -0.8846
  196MPD1    N1 2990   4.636   3.474   0.687  0.2671  0.0815 -0.2653
  196MPD1    H6 2991   4.623   3.408   0.611 -0.8633  0.2381 -0.2133
  196MPD1    H7 2992   4.573   3.460   0.766 -0.6737 -0.9508 -1.1980
  197MPD1     C 2993   0.196   1.899   0.054 -0.1553  0.3407  0.8862
  197MPD1    C1 2994   0.147   2.029   0.049 -0.0247  0.1849 -0.3621
  197MPD1    C2 2995   0.083   2.071  17.628  0.3780  0.7426 -0.7640
  197MPD1    C3 2996   0.062   1.980  17.527  0.8541 -0.4739  0.0061
  197MPD1    C4 2997   0.115   1.852  17.539 -0.0869 -0.1162  0.8482
  197MPD1    C5 2998   0.175   1.809  17.647  0.0869  0.9985  0.0501
  197MPD1     H 2999   0.059   2.175  17.612  1.8754  1.3200  0.6755
  197MPD1    H1 3000   0.103   1.782  17.457  1.3979  0.7709 -0.1194
  197MPD1    H2 3001   0.252   1.863   0.139  1.7683  0.6270 -0.2351
  197MPD1    H3 3002   0.211   1.708  17.655 -2.5991 -0.1074 -1.8156
  197MPD1     N 3003   4.713   2.012  17.406  0.2966 -0.7559 -0.1981
  197MPD1    H5 3004   4.716   1.950  17.325  0.7638 -2.2867  0.9915
  197MPD1    N1 3005   0.187   2.121   0.147 -0.8021  0.0939 -0.5532
  197MPD1    H6 3006   0.107   2.183   0.158 -1.9813 -1.4693 -0.2771
  197MPD1    H7 3007   0.200   2.076   0.237 -1.2074 -1.3004 -1.1940
  198MPD1     C 3008   1.852   0.284  14.678  0.3615  0.2733 -0.2198
  198MPD1    C1 3009   1.936   0.390  14.645 -0.0646  0.2023  0.0855
  198MPD1    C2 3010   1.980   0.468  14.747  0.1829 -0.0598 -0.7457
  198MPD1    C3 3011   1.944   0.444  14.876  0.3694  0.9810 -0.0002
  198MPD1    C4 3012   1.869   0.333  14.905 -0.1308  0.5615  0.4339
  198MPD1    C5 3013   1.822   0.254  14.806 -0.3963 -0.0691  0.0447
  198MPD1     H 3014   2.038   0.558  14.729 -0.3006  0.3314 -0.3389
  198MPD1    H1 3015   1.864   0.292  15.005 -4.1317 -1.6537 -0.6961
  198MPD1    H2 3016   1.813   0.213  14.606  0.0378  0.5129 -0.2795
  198MPD1    H3 3017   1.758   0.171  14.835 -1.7027  0.7794 -0.3848
  198MPD1     N 3018   2.008   0.530  14.972  0.0271  0.4693 -0.1981
  198MPD1    H5 3019   2.080   0.591  14.933  2.5437  0.0847  3.8900
  198MPD1    N1 3020   1.977   0.412  14.510  0.3203  0.1894  0.6973
  198MPD1    H6 3021   2.009   0.508  14.496 -0.0517  0.0798 -0.8748
  198MPD1    H7 3022   1.896   0.416  14.449  1.0453 -0.2797 -0.3143
  199MPD1     C 3023   4.564   0.729   9.379 -0.3678 -0.2691  0.4606
  199MPD1    C1 3024   4.624   0.805   9.469 -0.7846  0.3701 -0.0460
  199MPD1    C2 3025   4.558   0.918   9.516 -0.2509 -0.3204  0.2873
  199MPD1    C3 3026   4.428   0.951   9.471  0.5255 -0.0130 -0.0738
  199MPD1    C4 3027   4.372   0.869   9.376  0.4633 -0.2241 -0.2045
  199MPD1    C5 3028   4.443   0.759   9.331 -0.1896 -0.1846  0.5105
  199MPD1     H 3029   4.616   0.980   9.584  0.1072  1.3277 -1.5056
  199MPD1    H1 3030   4.270   0.883   9.341  0.2288 -1.2300  0.0477
  199MPD1    H2 3031   4.610   0.635   9.351  3.1949  1.2711  1.1610
  199MPD1    H3 3032   4.384   0.691   9.269  1.6276  0.1108 -1.5213
  199MPD1     N 3033   4.349   1.058   9.518  0.2409  0.5821  0.4260
  199MPD1    H5 3034   4.254   1.061   9.483 -0.0229 -1.4109  0.9693
  199MPD1    N1 3035   0.022   0.766   9.530  0.1420 -0.5189 -0.2774
  199MPD1    H6 3036   0.067   0.681   9.496 -0.0155  0.1952 -2.3024
  199MPD1    H7 3037   0.013   0.769   9.631  2.2816  1.1643 -0.1586
  200MPD1     C 3038   2.451   1.432  14.744 -0.1170  0.4643 -0.0153
  200MPD1    C1 3039   2.491   1.368  14.630 -0.1327  0.2438 -0.5910
  200MPD1    C2 3040   2.615   1.386  14.577  0.9261 -0.6171  0.8802
  200MPD1    C3 3041   2.695   1.478  14.640  0.0101 -0.8195 -0.5742
  200MPD1    C4 3042   2.648   1.565  14.738  0.4191  0.1862  0.7325
  200MPD1    C5 3043   2.526   1.542  14.788 -0.2501  0.2402 -0.2288
  200MPD1     H 3044   2.661   1.324  14.500  2.1533  0.4704  0.7440
  200MPD1    H1 3045   2.693   1.660  14.766  1.2747  0.4970 -1.6786
  200MPD1    H2 3046   2.355   1.416  14.791  0.1436 -0.7856  0.0860
  200MPD1    H3 3047   2.495   1.610  14.866 -0.9033 -0.8751  0.4972
  200MPD1     N 3048   2.824   1.494  14.590  0.3842 -0.4132  0.7432
  200MPD1    H5 3049   2.858   1.437  14.513  0.4402  0.9222 -0.2177
  200MPD1    N1 3050   2.416   1.263  14.582 -0.3237  0.2377 -0.3342
  200MPD1    H6 3051   2.436   1.261  14.482  0.6523 -0.8600 -0.1113
  200MPD1    H7 3052   2.316   1.282  14.583  0.1723  2.7083  0.7651
  201MPD1     C 3053   0.297   0.513  13.115  0.1660 -0.6780 -0.3145
  201MPD1    C1 3054   0.357   0.489  12.993  0.2690 -0.2442 -0.1793
  201MPD1    C2 3055   0.475   0.419  12.984 -0.0008  0.4452  0.0041
  201MPD1    C3 3056   0.556   0.405  13.097 -0.0855  0.6174 -0.3621
  201MPD1    C4 3057   0.496   0.439  13.213 -0.0100 -0.0902 -0.2015
  201MPD1    C5 3058   0.368   0.484  13.230  0.3359 -0.4367  0.4580
  201MPD1     H 3059   0.509   0.391  12.884  0.3552 -2.9239  1.0820
  201MPD1    H1 3060   0.550   0.427  13.305 -2.5516 -1.2628  1.1348
  201MPD1    H2 3061   0.193   0.542  13.119  0.6245  0.7621  0.9599
  201MPD1    H3 3062   0.322   0.490  13.328 -1.1035  2.6152 -0.3944
  201MPD1     N 3063   0.695   0.370  13.089  0.0708 -0.0702  0.0951
  201MPD1    H5 3064   0.734   0.365  12.995 -1.7017  0.9641 -0.6921
  201MPD1    N1 3065   0.270   0.497  12.884 -0.1653  0.3296 -0.5960
  201MPD1    H6 3066   0.211   0.580  12.893 -0.5113  0.1159 -0.8830
  201MPD1    H7 3067   0.322   0.511  12.798 -2.0073 -2.3988 -2.1804
  202MPD1     C 3068   0.734   0.124   8.729  0.1497 -0.0706  0.3404
  202MPD1    C1 3069   0.718   4.714   8.758 -0.5475  0.0386  0.8029
  202MPD1    C2 3070   0.816   4.661   8.843 -0.0255 -0.3142 -0.2037
  202MPD1    C3 3071   0.887   0.025   8.935 -0.3901  0.6840  0.6256
  202MPD1    C4 3072   0.875   0.161   8.923 -0.6239  0.4567  0.1438
  202MPD1    C5 3073   0.796   0.212   8.816 -0.3396 -0.0398  0.2634
  202MPD1     H 3074   0.819   4.554   8.856 -1.5832 -0.0127  2.7282
  202MPD1    H1 3075   0.908   0.230   9.000 -0.3457  1.3760 -0.8117
  202MPD1    H2 3076   0.690   0.161   8.638  2.2675  0.1270 -0.6120
  202MPD1    H3 3077   0.793   0.320   8.805 -1.1662 -0.0503  0.3491
  202MPD1     N 3078   0.965   4.704   9.046 -0.2002 -0.6021  0.1379
  202MPD1    H5 3079   0.993   0.049   9.116 -1.3128 -0.3308  0.3194
  202MPD1    N1 3080   0.659   4.636   8.657  0.1439  0.0139  0.3546
  202MPD1    H6 3081   0.569   4.679   8.636 -0.3089 -1.4600 -0.7150
  202MPD1    H7 3082   0.641   4.538   8.678  0.2963  0.0124  0.4781
  203MPD1     C 3083   3.922   1.330  13.077  0.3473  0.1046 -0.3642
  203MPD1    C1 3084   3.870   1.205  13.085 -0.0859 -0.3097 -0.8396
  203MPD1    C2 3085   3.902   1.114  12.984 -0.1271 -0.7816 -0.4438
  203MPD1    C3 3086   4.000   1.144  12.889 -0.3629  0.2454  0.1628
  203MPD1    C4 3087   4.037   1.279  12.884  0.7227 -0.1751  0.6078
  203MPD1    C5 3088   3.989   1.372  12.974 -0.2658 -0.2760  0.5507
  203MPD1     H 3089   3.866   1.013  12.997 -0.7388 -0.3099  1.4743
  203MPD1    H1 3090   4.115   1.312  12.816 -0.1530  0.4034 -0.1144
  203MPD1    H2 3091   3.896   1.405  13.151  3.8478 -0.1152  1.0736
  203MPD1    H3 3092   4.015   1.476  12.982  0.4663 -0.5619  1.8225
  203MPD1     N 3093   4.049   1.041  12.812 -0.0745 -0.3599 -0.1475
  203MPD1    H5 3094   4.033   0.949  12.850  0.2086 -0.7761 -1.0482
  203MPD1    N1 3095   3.775   1.172  13.181 -0.6658 -0.2740 -0.4815
  203MPD1    H6 3096   3.780   1.244  13.253 -0.7589  0.0708 -0.8182
  203MPD1    H7 3097   3.799   1.082  13.221 -0.6290  0.6835  1.6961
  204MPD1     C 3098   2.847   1.925  17.680 -0.2754 -0.7462  0.2764
  204MPD1    C1 3099   2.858   1.945  17.538  0.2901  0.8352 -0.6506
  204MPD1    C2 3100   2.957   1.870  17.474 -0.5546  0.4486 -0.1356
  204MPD1    C3 3101   3.030   1.770  17.532 -0.6067  0.4900  0.7757
  204MPD1    C4 3102   3.028   1.768  17.674  0.5793  0.8809  1.0147
  204MPD1    C5 3103   2.945   1.850   0.051 -0.1546  0.2463 -0.0586
  204MPD1     H 3104   2.961   1.871  17.366 -2.1233  1.8438 -0.1802
  204MPD1    H1 3105   3.098   1.707   0.035 -0.5894 -1.8432 -0.5160
  204MPD1    H2 3106   2.780   1.977   0.053  0.0847  1.9337 -1.4053
  204MPD1    H3 3107   2.944   1.834   0.159 -0.5571 -0.8668 -0.2349
  204MPD1     N 3108   3.114   1.700  17.447 -0.3123  0.0079 -0.2918
  204MPD1    H5 3109   3.116   1.727  17.349 -0.1940 -0.4768 -0.4225
  204MPD1    N1 3110   2.759   2.017  17.475 -0.6999 -0.6954  0.5694
  204MPD1    H6 3111   2.787   2.061  17.388  2.3909  1.2123  2.5276
  204MPD1    H7 3112   2.711   2.078  17.541 -2.0684  0.0039 -1.0502
  205MPD1     C 3113   3.655   0.149  16.554 -0.4719  0.2474 -0.0211
  205MPD1    C1 3114   3.580   0.251  16.596  0.6083  0.3472  0.2009
  205MPD1    C2 3115   3.613   0.313  16.715  0.2603 -0.3474 -0.5365
  205MPD1    C3 3116   3.722   0.277  16.792  0.4288  0.2262  0.1699
  205MPD1    C4 3117   3.794   0.171  16.747  0.2509  0.4759  0.1881
  205MPD1    C5 3118   3.766   0.110  16.634 -0.0363 -0.9061  0.0091
  205MPD1     H 3119   3.555   0.404  16.726 -1.1584 -1.0723 -1.9976
  205MPD1    H1 3120   3.876   0.132  16.806 -1.8076 -1.0274  2.0596
  205MPD1    H2 3121   3.639   0.098  16.460 -2.1118  1.7190 -0.5429
  205MPD1    H3 3122   3.817   0.016  16.615  0.7501 -0.4504 -0.0886
  205MPD1     N 3123   3.756   0.345  16.907  0.1003 -0.2076 -0.0071
  205MPD1    H5 3124   3.820   0.304  16.974 -0.6025  1.5738  1.7620
  205MPD1    N1 3125   3.494   0.318  16.508 -0.0237  0.0348 -0.2705
  205MPD1    H6 3126   3.427   0.380  16.553  0.6073  1.2522 -0.9993
  205MPD1    H7 3127   3.452   0.259  16.435  0.8261  0.0855 -0.8024
  206MPD1     C 3128   0.240   3.767  16.447 -0.4356  0.5736 -1.1957
  206MPD1    C1 3129   0.139   3.692  16.497 -0.0157  0.2805  0.5687
  206MPD1    C2 3130   0.023   3.674  16.422 -0.2179 -0.5348 -0.2643
  206MPD1    C3 3131   0.008   3.747  16.306  0.9879 -0.7442 -0.1573
  206MPD1    C4 3132   0.111   3.826  16.257  0.6409  0.4702  0.1512
  206MPD1    C5 3133   0.227   3.829  16.325  0.1841 -0.6219  0.8775
  206MPD1     H 3134   4.673   3.598  16.447  2.2801 -2.0157  2.5399
  206MPD1    H1 3135   0.099   3.887  16.169 -0.3972 -3.1417 -2.2206
  206MPD1    H2 3136   0.321   3.785  16.517  0.7018 -0.6925 -2.1834
  206MPD1    H3 3137   0.296   3.907  16.296 -0.1660 -0.6741 -0.0896
  206MPD1     N 3138   4.612   3.740  16.223 -0.3650  0.0246  0.1346
  206MPD1    H5 3139   4.617   3.796  16.138  2.4673 -0.8817 -0.3007
  206MPD1    N1 3140   0.159   3.614  16.609 -0.6856  1.0104 -0.2484
  206MPD1    H6 3141   0.075   3.606  16.666  0.5062 -1.4772  1.2032
  206MPD1    H7 3142   0.240   3.652  16.659 -1.2543  0.7364  0.8852
  207MPD1     C 3143   1.298   0.596  10.491 -0.0921 -0.9148  0.7853
  207MPD1    C1 3144   1.317   0.731  10.461  1.2129 -0.1131 -1.2709
  207MPD1    C2 3145   1.432   0.784  10.516 -0.0045 -0.2167 -0.2047
  207MPD1    C3 3146   1.532   0.711  10.585 -0.3195  0.3437  0.4780
  207MPD1    C4 3147   1.501   0.578  10.611 -0.9751  0.5226  0.6702
  207MPD1    C5 3148   1.382   0.523  10.570  0.2682 -0.0203  0.2586
  207MPD1     H 3149   1.445   0.891  10.508  0.2278 -0.2847 -0.7105
  207MPD1    H1 3150   1.571   0.519  10.670 -2.5569 -0.2548  1.7785
  207MPD1    H2 3151   1.212   0.543  10.451  0.2967  0.5783 -2.0473
  207MPD1    H3 3152   1.367   0.420  10.599  0.3781 -0.2624 -0.5275
  207MPD1     N 3153   1.647   0.763  10.651 -0.7208 -0.3699 -0.1308
  207MPD1    H5 3154   1.684   0.703  10.724 -1.0540  1.2522  1.3802
  207MPD1    N1 3155   1.222   0.809  10.397 -0.2544 -0.0759 -0.1774
  207MPD1    H6 3156   1.256   0.892  10.350  1.6159 -1.5978 -1.5251
  207MPD1    H7 3157   1.169   0.751  10.332  2.6402 -0.1621 -2.4610
  208MPD1     C 3158   0.068   0.893   0.612  0.1924 -0.3681 -0.0513
  208MPD1    C1 3159   0.082   0.772   0.551  0.7009  0.4861  0.3058
  208MPD1    C2 3160   4.684   0.708   0.513  0.0893  0.4412  0.4112
  208MPD1    C3 3161   4.560   0.759   0.530 -0.3069  0.3914  0.1489
  208MPD1    C4 3162   4.559   0.891   0.560  0.7691 -0.0570 -0.1080
  208MPD1    C5 3163   4.668   0.957   0.614  0.5863 -0.1110 -0.3787
  208MPD1     H 3164   4.695   0.610   0.468 -0.6261  0.1632  0.8419
  208MPD1    H1 3165   4.465   0.944   0.565  0.1128 -1.1137 -1.2249
  208MPD1    H2 3166   0.160   0.945   0.633 -0.1976  0.1388  0.4053
  208MPD1    H3 3167   4.656   1.056   0.658 -0.1052  0.0851 -1.0038
  208MPD1     N 3168   4.450   0.675   0.503 -0.0040 -0.2460 -0.3760
  208MPD1    H5 3169   4.473   0.579   0.481 -0.7424 -0.6920  0.8140
  208MPD1    N1 3170   0.196   0.688   0.564  0.2086 -0.1364 -0.3925
  208MPD1    H6 3171   0.283   0.740   0.565 -0.4169  0.8632  1.5115
  208MPD1    H7 3172   0.205   0.610   0.499 -2.9630 -1.6105  0.9169
  209MPD1     C 3173   2.367   0.739  12.467 -0.4648 -0.2496 -0.4176
  209MPD1    C1 3174   2.484   0.689  12.407 -0.4959 -0.4104 -0.1861
  209MPD1    C2 3175   2.471   0.651  12.277 -0.1619  0.5120 -0.3422
  209MPD1    C3 3176   2.351   0.654  12.208  0.8562  0.1770 -1.0906
  209MPD1    C4 3177   2.235   0.704  12.270  1.2069 -0.2041 -0.0954
  209MPD1    C5 3178   2.244   0.732  12.400  0.7717 -0.3108 -0.0445
  209MPD1     H 3179   2.563   0.622  12.229 -0.0262 -0.1222  0.2960
  209MPD1    H1 3180   2.144   0.717  12.214  2.9379 -0.5963 -2.9853
  209MPD1    H2 3181   2.373   0.774  12.569 -0.0434 -1.6028  0.0179
  209MPD1    H3 3182   2.161   0.763  12.463  1.7546  0.8006  0.7006
  209MPD1     N 3183   2.357   0.626  12.071  0.6271  1.3121 -0.2441
  209MPD1    H5 3184   2.448   0.591  12.041  0.1060 -0.8340  0.7133
  209MPD1    N1 3185   2.609   0.712  12.468  0.1737 -0.5306  0.6098
  209MPD1    H6 3186   2.664   0.628  12.446  1.9002  0.1487  2.3731
  209MPD1    H7 3187   2.611   0.721  12.569  2.4005 -2.7348  0.7580
  210MPD1     C 3188   2.977   0.441  11.339 -0.5128 -0.2562  0.0428
  210MPD1    C1 3189   2.913   0.339  11.410  0.4560  0.3221 -0.2615
  210MPD1    C2 3190   2.790   0.383  11.463 -0.4807  0.9334 -0.7969
  210MPD1    C3 3191   2.738   0.513  11.440  0.8926  0.9071  0.0868
  210MPD1    C4 3192   2.801   0.603  11.353 -0.3125 -0.1488 -0.4386
  210MPD1    C5 3193   2.924   0.563  11.312  0.3586 -0.1932 -0.0474
  210MPD1     H 3194   2.740   0.316  11.533  0.8509  1.2229  0.4187
  210MPD1    H1 3195   2.772   0.706  11.331 -1.5458 -0.9336 -2.5770
  210MPD1    H2 3196   3.076   0.424  11.297  0.1979 -0.1367  1.6864
  210MPD1    H3 3197   2.988   0.628  11.253 -1.4323 -0.2357 -2.0252
  210MPD1     N 3198   2.637   0.567  11.520 -0.1488 -0.2476 -0.4274
  210MPD1    H5 3199   2.614   0.665  11.507  0.9531  0.0687  0.0402
  210MPD1    N1 3200   2.980   0.227  11.468 -0.3085  0.2834  0.2888
  210MPD1    H6 3201   2.909   0.161  11.497 -0.4235 -0.3566 -1.5069
  210MPD1    H7 3202   3.059   0.189  11.417 -1.4217 -0.8584 -0.5422
  211MPD1     C 3203   4.247   0.314  16.117  0.4933  0.3113 -0.0933
  211MPD1    C1 3204   4.287   0.418  16.203  0.9006 -0.3471 -0.5803
  211MPD1    C2 3205   4.213   0.536  16.209  0.7249  0.3380 -0.0184
  211MPD1    C3 3206   4.102   0.543  16.137 -0.1203  0.4755  0.2155
  211MPD1    C4 3207   4.072   0.445  16.042  0.8475 -0.3852  0.9246
  211MPD1    C5 3208   4.155   0.331  16.028 -0.4401 -0.3061 -0.5073
  211MPD1     H 3209   4.227   0.610  16.287  0.5081 -0.0182  0.3569
  211MPD1    H1 3210   3.994   0.464  15.969  0.9903 -0.0129  0.8689
  211MPD1    H2 3211   4.293   0.216  16.116 -0.0299  0.0395  2.4939
  211MPD1    H3 3212   4.133   0.263  15.946  3.3593 -0.0573 -1.7489
  211MPD1     N 3213   4.023   0.653  16.156 -0.4901  0.4988 -0.3586
  211MPD1    H5 3214   4.051   0.722  16.225 -1.1132  1.5224 -1.1313
  211MPD1    N1 3215   4.410   0.409  16.268  0.7668  0.3095  0.2170
  211MPD1    H6 3216   4.396   0.470  16.349 -2.1193 -0.6667  0.4260
  211MPD1    H7 3217   4.412   0.312  16.298  1.2700 -0.0586 -1.0274
  212MPD1     C 3218   3.186   4.227  16.300 -0.3195  0.7936 -0.1614
  212MPD1    C1 3219   3.073   4.256  16.368 -0.2304 -0.0862  0.2932
  212MPD1    C2 3220   3.038   4.182  16.478  1.0638 -0.5549 -0.0127
  212MPD1    C3 3221   3.116   4.082  16.528 -1.0277  0.1914 -0.2319
  212MPD1    C4 3222   3.235   4.054  16.460 -0.1708  0.3259  0.4389
  212MPD1    C5 3223   3.270   4.129  16.351  0.6116  0.1453  0.2785
  212MPD1     H 3224   2.949   4.207  16.535  1.0515 -0.4680 -0.0701
  212MPD1    H1 3225   3.305   3.982  16.499  0.0480 -0.0804 -0.7234
  212MPD1    H2 3226   3.218   4.272  16.207 -1.2345 -0.2618 -0.9850
  212MPD1    H3 3227   3.366   4.107  16.306 -0.8250 -0.9227 -2.2413
  212MPD1     N 3228   3.077   4.002  16.635 -0.4093 -0.3547 -0.2125
  212MPD1    H5 3229   3.147   3.938  16.669 -0.6787 -0.0525  0.9061
  212MPD1    N1 3230   2.977   4.340  16.310  0.4371  1.1251  0.6998
  212MPD1    H6 3231   3.012   4.415  16.252  1.1993 -1.5339 -2.3144
  212MPD1    H7 3232   2.919   4.382  16.382 -0.4263 -1.7077  1.6519
  213MPD1     C 3233   1.691   4.700  15.545  0.2994  0.0605 -0.5600
  213MPD1    C1 3234   1.759   4.631  15.446  0.7577 -0.4861  0.5795
  213MPD1    C2 3235   1.679   4.578  15.349 -0.6067 -0.0697  0.0373
  213MPD1    C3 3236   1.546   4.588  15.346  0.1945  0.1111 -0.6088
  213MPD1    C4 3237   1.475   4.651  15.449 -0.1220  0.5513 -0.1195
  213MPD1    C5 3238   1.552   4.717  15.554 -0.3681 -0.1082  0.1488
  213MPD1     H 3239   1.721   4.543  15.256  1.2007  0.4626  0.6519
  213MPD1    H1 3240   1.368   4.665  15.437  0.0643  2.9220  0.8751
  213MPD1    H2 3241   1.752   0.040  15.608 -0.3763  0.5103 -0.3586
  213MPD1    H3 3242   1.507   0.058  15.629  1.1470  0.9094  0.1873
  213MPD1     N 3243   1.470   4.543  15.234 -0.4917  0.2713 -0.3832
  213MPD1    H5 3244   1.518   4.518  15.148  1.5095 -1.8873  1.3735
  213MPD1    N1 3245   1.891   4.682  15.418 -0.2682 -0.7580  0.6908
  213MPD1    H6 3246   1.949   4.700  15.500  1.3484  1.0579 -0.8447
  213MPD1    H7 3247   1.944   4.616  15.362  1.0887 -1.0572  2.3232
  214MPD1     C 3248   0.562   4.133  15.118 -0.1458  0.3277  0.2015
  214MPD1    C1 3249   0.619   4.131  14.995  0.3026  0.4607  0.0419
  214MPD1    C2 3250   0.734   4.206  14.979  0.1127  0.4393 -0.5038
  214MPD1    C3 3251   0.784   4.283  15.080 -0.1712  0.6623 -0.5711
  214MPD1    C4 3252   0.720   4.293  15.202 -0.2623  0.0394  0.7789
  214MPD1    C5 3253   0.613   4.208  15.221  0.1274  0.3065 -0.3842
  214MPD1     H 3254   0.790   4.201  14.886  0.3548  0.2262 -0.3462
  214MPD1    H1 3255   0.757   4.357  15.281  1.0599 -0.0497  0.2258
  214MPD1    H2 3256   0.480   4.064  15.132  0.4929 -0.6581 -0.9207
  214MPD1    H3 3257   0.567   4.208  15.319  2.2808  0.4767  0.6314
  214MPD1     N 3258   0.902   4.369  15.067  0.2705 -0.1664  0.6315
  214MPD1    H5 3259   0.933   4.409  15.155 -0.8951  0.4231  0.7744
  214MPD1    N1 3260   0.574   4.030  14.910  0.1977 -0.2411  1.3643
  214MPD1    H6 3261   0.603   4.034  14.813  2.1559 -0.8661  1.9283
  214MPD1    H7 3262   0.473   4.019  14.920 -0.3475  3.4087 -0.0309
  215MPD1     C 3263   0.692   0.750  11.165  0.2524  0.1107  0.5354
  215MPD1    C1 3264   0.705   0.829  11.280 -0.2153 -0.3858 -0.0207
  215MPD1    C2 3265   0.826   0.887  11.310  0.3411  0.7832 -0.2970
  215MPD1    C3 3266   0.940   0.859  11.227 -0.0450  0.1220  0.3431
  215MPD1    C4 3267   0.922   0.762  11.122 -0.2013  0.0482  0.2227
  215MPD1    C5 3268   0.798   0.720  11.085  0.1452 -0.1359 -0.6751
  215MPD1     H 3269   0.840   0.949  11.397 -1.8124  1.4784 -0.4487
  215MPD1    H1 3270   1.006   0.730  11.061 -1.6381  0.0314 -1.7475
  215MPD1    H2 3271   0.598   0.707  11.132 -0.0352  0.5366  0.7887
  215MPD1    H3 3272   0.784   0.656  10.999 -0.3592 -1.6952  0.5464
  215MPD1     N 3273   1.074   0.893  11.271 -0.1070  0.2841  0.3053
  215MPD1    H5 3274   1.082   0.946  11.358  0.2438 -0.2348  0.5907
  215MPD1    N1 3275   0.587   0.861  11.347  0.3761  0.4276 -0.5598
  215MPD1    H6 3276   0.546   0.771  11.371 -1.7535  1.4675 -0.2608
  215MPD1    H7 3277   0.618   0.895  11.438  1.8250 -0.5065 -0.7113
  216MPD1     C 3278   2.920   2.200  16.970  0.2120 -0.5352  0.3327
  216MPD1    C1 3279   2.869   2.248  17.086  0.0857 -0.2146 -0.6679
  216MPD1    C2 3280   2.931   2.213  17.205 -0.6702 -0.0120 -0.6786
  216MPD1    C3 3281   3.037   2.126  17.209  0.6201  0.8156  0.5533
  216MPD1    C4 3282   3.077   2.067  17.090 -0.1177 -0.0668  0.6211
  216MPD1    C5 3283   3.028   2.114  16.974 -0.5422 -0.8036  0.5794
  216MPD1     H 3284   2.895   2.269  17.291 -0.6994 -2.1907  0.7288
  216MPD1    H1 3285   3.146   1.983  17.091  0.9248  0.7999  0.2896
  216MPD1    H2 3286   2.888   2.231  16.871  1.0013  1.4676  0.6995
  216MPD1    H3 3287   3.071   2.075  16.883  2.2123  1.2079  1.0275
  216MPD1     N 3288   3.109   2.115  17.334 -0.5950 -0.0314 -0.5166
  216MPD1    H5 3289   3.070   2.180  17.401  1.1022 -0.5097  0.9327
  216MPD1    N1 3290   2.780   2.353  17.092 -0.0784 -0.7502 -0.2324
  216MPD1    H6 3291   2.732   2.370  17.180  1.7533 -1.5626  0.9371
  216MPD1    H7 3292   2.702   2.347  17.027 -1.2392 -1.6761  1.2366
  217MPD1     C 3293   4.699   4.576   7.944  0.5617  1.3329  0.4837
  217MPD1    C1 3294   4.642   4.678   8.015  0.1232  0.7221  0.1550
  217MPD1    C2 3295   4.665   4.688   8.153  0.5401 -0.0455 -0.3535
  217MPD1    C3 3296   0.007   4.596   8.222 -0.1325 -0.3386 -0.7182
  217MPD1    C4 3297   0.074   4.501   8.148  0.9672  0.1523  0.0733
  217MPD1    C5 3298   0.052   4.491   8.011 -0.7014  0.4377  0.6254
  217MPD1     H 3299   4.621   0.047   8.209 -0.2827 -2.0905  1.9814
  217MPD1    H1 3300   0.148   4.435   8.191 -1.1436 -1.6619  0.9299
  217MPD1    H2 3301   4.690   4.573   7.836 -1.3031 -0.9151  0.6913
  217MPD1    H3 3302   0.104   4.414   7.955 -0.0097  0.2311  1.5707
  217MPD1     N 3303   0.035   4.605   8.357  0.0949 -1.7304 -0.4166
  217MPD1    H5 3304   0.100   4.533   8.387  0.5523 -0.8106  0.8236
  217MPD1    N1 3305   4.595   0.065   7.940 -0.2133  0.5213  0.3243
  217MPD1    H6 3306   4.517   0.108   7.990  0.3617  1.1776  0.6563
  217MPD1    H7 3307   4.558   0.033   7.851  0.7824 -0.9037  0.4241
  218MPD1     C 3308   0.049   0.905  13.526 -0.6178  0.2019  0.2312
  218MPD1    C1 3309   0.088   0.896  13.393 -0.3774  0.7191  0.4170
  218MPD1    C2 3310   0.220   0.863  13.377  0.7579  1.2416 -0.5691
  218MPD1    C3 3311   0.300   0.815  13.472 -0.5201  0.3385 -0.3869
  218MPD1    C4 3312   0.252   0.808  13.599  1.2739 -0.3961  0.0593
  218MPD1    C5 3313   0.129   0.861  13.627 -0.3366 -0.4717 -0.0060
  218MPD1     H 3314   0.261   0.857  13.277 -0.7177  2.2409 -1.2228
  218MPD1    H1 3315   0.315   0.773  13.680  0.4664  2.8534  2.0829
  218MPD1    H2 3316   4.680   0.949  13.562  0.3789  2.6058 -0.1257
  218MPD1    H3 3317   0.084   0.865  13.726 -2.2195 -0.3083 -0.8711
  218MPD1     N 3318   0.435   0.795  13.430  0.2562  0.1848 -0.1386
  218MPD1    H5 3319   0.453   0.831  13.337 -0.5715  0.2395 -0.2826
  218MPD1    N1 3320   0.008   0.946  13.291 -0.1249 -0.3037 -0.9183
  218MPD1    H6 3321   0.031   0.918  13.195 -2.9150 -1.7159 -1.1683
  218MPD1    H7 3322   4.632   0.932  13.304 -0.0279  0.6973  0.8500
  219MPD1     C 3323   1.025   0.924  12.654  0.1259  0.2763  0.4716
  219MPD1    C1 3324   0.931   0.995  12.728 -0.6573  0.9572  0.9858
  219MPD1    C2 3325   0.900   0.940  12.862 -0.1468  0.5409 -0.0430
  219MPD1    C3 3326   0.943   0.815  12.902 -0.6598  0.4637 -1.2032
  219MPD1    C4 3327   1.034   0.750  12.821 -1.1082 -0.4631  0.1537
  219MPD1    C5 3328   1.077   0.808  12.706 -0.8141 -0.7733 -0.6330
  219MPD1     H 3329   0.831   0.995  12.924 -2.1824  0.0339 -1.8460
  219MPD1    H1 3330   1.072   0.651  12.847  0.9075 -0.4224 -2.6962
  219MPD1    H2 3331   1.061   0.962  12.559 -0.8511 -1.6855 -0.6776
  219MPD1    H3 3332   1.137   0.749  12.637 -1.7621 -1.0164 -1.2556
  219MPD1     N 3333   0.906   0.755  13.027 -0.7244 -0.4892 -0.2311
  219MPD1    H5 3334   0.965   0.679  13.060  0.2755 -0.1544 -1.2489
  219MPD1    N1 3335   0.886   1.125  12.693 -0.4239 -1.4364  0.2604
  219MPD1    H6 3336   0.806   1.155  12.748 -0.0227 -0.6312  0.4000
  219MPD1    H7 3337   0.954   1.191  12.730  0.4604 -2.2483  0.0919
  220MPD1     C 3338   2.260   1.419   9.817  0.3921 -0.1024  0.7978
  220MPD1    C1 3339   2.272   1.340   9.921  0.7543  0.2738  0.2994
  220MPD1    C2 3340   2.161   1.279   9.969 -0.1424  0.0995  0.6252
  220MPD1    C3 3341   2.035   1.317   9.929 -0.9471  0.3824  0.0384
  220MPD1    C4 3342   2.023   1.395   9.814  0.4250  0.2589 -0.4798
  220MPD1    C5 3343   2.141   1.449   9.758  0.2903  0.1008 -0.4573
  220MPD1     H 3344   2.168   1.209  10.051 -0.0496  1.0366  1.4230
  220MPD1    H1 3345   1.921   1.417   9.786 -0.3485 -1.9754  0.5803
  220MPD1    H2 3346   2.349   1.464   9.776 -0.3706 -0.1197 -0.8736
  220MPD1    H3 3347   2.150   1.512   9.670  0.7657  0.7800  0.0827
  220MPD1     N 3348   1.927   1.286  10.019  0.4461  0.4737  0.1449
  220MPD1    H5 3349   1.946   1.245  10.110  0.8490  0.1931 -0.0673
  220MPD1    N1 3350   2.398   1.298   9.961  0.1353  0.1251 -0.3383
  220MPD1    H6 3351   2.406   1.261  10.055 -1.3982  0.0274 -0.2490
  220MPD1    H7 3352   2.474   1.365   9.948 -0.2848  0.6386 -0.0920
  221MPD1     C 3353   3.253   0.639  15.790 -0.0564  0.4352  0.0843
  221MPD1    C1 3354   3.265   0.503  15.772  0.1191 -0.6009  1.0779
  221MPD1    C2 3355   3.378   0.443  15.829 -1.1005 -0.1461 -0.1071
  221MPD1    C3 3356   3.461   0.514  15.914 -0.0279 -0.0054  0.3581
  221MPD1    C4 3357   3.436   0.646  15.932 -0.0234  0.3645  0.0903
  221MPD1    C5 3358   3.333   0.712  15.873 -0.4530  0.1007 -0.7495
  221MPD1     H 3359   3.414   0.342  15.813  0.1124  0.2322  0.2467
  221MPD1    H1 3360   3.503   0.711  15.987 -1.8082  0.6635  1.9105
  221MPD1    H2 3361   3.170   0.691  15.743 -0.2810 -0.0790 -0.0824
  221MPD1    H3 3362   3.318   0.819  15.872  0.0331  0.1747 -0.4117
  221MPD1     N 3363   3.573   0.460  15.985  0.1630  0.4865 -0.3852
  221MPD1    H5 3364   3.641   0.527  16.020  1.3421 -1.2771  0.7472
  221MPD1    N1 3365   3.189   0.432  15.674  0.1153  0.3265  0.5828
  221MPD1    H6 3366   3.094   0.463  15.656  0.9551  1.7999 -1.2956
  221MPD1    H7 3367   3.183   0.332  15.692 -1.9645  0.3441 -0.0969
  222MPD1     C 3368   2.587   3.840   0.345  0.0597 -0.7385  0.6008
  222MPD1    C1 3369   2.469   3.906   0.313  0.5865 -0.9518 -0.0110
  222MPD1    C2 3370   2.444   3.944   0.172 -0.0622 -0.3495 -0.2687
  222MPD1    C3 3371   2.547   3.936   0.077  0.1609 -0.1257 -0.2459
  222MPD1    C4 3372   2.662   3.864   0.114  0.4092 -0.8175  0.2053
  222MPD1    C5 3373   2.680   3.823   0.246 -0.4115 -0.1140 -0.2948
  222MPD1     H 3374   2.349   3.980   0.134 -0.2685  1.0938  1.6507
  222MPD1    H1 3375   2.745   3.846   0.046 -0.6039 -0.4944 -1.1247
  222MPD1    H2 3376   2.595   3.802   0.447  1.7705  0.3913  0.8780
  222MPD1    H3 3377   2.778   3.781   0.268  0.5362  2.2859  0.0591
  222MPD1     N 3378   2.544   3.987  17.639 -0.0461 -0.4306 -0.2635
  222MPD1    H5 3379   2.627   3.964  17.585  0.8634 -0.0155  0.9339
  222MPD1    N1 3380   2.376   3.920   0.417  0.2503 -0.0011 -0.1186
  222MPD1    H6 3381   2.295   3.979   0.399  1.3369  1.0122 -1.7614
  222MPD1    H7 3382   2.412   3.931   0.511 -1.3186 -0.5078  0.5389
  223MPD1     C 3383   1.845   4.575  17.139 -0.3662 -0.6329  0.1740
  223MPD1    C1 3384   1.849   4.536  17.271  0.6807 -0.0657  0.3859
  223MPD1    C2 3385   1.960   4.462  17.312  0.5379 -0.3861  0.0582
  223MPD1    C3 3386   2.072   4.457  17.231 -1.0706 -0.3846 -0.2920
  223MPD1    C4 3387   2.067   4.508  17.102 -0.7543  0.2072  0.0175
  223MPD1    C5 3388   1.956   4.570  17.050  0.1303 -0.0563 -0.1361
  223MPD1     H 3389   1.957   4.422  17.413  2.0522 -1.7595 -0.4454
  223MPD1    H1 3390   2.153   4.510  17.037 -0.5760 -0.7205  0.2196
  223MPD1    H2 3391   1.755   4.620  17.101 -0.5099 -1.1211 -0.0620
  223MPD1    H3 3392   1.971   4.614  16.952 -1.9346 -1.4423 -1.0655
  223MPD1     N 3393   2.182   4.386  17.283 -0.0520  0.1508 -0.1254
  223MPD1    H5 3394   2.178   4.368  17.383 -0.4406 -2.0599 -0.5359
  223MPD1    N1 3395   1.734   4.554  17.355  0.2812  0.6721  0.5436
  223MPD1    H6 3396   1.756   4.536  17.453  0.0269 -2.2520  0.0545
  223MPD1    H7 3397   1.679   4.635  17.327  1.6055  0.2635 -3.2036
  224MPD1     C 3398   0.730   1.000   9.106 -0.6320 -0.3061  0.5659
  224MPD1    C1 3399   0.761   0.867   9.084  0.2199  0.0216 -0.7152
  224MPD1    C2 3400   0.697   0.769   9.159  0.4648  0.7644  0.3251
  224MPD1    C3 3401   0.607   0.806   9.253  0.2710 -0.9959 -0.4578
  224MPD1    C4 3402   0.566   0.935   9.263 -0.3116  0.0358  0.3854
  224MPD1    C5 3403   0.632   1.033   9.195  0.7103 -0.0274 -0.1523
  224MPD1     H 3404   0.727   0.670   9.130 -0.1237  0.7600 -0.2514
  224MPD1    H1 3405   0.483   0.955   9.330  0.7272  1.8280  1.1585
  224MPD1    H2 3406   0.778   1.074   9.043 -1.8768 -1.4918 -1.7355
  224MPD1    H3 3407   0.607   1.138   9.202  1.3902  0.2193 -1.4232
  224MPD1     N 3408   0.546   0.716   9.349 -0.4164 -0.2039 -0.2095
  224MPD1    H5 3409   0.469   0.760   9.399 -0.1563 -1.4118  1.2644
  224MPD1    N1 3410   0.855   0.828   8.989 -0.3499  0.0318 -0.1308
  224MPD1    H6 3411   0.942   0.881   8.997 -0.9394  0.6830  1.8797
  224MPD1    H7 3412   0.888   0.734   9.009 -2.3951 -1.0222 -1.6077
  225MPD1     C 3413   1.035   2.303  12.794  0.0144  0.2203 -0.4229
  225MPD1    C1 3414   0.957   2.193  12.823 -0.3906 -0.0935  0.1906
  225MPD1    C2 3415   0.912   2.119  12.715  0.3287  0.0991 -0.3222
  225MPD1    C3 3416   0.954   2.144  12.584 -0.7256  0.7670 -0.0748
  225MPD1    C4 3417   1.040   2.249  12.559  0.5305  0.3028 -0.3646
  225MPD1    C5 3418   1.078   2.320  12.666 -0.0456  0.4961 -0.4010
  225MPD1     H 3419   0.844   2.037  12.734 -0.2202  0.3822 -1.0311
  225MPD1    H1 3420   1.069   2.270  12.457 -0.3261  0.8473 -0.5008
  225MPD1    H2 3421   1.082   2.357  12.875 -1.0142 -1.0293  1.0081
  225MPD1    H3 3422   1.149   2.401  12.650 -0.2425  1.1628  2.1665
  225MPD1     N 3423   0.936   2.062  12.473 -0.0040 -1.0740  0.0134
  225MPD1    H5 3424   0.953   2.101  12.380  1.7488 -0.7501  0.4685
  225MPD1    N1 3425   0.899   2.179  12.949  0.2605  0.1183 -0.0933
  225MPD1    H6 3426   0.881   2.082  12.974  0.9135 -0.5589 -2.2462
  225MPD1    H7 3427   0.963   2.219  13.017  0.4720  0.0825 -0.2717
  226MPD1     C 3428   4.709   2.366   9.709  0.3375 -0.0476 -0.1362
  226MPD1    C1 3429   0.106   2.324   9.654  0.3562  0.1699  0.0670
  226MPD1    C2 3430   0.123   2.188   9.634 -0.1039  0.6288  0.1366
  226MPD1    C3 3431   0.033   2.097   9.671 -0.3179 -0.9078 -0.0613
  226MPD1    C4 3432   4.632   2.141   9.727  0.0339 -0.6686 -0.5152
  226MPD1    C5 3433   4.613   2.276   9.740 -0.1946  0.6526  0.8352
  226MPD1     H 3434   0.212   2.151   9.586 -0.2034  0.0813  0.3763
  226MPD1    H1 3435   4.552   2.072   9.752  0.0702 -0.3559  0.4391
  226MPD1    H2 3436   4.695   2.467   9.745  0.1456 -0.1074 -0.0369
  226MPD1    H3 3437   4.515   2.307   9.777 -0.1598  2.8640 -0.9427
  226MPD1     N 3438   0.056   1.958   9.649  0.3358 -0.2382 -0.4575
  226MPD1    H5 3439   0.151   1.931   9.625  0.8951  1.3741 -0.0745
  226MPD1    N1 3440   0.213   2.409   9.638  0.0852  0.5759  0.2693
  226MPD1    H6 3441   0.186   2.507   9.642  1.9469  1.0573  0.7883
  226MPD1    H7 3442   0.261   2.385   9.552  1.5933  1.0546  0.9836
  227MPD1     C 3443   4.289   1.325   9.105 -0.7972  0.4748  0.2322
  227MPD1    C1 3444   4.245   1.415   9.202  0.2105  0.0678  0.3079
  227MPD1    C2 3445   4.323   1.459   9.306 -0.6447  0.0090  0.2136
  227MPD1    C3 3446   4.443   1.401   9.337 -0.5561  0.0342 -0.9212
  227MPD1    C4 3447   4.487   1.297   9.249  0.0556 -0.6005 -0.3827
  227MPD1    C5 3448   4.418   1.268   9.133  0.3387 -0.2867 -0.0988
  227MPD1     H 3449   4.288   1.539   9.370  0.9842 -0.7165  1.9950
  227MPD1    H1 3450   4.573   1.237   9.275 -0.2263 -0.8081  0.0585
  227MPD1    H2 3451   4.233   1.283   9.022 -0.2935 -0.1022  0.1832
  227MPD1    H3 3452   4.467   1.197   9.066 -0.1391  0.4234 -1.2116
  227MPD1     N 3453   4.520   1.450   9.442 -0.0880 -0.1221 -0.3600
  227MPD1    H5 3454   4.475   1.524   9.494  1.8933  1.1235 -0.4356
  227MPD1    N1 3455   4.125   1.473   9.176 -0.2098 -0.0495 -0.5362
  227MPD1    H6 3456   4.058   1.407   9.136  0.5831  0.6689 -3.1023
  227MPD1    H7 3457   4.085   1.512   9.260  0.5742  2.8132 -1.4735
  228MPD1     C 3458   2.582   3.900  13.409  0.4926  0.8057 -0.9567
  228MPD1    C1 3459   2.530   3.977  13.308 -0.3080  1.0077 -0.4823
  228MPD1    C2 3460   2.433   3.917  13.225  0.9261  0.0821  0.2578
  228MPD1    C3 3461   2.397   3.785  13.245  0.0618 -0.3833 -0.5699
  228MPD1    C4 3462   2.452   3.710  13.341 -0.0366 -0.5356 -0.3536
  228MPD1    C5 3463   2.542   3.768  13.425  0.7961  0.2449  0.9941
  228MPD1     H 3464   2.371   3.966  13.151  0.4199 -0.1559  0.5264
  228MPD1    H1 3465   2.429   3.606  13.356 -0.2737 -0.6164 -1.2805
  228MPD1    H2 3466   2.642   3.946  13.486  0.7881 -1.1975  0.0233
  228MPD1    H3 3467   2.588   3.706  13.501  0.1232  1.6731  2.5732
  228MPD1     N 3468   2.293   3.739  13.164  0.0186 -0.3394 -0.0440
  228MPD1    H5 3469   2.267   3.793  13.082 -2.8494  3.4387  3.3602
  228MPD1    N1 3470   2.567   4.115  13.294 -0.8171 -0.1706  0.6903
  228MPD1    H6 3471   2.613   4.146  13.380  2.5298  0.7188 -1.4143
  228MPD1    H7 3472   2.479   4.164  13.279 -1.4171 -1.3708  0.2741
  229MPD1     C 3473   1.868   3.189  14.734 -0.7107  0.8699 -0.0413
  229MPD1    C1 3474   1.909   3.085  14.659  0.0367 -0.1183 -0.1993
  229MPD1    C2 3475   2.012   2.999  14.693  0.5049 -0.2510  0.8025
  229MPD1    C3 3476   2.088   3.027  14.802  0.1497  0.4121  0.0065
  229MPD1    C4 3477   2.060   3.136  14.877  0.7553  1.0065 -0.0185
  229MPD1    C5 3478   1.951   3.216  14.838  0.2668 -0.6170  0.3854
  229MPD1     H 3479   2.028   2.905  14.641 -0.8515  0.3771 -0.7616
  229MPD1    H1 3480   2.118   3.165  14.963  2.3258  1.0602 -1.0893
  229MPD1    H2 3481   1.785   3.257  14.716 -0.3638  1.5316  0.8278
  229MPD1    H3 3482   1.928   3.300  14.903  0.8908  0.5067 -0.8551
  229MPD1     N 3483   2.184   2.940  14.861 -0.0045  0.3025  0.1706
  229MPD1    H5 3484   2.223   2.962  14.952 -3.0692  0.0952  1.5045
  229MPD1    N1 3485   1.815   3.037  14.563  0.4510  0.0246 -0.4794
  229MPD1    H6 3486   1.743   3.097  14.523 -0.3777  0.5470  1.7866
  229MPD1    H7 3487   1.863   2.988  14.488  0.5312  1.6144 -1.4617
  230MPD1     C 3488   2.629   2.768  15.684  0.0815 -0.5405 -0.2801
  230MPD1    C1 3489   2.622   2.642  15.626 -0.9860  0.2008  0.0850
  230MPD1    C2 3490   2.618   2.642  15.485 -0.0747 -0.2439  0.6873
  230MPD1    C3 3491   2.592   2.753  15.413  0.1071  0.1667  0.0809
  230MPD1    C4 3492   2.580   2.879  15.480 -0.4705 -0.0252 -0.1015
  230MPD1    C5 3493   2.610   2.880  15.615 -0.4535 -0.0915 -0.6554
  230MPD1     H 3494   2.617   2.549  15.431 -0.1692 -0.3487  0.8677
  230MPD1    H1 3495   2.555   2.972  15.430 -0.4396  0.0851  0.0863
  230MPD1    H2 3496   2.650   2.779  15.790  3.0548  0.4339 -0.9730
  230MPD1    H3 3497   2.607   2.981  15.654 -0.1129 -0.6678  0.8756
  230MPD1     N 3498   2.577   2.743  15.272 -0.2922 -0.3915  0.2545
  230MPD1    H5 3499   2.592   2.653  15.227  1.2743  1.3095 -2.6652
  230MPD1    N1 3500   2.648   2.525  15.695 -0.1107 -0.1710  0.1492
  230MPD1    H6 3501   2.614   2.442  15.647 -1.6946  0.8472 -0.5084
  230MPD1    H7 3502   2.601   2.544  15.783 -1.3178 -2.0594 -0.0945
  231MPD1     C 3503   4.654   4.180  15.702  0.0611  0.0097 -0.3812
  231MPD1    C1 3504   4.657   4.126  15.577  0.6487 -0.0354  0.2002
  231MPD1    C2 3505   0.029   4.169  15.491  0.0346  0.0930 -0.0168
  231MPD1    C3 3506   0.112   4.273  15.528 -0.0454  0.2307 -0.0442
  231MPD1    C4 3507   0.111   4.321  15.657  0.6951 -0.0267  0.5231
  231MPD1    C5 3508   0.023   4.275  15.746  0.0914 -0.3779  0.1426
  231MPD1     H 3509   0.027   4.129  15.390  0.9419  0.7417 -0.2908
  231MPD1    H1 3510   0.187   4.384  15.702  0.9243 -0.1165  0.2625
  231MPD1    H2 3511   4.571   4.156  15.768 -0.1413 -3.4269 -1.8924
  231MPD1    H3 3512   0.021   4.310  15.848 -2.0452  3.6026 -1.2312
  231MPD1     N 3513   0.211   4.316  15.435 -0.4352  0.0494 -0.2114
  231MPD1    H5 3514   0.220   4.266  15.347  0.9915  0.3868 -0.2560
  231MPD1    N1 3515   4.562   4.031  15.530  0.0701 -0.2325 -0.3350
  231MPD1    H6 3516   4.482   4.053  15.589  2.1653  2.2406  1.6110
  231MPD1    H7 3517   4.533   4.049  15.434 -1.2704 -0.8216 -0.0464
  232MPD1     C 3518   2.102   2.141  17.460 -0.5102  0.7364  0.2883
  232MPD1    C1 3519   2.100   2.041  17.557 -0.1357  0.0308  0.5362
  232MPD1    C2 3520   1.981   2.011  17.620 -0.1316 -0.0907 -0.6866
  232MPD1    C3 3521   1.873   2.090  17.591  0.4571  0.5755  0.1749
  232MPD1    C4 3522   1.881   2.187  17.497  0.4353 -0.1538 -0.5388
  232MPD1    C5 3523   2.000   2.221  17.433  0.2231  0.6659  0.3111
  232MPD1     H 3524   1.969   1.925  17.685 -1.8563 -0.1974 -1.1346
  232MPD1    H1 3525   1.798   2.256  17.482  1.9723  1.5641 -1.1685
  232MPD1    H2 3526   2.191   2.165  17.403 -1.5508 -0.7648 -1.9594
  232MPD1    H3 3527   2.010   2.307  17.368 -1.9811  0.5315 -0.2321
  232MPD1     N 3528   1.753   2.067  17.669 -0.7730 -0.1152 -0.2939
  232MPD1    H5 3529   1.766   2.016   0.061  0.9618  1.3912  0.3353
  232MPD1    N1 3530   2.208   1.951  17.560  0.1941  0.1218  0.9170
  232MPD1    H6 3531   2.200   1.893  17.642 -1.7797 -0.3243  0.4062
  232MPD1    H7 3532   2.298   1.998  17.555  0.8750 -1.2127  0.8519
  233MPD1     C 3533   2.821   1.712   1.579 -0.9569 -0.0784 -0.1798
  233MPD1    C1 3534   2.731   1.612   1.544 -0.2299  0.2130 -0.3377
  233MPD1    C2 3535   2.780   1.486   1.512 -1.0630 -0.4366  0.3829
  233MPD1    C3 3536   2.915   1.459   1.498 -0.1295  0.5231 -0.2000
  233MPD1    C4 3537   2.998   1.566   1.530  0.1131  0.4162  0.8696
  233MPD1    C5 3538   2.947   1.682   1.576 -0.2723  0.3086 -0.3473
  233MPD1     H 3539   2.713   1.401   1.518 -2.1504  0.1462 -3.3894
  233MPD1    H1 3540   3.106   1.559   1.528 -0.1266 -2.6167 -1.3288
  233MPD1    H2 3541   2.796   1.811   1.615 -1.7993 -1.1317  2.0847
  233MPD1    H3 3542   3.021   1.754   1.611 -1.2635  0.6718  0.9930
  233MPD1     N 3543   2.972   1.337   1.464  0.0477 -0.1555  0.2723
  233MPD1    H5 3544   3.073   1.344   1.453  0.1406  0.1869  1.3712
  233MPD1    N1 3545   2.591   1.628   1.564 -0.0014  0.2914 -0.0091
  233MPD1    H6 3546   2.569   1.722   1.532 -0.0784  0.4187  0.4120
  233MPD1    H7 3547   2.539   1.556   1.514  2.8517 -1.8325  0.1119
  234MPD1     C 3548   1.196   3.565   9.500  0.5586  1.0632 -0.4613
  234MPD1    C1 3549   1.141   3.648   9.594 -0.4164  0.0713 -0.4442
  234MPD1    C2 3550   1.066   3.756   9.548  0.1079 -0.1878  0.0676
  234MPD1    C3 3551   1.083   3.799   9.419 -0.2933  0.0098 -0.6029
  234MPD1    C4 3552   1.149   3.724   9.324 -0.1468  0.2340  0.1241
  234MPD1    C5 3553   1.191   3.599   9.367 -0.1375  0.8659 -0.7291
  234MPD1     H 3554   1.023   3.818   9.627  1.4344  0.4005  0.3262
  234MPD1    H1 3555   1.159   3.749   9.219  2.4091  0.2173  0.3773
  234MPD1    H2 3556   1.243   3.470   9.523  2.3196  1.5610 -2.0248
  234MPD1    H3 3557   1.242   3.529   9.303 -1.4268  0.6173 -1.4808
  234MPD1     N 3558   1.020   3.923   9.389  0.1918 -0.6691  0.6674
  234MPD1    H5 3559   0.980   3.971   9.469 -0.9796  0.9577 -0.8780
  234MPD1    N1 3560   1.140   3.600   9.731  0.0357  0.0056 -0.1389
  234MPD1    H6 3561   1.148   3.675   9.799  1.8080 -0.8154  0.5390
  234MPD1    H7 3562   1.197   3.521   9.759  0.5327  0.1748 -0.6663
  235MPD1     C 3563   1.418   3.153  10.076 -0.3435 -0.4707 -0.5443
  235MPD1    C1 3564   1.335   3.090   9.978 -0.1286  0.0025 -0.1588
  235MPD1    C2 3565   1.391   3.017   9.874 -0.5048 -0.2557 -0.3930
  235MPD1    C3 3566   1.526   2.983   9.879  0.4967 -0.4918 -0.5157
  235MPD1    C4 3567   1.601   3.033   9.982  0.5032 -0.1881 -0.0373
  235MPD1    C5 3568   1.556   3.130  10.067 -0.5965 -0.2528 -0.1646
  235MPD1     H 3569   1.330   2.987   9.789 -1.5886 -1.6222  0.8674
  235MPD1    H1 3570   1.698   2.988  10.002  0.1746 -1.1776 -0.6903
  235MPD1    H2 3571   1.387   3.224  10.152 -0.4847 -0.9913 -0.1149
  235MPD1    H3 3572   1.614   3.162  10.154 -3.2259  2.0643  0.7238
  235MPD1     N 3573   1.572   2.891   9.783 -0.2902 -0.6522 -0.9557
  235MPD1    H5 3574   1.508   2.843   9.721 -1.5557  0.6834 -0.6737
  235MPD1    N1 3575   1.202   3.133   9.967  0.5493 -0.1700 -0.1120
  235MPD1    H6 3576   1.150   3.052   9.932 -0.8704  1.1720 -1.1407
  235MPD1    H7 3577   1.163   3.144  10.060  2.0413  0.3402  0.4525
  236MPD1     C 3578   1.464   2.490   9.983  0.4586 -0.1799 -0.3627
  236MPD1    C1 3579   1.445   2.359  10.028 -0.0686 -0.0338 -0.0347
  236MPD1    C2 3580   1.525   2.325  10.138 -0.6613 -0.0752 -0.2851
  236MPD1    C3 3581   1.618   2.411  10.192 -0.0160 -0.1161  0.8731
  236MPD1    C4 3582   1.633   2.533  10.139  1.1248 -0.1360 -0.3125
  236MPD1    C5 3583   1.551   2.582  10.041 -1.1079 -0.0611 -0.1103
  236MPD1     H 3584   1.505   2.226  10.177 -1.0094 -0.3750 -1.2284
  236MPD1    H1 3585   1.707   2.597  10.186  1.5944 -0.9200  0.0407
  236MPD1    H2 3586   1.404   2.520   9.897  1.1424  0.4754 -0.6076
  236MPD1    H3 3587   1.563   2.680   9.996  0.8089 -0.4879 -0.5222
  236MPD1     N 3588   1.715   2.365  10.290  0.0613 -0.4644 -0.4523
  236MPD1    H5 3589   1.790   2.429  10.315  0.5417 -0.1959 -2.5463
  236MPD1    N1 3590   1.368   2.257   9.966  0.3657 -0.1080  0.4304
  236MPD1    H6 3591   1.291   2.277   9.902  1.2798  0.0927 -0.5973
  236MPD1    H7 3592   1.335   2.182  10.026 -1.9409 -0.2633 -1.0349
  237MPD1     C 3593   1.444   1.086  15.202 -0.1320 -0.1719 -0.0681
  237MPD1    C1 3594   1.377   1.183  15.273  0.1779 -0.0760  0.0343
  237MPD1    C2 3595   1.245   1.161  15.305 -0.4741 -0.5964 -0.0991
  237MPD1    C3 3596   1.184   1.034  15.276 -0.5519 -0.1997  0.0800
  237MPD1    C4 3597   1.255   0.933  15.209  0.2037 -0.6250 -0.1513
  237MPD1    C5 3598   1.386   0.966  15.171 -0.3091  1.0981  0.1667
  237MPD1     H 3599   1.180   1.237  15.348 -0.8193 -1.1826  0.4165
  237MPD1    H1 3600   1.207   0.843  15.173 -0.3876 -0.3566 -0.0214
  237MPD1    H2 3601   1.546   1.106  15.173  0.0669  0.7218  1.2377
  237MPD1    H3 3602   1.445   0.896  15.114  2.1514  2.6995  0.7359
  237MPD1     N 3603   1.046   1.007  15.307 -0.2093 -0.3601 -0.6748
  237MPD1    H5 3604   1.004   0.923  15.270 -0.8906 -0.8101  1.1829
  237MPD1    N1 3605   1.441   1.307  15.291  0.5662 -0.0242 -0.6093
  237MPD1    H6 3606   1.535   1.276  15.315  1.4328  1.1844 -2.4485
  237MPD1    H7 3607   1.402   1.361  15.369 -0.1918 -1.5972  0.0983
  238MPD1     C 3608   2.362   4.135  15.371  0.5561  0.3690 -0.1957
  238MPD1    C1 3609   2.403   4.153  15.236 -0.5348  0.0240  0.2995
  238MPD1    C2 3610   2.312   4.185  15.135 -0.2500 -0.3388  0.2259
  238MPD1    C3 3611   2.178   4.214  15.165  0.3595 -0.1689 -1.0028
  238MPD1    C4 3612   2.140   4.205  15.299  0.9081 -0.0084  0.0892
  238MPD1    C5 3613   2.231   4.166  15.397  0.3566 -0.7789 -0.4344
  238MPD1     H 3614   2.354   4.196  15.036 -0.8524 -1.3893 -0.1508
  238MPD1    H1 3615   2.038   4.224  15.330  0.2667  0.5298 -2.3556
  238MPD1    H2 3616   2.435   4.115  15.449  1.3149  0.4635 -0.8802
  238MPD1    H3 3617   2.195   4.157  15.499  0.6206  0.1047 -0.2679
  238MPD1     N 3618   2.074   4.254  15.069 -0.0928 -0.7469 -0.5882
  238MPD1    H5 3619   1.989   4.285  15.115 -0.1382 -0.0470 -1.1357
  238MPD1    N1 3620   2.533   4.146  15.199  0.9286  0.0953 -0.0122
  238MPD1    H6 3621   2.592   4.084  15.254  0.6513  1.2096  1.5719
  238MPD1    H7 3622   2.541   4.142  15.098  0.6056 -0.9321  0.0064
  239MPD1     C 3623   2.724   0.625  14.959 -0.4886  0.1049 -0.3226
  239MPD1    C1 3624   2.843   0.649  14.899 -0.6040 -0.0418 -0.1214
  239MPD1    C2 3625   2.846   0.711  14.774  0.2721 -0.2950 -1.1021
  239MPD1    C3 3626   2.731   0.761  14.722 -0.0218 -0.4070 -0.2989
  239MPD1    C4 3627   2.611   0.733  14.788 -0.2676  0.7286 -0.0361
  239MPD1    C5 3628   2.612   0.673  14.907  0.0622 -0.5016 -0.7954
  239MPD1     H 3629   2.945   0.721  14.732  1.3869  2.1171  2.0677
  239MPD1    H1 3630   2.518   0.765  14.742 -0.1949  0.9375 -0.0411
  239MPD1    H2 3631   2.723   0.548  15.035  1.2701 -1.2626 -1.6723
  239MPD1    H3 3632   2.519   0.647  14.957 -0.5573  1.6215 -0.8122
  239MPD1     N 3633   2.714   0.810  14.598 -0.1540 -0.3941 -0.3154
  239MPD1    H5 3634   2.619   0.843  14.585  1.0476  3.0416 -0.3374
  239MPD1    N1 3635   2.957   0.582  14.941  0.2337 -0.5361  0.1528
  239MPD1    H6 3636   3.047   0.621  14.915  0.3958 -0.9533  0.0809
  239MPD1    H7 3637   2.944   0.566  15.041 -0.6193  2.3347  0.4906
  240MPD1     C 3638   2.747   0.292  14.727  0.1611 -0.2357 -0.8014
  240MPD1    C1 3639   2.734   0.276  14.861  0.4875  0.0830 -0.1025
  240MPD1    C2 3640   2.614   0.214  14.901  0.4641 -0.0351  0.4112
  240MPD1    C3 3641   2.512   0.182  14.810  0.4577 -0.2210  0.3348
  240MPD1    C4 3642   2.533   0.210  14.677  0.3298  0.7301 -0.1786
  240MPD1    C5 3643   2.649   0.253  14.637 -0.4324 -0.1348  0.2200
  240MPD1     H 3644   2.604   0.205  15.008  3.1468  0.2914  0.6957
  240MPD1    H1 3645   2.465   0.174  14.601 -0.1322  0.3501  0.4130
  240MPD1    H2 3646   2.836   0.334  14.681 -0.3366 -0.8679 -2.3579
  240MPD1    H3 3647   2.663   0.263  14.530  0.0710 -0.5476  0.2521
  240MPD1     N 3648   2.392   0.121  14.858  0.3109  0.0503 -0.1969
  240MPD1    H5 3649   2.395   0.102  14.958 -2.3293 -1.7316 -0.4314
  240MPD1    N1 3650   2.839   0.313  14.949  0.3607  0.4776 -0.0679
  240MPD1    H6 3651   2.877   0.402  14.917  4.1403 -0.8944  0.5347
  240MPD1    H7 3652   2.792   0.322  15.038 -0.6489 -1.5633 -0.3822
  241MPD1     C 3653   2.389   4.550  15.631 -0.2184  0.4624 -0.6775
  241MPD1    C1 3654   2.266   4.494  15.608 -0.5049 -0.3122  0.2448
  241MPD1    C2 3655   2.214   4.523  15.480 -0.1905  0.7055  0.4070
  241MPD1    C3 3656   2.286   4.593  15.385  0.2289  0.7100  0.6358
  241MPD1    C4 3657   2.408   4.643  15.417 -0.0980  0.5531 -0.0661
  241MPD1    C5 3658   2.454   4.638  15.538  0.1343 -0.7813 -0.4160
  241MPD1     H 3659   2.114   4.487  15.461 -0.4609  0.7243  1.7910
  241MPD1    H1 3660   2.451   4.722  15.355  0.5713 -0.5598 -1.0119
  241MPD1    H2 3661   2.448   4.525  15.719 -3.3483 -0.6464  1.1337
  241MPD1    H3 3662   2.545   4.688  15.569 -0.7954  1.4683 -1.2888
  241MPD1     N 3663   2.244   4.617  15.250 -0.8290 -0.5106  0.4154
  241MPD1    H5 3664   2.294   4.683  15.193  0.3622  1.0521  3.2685
  241MPD1    N1 3665   2.212   4.402  15.699 -0.1818 -0.8841 -0.8465
  241MPD1    H6 3666   2.217   4.427  15.798 -1.9070 -2.3836 -0.3572
  241MPD1    H7 3667   2.114   4.381  15.678 -0.0201 -1.2876 -1.1898
  242MPD1     C 3668   1.527   3.806  15.836  0.4832  0.6298  0.0925
  242MPD1    C1 3669   1.619   3.851  15.754  0.5755 -0.4613 -0.4673
  242MPD1    C2 3670   1.677   3.766  15.658  0.5491 -0.2119  0.0595
  242MPD1    C3 3671   1.643   3.628  15.648 -0.6713  0.3467 -0.4258
  242MPD1    C4 3672   1.548   3.587  15.740  0.6589 -0.1272 -0.3310
  242MPD1    C5 3673   1.490   3.669  15.835 -0.7732 -0.1035  0.2702
  242MPD1     H 3674   1.766   3.796  15.603  0.4467 -1.7357 -0.9451
  242MPD1    H1 3675   1.507   3.487  15.740 -1.3625  0.6895  1.1418
  242MPD1    H2 3676   1.484   3.867  15.914  1.4706 -0.4698  1.4775
  242MPD1    H3 3677   1.416   3.627  15.901 -0.3490 -1.3928 -0.0747
  242MPD1     N 3678   1.702   3.551  15.549  0.4589 -0.4872  0.5230
  242MPD1    H5 3679   1.767   3.594  15.484 -0.2060  0.2906  0.3716
  242MPD1    N1 3680   1.653   3.983  15.771  0.0262  0.0464 -0.2161
  242MPD1    H6 3681   1.705   4.011  15.688 -0.0466  0.0499 -0.2603
  242MPD1    H7 3682   1.565   4.035  15.768  1.3431  2.4001  1.9523
  243MPD1     C 3683   2.169   1.871   0.418  0.6394 -0.2130  0.5216
  243MPD1    C1 3684   2.286   1.847   0.488  0.4602 -0.1156  0.1173
  243MPD1    C2 3685   2.392   1.796   0.418  0.2133 -0.0441 -0.1396
  243MPD1    C3 3686   2.377   1.744   0.293  0.4547 -0.6740 -0.1282
  243MPD1    C4 3687   2.254   1.753   0.231 -0.3853 -0.3641 -0.5184
  243MPD1    C5 3688   2.156   1.815   0.294  0.4442 -0.3183 -0.0202
  243MPD1     H 3689   2.494   1.790   0.456  0.2057  1.3659  0.0898
  243MPD1    H1 3690   2.232   1.725   0.129 -0.6479  1.5223 -0.9766
  243MPD1    H2 3691   2.084   1.915   0.470  1.8025  2.0834  0.4512
  243MPD1    H3 3692   2.055   1.823   0.257  0.1270 -3.1619  0.1956
  243MPD1     N 3693   2.483   1.702   0.217 -0.0082  0.8538  0.1977
  243MPD1    H5 3694   2.574   1.696   0.262 -0.2954 -3.1190  0.3007
  243MPD1    N1 3695   2.299   1.917   0.610  0.1124  0.0552  0.6382
  243MPD1    H6 3696   2.361   1.870   0.677 -1.2938 -0.8225  1.3166
  243MPD1    H7 3697   2.209   1.931   0.654 -0.4603  0.6944 -0.7469
  244MPD1     C 3698   3.183   1.120   0.476 -0.4421 -0.3312  1.2273
  244MPD1    C1 3699   3.140   1.047   0.372  0.0581 -0.3894 -0.7374
  244MPD1    C2 3700   3.057   1.115   0.285  0.0556 -0.7388 -0.5011
  244MPD1    C3 3701   3.034   1.252   0.298 -0.5525 -0.3850 -1.0335
  244MPD1    C4 3702   3.081   1.319   0.403 -0.2980 -0.4370  0.2964
  244MPD1    C5 3703   3.165   1.256   0.494 -0.0878 -0.0200 -1.0625
  244MPD1     H 3704   3.037   1.069   0.189 -2.2031  0.8872 -0.7884
  244MPD1    H1 3705   3.038   1.415   0.427  0.5431  0.4283 -1.6433
  244MPD1    H2 3706   3.240   1.058   0.545  1.4467  0.6544  0.5539
  244MPD1    H3 3707   3.213   1.310   0.574  0.5199 -1.2975 -0.5649
  244MPD1     N 3708   2.938   1.314   0.213 -0.0744  0.4586 -0.3659
  244MPD1    H5 3709   2.904   1.261   0.134 -2.8407  0.4334  0.8481
  244MPD1    N1 3710   3.143   0.904   0.374 -0.4396 -0.4763  0.3863
  244MPD1    H6 3711   3.122   0.869   0.280 -3.8007  1.6973  0.3392
  244MPD1    H7 3712   3.237   0.872   0.396  0.2240 -0.0607 -1.8666
  245MPD1     C 3713   0.830   2.532  13.039  0.6091  0.3799  0.1283
  245MPD1    C1 3714   0.706   2.533  13.102  0.4952 -0.0130  0.3041
  245MPD1    C2 3715   0.688   2.640  13.194 -0.2534 -0.6445  0.0097
  245MPD1    C3 3716   0.786   2.734  13.217 -0.2578 -0.3793 -0.4418
  245MPD1    C4 3717   0.898   2.730  13.146  0.4621  0.2628  0.5289
  245MPD1    C5 3718   0.927   2.628  13.059 -0.0108 -0.2425  0.0887
  245MPD1     H 3719   0.596   2.647  13.251  0.8879 -1.0711  1.9098
  245MPD1    H1 3720   0.976   2.803  13.165  1.1208 -0.6380  1.2312
  245MPD1    H2 3721   0.853   2.444  12.980 -0.0273  0.7832 -0.7016
  245MPD1    H3 3722   1.026   2.617  13.017 -0.5318 -3.3735 -0.2833
  245MPD1     N 3723   0.766   2.828  13.318  0.2879 -0.0570  0.7909
  245MPD1    H5 3724   0.708   2.807  13.398 -2.4303 -1.1137 -1.4271
  245MPD1    N1 3725   0.621   2.425  13.102  0.2620  0.3533  0.4740
  245MPD1    H6 3726   0.522   2.450  13.107  0.0921 -0.4171  0.9367
  245MPD1    H7 3727   0.629   2.374  13.014 -1.2091  2.2472 -0.7632
  246MPD1     C 3728   1.776   3.941   9.641  0.7376 -0.0143 -0.4648
  246MPD1    C1 3729   1.805   3.820   9.578  0.3596 -0.2983 -0.1349
  246MPD1    C2 3730   1.846   3.819   9.450 -0.0151  0.5931 -0.4911
  246MPD1    C3 3731   1.848   3.935   9.379  0.3655  0.7338 -0.1760
  246MPD1    C4 3732   1.809   4.059   9.432  0.3507 -0.1657 -0.5699
  246MPD1    C5 3733   1.784   4.058   9.571  0.4788  0.7910  0.3112
  246MPD1     H 3734   1.875   3.725   9.405  0.1080  0.5550 -0.3343
  246MPD1    H1 3735   1.799   4.152   9.377  3.2763  0.5660  0.1494
  246MPD1    H2 3736   1.758   3.944   9.748  2.0296  2.5785 -0.3268
  246MPD1    H3 3737   1.743   4.144   9.622 -1.3711 -0.2751  0.6285
  246MPD1     N 3738   1.880   3.919   9.244 -0.2559 -0.3667 -0.0595
  246MPD1    H5 3739   1.892   3.823   9.214 -2.3806 -1.1836  1.6658
  246MPD1    N1 3740   1.820   3.708   9.656  0.3491 -0.6494 -0.0390
  246MPD1    H6 3741   1.762   3.707   9.740 -0.6554 -1.4059 -0.7383
  246MPD1    H7 3742   1.815   3.622   9.603  1.1985  0.4084 -1.8189
  247MPD1     C 3743   4.326   2.488  16.760  0.1828  0.2680 -0.0430
  247MPD1    C1 3744   4.400   2.573  16.676  0.6423 -0.0303 -0.6172
  247MPD1    C2 3745   4.444   2.524  16.556  0.3844 -0.0179  0.6350
  247MPD1    C3 3746   4.407   2.394  16.516 -0.0235 -0.2418 -1.1368
  247MPD1    C4 3747   4.329   2.313  16.597  0.3420 -0.1009  0.2490
  247MPD1    C5 3748   4.286   2.362  16.719 -0.6828  0.3488  0.4068
  247MPD1     H 3749   4.507   2.593  16.501 -1.3435  0.6197 -0.5574
  247MPD1    H1 3750   4.284   2.219  16.565  0.5033  0.3887 -1.3658
  247MPD1    H2 3751   4.290   2.528  16.854 -1.0172 -1.5745  0.2716
  247MPD1    H3 3752   4.216   2.302  16.776 -0.4278  0.2549  0.6243
  247MPD1     N 3753   4.446   2.332  16.394  0.1117 -0.2937 -0.6817
  247MPD1    H5 3754   4.416   2.238  16.369  0.6170 -0.6432  0.0105
  247MPD1    N1 3755   4.445   2.693  16.723 -0.6621 -0.3793  0.1024
  247MPD1    H6 3756   4.375   2.730  16.786 -0.9679 -0.0812 -0.4204
  247MPD1    H7 3757   4.456   2.766  16.653 -0.1316  0.8894  1.5090
  248MPD1     C 3758   0.420   1.193   1.326  0.2483 -0.1873 -0.2415
  248MPD1    C1 3759   0.380   1.289   1.233 -0.1844 -0.4472  0.4819
  248MPD1    C2 3760   0.335   1.416   1.267 -0.0026 -0.4705  0.2170
  248MPD1    C3 3761   0.340   1.462   1.393  0.3141 -0.0517  0.4228
  248MPD1    C4 3762   0.391   1.376   1.489  0.3648 -0.1550  0.5126
  248MPD1    C5 3763   0.429   1.249   1.456  0.3122 -0.3513 -0.0464
  248MPD1     H 3764   0.317   1.483   1.184  0.7631  0.1153  0.5254
  248MPD1    H1 3765   0.412   1.416   1.587 -3.5389  0.3535  1.1617
  248MPD1    H2 3766   0.457   1.094   1.301 -1.1833 -0.8862  0.3694
  248MPD1    H3 3767   0.473   1.185   1.531 -0.7353  0.7090  1.4586
  248MPD1     N 3768   0.317   1.598   1.412  0.3001 -0.2953  0.6661
  248MPD1    H5 3769   0.289   1.652   1.330  0.2787 -3.0539 -1.1333
  248MPD1    N1 3770   0.390   1.254   1.098 -0.1937 -0.5722 -0.3312
  248MPD1    H6 3771   0.385   1.153   1.094 -0.9885 -0.5290 -0.3379
  248MPD1    H7 3772   0.313   1.287   1.040  0.9152  2.1323 -0.2929
  249MPD1     C 3773   2.120   0.257  11.774 -0.2519 -0.5347 -1.0139
  249MPD1    C1 3774   1.997   0.305  11.754 -0.4425 -0.2268  0.4562
  249MPD1    C2 3775   1.952   0.318  11.625 -0.1747  0.0815 -1.2462
  249MPD1    C3 3776   2.038   0.319  11.521 -0.3604 -0.7911  0.1190
  249MPD1    C4 3777   2.172   0.285  11.542  0.2269 -0.1582 -0.1977
  249MPD1    C5 3778   2.208   0.260  11.669  0.4836  0.2905 -0.2676
  249MPD1     H 3779   1.849   0.349  11.613 -0.3386 -0.4575 -1.2143
  249MPD1    H1 3780   2.244   0.259  11.466 -1.7045  1.0484 -2.4121
  249MPD1    H2 3781   2.162   0.225  11.868 -0.0942  0.1695 -0.8496
  249MPD1    H3 3782   2.310   0.229  11.689  1.2492  1.5881 -2.1734
  249MPD1     N 3783   1.987   0.356  11.394  0.0732 -0.2062 -0.6649
  249MPD1    H5 3784   1.886   0.354  11.386 -0.1890 -3.4117  3.1698
  249MPD1    N1 3785   1.925   0.325  11.873  0.0878  0.1639 -0.2277
  249MPD1    H6 3786   1.993   0.345  11.946 -0.0999 -0.6141  0.1526
  249MPD1    H7 3787   1.860   0.402  11.860 -0.3884 -0.2842 -0.5226
  250MPD2     C 3788   3.765   1.479  12.343  0.4181  0.2263 -0.0995
  250MPD2    C1 3789   3.711   1.422  12.462  0.2550  0.0113  0.2036
  250MPD2    C2 3790   3.630   1.309  12.456  0.5696  0.5427  0.9388
  250MPD2    C3 3791   3.622   1.237  12.333 -0.1148  0.1533 -0.9244
  250MPD2    C4 3792   3.677   1.289  12.218  0.0962  0.2040  0.3773
  250MPD2    C5 3793   3.744   1.408  12.227 -0.8191  0.2686 -0.1259
  250MPD2     H 3794   3.580   1.266  12.542  1.8002 -0.3566  1.2114
  250MPD2    H1 3795   3.680   1.250  12.117  3.2148  1.1226  0.1224
  250MPD2    H2 3796   3.828   1.566  12.331  1.6990 -0.7423 -0.5085
  250MPD2    H3 3797   3.777   1.447  12.131  1.2944 -1.9306 -0.2951
  250MPD2     N 3798   3.562   1.113  12.315 -0.4025 -0.1647 -0.6947
  250MPD2    H5 3799   3.572   1.086  12.218 -2.4158  3.5075 -1.9309
  250MPD2    N1 3800   3.756   1.482  12.583 -0.0880  0.4333 -0.4971
  250MPD2    H7 3801   3.824   1.555  12.563 -0.1637  0.9682  1.2424
  251TMC3    C1 3802   3.768   1.577  12.791 -0.1415  0.1881 -0.2390
  251TMC3    C2 3803   3.688   1.646  12.871  0.6443 -0.0227  0.0611
  251TMC3    C3 3804   3.730   1.776  12.913  0.5455 -0.1444 -0.5668
  251TMC3    C4 3805   3.891   1.615  12.767 -0.1690 -0.6960 -0.9027
  251TMC3    C5 3806   3.937   1.732  12.814 -0.1814 -0.4094 -0.2837
  251TMC3    C6 3807   3.857   1.818  12.880  0.6999 -0.3431  0.2537
  251TMC3     C 3808   3.705   1.476  12.710 -0.8817 -0.3091 -0.8200
  251TMC3     O 3809   3.611   1.410  12.749 -0.5124 -0.2477 -0.0842
  251TMC3     H 3810   3.588   1.612  12.897  0.1681  1.1238 -0.2730
  251TMC3    H1 3811   3.953   1.546  12.710  0.2922 -0.4128 -0.7459
  251TMC3    H2 3812   3.891   1.903  12.938 -0.2325  0.9594 -1.1183
  251TMC3    C7 3813   4.083   1.747  12.798 -0.2360  0.3116 -0.0975
  251TMC3    C8 3814   3.637   1.890  12.938 -0.0677 -0.6364 -0.2095
  251TMC3    O1 3815   4.149   1.643  12.801  0.1059  0.1868  0.2800
  251TMC3    O2 3816   3.531   1.851  12.985 -0.1244 -0.0773 -0.2539
  252TMC3    C1 3817   4.654   2.185   9.304 -0.1998 -0.1485 -0.2211
  252TMC3    C2 3818   4.691   2.320   9.288  0.0655 -0.4259 -0.6841
  252TMC3    C3 3819   4.606   2.410   9.333 -0.1389  0.1680  0.2956
  252TMC3    C4 3820   4.540   2.147   9.375  0.2832  0.6301 -0.2877
  252TMC3    C5 3821   4.467   2.249   9.432  0.5881 -0.7061 -0.5008
  252TMC3    C6 3822   4.498   2.376   9.415  0.0269 -0.0653 -0.6374
  252TMC3     C 3823   0.041   2.090   9.268  1.1168  0.3948  0.2797
  252TMC3     O 3824   0.152   2.135   9.248  0.1030 -0.0944 -0.3301
  252TMC3     H 3825   0.061   2.344   9.238  0.3376  0.9378  0.4763
  252TMC3    H1 3826   4.517   2.042   9.386 -2.4123  1.3881  1.3665
  252TMC3    H2 3827   4.419   2.441   9.452 -1.3942 -2.1821  0.0943
  252TMC3    C7 3828   4.341   2.224   9.495 -0.1128 -0.1404  0.6045
  252TMC3    C8 3829   4.664   2.541   9.342  0.3333  0.0808  0.2315
  252TMC3    O1 3830   4.257   2.313   9.499  0.1659  0.0001  0.9165
  252TMC3    O2 3831   0.022   2.577   9.262  0.0928  0.3879  0.0362
  253MPD2     C 3832   0.151   1.120  14.926 -0.2407  0.5186  0.6599
  253MPD2    C1 3833   0.029   1.060  14.945  0.2960 -0.2655 -0.3757
  253MPD2    C2 3834   4.698   1.076  15.072  0.0031  0.0356  0.5644
  253MPD2    C3 3835   0.030   1.139  15.178  0.3369  0.3336  0.3242
  253MPD2    C4 3836   0.157   1.184  15.165 -0.1731 -0.1262  0.2267
  253MPD2    C5 3837   0.221   1.162  15.040  0.4676  0.2348 -0.0167
  253MPD2     H 3838   4.603   1.027  15.087 -0.8510  1.6640  0.4441
  253MPD2    H1 3839   0.213   1.235  15.242  0.7585  1.0535 -1.2580
  253MPD2    H2 3840   0.187   1.125  14.824 -0.9130  1.5789  0.4849
  253MPD2    H3 3841   0.319   1.207  15.032  0.3041  1.0270  2.4213
  253MPD2     N 3842   4.698   1.144  15.311 -0.2667 -0.2784 -0.1920
  253MPD2    H5 3843   0.030   1.173  15.391 -0.9572 -0.5062  0.3744
  253MPD2    N1 3844   4.677   1.011  14.843 -0.3502 -0.0354 -0.4041
  253MPD2    H7 3845   4.578   0.998  14.862 -0.1972 -1.8355 -0.8222
  254TMC3    C1 3846   4.535   1.141  15.463 -0.0758  0.4145 -0.4996
  254TMC3    C2 3847   4.414   1.091  15.516 -0.0775 -0.3185  0.0167
  254TMC3    C3 3848   4.350   1.158  15.619 -0.5435  0.3331  0.0356
  254TMC3    C4 3849   4.599   1.251  15.521  0.8653  0.2168 -0.1494
  254TMC3    C5 3850   4.530   1.314  15.629 -0.5052 -0.5096 -0.2426
  254TMC3    C6 3851   4.406   1.273  15.667  0.0675  0.6567  0.0536
  254TMC3     C 3852   4.574   1.095  15.341 -0.1827  0.2497 -0.5070
  254TMC3     O 3853   4.485   1.047  15.269  0.2111 -0.0588 -0.4354
  254TMC3     H 3854   4.365   1.003  15.475 -3.1154  2.2995 -1.9173
  254TMC3    H1 3855   4.691   1.295  15.484  1.2121  1.6247  2.3931
  254TMC3    H2 3856   4.371   1.318  15.760 -0.7543  1.0397 -0.4395
  254TMC3    C7 3857   4.608   1.337  15.746 -0.3648  0.2388 -0.0282
  254TMC3    C8 3858   4.273   1.082  15.720 -0.8294 -0.6232 -0.3378
  254TMC3    O1 3859   4.558   1.396  15.846  0.8774 -0.1372 -0.5970
  254TMC3    O2 3860   4.165   1.127  15.750 -0.3539  0.6705 -0.2336
  255MPD2     C 3861   3.263   3.495   9.975 -0.1237  0.1899  0.2245
  255MPD2    C1 3862   3.387   3.537  10.008 -0.1268  0.2479  0.0465
  255MPD2    C2 3863   3.495   3.451  10.000  0.0875  0.0506 -0.6978
  255MPD2    C3 3864   3.480   3.326   9.946 -0.3751 -0.7041 -0.6977
  255MPD2    C4 3865   3.349   3.279   9.914 -0.3264 -0.5459 -0.0112
  255MPD2    C5 3866   3.244   3.363   9.939 -0.5000  0.5266 -0.6490
  255MPD2     H 3867   3.597   3.483  10.020 -1.0025  1.6029  2.3503
  255MPD2    H1 3868   3.330   3.189   9.858 -0.7418  0.1730 -1.0248
  255MPD2    H2 3869   3.178   3.561   9.987 -2.0070 -2.2279  0.1476
  255MPD2    H3 3870   3.145   3.331   9.911 -0.4121 -2.5715  2.5749
  255MPD2     N 3871   3.601   3.268   9.901 -0.4218 -0.0930 -0.5295
  255MPD2    H5 3872   3.682   3.325   9.927 -3.9164  3.0775  3.3694
  255MPD2    N1 3873   3.411   3.666  10.059 -0.4579 -1.1361  0.5985
  255MPD2    H7 3874   3.342   3.734  10.029  1.1775  0.7174  0.9882
  256TMC3    C1 3875   3.531   3.858  10.107  0.7552 -0.1433 -0.7347
  256TMC3    C2 3876   3.650   3.889  10.045 -0.8733  0.2307  0.2100
  256TMC3    C3 3877   3.655   4.010   9.982  0.6820  0.0889  0.5941
  256TMC3    C4 3878   3.414   3.930  10.092  0.9483  0.6515  0.4594
  256TMC3    C5 3879   3.430   4.056  10.039  0.3961  0.4587  0.2707
  256TMC3    C6 3880   3.547   4.097   9.978 -0.0032  0.1599  0.1914
  256TMC3     C 3881   3.518   3.711  10.130 -0.0040 -0.6470  0.3617
  256TMC3     O 3882   3.621   3.658  10.171  0.0979 -0.3177 -0.1328
  256TMC3     H 3883   3.741   3.832  10.056 -0.1261  1.6826  1.4965
  256TMC3    H1 3884   3.323   3.883  10.127  0.5287 -0.3031 -1.9357
  256TMC3    H2 3885   3.547   4.186   9.916 -2.1641 -2.3212 -3.3356
  256TMC3    C7 3886   3.314   4.140  10.023  0.2417 -0.0090  0.3431
  256TMC3    C8 3887   3.766   4.024   9.887 -0.0902  0.3407 -0.0157
  256TMC3    O1 3888   3.205   4.083  10.024 -0.4761  0.6107 -0.0370
  256TMC3    O2 3889   3.793   3.921   9.829  0.1745 -0.3622  0.0678
  257MPD2     C 3890   2.557   1.287  13.411  0.3610  0.0176  0.8567
  257MPD2    C1 3891   2.492   1.190  13.343  0.3612 -0.5093  0.5437
  257MPD2    C2 3892   2.465   1.069  13.411  0.5695 -0.5373 -0.0087
  257MPD2    C3 3893   2.485   1.045  13.539 -0.0873  0.1790  0.3299
  257MPD2    C4 3894   2.533   1.153  13.612 -0.0874  0.0097  0.1211
  257MPD2    C5 3895   2.571   1.271  13.546 -0.3697 -0.1991  0.1353
  257MPD2     H 3896   2.420   0.989  13.354  0.9491 -1.8340  1.5159
  257MPD2    H1 3897   2.554   1.145  13.718 -1.1608  1.9234  0.4838
  257MPD2    H2 3898   2.562   1.387  13.371 -1.0320  0.1293  0.9509
  257MPD2    H3 3899   2.594   1.346  13.620 -0.3527 -0.0529 -0.0185
  257MPD2     N 3900   2.449   0.919  13.595  0.1343  0.1419 -0.6835
  257MPD2    H5 3901   2.421   0.844  13.533 -1.3820 -1.5238  1.9888
  257MPD2    N1 3902   2.463   1.218  13.211  0.6961  0.5592  0.1599
  257MPD2    H7 3903   2.474   1.316  13.187 -2.4333  0.8049 -0.2759
  258TMC3    C1 3904   2.477   0.752  13.778 -0.2870 -0.3448  0.5577
  258TMC3    C2 3905   2.489   0.647  13.687 -0.1621  0.5454 -0.0822
  258TMC3    C3 3906   2.500   0.519  13.734  0.3951  0.1029  0.4506
  258TMC3    C4 3907   2.487   0.724  13.917  0.2462  0.1662  0.1019
  258TMC3    C5 3908   2.526   0.597  13.951  0.0585 -0.1853 -0.1762
  258TMC3    C6 3909   2.519   0.485  13.861 -0.3788  0.3830  0.4040
  258TMC3     C 3910   2.473   0.891  13.732 -0.3381 -0.0091  0.9553
  258TMC3     O 3911   2.474   0.962  13.830  0.2140 -0.2555  0.2251
  258TMC3     H 3912   2.500   0.672  13.582  1.3259  0.7526  0.1160
  258TMC3    H1 3913   2.489   0.798  13.996 -0.3062  0.9616 -0.6290
  258TMC3    H2 3914   2.555   0.386  13.886 -1.3543 -0.0793 -0.0428
  258TMC3    C7 3915   2.566   0.576  14.087 -0.2306  0.3392  0.2271
  258TMC3    C8 3916   2.434   0.421  13.644 -0.2558  0.1954  0.3354
  258TMC3    O1 3917   2.505   0.633  14.172  0.5992  0.7486 -0.3065
  258TMC3    O2 3918   2.456   0.416  13.525 -0.0542  0.7731 -0.0365
  259MPD2     C 3919   0.428   2.916   1.296 -0.6635  0.2133  0.0606
  259MPD2    C1 3920   0.528   2.823   1.318  0.2221  0.3577 -0.5465
  259MPD2    C2 3921   0.577   2.766   1.206 -0.1455 -0.1560  0.4345
  259MPD2    C3 3922   0.538   2.805   1.075  0.3191  0.0490 -0.4201
  259MPD2    C4 3923   0.454   2.910   1.060  0.6107  0.6420  0.4853
  259MPD2    C5 3924   0.401   2.965   1.171 -0.2187 -0.6136  0.0373
  259MPD2     H 3925   0.653   2.689   1.213 -0.5126 -0.4500  1.1675
  259MPD2    H1 3926   0.425   2.960   0.969  0.7427 -0.4737 -0.1705
  259MPD2    H2 3927   0.382   2.975   1.374  0.4595  1.2396 -0.0477
  259MPD2    H3 3928   0.332   3.048   1.161  3.3463  1.9439 -3.0585
  259MPD2     N 3929   0.600   2.738   0.969 -1.0694  0.1730 -0.2589
  259MPD2    H5 3930   0.640   2.649   0.994  1.0874  0.7084 -1.7777
  259MPD2    N1 3931   0.565   2.793   1.446 -0.0697 -0.3505 -0.3654
  259MPD2    H7 3932   0.509   2.826   1.523  1.2535  1.0072  0.0178
  260TMC3    C1 3933   0.686   2.693   0.746 -0.0532  0.0782 -0.3291
  260TMC3    C2 3934   0.739   2.754   0.645 -0.4804 -0.3522 -0.6498
  260TMC3    C3 3935   0.795   2.671   0.550 -0.1839 -0.0008 -0.4529
  260TMC3    C4 3936   0.675   2.554   0.765  0.2292  0.0270  0.3814
  260TMC3    C5 3937   0.726   2.478   0.663 -0.1879 -0.4086  0.0488
  260TMC3    C6 3938   0.796   2.536   0.564  0.7503 -0.3279  0.4059
  260TMC3     C 3939   0.601   2.769   0.836 -0.2227  0.6456  0.3679
  260TMC3     O 3940   0.560   2.875   0.792 -0.3860 -0.3354 -0.2014
  260TMC3     H 3941   0.716   2.859   0.632 -0.4450 -0.0622  1.7116
  260TMC3    H1 3942   0.614   2.513   0.844  1.1618 -2.5847 -0.2423
  260TMC3    H2 3943   0.832   2.471   0.484 -3.5279 -1.8600 -0.2624
  260TMC3    C7 3944   0.720   2.328   0.657  0.0069  0.2842  0.7282
  260TMC3    C8 3945   0.899   2.736   0.482 -0.1835  0.7540 -1.0856
  260TMC3    O1 3946   0.737   2.280   0.544  0.0724  0.3143  0.2875
  260TMC3    O2 3947   0.891   2.857   0.468 -0.5682 -0.2679  0.3178
  261MPD2     C 3948   3.221   0.761  11.757 -0.2927  0.5353  0.5111
  261MPD2    C1 3949   3.298   0.864  11.819 -0.5764  0.7365 -0.0015
  261MPD2    C2 3950   3.337   0.972  11.743  0.0123 -0.2644 -0.2863
  261MPD2    C3 3951   3.303   0.978  11.607 -0.2662  0.5570  0.9726
  261MPD2    C4 3952   3.239   0.871  11.544 -0.3253 -0.0817  0.3517
  261MPD2    C5 3953   3.197   0.767  11.624  0.6902 -0.1485 -0.3801
  261MPD2     H 3954   3.396   1.054  11.783 -1.5528  0.4459  0.5698
  261MPD2    H1 3955   3.214   0.866  11.438  1.4829  0.6911 -0.1124
  261MPD2    H2 3956   3.173   0.674  11.801  0.4882  0.4193  1.1444
  261MPD2    H3 3957   3.143   0.687  11.575 -0.0097  0.3762 -0.4779
  261MPD2     N 3958   3.330   1.105  11.545 -0.0170 -0.7846 -0.6156
  261MPD2    H5 3959   3.380   1.172  11.603 -1.8273  1.6553 -1.8607
  261MPD2    N1 3960   3.345   0.862  11.949 -0.6721  0.3901 -0.4472
  261MPD2    H7 3961   3.412   0.931  11.982  0.4208 -0.7238 -0.3275
  262TMC3    C1 3962   3.355   1.249  11.361 -0.4523 -0.3206 -0.0702
  262TMC3    C2 3963   3.372   1.361  11.441  0.2756 -0.0366  0.3450
  262TMC3    C3 3964   3.419   1.477  11.389  0.2180  0.3329  0.1654
  262TMC3    C4 3965   3.404   1.254  11.227  1.0299  0.6197  0.5775
  262TMC3    C5 3966   3.463   1.373  11.182 -0.4790 -0.1903  0.3448
  262TMC3    C6 3967   3.463   1.482  11.259  0.5361 -0.5516 -0.3771
  262TMC3     C 3968   3.308   1.127  11.412  0.0029  0.7182 -0.0471
  262TMC3     O 3969   3.255   1.052  11.330  0.0866  0.3591  0.0251
  262TMC3     H 3970   3.325   1.363  11.539  1.4377  3.3011  0.8175
  262TMC3    H1 3971   3.397   1.158  11.179 -0.9397  1.4218 -0.7422
  262TMC3    H2 3972   3.519   1.562  11.212  0.7864 -1.5323 -1.7487
  262TMC3    C7 3973   3.553   1.371  11.065 -0.2178  0.5706  0.1712
  262TMC3    C8 3974   3.373   1.606  11.442 -0.0716 -0.3080  0.2414
  262TMC3    O1 3975   3.641   1.457  11.061  0.0286 -0.1908  0.6032
  262TMC3    O2 3976   3.392   1.704  11.367  0.0985 -0.2017  0.6417
  263MPD2     C 3977   4.548   0.126  11.192 -0.6673  0.1002 -0.5522
  263MPD2    C1 3978   4.564   0.253  11.248 -0.4487  0.7689 -0.4062
  263MPD2    C2 3979   4.564   0.369  11.164  0.3141  0.3133 -0.5292
  263MPD2    C3 3980   4.546   0.347  11.027  0.0136 -0.7227  0.7599
  263MPD2    C4 3981   4.506   0.222  10.988  0.2732 -0.4679 -0.3970
  263MPD2    C5 3982   4.501   0.109  11.068 -0.1719  0.0996  0.0179
  263MPD2     H 3983   4.578   0.472  11.193  0.5617  0.1065  0.0902
  263MPD2    H1 3984   4.483   0.194  10.886  0.4486 -1.1590 -0.2489
  263MPD2    H2 3985   4.542   0.036  11.252 -0.7648  0.9004  0.6350
  263MPD2    H3 3986   4.465   0.012  11.035  1.0064  0.0986 -1.2491
  263MPD2     N 3987   4.546   0.462  10.944 -0.0338  0.0059  0.2793
  263MPD2    H5 3988   4.550   0.551  10.993  1.2003  1.1730 -1.9759
  263MPD2    N1 3989   4.593   0.264  11.389  0.2035 -0.2060 -0.3733
  263MPD2    H7 3990   4.588   0.188  11.455  2.4877  0.8710  1.0309
  264TMC3    C1 3991   4.531   0.584  10.744 -0.2701 -0.1981 -0.3321
  264TMC3    C2 3992   4.503   0.700  10.804 -0.7056 -0.0320  0.1981
  264TMC3    C3 3993   4.514   0.820  10.739  0.1625  0.2157  0.3735
  264TMC3    C4 3994   4.577   0.583  10.617 -0.1703  0.6006 -0.6536
  264TMC3    C5 3995   4.591   0.701  10.553  0.1562  0.4096  0.0039
  264TMC3    C6 3996   4.559   0.820  10.614  0.6446  0.6686 -0.2580
  264TMC3     C 3997   4.520   0.452  10.806  0.1574 -0.4965 -0.7536
  264TMC3     O 3998   4.508   0.359  10.728 -0.1240 -0.1524  0.5689
  264TMC3     H 3999   4.473   0.701  10.908  0.9808 -1.1877  0.6928
  264TMC3    H1 4000   4.609   0.490  10.570  0.8043  0.0205  1.1633
  264TMC3    H2 4001   4.557   0.912  10.556 -1.0070  1.2918  0.7742
  264TMC3    C7 4002   4.719   0.712  10.491 -0.1337  0.4823 -0.4035
  264TMC3    C8 4003   4.581   0.941  10.796 -0.7941 -0.4643  0.5662
  264TMC3    O1 4004   0.077   0.624  10.521  0.0739 -0.8969 -0.1644
  264TMC3    O2 4005   4.681   0.980  10.742 -0.1894 -0.0536 -0.2375
  265MPD2     C 4006   1.508   0.777  15.534  0.7733 -0.9254 -0.6998
  265MPD2    C1 4007   1.553   0.899  15.482 -0.6069 -0.1947  0.6563
  265MPD2    C2 4008   1.626   0.899  15.358  0.1854 -0.2230 -0.4590
  265MPD2    C3 4009   1.652   0.777  15.291  0.8874 -0.2405 -0.2367
  265MPD2    C4 4010   1.604   0.654  15.346  0.6683  0.0094 -0.4755
  265MPD2    C5 4011   1.516   0.663  15.453  0.2005  0.3462  0.1357
  265MPD2     H 4012   1.677   0.987  15.321  2.7302 -2.1850 -1.6948
  265MPD2    H1 4013   1.604   0.556  15.301  0.3925 -1.3211  2.3692
  265MPD2    H2 4014   1.447   0.767  15.623 -0.0138 -1.6099 -1.3163
  265MPD2    H3 4015   1.461   0.576  15.487  0.4590  0.5721  1.1368
  265MPD2     N 4016   1.704   0.763  15.159 -0.3082 -0.5634 -0.4096
  265MPD2    H5 4017   1.711   0.669  15.122 -0.7132 -1.2919  1.4086
  265MPD2    N1 4018   1.522   1.026  15.543 -0.0414  0.2835 -0.6549
  265MPD2    H7 4019   1.533   1.105  15.481  1.8695  0.0219 -0.6458
  266TMC3    C1 4020   1.471   1.179  15.724  0.1788 -0.5346  0.4049
  266TMC3    C2 4021   1.450   1.196  15.864  0.3522 -0.6559  0.3330
  266TMC3    C3 4022   1.435   1.323  15.912  0.8881 -0.0856  0.2174
  266TMC3    C4 4023   1.473   1.287  15.646 -0.0515  0.2534  0.0973
  266TMC3    C5 4024   1.449   1.414  15.699  0.2291  0.7955  0.3081
  266TMC3    C6 4025   1.433   1.436  15.832 -0.1698  0.3138 -0.3782
  266TMC3     C 4026   1.503   1.047  15.674 -0.1721  0.9182 -0.0158
  266TMC3     O 4027   1.514   0.960  15.760 -0.0098  0.1347  0.6153
  266TMC3     H 4028   1.441   1.110  15.929 -0.8871 -0.3308  0.5958
  266TMC3    H1 4029   1.476   1.276  15.538 -3.5035 -0.4617  0.0555
  266TMC3    H2 4030   1.421   1.534  15.876 -0.6991 -0.6688  1.6901
  266TMC3    C7 4031   1.408   1.511  15.606  0.6241 -0.0973  0.5358
  266TMC3    C8 4032   1.442   1.339  16.061 -0.2781  0.1930 -0.2403
  266TMC3    O1 4033   1.381   1.468  15.493 -0.9053 -0.2358  0.3731
  266TMC3    O2 4034   1.475   1.235  16.113 -0.0097 -0.3757 -0.5445
  267MPD2     C 4035   3.999   2.226  17.237 -0.4441 -0.5138 -0.2454
  267MPD2    C1 4036   3.990   2.239  17.375 -0.2953 -0.8479 -0.8216
  267MPD2    C2 4037   3.888   2.180  17.448 -0.1680  1.2932  0.2343
  267MPD2    C3 4038   3.797   2.103  17.388 -0.3983  0.3611 -0.1400
  267MPD2    C4 4039   3.799   2.097  17.249 -0.5862 -0.1010  0.3287
  267MPD2    C5 4040   3.901   2.160  17.178  0.5954 -0.3014 -0.6276
  267MPD2     H 4041   3.872   2.211  17.550  0.7707  2.6664 -0.0256
  267MPD2    H1 4042   3.722   2.035  17.204  0.0182  0.8621 -2.0124
  267MPD2    H2 4043   4.078   2.268  17.176 -1.2465 -0.4609 -1.2639
  267MPD2    H3 4044   3.908   2.150  17.070 -2.2896  1.8198 -1.0068
  267MPD2     N 4045   3.683   2.053  17.450 -0.0660  0.3244 -0.1607
  267MPD2    H5 4046   3.624   1.991  17.394  1.6467 -2.1726  0.8081
  267MPD2    N1 4047   4.095   2.313  17.434  0.1005 -0.1657  0.3428
  267MPD2    H7 4048   4.170   2.341  17.371  0.1763 -1.7422 -0.2864
  268TMC3    C1 4049   4.203   2.469  17.583  0.0714  0.1711 -0.0547
  268TMC3    C2 4050   4.229   2.570  17.492  0.5382  0.0332  0.4947
  268TMC3    C3 4051   4.260   2.691  17.548 -0.7248  0.0626 -1.0213
  268TMC3    C4 4052   4.239   2.475   0.019 -0.1044  0.1184  0.1921
  268TMC3    C5 4053   4.286   2.594   0.062  0.2600  0.1571  0.1832
  268TMC3    C6 4054   4.296   2.702  17.677  0.1299  0.3022  0.3022
  268TMC3     C 4055   4.105   2.361  17.562 -0.1658 -0.3355 -0.1530
  268TMC3     O 4056   4.030   2.330  17.652 -0.1668 -0.4065 -0.2793
  268TMC3     H 4057   4.202   2.561  17.388 -1.9384 -0.8680  1.2118
  268TMC3    H1 4058   4.231   2.399   0.096 -2.8359 -0.5920 -0.7930
  268TMC3    H2 4059   4.324   2.800   0.018  0.4169  0.7524 -1.1636
  268TMC3    C7 4060   4.297   2.598   0.205  0.0489 -0.4689  0.0474
  268TMC3    C8 4061   4.216   2.819  17.487 -0.3380  0.4242 -0.2721
  268TMC3    O1 4062   4.322   2.496   0.266 -0.3958 -0.2068 -0.1761
  268TMC3    O2 4063   4.284   2.916  17.504  0.1115 -0.6160 -0.1374
  269MPD2     C 4064   4.005   1.664  15.333 -0.8870  0.3785  0.5015
  269MPD2    C1 4065   3.946   1.691  15.454  1.1519 -0.2014  0.3637
  269MPD2    C2 4066   3.943   1.822  15.501 -0.3841  0.4520 -0.1884
  269MPD2    C3 4067   3.998   1.928  15.429  0.0677 -0.0147  0.1170
  269MPD2    C4 4068   4.055   1.898  15.310 -0.0084  0.2051 -0.0980
  269MPD2    C5 4069   4.057   1.767  15.261 -0.3118  0.0179 -0.3050
  269MPD2     H 4070   3.897   1.846  15.596 -1.6588 -1.7712 -0.2314
  269MPD2    H1 4071   4.105   1.966  15.243 -2.5967  0.9458 -1.2521
  269MPD2    H2 4072   4.001   1.566  15.287 -2.1520  0.4477  0.4694
  269MPD2    H3 4073   4.101   1.747  15.163 -1.0336 -4.3338  0.2651
  269MPD2     N 4074   3.979   2.063  15.468  0.8073 -0.1625  0.5847
  269MPD2    H5 4075   3.916   2.081  15.546 -1.6880 -0.5686 -1.3677
  269MPD2    N1 4076   3.883   1.576  15.520  0.0114  0.0086  0.0016
  269MPD2    H7 4077   3.894   1.482  15.483 -0.0304 -0.7344  1.9189
  270TMC3    C1 4078   3.733   1.463  15.657 -0.3721 -0.0069 -0.2217
  270TMC3    C2 4079   3.602   1.458  15.694  0.5673  0.1988  0.0186
  270TMC3    C3 4080   3.534   1.339  15.689 -0.5628  0.1022  0.4969
  270TMC3    C4 4081   3.798   1.342  15.636 -0.5407  0.6025  0.0393
  270TMC3    C5 4082   3.732   1.219  15.665  0.5167  0.1975 -0.1710
  270TMC3    C6 4083   3.599   1.216  15.688 -0.5325 -0.6058  0.3334
  270TMC3     C 4084   3.800   1.583  15.623  0.0455 -0.2886  0.7381
  270TMC3     O 4085   3.780   1.681  15.692  0.6745 -0.3815  0.2034
  270TMC3     H 4086   3.560   1.558  15.694  2.6356  1.0612  1.1193
  270TMC3    H1 4087   3.901   1.338  15.602 -0.8941  1.3636 -1.1210
  270TMC3    H2 4088   3.534   1.129  15.696 -1.8818  0.0977 -2.7628
  270TMC3    C7 4089   3.801   1.096  15.629  0.2550 -0.2229  0.1123
  270TMC3    C8 4090   3.428   1.353  15.592 -0.2370 -0.5361  0.0101
  270TMC3    O1 4091   3.899   1.100  15.555 -0.1737 -0.1201  0.0077
  270TMC3    O2 4092   3.354   1.453  15.602  0.2234 -0.1437  0.0112
  271MPD2     C 4093   2.976   1.206  13.780  0.0975 -0.0981  0.3005
  271MPD2    C1 4094   2.987   1.276  13.898 -0.7163  0.2746 -0.9477
  271MPD2    C2 4095   2.925   1.398  13.910 -0.7514 -0.4108 -1.0086
  271MPD2    C3 4096   2.848   1.445  13.806 -0.3927 -0.1617  0.1413
  271MPD2    C4 4097   2.845   1.380  13.687 -0.3647  0.4832 -0.1806
  271MPD2    C5 4098   2.911   1.260  13.676  0.0781  0.2663 -0.0112
  271MPD2     H 4099   2.933   1.439  14.010 -0.0658 -0.1363 -1.1750
  271MPD2    H1 4100   2.793   1.411  13.597 -1.3008 -4.5145 -1.3589
  271MPD2    H2 4101   3.026   1.111  13.766  0.0330  0.0114 -0.7118
  271MPD2    H3 4102   2.909   1.206  13.582 -1.4131 -2.4373  1.5859
  271MPD2     N 4103   2.772   1.564  13.817  0.0889  0.5119 -0.1637
  271MPD2    H5 4104   2.713   1.588  13.737 -0.2061 -0.6865 -0.3086
  271MPD2    N1 4105   3.065   1.228  14.003 -0.0375 -0.0869 -0.0464
  271MPD2    H7 4106   3.073   1.298  14.076  2.5467  0.5615 -0.9451
  272TMC3    C1 4107   3.121   1.071  14.167 -0.6790  0.1920 -0.4632
  272TMC3    C2 4108   3.200   0.964  14.182  0.6136 -0.1922  0.4337
  272TMC3    C3 4109   3.226   0.920  14.307  0.5990 -0.4393 -0.4277
  272TMC3    C4 4110   3.054   1.123  14.262  0.4060 -0.3815 -0.0223
  272TMC3    C5 4111   3.082   1.081  14.390  0.2381 -0.5803  0.0882
  272TMC3    C6 4112   3.173   0.978  14.421 -0.4557  0.1276 -0.2601
  272TMC3     C 4113   3.104   1.099  14.027  0.1325 -0.0592 -0.2309
  272TMC3     O 4114   3.108   1.000  13.958  0.0012 -0.0507  0.2147
  272TMC3     H 4115   3.239   0.914  14.095 -2.1082 -1.2668 -0.1574
  272TMC3    H1 4116   2.981   1.203  14.252  0.7975 -0.1167 -0.7068
  272TMC3    H2 4117   3.199   0.949  14.522 -1.5197 -1.2298 -0.3692
  272TMC3    C7 4118   3.035   1.160  14.500  0.7469  0.4332  0.0685
  272TMC3    C8 4119   3.333   0.827  14.315 -0.2075 -0.3722  0.0844
  272TMC3    O1 4120   2.925   1.211  14.481  0.5302  0.4126 -0.7332
  272TMC3    O2 4121   3.342   0.744  14.225 -0.1287  0.3890 -0.0429
  273MPD2     C 4122   0.243   3.519  11.751  0.2389  0.4065  0.1704
  273MPD2    C1 4123   0.356   3.586  11.781 -0.5573  0.1485  0.0507
  273MPD2    C2 4124   0.393   3.690  11.697 -0.6988 -0.0939  0.0147
  273MPD2    C3 4125   0.318   3.720  11.589  0.1774 -0.6299 -0.2737
  273MPD2    C4 4126   0.209   3.644  11.554  0.2801 -0.0674 -0.7345
  273MPD2    C5 4127   0.165   3.549  11.642  0.0019 -0.1645  0.0230
  273MPD2     H 4128   0.487   3.743  11.707  0.1464 -1.3659 -1.1538
  273MPD2    H1 4129   0.145   3.649  11.467 -0.0193  2.9592 -0.3120
  273MPD2    H2 4130   0.208   3.431  11.804  0.0840 -0.0259 -0.6500
  273MPD2    H3 4131   0.072   3.498  11.620  0.6522 -1.9427  1.4808
  273MPD2     N 4132   0.341   3.831  11.508  0.1405 -0.6792  0.0657
  273MPD2    H5 4133   0.282   3.841  11.426 -1.1188 -1.5474  0.8679
  273MPD2    N1 4134   0.436   3.532  11.887 -0.0073  0.3822 -0.6058
  273MPD2    H7 4135   0.425   3.433  11.908 -0.1469  0.7040  0.8414
  274TMC3    C1 4136   0.421   4.049  11.465  0.7396 -0.4521  0.5537
  274TMC3    C2 4137   0.384   4.036  11.332 -0.0866  0.2073  0.4090
  274TMC3    C3 4138   0.385   4.152  11.264 -0.6867 -1.0524  0.0078
  274TMC3    C4 4139   0.467   4.169  11.520 -0.5083 -1.0024  0.2861
  274TMC3    C5 4140   0.461   4.279  11.437 -0.9488  0.3358  0.2073
  274TMC3    C6 4141   0.423   4.274  11.305 -0.2018 -0.0629 -0.1614
  274TMC3     C 4142   0.416   3.939  11.560 -0.1252  0.0391 -1.1419
  274TMC3     O 4143   0.456   3.967  11.671 -0.0788 -0.0034 -0.2537
  274TMC3     H 4144   0.355   3.942  11.286  0.2771  1.0352 -1.4810
  274TMC3    H1 4145   0.472   4.174  11.628  0.0817 -1.9777  0.3063
  274TMC3    H2 4146   0.385   4.361  11.252  0.0069 -0.2706 -0.6532
  274TMC3    C7 4147   0.438   4.406  11.505 -0.1593 -0.0026  0.6084
  274TMC3    C8 4148   0.297   4.146  11.152  0.3466  0.3328  0.5849
  274TMC3    O1 4149   0.359   4.484  11.455 -0.6417 -0.4749 -0.1147
  274TMC3    O2 4150   0.210   4.060  11.160 -0.2866 -0.8852  0.2391
  275MPD2     C 4151   4.494   2.175  14.102 -0.0020 -0.0785  0.3010
  275MPD2    C1 4152   4.469   2.118  14.228  0.2999  0.6682 -0.4365
  275MPD2    C2 4153   4.357   2.046  14.258  0.4074  0.5906  0.4891
  275MPD2    C3 4154   4.262   2.036  14.157  0.2996  0.4641  0.2085
  275MPD2    C4 4155   4.281   2.096  14.034 -0.2122 -0.1015  0.6362
  275MPD2    C5 4156   4.396   2.165  13.999  0.2368  0.1914 -0.3898
  275MPD2     H 4157   4.352   2.008  14.360  2.5913  3.4350  1.6706
  275MPD2    H1 4158   4.203   2.073  13.963  0.3058 -3.3065  1.1296
  275MPD2    H2 4159   4.584   2.234  14.088 -0.3882  0.1185 -1.2936
  275MPD2    H3 4160   4.401   2.197  13.896 -1.0556  2.6175  0.3117
  275MPD2     N 4161   4.139   1.966  14.182 -0.5434  0.2188 -0.5295
  275MPD2    H5 4162   4.068   1.971  14.110 -2.0621 -0.9418  0.8684
  275MPD2    N1 4163   4.551   2.149  14.340  0.4829 -0.9137  0.1835
  275MPD2    H7 4164   4.524   2.109  14.429 -0.2904 -0.5108  0.1373
  276TMC3    C1 4165   0.007   2.220  14.463  0.3049  0.4886  0.3438
  276TMC3    C2 4166   4.701   2.108  14.539 -0.4278 -0.3985 -0.1755
  276TMC3    C3 4167   4.715   2.116  14.675  1.2738  0.1266  0.3230
  276TMC3    C4 4168   0.026   2.341  14.525 -0.1205  0.2996 -0.8943
  276TMC3    C5 4169   0.043   2.337  14.660  0.6349  0.2619 -0.6535
  276TMC3    C6 4170   0.038   2.229  14.738 -0.0230  0.0671  0.4112
  276TMC3     C 4171   4.660   2.236  14.342 -0.8870  0.3861  0.2823
  276TMC3     O 4172   4.699   2.325  14.266 -0.0775 -0.3805 -0.3076
  276TMC3     H 4173   4.681   2.012  14.493  0.1289 -0.3247 -0.5721
  276TMC3    H1 4174   0.033   2.432  14.466 -0.5037  0.8097 -0.1465
  276TMC3    H2 4175   0.074   2.230  14.841  0.3248 -1.8674  0.3214
  276TMC3    C7 4176   0.036   2.462  14.733  0.1414 -0.2741  0.3585
  276TMC3    C8 4177   0.036   1.993  14.746  0.0124  0.5520  0.2630
  276TMC3    O1 4178   4.706   2.462  14.841 -0.1287  0.5313  0.5925
  276TMC3    O2 4179   0.125   2.012  14.830 -0.2189  0.0656 -0.0765
  277MPD2     C 4180   2.027   0.903  13.987 -0.4324  0.0352  0.2420
  277MPD2    C1 4181   1.892   0.932  13.977  0.3094 -0.2152  0.5350
  277MPD2    C2 4182   1.805   0.862  14.053  0.7038 -0.3737  0.1284
  277MPD2    C3 4183   1.840   0.740  14.110  0.0495 -0.2201  0.1942
  277MPD2    C4 4184   1.976   0.709  14.121  0.4696  0.1832 -0.0653
  277MPD2    C5 4185   2.066   0.792  14.059 -0.2689  0.1150  0.2026
  277MPD2     H 4186   1.701   0.888  14.067  0.3848 -0.8448 -1.3398
  277MPD2    H1 4187   2.004   0.608  14.149  0.1532 -0.4929 -2.1801
  277MPD2    H2 4188   2.104   0.957  13.933 -0.0147 -0.4214  0.3802
  277MPD2    H3 4189   2.173   0.774  14.063 -0.4862 -1.2452 -0.0899
  277MPD2     N 4190   1.739   0.668  14.165 -0.4842 -0.2563 -0.1089
  277MPD2    H5 4191   1.646   0.708  14.158 -0.8658 -1.3339 -1.2131
  277MPD2    N1 4192   1.841   1.030  13.885 -0.2048  0.0372 -0.6639
  277MPD2    H7 4193   1.913   1.055  13.818  0.7357  0.9872  0.6936
  278TMC3    C1 4194   1.605   0.496  14.199 -1.0062 -0.8666 -0.7760
  278TMC3    C2 4195   1.584   0.376  14.135  0.4117  0.6783 -0.3560
  278TMC3    C3 4196   1.470   0.361  14.065 -0.0517 -0.8552 -0.5686
  278TMC3    C4 4197   1.506   0.588  14.200 -0.6653 -0.3735 -0.6151
  278TMC3    C5 4198   1.391   0.563  14.139 -0.4955 -0.4856 -0.0021
  278TMC3    C6 4199   1.362   0.447  14.068  0.2341 -0.2874 -0.7838
  278TMC3     C 4200   1.739   0.548  14.222 -0.6620  0.0303 -1.0591
  278TMC3     O 4201   1.832   0.475  14.235 -0.2814  0.0078  0.1010
  278TMC3     H 4202   1.660   0.299  14.128 -2.5887 -2.3228  0.0661
  278TMC3    H1 4203   1.515   0.670  14.271 -0.2386 -1.5898  0.7454
  278TMC3    H2 4204   1.280   0.435  13.998 -0.7893 -1.8564  0.7089
  278TMC3    C7 4205   1.297   0.674  14.155 -0.0940 -0.2306  0.1760
  278TMC3    C8 4206   1.465   0.240  13.981 -0.0379 -0.7496  0.8105
  278TMC3    O1 4207   1.334   0.784  14.192  0.3887  0.4122 -0.0075
  278TMC3    O2 4208   1.516   0.137  14.016  0.3656  0.3906  0.0446
  279MPD2     C 4209   0.453   1.026  17.680 -0.0797  0.2762  0.4515
  279MPD2    C1 4210   0.468   1.156   0.032  0.0993 -0.5534 -0.1790
  279MPD2    C2 4211   0.531   1.244  17.646  0.5398  0.0953  0.1497
  279MPD2    C3 4212   0.567   1.210  17.517  0.1877  0.1815  0.6499
  279MPD2    C4 4213   0.544   1.083  17.470  0.5317 -0.1638  0.0823
  279MPD2    C5 4214   0.486   0.987  17.552 -0.5435  0.7098 -0.3518
  279MPD2     H 4215   0.552   1.346  17.674  1.2806 -0.1545  0.4934
  279MPD2    H1 4216   0.581   1.057  17.372 -2.7677  0.0810 -1.2145
  279MPD2    H2 4217   0.415   0.945   0.046  0.6482 -1.5862 -1.5426
  279MPD2    H3 4218   0.472   0.884  17.522  0.1065  0.5338 -0.0541
  279MPD2     N 4219   0.624   1.304  17.432 -0.1684  0.5359 -0.5127
  279MPD2    H5 4220   0.641   1.394  17.477  2.8673  0.3209 -1.2531
  279MPD2    N1 4221   0.400   1.207   0.149 -0.3536  0.3838 -0.4445
  279MPD2    H7 4222   0.343   1.138   0.197  2.6561 -0.6099  1.7506
  280TMC3    C1 4223   0.307   1.348   0.311 -0.1494 -0.3290  0.8769
  280TMC3    C2 4224   0.320   1.256   0.415  0.3078 -0.7040  0.1144
  280TMC3    C3 4225   0.312   1.302   0.546  0.7602 -0.3580  0.2319
  280TMC3    C4 4226   0.274   1.479   0.346  0.5505 -0.2857  0.8331
  280TMC3    C5 4227   0.239   1.506   0.478  0.9363  0.8412  0.6325
  280TMC3    C6 4228   0.259   1.421   0.579 -0.1098 -0.1356 -0.0933
  280TMC3     C 4229   0.394   1.337   0.196 -0.6319  0.7932 -0.3907
  280TMC3     O 4230   0.441   1.439   0.153 -0.3404  0.4498 -0.2886
  280TMC3     H 4231   0.357   1.156   0.398 -5.4819 -2.7019 -0.8086
  280TMC3    H1 4232   0.283   1.557   0.271  2.0612 -0.6357  0.6548
  280TMC3    H2 4233   0.243   1.451   0.682 -1.0991  2.6642 -1.0697
  280TMC3    C7 4234   0.168   1.632   0.503  0.0775 -0.0291  0.6121
  280TMC3    C8 4235   0.309   1.192   0.642  0.3664 -0.6088  0.0245
  280TMC3    O1 4236   0.141   1.653   0.620  0.1528 -0.1555  0.2472
  280TMC3    O2 4237   0.217   1.191   0.718 -0.0339 -0.0928  0.1254
  281TMC3    C1 4238   4.333   1.536  13.118 -0.1824 -0.5594 -0.2993
  281TMC3    C2 4239   4.419   1.639  13.081  0.3553 -1.1741  0.1858
  281TMC3    C3 4240   4.512   1.608  12.984 -0.5995  0.4749 -0.5638
  281TMC3    C4 4241   4.341   1.409  13.067  0.0388  0.8727  0.6417
  281TMC3    C5 4242   4.437   1.391  12.968 -0.4133  0.1610 -0.0248
  281TMC3    C6 4243   4.528   1.484  12.931  0.3316 -1.1197  0.4554
  281TMC3     C 4244   4.213   1.569  13.183  0.7877  0.3028  0.1532
  281TMC3     O 4245   4.153   1.478  13.231  0.2101  0.1345 -0.2067
  281TMC3     H 4246   4.414   1.737  13.128  0.7954 -0.5677 -1.0258
  281TMC3    H1 4247   4.263   1.338  13.092  1.5142 -0.5040  1.3440
  281TMC3    H2 4248   4.610   1.471  12.861  1.4803 -2.2865  2.0339
  281TMC3    C7 4249   4.458   1.255  12.915  0.5143 -0.8987  0.7432
  281TMC3    C8 4250   4.619   1.696  12.948 -0.2768  0.3995  0.8133
  281TMC3    O1 4251   4.553   1.242  12.841  0.2617  0.5997 -0.7342
  281TMC3    O2 4252   0.004   1.645  12.947 -0.3087 -0.2862 -0.6652
  282MPD2     C 4253   1.493   2.753  15.259  0.1313 -0.2773 -0.6889
  282MPD2    C1 4254   1.361   2.727  15.279  0.7217  0.2193 -0.5593
  282MPD2    C2 4255   1.276   2.700  15.168  0.2297  0.4831  0.4433
  282MPD2    C3 4256   1.333   2.693  15.041  0.2838  0.1425  0.8962
  282MPD2    C4 4257   1.467   2.711  15.027 -0.1270  0.1880 -0.2135
  282MPD2    C5 4258   1.539   2.766  15.128  0.4970 -0.5288  0.1272
  282MPD2     H 4259   1.171   2.691  15.192  0.1856  0.2096  0.1345
  282MPD2    H1 4260   1.511   2.718  14.929 -0.0667 -0.2528 -0.2170
  282MPD2    H2 4261   1.554   2.770  15.346 -0.8524 -3.1980  0.6032
  282MPD2    H3 4262   1.646   2.785  15.121  0.0721  1.5729 -0.5338
  282MPD2     N 4263   1.245   2.658  14.937 -0.3243  0.0475 -0.1713
  282MPD2    H5 4264   1.148   2.637  14.956 -0.8008 -1.4047 -4.2688
  282MPD2    N1 4265   1.308   2.727  15.408 -0.1543 -0.2127 -0.1218
  282MPD2    H7 4266   1.208   2.714  15.408  0.2843 -3.8073 -1.3096
  283TMC3    C1 4267   1.294   2.740  15.642  0.0517 -0.5849 -0.1671
  283TMC3    C2 4268   1.325   2.826  15.750  0.0060  0.2073  0.4657
  283TMC3    C3 4269   1.248   2.819  15.865 -0.4163  0.1177 -0.2941
  283TMC3    C4 4270   1.196   2.650  15.650  0.1274 -0.0140  0.4334
  283TMC3    C5 4271   1.128   2.640  15.771 -0.0351 -0.0434 -1.4293
  283TMC3    C6 4272   1.146   2.730  15.873  1.0227 -0.1505 -0.3612
  283TMC3     C 4273   1.375   2.750  15.525 -0.0993  0.5593  0.2490
  283TMC3     O 4274   1.487   2.794  15.546  0.4000 -0.3901 -0.4401
  283TMC3     H 4275   1.412   2.890  15.764 -0.0103  0.5069 -0.7616
  283TMC3    H1 4276   1.169   2.581  15.571 -1.3954 -0.3438  1.2265
  283TMC3    H2 4277   1.082   2.718  15.960  0.7456  0.0462 -0.5401
  283TMC3    C7 4278   1.001   2.567  15.789  0.0925  0.0387  0.1907
  283TMC3    C8 4279   1.201   2.946  15.905 -0.6047  0.3401 -0.1366
  283TMC3    O1 4280   0.908   2.626  15.844  0.1479  0.0399 -0.2839
  283TMC3    O2 4281   1.147   2.945  16.014 -0.5656  0.9968  0.2986
  284MPD2     C 4282   0.048   1.810  12.086  0.0296  0.3360  0.3742
  284MPD2    C1 4283   0.003   1.875  11.972 -0.0173  0.3022 -0.1246
  284MPD2    C2 4284   4.589   1.891  11.966  0.5284 -0.2971  1.1258
  284MPD2    C3 4285   4.504   1.834  12.059  0.0833  0.5827 -0.3725
  284MPD2    C4 4286   4.553   1.787  12.174 -1.1467 -0.2538  0.0065
  284MPD2    C5 4287   4.688   1.761  12.179 -0.1999 -0.6145 -0.3535
  284MPD2     H 4288   4.544   1.928  11.874 -1.2459  0.3174  2.2303
  284MPD2    H1 4289   4.485   1.750  12.249 -0.1938  0.5527  1.2660
  284MPD2    H2 4290   0.154   1.790  12.099 -0.2460 -0.5203  1.2667
  284MPD2    H3 4291   0.010   1.702  12.258 -2.5282 -0.4323  1.1209
  284MPD2     N 4292   4.363   1.834  12.053  0.3896  0.2505  0.5183
  284MPD2    H5 4293   4.308   1.802  12.132 -1.4790 -0.7837 -1.2120
  284MPD2    N1 4294   0.087   1.938  11.882 -0.6705  0.0775  0.2647
  284MPD2    H7 4295   0.049   2.017  11.831 -1.1803  1.8014  3.2883
  285TMC3    C1 4296   0.302   2.005  11.795 -0.4758  0.0368  0.0217
  285TMC3    C2 4297   0.398   1.948  11.719 -0.2548  0.6536 -0.7310
  285TMC3    C3 4298   0.449   2.021  11.617  0.7420  0.3415 -0.2229
  285TMC3    C4 4299   0.259   2.133  11.776  0.1192 -0.6811  0.1433
  285TMC3    C5 4300   0.329   2.205  11.687  0.0488 -0.5564 -0.1551
  285TMC3    C6 4301   0.418   2.150  11.603  0.8751  0.1947  0.0695
  285TMC3     C 4302   0.221   1.910  11.867 -0.3057  1.2038 -0.1133
  285TMC3     O 4303   0.284   1.822  11.921 -0.0772 -0.4188  0.0700
  285TMC3     H 4304   0.391   1.842  11.701 -1.9784  0.8935 -1.4594
  285TMC3    H1 4305   0.191   2.186  11.843  0.3164  0.9681 -0.9692
  285TMC3    H2 4306   0.457   2.221  11.531  2.3412 -0.5205  0.1612
  285TMC3    C7 4307   0.306   2.345  11.671 -0.2464  0.3485 -0.0983
  285TMC3    C8 4308   0.466   1.952  11.493  0.2952  0.2393  0.3919
  285TMC3    O1 4309   0.408   2.413  11.653 -0.1111 -0.4577  0.3180
  285TMC3    O2 4310   0.375   1.877  11.464 -0.0055 -0.5646 -0.1035
  286MPD2     C 4311   4.034   1.026   1.895 -0.4479 -0.0701  0.0891
  286MPD2    C1 4312   4.012   1.015   1.757  0.3144  0.2785  0.1146
  286MPD2    C2 4313   4.079   0.907   1.687 -0.6983  0.3267 -0.3466
  286MPD2    C3 4314   4.167   0.819   1.749  0.2931  0.3193 -0.1730
  286MPD2    C4 4315   4.181   0.839   1.886  0.4541 -0.2662  0.3220
  286MPD2    C5 4316   4.115   0.936   1.960  0.1035  0.3636  0.2323
  286MPD2     H 4317   4.054   0.892   1.582  0.0148 -1.6276 -0.2426
  286MPD2    H1 4318   4.245   0.774   1.945 -2.3934 -3.2185  0.1420
  286MPD2    H2 4319   3.971   1.098   1.945 -0.1804 -0.7103  1.3565
  286MPD2    H3 4320   4.117   0.934   2.069 -0.1665 -0.3327  0.2255
  286MPD2     N 4321   4.228   0.709   1.687 -0.2188  0.0944 -0.7718
  286MPD2    H5 4322   4.283   0.652   1.751 -1.5344  0.7135  0.9054
  286MPD2    N1 4323   3.930   1.105   1.685 -0.3361  0.3000  0.6560
  286MPD2    H7 4324   3.909   1.074   1.590  1.2737 -1.8124  0.9923
  287TMC3    C1 4325   4.274   0.546   1.528 -0.3820  0.3955 -0.7224
  287TMC3    C2 4326   4.268   0.494   1.402  0.0866  0.0414 -0.7457
  287TMC3    C3 4327   4.330   0.373   1.375 -0.1924  0.1718  0.5959
  287TMC3    C4 4328   4.369   0.500   1.614 -0.0378 -0.1845 -0.1196
  287TMC3    C5 4329   4.415   0.374   1.591 -0.6303  0.9780 -0.8002
  287TMC3    C6 4330   4.397   0.304   1.473 -0.8395  0.9502  0.4431
  287TMC3     C 4331   4.205   0.670   1.555  0.0235 -0.0549 -0.2654
  287TMC3     O 4332   4.112   0.702   1.479  0.6073  0.2680 -0.0235
  287TMC3     H 4333   4.201   0.540   1.330  0.1449  3.1536  1.2133
  287TMC3    H1 4334   4.398   0.541   1.710 -0.1322 -1.5763  0.5108
  287TMC3    H2 4335   4.447   0.215   1.439  2.0797  2.3519  1.1064
  287TMC3    C7 4336   4.534   0.335   1.660 -0.3272  0.7327 -0.7078
  287TMC3    C8 4337   4.333   0.318   1.243 -0.3890 -0.3487 -0.1253
  287TMC3    O1 4338   4.594   0.421   1.720 -0.0043  0.2824 -0.5998
  287TMC3    O2 4339   4.320   0.198   1.230  0.2627  0.0336 -0.0444
  288TMC3    C1 4340   1.213   0.457  14.619 -1.1056 -0.1905  0.1898
  288TMC3    C2 4341   1.180   0.372  14.718  0.1919 -0.6462  0.3908
  288TMC3    C3 4342   1.196   0.419  14.846 -0.1184  0.1306 -0.3891
  288TMC3    C4 4343   1.251   0.589  14.644 -0.4820 -0.5216  0.1737
  288TMC3    C5 4344   1.280   0.625  14.775 -0.3896  0.0834  0.3531
  288TMC3    C6 4345   1.262   0.536  14.870 -0.8344  0.4981 -0.3532
  288TMC3     C 4346   1.176   0.436  14.478  0.3434  0.1335  0.0074
  288TMC3     O 4347   1.135   0.541  14.422  0.0824 -0.0305 -0.0735
  288TMC3     H 4348   1.138   0.274  14.700  0.5186 -0.4348 -1.5194
  288TMC3    H1 4349   1.264   0.655  14.559 -0.7393 -2.7737 -1.6210
  288TMC3    H2 4350   1.287   0.560  14.972  1.3642 -0.3256 -0.7021
  288TMC3    C7 4351   1.333   0.755  14.803 -0.6750  0.0113 -1.2036
  288TMC3    C8 4352   1.181   0.325  14.956 -0.8340 -0.3913 -0.1275
  288TMC3    O1 4353   1.326   0.786  14.923  0.8622  1.0697 -0.6467
  288TMC3    O2 4354   1.268   0.342  15.040  0.0370 -0.1272  0.4312
  289MPD2     C 4355   1.826   4.641  14.443  0.3013 -0.5635  0.5724
  289MPD2    C1 4356   1.769   4.627  14.570  0.3099 -0.5423 -0.9485
  289MPD2    C2 4357   1.627   4.604  14.574  0.2792  0.0332  0.2845
  289MPD2    C3 4358   1.549   4.599  14.457  0.2736  0.4013 -0.6267
  289MPD2    C4 4359   1.611   4.628  14.339 -0.0277  0.0487  0.4682
  289MPD2    C5 4360   1.747   4.642  14.328 -0.2428 -0.0383  0.2012
  289MPD2     H 4361   1.575   4.595  14.668 -1.5661  0.5862 -0.6897
  289MPD2    H1 4362   1.558   4.636  14.245 -0.8074 -1.6000  0.7771
  289MPD2    H2 4363   1.933   4.649  14.432 -0.0309  0.8528 -1.5829
  289MPD2    H3 4364   1.796   4.642  14.231  2.7224 -0.3972  1.6773
  289MPD2     N 4365   1.413   4.562  14.456 -0.1567  0.0034  0.0533
  289MPD2    H5 4366   1.359   4.588  14.374  0.0563  0.1362 -0.0461
  289MPD2    N1 4367   1.861   4.649  14.674 -0.5143  0.1121 -0.2365
  289MPD2    H7 4368   1.959   4.659  14.649 -0.2968 -2.4015 -0.3996
  290TMC3    C1 4369   1.208   4.456  14.526  0.0751  0.1257 -0.1767
  290TMC3    C2 4370   1.141   4.564  14.469  0.1598  0.3382  0.0549
  290TMC3    C3 4371   1.005   4.552  14.441  1.2256  0.6175  0.1272
  290TMC3    C4 4372   1.150   4.333  14.534  0.2450  0.0116  0.1203
  290TMC3    C5 4373   1.014   4.328  14.512 -0.5551  0.1527  0.1314
  290TMC3    C6 4374   0.941   4.433  14.468  0.1601  0.3441  0.6947
  290TMC3     C 4375   1.343   4.481  14.553  0.0964  0.0024 -0.2316
  290TMC3     O 4376   1.390   4.423  14.644  0.4291  0.1114 -0.6966
  290TMC3     H 4377   1.182   4.665  14.465 -0.9964  0.6552 -3.3415
  290TMC3    H1 4378   1.211   4.249  14.564  0.9288  0.3776 -0.2430
  290TMC3    H2 4379   0.837   4.431  14.435 -0.5284  0.5324  2.8561
  290TMC3    C7 4380   0.936   4.219  14.562  1.1880  0.1888 -0.4077
  290TMC3    C8 4381   0.927   4.653  14.377 -0.5813  0.8314  0.4936
  290TMC3    O1 4382   0.818   4.248  14.582 -0.6093 -0.7689 -0.6328
  290TMC3    O2 4383   0.845   4.614  14.295 -0.2390 -1.0451 -0.3203
  291MPD2     C 4384   0.602   4.611   0.136  0.0728 -0.3144 -0.3720
  291MPD2    C1 4385   0.583   4.474   0.126  0.4434 -0.1293 -0.0181
  291MPD2    C2 4386   0.696   4.390   0.102 -0.2176 -0.4828  0.1072
  291MPD2    C3 4387   0.828   4.437   0.091 -0.5565 -0.1304 -0.1297
  291MPD2    C4 4388   0.843   4.572   0.126  0.2460 -0.3351  0.2524
  291MPD2    C5 4389   0.735   4.656   0.134 -0.1153  0.3225 -0.0464
  291MPD2     H 4390   0.667   4.288   0.081 -3.0378  0.6376 -1.4656
  291MPD2    H1 4391   0.941   4.611   0.146  0.0795  0.6267 -0.8603
  291MPD2    H2 4392   0.526   4.687   0.149  0.9591  1.0078 -2.8629
  291MPD2    H3 4393   0.751   0.039   0.145  2.2097  0.2118 -2.2669
  291MPD2     N 4394   0.938   4.364   0.100 -0.2907 -0.1138 -0.2928
  291MPD2    H5 4395   1.020   4.420   0.121 -1.0060  0.7534  0.1923
  291MPD2    N1 4396   0.457   4.411   0.122 -0.0731  0.3885 -0.7678
  291MPD2    H7 4397   0.459   4.314   0.094 -0.5942  0.7922 -2.2238
  292TMC3    C1 4398   0.226   4.394   0.130 -0.4192  0.0225 -0.1618
  292TMC3    C2 4399   0.108   4.447   0.184  0.3002  0.0018  0.1321
  292TMC3    C3 4400   4.722   4.364   0.182  0.1908 -0.0638  0.2995
  292TMC3    C4 4401   0.239   4.272   0.066  0.2247  0.4965  0.8248
  292TMC3    C5 4402   0.125   4.200   0.064 -0.1793 -0.6230 -0.1841
  292TMC3    C6 4403   0.012   4.241   0.128 -0.1368 -0.1363  0.4965
  292TMC3     C 4404   0.338   4.476   0.160  0.2851  0.2054  0.2236
  292TMC3     O 4405   0.331   4.583   0.217  0.1987 -0.6462  0.2694
  292TMC3     H 4406   0.097   4.549   0.220  1.0810  0.0968  0.0970
  292TMC3    H1 4407   0.329   4.252   0.009 -0.4553 -0.0253 -0.0771
  292TMC3    H2 4408   4.646   4.180   0.131 -0.3398  0.1761  0.7740
  292TMC3    C7 4409   0.133   4.068   0.015  0.2200 -0.2397 -0.5303
  292TMC3    C8 4410   4.638   4.378   0.308 -0.4484  0.6163  0.0500
  292TMC3    O1 4411   0.239   4.017  17.672  0.7006 -0.7434 -0.1451
  292TMC3    O2 4412   4.657   4.481   0.371  0.2670  0.4720 -0.1881
  293MPD2     C 4413   2.861   1.277  12.400  0.2537  0.1453 -0.5092
  293MPD2    C1 4414   2.765   1.190  12.448 -0.0062  0.1231 -0.1575
  293MPD2    C2 4415   2.759   1.163  12.587  0.1064 -0.2832 -0.1343
  293MPD2    C3 4416   2.840   1.222  12.677  0.0786 -0.0250 -0.2246
  293MPD2    C4 4417   2.926   1.317  12.626  0.4695 -0.6730  0.8759
  293MPD2    C5 4418   2.934   1.345  12.493  0.2492 -0.5234 -0.0470
  293MPD2     H 4419   2.681   1.096  12.622  0.8202  0.2623  2.5098
  293MPD2    H1 4420   2.988   1.373  12.694 -0.0770 -0.9340  1.5837
  293MPD2    H2 4421   2.871   1.308  12.297 -3.4415  2.9287 -0.0164
  293MPD2    H3 4422   2.994   1.431  12.465 -0.5568 -0.4505 -1.5862
  293MPD2     N 4423   2.829   1.209  12.817  0.9792  0.2882 -0.2455
  293MPD2    H5 4424   2.877   1.279  12.873  0.3964  1.6025 -1.3793
  293MPD2    N1 4425   2.676   1.133  12.350 -0.4383 -0.2527  0.2349
  293MPD2    H7 4426   2.715   1.154  12.258 -0.4930  1.2896  0.5615
  294TMC3    C1 4427   2.493   1.029  12.253  0.4556 -0.3579 -0.4884
  294TMC3    C2 4428   2.349   1.026  12.255 -0.1361  0.9622 -0.3311
  294TMC3    C3 4429   2.292   1.037  12.127 -0.0604 -0.8017 -0.7933
  294TMC3    C4 4430   2.565   1.029  12.131 -0.3947  0.3807  0.0406
  294TMC3    C5 4431   2.496   1.027  12.014 -0.6472 -0.0656  0.2301
  294TMC3    C6 4432   2.363   1.038  12.007 -0.0126  0.1056 -0.2749
  294TMC3     C 4433   2.564   1.060  12.375  0.6919  0.1283 -0.1323
  294TMC3     O 4434   2.500   1.041  12.479 -0.4042  0.2472  0.5136
  294TMC3     H 4435   2.298   1.019  12.351  2.9280  3.1259  1.4386
  294TMC3    H1 4436   2.673   1.024  12.139 -0.4122 -0.1141 -0.0388
  294TMC3    H2 4437   2.303   0.991  11.930  1.1033 -0.8166 -0.5840
  294TMC3    C7 4438   2.559   0.954  11.908 -0.0850 -0.2661  0.4066
  294TMC3    C8 4439   2.146   1.028  12.110 -0.0332 -0.4508  0.4429
  294TMC3    O1 4440   2.496   0.951  11.800 -0.0421  0.1183  0.2757
  294TMC3    O2 4441   2.095   1.062  12.002 -0.4822 -0.0514 -0.3014
  295MPD2     C 4442   3.185   3.699  17.625 -0.8356 -0.5822 -0.4413
  295MPD2    C1 4443   3.238   3.829  17.611 -0.2423  0.1749  0.0039
  295MPD2    C2 4444   3.190   3.928   0.001  0.1577  0.4320  0.2321
  295MPD2    C3 4445   3.098   3.898   0.097 -0.1061 -0.2726  0.0292
  295MPD2    C4 4446   3.051   3.773   0.111 -0.4285  0.6672 -1.0253
  295MPD2    C5 4447   3.089   3.674   0.023  0.1679  0.4551 -0.0053
  295MPD2     H 4448   3.227   4.029  17.683  0.6659 -0.0152 -1.7407
  295MPD2    H1 4449   2.983   3.742   0.190  2.6668 -0.3761  1.2107
  295MPD2    H2 4450   3.203   3.618  17.555 -0.8773  0.5051 -1.7067
  295MPD2    H3 4451   3.040   3.578   0.029  0.1042  0.5803  1.5425
  295MPD2     N 4452   3.043   4.002   0.188 -0.5051  0.0321 -0.2664
  295MPD2    H5 4453   2.966   3.969   0.246  1.8716 -1.6724  1.9309
  295MPD2    N1 4454   3.317   3.870  17.504 -0.0225  0.0433 -0.2018
  295MPD2    H7 4455   3.340   3.968  17.491 -0.6271  0.3164  0.7773
  296TMC3    C1 4456   3.035   4.194   0.310  0.0880  0.6078 -0.0542
  296TMC3    C2 4457   3.109   4.273   0.389 -0.1071  0.4722 -0.0703
  296TMC3    C3 4458   3.047   4.328   0.502  0.2824 -0.8840  0.0469
  296TMC3    C4 4459   2.902   4.162   0.349  1.1202 -0.6787 -0.6112
  296TMC3    C5 4460   2.840   4.219   0.460 -0.5744 -0.1805  0.2020
  296TMC3    C6 4461   2.917   4.301   0.540 -0.1850 -0.9357 -0.4340
  296TMC3     C 4462   3.105   4.119   0.211 -0.2148  0.5037  0.4798
  296TMC3     O 4463   3.197   4.170   0.153 -0.3772  0.3023 -0.4977
  296TMC3     H 4464   3.206   4.302   0.351 -0.4461  2.4099  0.5551
  296TMC3    H1 4465   2.839   4.109   0.278  0.2870 -0.4039 -0.0807
  296TMC3    H2 4466   2.879   4.341   0.633 -0.1686  0.5770 -1.0870
  296TMC3    C7 4467   2.697   4.216   0.478 -0.3782  0.2461 -0.2626
  296TMC3    C8 4468   3.137   4.347   0.605  0.0503  0.6522  0.4369
  296TMC3    O1 4469   2.617   4.206   0.385 -0.5108  0.0799  0.6186
  296TMC3    O2 4470   3.249   4.300   0.582  0.3339  0.0272  0.0875
  297MPD2     C 4471   0.244   1.519  16.274 -0.1881  0.7215 -0.3753
  297MPD2    C1 4472   0.180   1.634  16.241 -0.4802 -0.4483  0.0532
  297MPD2    C2 4473   0.252   1.746  16.221  0.3454  0.0710 -0.2157
  297MPD2    C3 4474   0.389   1.738  16.232 -0.1995 -0.3356  0.0636
  297MPD2    C4 4475   0.447   1.624  16.285 -0.2469 -0.8640  0.2088
  297MPD2    C5 4476   0.377   1.514  16.304  0.1707 -0.6159 -0.4682
  297MPD2     H 4477   0.216   1.844  16.191  0.8239  0.4934  0.5990
  297MPD2    H1 4478   0.553   1.626  16.307  0.3747  1.3036 -2.9603
  297MPD2    H2 4479   0.189   1.426  16.279 -1.0116  1.1523 -1.4628
  297MPD2    H3 4480   0.424   1.417  16.310  0.9130 -0.3235 -1.5024
  297MPD2     N 4481   0.460   1.857  16.207  0.5948  0.0471  0.3169
  297MPD2    H5 4482   0.409   1.945  16.207  2.3048  1.0443 -0.1420
  297MPD2    N1 4483   0.040   1.638  16.206  0.4601  0.7560 -0.3195
  297MPD2    H7 4484   0.007   1.716  16.151 -2.6347 -0.5241 -0.2508
  298TMC3    C1 4485   4.540   1.562  16.166  0.8288 -0.0138 -0.6636
  298TMC3    C2 4486   4.552   1.612  16.046 -0.2632 -0.0565 -0.3616
  298TMC3    C3 4487   4.435   1.641  15.980 -0.4676 -0.4194  0.4169
  298TMC3    C4 4488   4.425   1.522  16.225  0.2928 -0.3595  0.5590
  298TMC3    C5 4489   4.317   1.550  16.153  0.1395 -0.0367 -0.4178
  298TMC3    C6 4490   4.312   1.619  16.031  0.0981 -0.5088  0.8121
  298TMC3     C 4491   4.666   1.549  16.240  0.2616 -0.2149 -0.3176
  298TMC3     O 4492   4.668   1.460  16.326 -0.3166  0.5895  0.1184
  298TMC3     H 4493   4.648   1.620  15.997  0.2261  1.6360  0.8922
  298TMC3    H1 4494   4.428   1.458  16.312 -1.7240  0.9529  1.5855
  298TMC3    H2 4495   4.219   1.645  15.982  1.5519  0.3135 -1.4840
  298TMC3    C7 4496   4.187   1.524  16.214 -0.2935 -0.4818 -0.3124
  298TMC3    C8 4497   4.452   1.673  15.840 -0.1128 -0.1101  0.3144
  298TMC3    O1 4498   4.197   1.505  16.333 -0.3836  0.1207  0.1381
  298TMC3    O2 4499   4.565   1.716  15.806  0.4049  0.5285  0.6737
  299MPD2     C 4500   1.204   1.223  10.585 -0.1450  0.7042  0.1801
  299MPD2    C1 4501   1.264   1.332  10.525  0.5178 -0.6190  0.1244
  299MPD2    C2 4502   1.232   1.358  10.395  0.6351 -0.7720 -0.1360
  299MPD2    C3 4503   1.156   1.274  10.322  0.0428  0.2691 -0.5779
  299MPD2    C4 4504   1.111   1.160  10.378 -0.7717 -0.2153  0.2629
  299MPD2    C5 4505   1.128   1.136  10.512  0.3714  0.2296  0.5503
  299MPD2     H 4506   1.286   1.437  10.343  1.3517 -1.5690 -0.6228
  299MPD2    H1 4507   1.062   1.080  10.324  1.0985 -2.0054  1.2346
  299MPD2    H2 4508   1.228   1.183  10.683 -0.0289 -0.5468 -0.3594
  299MPD2    H3 4509   1.096   1.045  10.561 -1.0923  0.8143  0.7018
  299MPD2     N 4510   1.108   1.299  10.191 -0.4434  0.2417 -0.1773
  299MPD2    H5 4511   1.046   1.231  10.149 -1.7851  0.3102  1.6584
  299MPD2    N1 4512   1.339   1.417  10.614 -0.2090  0.0030 -0.2959
  299MPD2    H7 4513   1.341   1.385  10.710 -0.1465  1.8565  0.3030
  300TMC3    C1 4514   1.024   1.435  10.020  0.2666 -0.8796 -0.6691
  300TMC3    C2 4515   0.953   1.555  10.022 -0.2988 -0.6238  0.6623
  300TMC3    C3 4516   0.823   1.550   9.989 -0.4960  0.6717 -0.0238
  300TMC3    C4 4517   0.964   1.315   9.976 -0.6617 -0.3469 -0.6144
  300TMC3    C5 4518   0.828   1.321   9.957  1.0731 -0.2742  0.4606
  300TMC3    C6 4519   0.759   1.438   9.964  0.0021  0.5390  0.0134
  300TMC3     C 4520   1.122   1.419  10.123  0.4904  0.2000  0.5843
  300TMC3     O 4521   1.194   1.518  10.148  0.0655 -0.9198  0.1723
  300TMC3     H 4522   0.992   1.654  10.045  1.2271 -1.3209  1.0707
  300TMC3    H1 4523   1.008   1.217   9.986  0.6752  0.1187 -2.0135
  300TMC3    H2 4524   0.651   1.430   9.958 -0.0198 -0.5036  1.9595
  300TMC3    C7 4525   0.766   1.209  10.017  0.2766 -0.6354 -0.6254
  300TMC3    C8 4526   0.739   1.646  10.054 -0.2583  0.4240 -0.0718
  300TMC3    O1 4527   0.799   1.102   9.970 -0.5318  0.6940 -0.1834
  300TMC3    O2 4528   0.663   1.711   9.982 -0.2072  0.3495  0.1591
  301MPD2     C 4529   2.417   2.729   1.507  0.5880 -0.0916  0.2035
  301MPD2    C1 4530   2.306   2.694   1.434 -0.5490  0.1768 -0.6257
  301MPD2    C2 4531   2.277   2.566   1.388 -0.4155  0.6258  0.6461
  301MPD2    C3 4532   2.367   2.466   1.428  0.3061 -0.1519 -0.0402
  301MPD2    C4 4533   2.479   2.511   1.500  0.1107 -0.2051  0.5886
  301MPD2    C5 4534   2.506   2.633   1.537  0.6909 -0.0762  0.1817
  301MPD2     H 4535   2.187   2.535   1.336  0.5896 -4.4085  1.8987
  301MPD2    H1 4536   2.551   2.436   1.532  0.8811  0.9086  1.4512
  301MPD2    H2 4537   2.445   2.829   1.537 -0.4785  0.1734  0.3471
  301MPD2    H3 4538   2.600   2.670   1.575  0.1373  0.8762  0.6250
  301MPD2     N 4539   2.357   2.326   1.390  0.4893 -0.3132  0.5477
  301MPD2    H5 4540   2.442   2.272   1.399  0.8574  0.9316  4.4634
  301MPD2    N1 4541   2.206   2.793   1.410  0.2482  0.5974 -0.1266
  301MPD2    H7 4542   2.127   2.751   1.363 -0.3351  1.8429 -0.2582
  302TMC3    C1 4543   2.275   2.138   1.265  0.1234  0.9192  0.2307
  302TMC3    C2 4544   2.400   2.080   1.262  0.1450  0.3414 -0.1991
  302TMC3    C3 4545   2.403   1.948   1.219 -0.2689 -0.5330  0.5772
  302TMC3    C4 4546   2.175   2.091   1.180  0.2072 -0.0026  0.1570
  302TMC3    C5 4547   2.200   1.965   1.119 -0.6226 -0.2772 -0.2851
  302TMC3    C6 4548   2.302   1.888   1.158  1.1602 -0.4425 -0.2307
  302TMC3     C 4549   2.247   2.270   1.321  0.3950 -0.3137  0.5458
  302TMC3     O 4550   2.135   2.320   1.290  0.2272 -0.0318  0.0759
  302TMC3     H 4551   2.480   2.132   1.314 -1.0502  4.3945 -2.4338
  302TMC3    H1 4552   2.073   2.127   1.174 -0.0766 -0.6244  1.3011
  302TMC3    H2 4553   2.317   1.790   1.114  0.3895  0.9065 -3.5367
  302TMC3    C7 4554   2.116   1.914   1.006  0.1557  0.3260 -0.4151
  302TMC3    C8 4555   2.531   1.879   1.229 -0.2253 -0.5660  0.9506
  302TMC3    O1 4556   2.111   1.794   1.000 -0.0870  0.1176 -0.1485
  302TMC3    O2 4557   2.626   1.946   1.270 -0.5056  0.7012 -0.2416
  303MPD2     C 4558   3.795   0.851  10.645 -0.4472 -0.2993 -0.2918
  303MPD2    C1 4559   3.718   0.742  10.661  0.3554 -0.1981 -0.1444
  303MPD2    C2 4560   3.695   0.662  10.546 -0.0704 -0.2833 -0.0014
  303MPD2    C3 4561   3.736   0.693  10.425 -0.6404 -0.0177 -0.3054
  303MPD2    C4 4562   3.822   0.804  10.415 -0.7994 -0.0369  0.3115
  303MPD2    C5 4563   3.856   0.879  10.524 -0.6873  0.2089 -0.5374
  303MPD2     H 4564   3.632   0.575  10.557 -0.5409  0.0602  0.0049
  303MPD2    H1 4565   3.858   0.838  10.319  0.4530 -1.6152  0.2416
  303MPD2    H2 4566   3.807   0.923  10.725 -0.1817 -1.7002  0.9501
  303MPD2    H3 4567   3.911   0.972  10.513  0.1622 -0.4011 -1.4456
  303MPD2     N 4568   3.688   0.636  10.308 -0.4155 -0.0263 -0.4574
  303MPD2    H5 4569   3.725   0.677  10.224 -4.0204  0.4206 -1.8487
  303MPD2    N1 4570   3.671   0.721  10.788  0.2796  0.0602 -0.7867
  303MPD2    H7 4571   3.717   0.781  10.855 -0.1050  0.4630 -0.8820
  304TMC3    C1 4572   3.529   0.653  10.960  0.2773 -0.8526  0.0148
  304TMC3    C2 4573   3.500   0.787  10.980  0.1522 -0.2452  0.1180
  304TMC3    C3 4574   3.418   0.819  11.085 -0.8628  0.0339  0.3804
  304TMC3    C4 4575   3.475   0.556  11.039 -1.4900  0.1064  0.7322
  304TMC3    C5 4576   3.375   0.589  11.125  0.2006  0.0683  0.1474
  304TMC3    C6 4577   3.349   0.721  11.156 -0.8473  0.2801 -0.4559
  304TMC3     C 4578   3.593   0.619  10.833 -0.2814  0.6457  0.3983
  304TMC3     O 4579   3.538   0.525  10.774 -0.1412 -0.1005 -0.7695
  304TMC3     H 4580   3.546   0.864  10.920 -2.1696  0.6788 -0.4464
  304TMC3    H1 4581   3.502   0.454  11.019  0.2220  0.8393 -0.6365
  304TMC3    H2 4582   3.276   0.760  11.226  0.5689  2.9844 -0.4843
  304TMC3    C7 4583   3.258   0.511  11.098  0.8629 -0.0929 -0.0692
  304TMC3    C8 4584   3.320   0.906  11.026 -0.8422  0.1207 -1.0830
  304TMC3    O1 4585   3.157   0.580  11.097 -0.1150  0.4972  0.5981
  304TMC3    O2 4586   3.343   1.023  11.005 -0.2044  0.2010 -0.3460
  305MPD2     C 4587   1.275   2.803  13.958  0.1981 -0.6976 -0.1053
  305MPD2    C1 4588   1.401   2.774  14.000  0.3708  0.3103  0.5296
  305MPD2    C2 4589   1.496   2.744  13.904  0.1129  0.8286 -0.3364
  305MPD2    C3 4590   1.459   2.742  13.769  0.2631  0.2558 -0.3397
  305MPD2    C4 4591   1.331   2.768  13.736  0.4514 -0.3360 -0.3174
  305MPD2    C5 4592   1.239   2.805  13.828 -0.2509  0.2408  0.1938
  305MPD2     H 4593   1.595   2.720  13.942 -0.3647 -1.7052 -0.6931
  305MPD2    H1 4594   1.297   2.757  13.634 -0.7855  1.2713 -0.0727
  305MPD2    H2 4595   1.195   2.820  14.030 -0.7694 -0.2733 -1.2818
  305MPD2    H3 4596   1.138   2.820  13.793  0.3246  3.7177  0.0723
  305MPD2     N 4597   1.554   2.733  13.659 -0.0509  0.0390  0.4702
  305MPD2    H5 4598   1.509   2.732  13.568  4.1917  0.4335 -1.6201
  305MPD2    N1 4599   1.418   2.762  14.137 -0.3133  0.4880  0.3242
  305MPD2    H7 4600   1.343   2.797  14.195  2.0012  1.4816  2.6918
  306TMC3    C1 4601   1.540   2.720  14.345  0.2710  0.3926 -0.1368
  306TMC3    C2 4602   1.649   2.668  14.404  0.4316 -0.0597  0.0590
  306TMC3    C3 4603   1.667   2.680  14.541 -0.0131 -0.9041 -0.2572
  306TMC3    C4 4604   1.454   2.798  14.412  0.0250 -0.7374 -0.1927
  306TMC3    C5 4605   1.475   2.822  14.549 -0.5426  0.2702 -0.1504
  306TMC3    C6 4606   1.582   2.758  14.609  0.6732 -0.1779  0.1008
  306TMC3     C 4607   1.538   2.735  14.203 -0.0541 -0.2918  0.2946
  306TMC3     O 4608   1.651   2.725  14.152 -0.1340  0.3316  0.0367
  306TMC3     H 4609   1.722   2.614  14.344  1.0477 -0.3116  1.0243
  306TMC3    H1 4610   1.376   2.850  14.358  0.7235 -0.1204 -0.6019
  306TMC3    H2 4611   1.582   2.745  14.716  3.2761 -0.7602  0.0262
  306TMC3    C7 4612   1.376   2.899  14.617  0.2085 -0.1012  0.3593
  306TMC3    C8 4613   1.790   2.616  14.603 -0.9270  0.2890 -0.4953
  306TMC3    O1 4614   1.267   2.923  14.557  0.1091 -0.1145  0.0957
  306TMC3    O2 4615   1.852   2.530  14.540  0.2326 -0.3379 -0.1677
  307MPD2     C 4616   3.722   0.685   0.096 -0.6839  0.0298 -0.8381
  307MPD2    C1 4617   3.699   0.776   0.201 -0.2723 -0.3478 -0.6717
  307MPD2    C2 4618   3.637   0.728   0.311  0.5916  0.7799 -0.0856
  307MPD2    C3 4619   3.614   0.590   0.332 -0.5700  0.7093  0.6180
  307MPD2    C4 4620   3.655   0.501   0.237 -0.0729 -0.1797  0.5688
  307MPD2    C5 4621   3.706   0.550   0.119  0.5968 -0.4039 -0.4536
  307MPD2     H 4622   3.599   0.800   0.383  1.9293  1.1298  0.2645
  307MPD2    H1 4623   3.644   0.394   0.249 -0.7489 -0.3717 -1.6586
  307MPD2    H2 4624   3.762   0.714  17.694 -0.5744  0.5795 -0.6288
  307MPD2    H3 4625   3.720   0.472   0.046 -1.1469 -2.3424  1.2632
  307MPD2     N 4626   3.530   0.551   0.444 -0.3417  0.8335  0.7073
  307MPD2    H5 4627   3.492   0.636   0.485 -0.6819  0.6128  0.8521
  307MPD2    N1 4628   3.705   0.916   0.170 -0.1533  0.1343 -0.3478
  307MPD2    H7 4629   3.656   0.975   0.238 -0.1181  0.2709 -0.4417
  308TMC3    C1 4630   3.154   0.465   0.624  0.0754 -0.1179  0.1018
  308TMC3    C2 4631   3.176   0.573   0.703 -0.0012 -0.1418  0.4528
  308TMC3    C3 4632   3.303   0.598   0.736 -0.2463 -0.2735  0.6856
  308TMC3    C4 4633   3.256   0.392   0.565  0.3220  0.0442  0.4515
  308TMC3    C5 4634   3.385   0.433   0.590  0.1867  0.7654 -0.4594
  308TMC3    C6 4635   3.411   0.527   0.687 -0.2190 -0.3149  0.0529
  308TMC3     C 4636   3.018   0.438   0.586 -0.1391 -0.1930 -0.9666
  308TMC3     O 4637   2.995   0.327   0.540  0.4596  0.2346  0.6178
  308TMC3     H 4638   3.090   0.615   0.756 -0.2775 -0.2123  0.0614
  308TMC3    H1 4639   3.242   0.325   0.481  0.1868  2.0964 -1.1604
  308TMC3    H2 4640   3.516   0.551   0.700 -0.4427  0.0748  1.1381
  308TMC3    C7 4641   3.472   0.430   0.471  0.2048  0.3647 -0.0851
  308TMC3    C8 4642   3.330   0.687   0.841 -0.0164 -0.0259 -0.7865
  308TMC3    O1 4643   3.483   0.324   0.413 -0.2653  0.4253 -0.0570
  308TMC3    O2 4644   3.424   0.648   0.914  0.2949 -0.3047  0.0568
  309MPD2     C 4645   2.674   1.121  17.363  0.4124  0.2360 -0.3741
  309MPD2    C1 4646   2.667   1.232  17.278  0.4310 -0.1614 -0.7176
  309MPD2    C2 4647   2.576   1.328  17.300 -0.3136 -0.0242  0.4942
  309MPD2    C3 4648   2.481   1.311  17.400 -0.1016  0.2958  0.8932
  309MPD2    C4 4649   2.482   1.199  17.481 -0.3076  0.3766 -0.2716
  309MPD2    C5 4650   2.579   1.104  17.466  0.3713 -0.3704 -0.6126
  309MPD2     H 4651   2.573   1.422  17.245 -0.2868 -0.7374 -0.7280
  309MPD2    H1 4652   2.408   1.191  17.560 -0.4165  0.8070 -0.3314
  309MPD2    H2 4653   2.742   1.039  17.344  1.0135  0.0656  2.5371
  309MPD2    H3 4654   2.579   1.014  17.527 -0.6681 -0.0441 -0.1296
  309MPD2     N 4655   2.376   1.403  17.412 -0.0254  0.1243  0.6383
  309MPD2    H5 4656   2.305   1.385  17.482 -1.6246  0.3533 -0.9159
  309MPD2    N1 4657   2.747   1.255  17.163  0.4744  0.3203  0.6267
  309MPD2    H7 4658   2.738   1.348  17.125 -0.2805 -0.1544 -0.3408
  310TMC3    C1 4659   2.901   1.230  16.989  0.6594  0.5487 -0.2661
  310TMC3    C2 4660   2.841   1.324  16.908 -0.5607  0.2395 -0.3301
  310TMC3    C3 4661   2.914   1.372  16.794 -0.7214  0.0772  0.4557
  310TMC3    C4 4662   3.023   1.182  16.960 -0.8431  0.1204 -0.0784
  310TMC3    C5 4663   3.086   1.218  16.843 -0.8288 -0.1614 -0.4139
  310TMC3    C6 4664   3.043   1.325  16.766  0.0461 -0.4784  0.5610
  310TMC3     C 4665   2.837   1.174  17.111 -0.1143  0.2151  0.3673
  310TMC3     O 4666   2.856   1.051  17.134 -0.2366 -0.0084  0.3740
  310TMC3     H 4667   2.743   1.364  16.932 -0.1076  0.7664  0.6306
  310TMC3    H1 4668   3.047   1.091  17.015  1.9774  0.5837 -0.5584
  310TMC3    H2 4669   3.096   1.358  16.677 -1.5295 -1.0953 -0.6008
  310TMC3    C7 4670   3.206   1.153  16.788 -0.0280  0.3072  0.0726
  310TMC3    C8 4671   2.871   1.479  16.700 -0.0873 -0.0802  0.4846
  310TMC3    O1 4672   3.236   1.194  16.679 -0.6415 -0.3356  0.4434
  310TMC3    O2 4673   2.945   1.511  16.609 -0.2548  0.3729 -0.2106
  311MPD2     C 4674   0.796   2.384  12.334 -0.3259  0.4842 -0.4151
  311MPD2    C1 4675   0.811   2.476  12.438 -0.5825  0.2956 -0.1997
  311MPD2    C2 4676   0.716   2.478  12.538 -0.4497  0.0539  0.3287
  311MPD2    C3 4677   0.600   2.406  12.533  0.1697  0.2605 -0.3138
  311MPD2    C4 4678   0.581   2.324  12.426  0.1174 -0.3469  0.6027
  311MPD2    C5 4679   0.683   2.302  12.337 -0.2913  0.7197 -0.1666
  311MPD2     H 4680   0.719   2.557  12.611 -0.6355  0.7178 -0.3752
  311MPD2    H1 4681   0.496   2.259  12.410  1.7679 -2.4488  0.3004
  311MPD2    H2 4682   0.862   2.383  12.248  1.3106 -0.2480  0.8181
  311MPD2    H3 4683   0.677   2.221  12.265  1.2783 -1.3197  2.0189
  311MPD2     N 4684   0.507   2.428  12.634  0.1565 -0.1445 -0.1924
  311MPD2    H5 4685   0.520   2.513  12.686  0.6523 -1.8157  2.3933
  311MPD2    N1 4686   0.913   2.570  12.438  0.3632  0.2045  0.2267
  311MPD2    H7 4687   0.907   2.641  12.510  0.2306 -0.5382  0.9387
  312TMC3    C1 4688   0.289   2.440  12.709 -0.5174 -0.1372 -0.1275
  312TMC3    C2 4689   0.180   2.496  12.655 -0.0045  0.1463  0.7097
  312TMC3    C3 4690   0.105   2.576  12.735 -0.0472 -0.2304  0.3768
  312TMC3    C4 4691   0.327   2.460  12.837  0.0094 -0.1357 -0.1984
  312TMC3    C5 4692   0.241   2.533  12.917 -0.0214  0.5767  0.3459
  312TMC3    C6 4693   0.130   2.595  12.869  0.1534  0.3313 -0.0919
  312TMC3     C 4694   0.383   2.371  12.626 -0.2751  0.5214 -0.4477
  312TMC3     O 4695   0.326   2.308  12.541 -0.6913 -0.0447  0.3895
  312TMC3     H 4696   0.172   2.481  12.548  0.2565  3.6986  0.1742
  312TMC3    H1 4697   0.411   2.399  12.868 -0.6673 -0.9349  0.0593
  312TMC3    H2 4698   0.050   2.644  12.923 -0.3161 -0.2200 -0.2862
  312TMC3    C7 4699   0.265   2.530  13.059  0.0426 -0.3125 -0.2715
  312TMC3    C8 4700   4.714   2.640  12.670 -0.3322  0.3836  0.7056
  312TMC3    O1 4701   0.347   2.447  13.093 -0.6906  0.0559 -0.0300
  312TMC3    O2 4702   4.689   2.604  12.558  0.2327 -0.1782 -0.5164
  313MPD2     C 4703   0.073   1.561  10.810 -0.0545 -0.6511  0.0421
  313MPD2    C1 4704   0.093   1.692  10.755  0.2735  0.1562  0.2501
  313MPD2    C2 4705   0.175   1.703  10.644  0.3247  0.5735 -0.4104
  313MPD2    C3 4706   0.219   1.590  10.582 -0.1071 -0.4652  0.1086
  313MPD2    C4 4707   0.180   1.462  10.623 -0.1757  0.3268 -0.2546
  313MPD2    C5 4708   0.107   1.449  10.734  0.1893  0.5934 -0.0456
  313MPD2     H 4709   0.197   1.801  10.606 -0.8575  0.2020 -2.0514
  313MPD2    H1 4710   0.210   1.368  10.578  2.3818  0.3675  1.3840
  313MPD2    H2 4711   0.034   1.541  10.910  1.0770  0.4836  0.7136
  313MPD2    H3 4712   0.080   1.348  10.764  0.7660  1.1211  2.2968
  313MPD2     N 4713   0.297   1.588  10.461  0.6023  0.3192 -0.6568
  313MPD2    H5 4714   0.343   1.503  10.429  1.1924  0.4493 -0.1544
  313MPD2    N1 4715   0.054   1.811  10.821  0.4103 -0.1402  0.7595
  313MPD2    H7 4716   0.093   1.894  10.779 -2.7219  0.5511 -0.7802
  314TMC3    C1 4717   4.669   1.946  10.960 -0.2783 -1.0527  0.8334
  314TMC3    C2 4718   0.053   2.025  10.991  0.8823 -0.4955 -0.0816
  314TMC3    C3 4719   0.035   2.157  10.967  0.5831 -0.0270 -0.0393
  314TMC3    C4 4720   4.563   1.993  10.885 -0.0514  0.0632 -0.1291
  314TMC3    C5 4721   4.553   2.127  10.866 -0.3503  0.4750 -0.1157
  314TMC3    C6 4722   4.652   2.216  10.909 -0.1155  0.7249 -0.1431
  314TMC3     C 4723   4.693   1.814  10.923  0.9322  0.0905 -0.4601
  314TMC3     O 4724   4.620   1.732  10.974  0.1163  0.4438  0.0070
  314TMC3     H 4725   0.146   1.976  11.017  1.3231 -0.0123 -0.7477
  314TMC3    H1 4726   4.486   1.927  10.847 -0.1769 -0.1884  0.5508
  314TMC3    H2 4727   4.641   2.323  10.896 -0.8084  0.7948  1.0379
  314TMC3    C7 4728   4.485   2.153  10.742 -0.1216  0.2818  0.4458
  314TMC3    C8 4729   0.149   2.243  10.973  0.2911  0.2723  0.6101
  314TMC3    O1 4730   4.398   2.081  10.698  0.3636 -0.0729  0.1564
  314TMC3    O2 4731   0.151   2.338  10.896  0.5182 -0.8202 -0.3987
  315MPD2     C 4732   3.708   1.651   0.320 -0.4433 -0.1936 -0.2167
  315MPD2    C1 4733   3.804   1.587   0.250  0.2578  0.3126 -1.1622
  315MPD2    C2 4734   3.884   1.657   0.160 -0.2956 -0.8953  0.0414
  315MPD2    C3 4735   3.868   1.792   0.138 -0.7541  0.1645 -0.5376
  315MPD2    C4 4736   3.757   1.858   0.202  0.2704 -0.0647  0.7216
  315MPD2    C5 4737   3.683   1.786   0.293 -0.3279  0.7680 -0.4436
  315MPD2     H 4738   3.968   1.604   0.117  0.5141 -0.4706  1.1129
  315MPD2    H1 4739   3.748   1.966   0.195  1.0724 -0.1366 -1.5468
  315MPD2    H2 4740   3.633   1.600   0.378 -1.6540  0.6103 -1.0822
  315MPD2    H3 4741   3.604   1.841   0.342  1.5223  2.5330  0.5867
  315MPD2     N 4742   3.982   1.854   0.081  0.0186  1.0246  0.2473
  315MPD2    H5 4743   4.053   1.800   0.032 -0.4653 -0.1887  0.9000
  315MPD2    N1 4744   3.839   1.451   0.284 -0.1627 -0.3114  0.0180
  315MPD2    H7 4745   3.921   1.418   0.233 -0.6725  1.5522 -2.0130
  316TMC3    C1 4746   4.114   2.032   0.021 -0.2288 -0.0137  0.5124
  316TMC3    C2 4747   4.214   2.083   0.096  0.4884  0.1800  0.0208
  316TMC3    C3 4748   4.342   2.069   0.038 -0.6036  0.0346 -0.2513
  316TMC3    C4 4749   4.128   1.986  17.587 -0.8003  0.0226 -0.1860
  316TMC3    C5 4750   4.259   1.965  17.539 -0.3341 -0.2131 -0.1744
  316TMC3    C6 4751   4.371   1.995  17.619  0.0146  0.6464 -0.2054
  316TMC3     C 4752   4.008   1.986   0.103 -0.9287 -0.2906 -0.2784
  316TMC3     O 4753   3.969   2.049   0.199 -0.2292  0.4843  0.4228
  316TMC3     H 4754   4.200   2.127   0.193 -1.7190 -0.9861  0.2452
  316TMC3    H1 4755   4.038   1.946  17.540 -0.2119 -1.3992 -0.0919
  316TMC3    H2 4756   4.475   1.987  17.589  0.2812  0.8032  0.6859
  316TMC3    C7 4757   4.284   1.885  17.421 -0.1203 -0.3884  0.0931
  316TMC3    C8 4758   4.451   2.093   0.139 -0.9134 -0.4918 -0.5565
  316TMC3    O1 4759   4.399   1.852  17.400 -0.6381 -0.0974 -0.4164
  316TMC3    O2 4760   4.437   2.192   0.211  0.0203  0.4485 -0.2565
  317MPD2     C 4761   1.845   4.694  13.080 -0.2533 -0.3171 -0.0826
  317MPD2    C1 4762   1.793   4.576  13.040 -1.2278 -0.0073 -0.1321
  317MPD2    C2 4763   1.814   4.468  13.123 -0.3235 -0.7246  0.6728
  317MPD2    C3 4764   1.891   4.469  13.231 -0.7960  0.4219  0.0692
  317MPD2    C4 4765   1.961   4.587  13.254 -0.1771 -0.5628 -0.1341
  317MPD2    C5 4766   1.939   4.700  13.183 -0.9963  0.3020 -0.1171
  317MPD2     H 4767   1.756   4.378  13.104 -2.8365  0.6261  2.1115
  317MPD2    H1 4768   2.048   4.595  13.319 -0.4366 -0.0125  0.1476
  317MPD2    H2 4769   1.846   0.054  13.010 -2.7967 -1.0650 -1.0034
  317MPD2    H3 4770   2.003   0.063  13.197 -1.4573  0.9604 -2.0744
  317MPD2     N 4771   1.921   4.348  13.306 -0.3834 -0.0242  0.1419
  317MPD2    H5 4772   1.877   4.265  13.268  0.8446 -0.8995  0.6433
  317MPD2    N1 4773   1.725   4.548  12.912  0.5774  0.4633  0.3512
  317MPD2    H7 4774   1.683   4.456  12.907  0.1063  0.6347  1.1629
  318TMC3    C1 4775   2.029   4.207  13.458  0.0336  0.4345 -0.3109
  318TMC3    C2 4776   1.967   4.096  13.406 -0.5022  0.3898 -0.2256
  318TMC3    C3 4777   2.031   3.975  13.417  0.9073  0.2481 -0.5617
  318TMC3    C4 4778   2.143   4.187  13.537  0.2013 -0.3749  0.5265
  318TMC3    C5 4779   2.208   4.066  13.535  0.0831  0.4504 -0.4113
  318TMC3    C6 4780   2.154   3.956  13.471 -0.4509  0.4112  0.4599
  318TMC3     C 4781   2.001   4.341  13.417 -0.4704 -0.4796  0.5220
  318TMC3     O 4782   2.061   4.431  13.473  0.3060 -0.2231 -0.2471
  318TMC3     H 4783   1.873   4.110  13.352 -1.7943  1.0660  2.2117
  318TMC3    H1 4784   2.179   4.275  13.589  1.6394 -1.3701  1.2207
  318TMC3    H2 4785   2.190   3.858  13.499 -1.4806  0.6964  2.8011
  318TMC3    C7 4786   2.272   4.047  13.661 -0.5059  0.0114  0.1574
  318TMC3    C8 4787   1.953   3.848  13.392 -0.0967 -0.0170  0.6462
  318TMC3    O1 4788   2.246   4.129  13.748 -0.0374  0.3484  0.3973
  318TMC3    O2 4789   2.008   3.750  13.442 -0.2369 -0.4027  1.1124
  319MPD2     C 4790   2.609   1.036  16.841  0.4885  0.0811  0.3389
  319MPD2    C1 4791   2.513   0.958  16.899 -0.1978 -0.0789 -0.3806
  319MPD2    C2 4792   2.397   0.924  16.829  0.4488 -0.2139  0.5573
  319MPD2    C3 4793   2.372   0.987  16.705  0.5334 -0.1631  0.0916
  319MPD2    C4 4794   2.462   1.076  16.656 -0.1768  0.2152  0.2862
  319MPD2    C5 4795   2.577   1.101  16.722  0.1404  0.5388 -0.6855
  319MPD2     H 4796   2.323   0.853  16.864  1.8963 -1.4002  1.1882
  319MPD2    H1 4797   2.441   1.123  16.561 -0.5502 -1.7632 -0.6140
  319MPD2    H2 4798   2.704   1.062  16.886  1.5273 -0.5190 -1.4726
  319MPD2    H3 4799   2.642   1.173  16.675  2.0437 -0.5595  0.2541
  319MPD2     N 4800   2.259   0.961  16.622  0.3518 -0.2991  0.0765
  319MPD2    H5 4801   2.252   1.019  16.539  1.4989 -0.2179  0.0328
  319MPD2    N1 4802   2.540   0.894  17.022  0.2086 -0.4880 -0.3711
  319MPD2    H7 4803   2.637   0.904  17.049  0.0237 -0.7856  0.4004
  320TMC3    C1 4804   2.055   0.872  16.539  0.2989  0.6028  0.6534
  320TMC3    C2 4805   2.018   0.993  16.480  0.6625  0.1207  0.8005
  320TMC3    C3 4806   1.931   0.985  16.374  0.3746  0.0055  0.2532
  320TMC3    C4 4807   2.008   0.751  16.495 -0.0574  0.1839  0.1144
  320TMC3    C5 4808   1.944   0.751  16.378 -0.1159  0.9977  0.7681
  320TMC3    C6 4809   1.895   0.862  16.328  0.3882  0.1905 -0.6395
  320TMC3     C 4810   2.155   0.874  16.643 -0.3763  0.1991 -0.2074
  320TMC3     O 4811   2.149   0.791  16.736  0.1668  0.2587  0.4867
  320TMC3     H 4812   2.058   1.087  16.516 -0.8398  0.6808  0.9922
  320TMC3    H1 4813   2.059   0.669  16.544 -1.3911 -1.6235 -1.5137
  320TMC3    H2 4814   1.843   0.864  16.233  2.6121 -1.1929 -1.8810
  320TMC3    C7 4815   1.919   0.621  16.307 -0.0351 -0.4565 -0.5068
  320TMC3    C8 4816   1.905   1.100  16.293 -0.1280  0.0897 -0.6417
  320TMC3    O1 4817   1.838   0.620  16.216  0.0528 -0.7902  0.1298
  320TMC3    O2 4818   1.945   1.210  16.330  0.5661  0.4031  0.2170
  321TMC3    C1 4819   2.531   0.744  17.204  0.1563 -0.2430 -0.1606
  321TMC3    C2 4820   2.474   0.638  17.257 -0.5770 -0.2647 -0.1053
  321TMC3    C3 4821   2.527   0.576  17.372 -0.8716  0.0199  0.2514
  321TMC3    C4 4822   2.634   0.814  17.265  0.4053 -0.1535  0.3832
  321TMC3    C5 4823   2.674   0.761  17.380 -0.2316  0.3288  0.2141
  321TMC3    C6 4824   2.624   0.645  17.429 -0.0622  0.1987 -0.0335
  321TMC3     C 4825   2.459   0.811  17.094  0.2814 -0.4655  0.2386
  321TMC3     O 4826   2.339   0.793  17.078 -0.0134 -0.3439  0.3533
  321TMC3     H 4827   2.411   0.580  17.190 -1.5168  0.7757 -0.1059
  321TMC3    H1 4828   2.683   0.905  17.232 -0.0581 -0.6637 -1.7140
  321TMC3    H2 4829   2.670   0.578  17.502 -0.1519  1.2679  1.0009
  321TMC3    C7 4830   2.808   0.783  17.430 -0.2750 -0.1375 -0.9276
  321TMC3    C8 4831   2.584   0.444  17.353  0.5547  0.0061  0.2342
  321TMC3    O1 4832   2.827   0.729  17.538 -0.5747  0.1724  0.5630
  321TMC3    O2 4833   2.655   0.423  17.256  0.0745 -0.1351 -0.1001
  322MPD2     C 4834   1.025   2.114  13.893 -0.0698 -0.5759 -0.1473
  322MPD2    C1 4835   1.123   2.071  13.982 -0.5439  0.3001  0.0034
  322MPD2    C2 4836   1.170   1.943  13.968 -0.2461 -0.1956  0.4918
  322MPD2    C3 4837   1.134   1.859  13.859 -0.2242  0.2398 -0.3375
  322MPD2    C4 4838   1.038   1.906  13.774  0.2660  0.4605 -0.3292
  322MPD2    C5 4839   0.984   2.035  13.794  0.1453  0.0366  0.4430
  322MPD2     H 4840   1.238   1.900  14.040 -0.1429 -0.7101  0.0886
  322MPD2    H1 4841   1.001   1.853  13.687  0.7786 -0.7721  0.2101
  322MPD2    H2 4842   0.989   2.216  13.901  2.7550  0.3786  0.5713
  322MPD2    H3 4843   0.910   2.079  13.727 -0.7546 -0.9980  0.7706
  322MPD2     N 4844   1.202   1.739  13.840 -0.1726  0.4686  0.5656
  322MPD2    H5 4845   1.248   1.701  13.922  0.4236 -0.6214 -0.2778
  322MPD2    N1 4846   1.184   2.160  14.069  0.5135 -0.4738  0.5843
  322MPD2    H7 4847   1.156   2.256  14.053  1.9424  0.0212  1.0768
  323TMC3    C1 4848   1.326   2.220  14.256 -0.4609 -0.4675  0.4515
  323TMC3    C2 4849   1.395   2.301  14.179 -0.2147 -0.3973 -0.3797
  323TMC3    C3 4850   1.494   2.375  14.238  0.1904 -0.0547 -0.1619
  323TMC3    C4 4851   1.354   2.196  14.386 -0.1256  1.0579 -0.3147
  323TMC3    C5 4852   1.454   2.264  14.445 -0.1503  0.3230  0.0308
  323TMC3    C6 4853   1.528   2.357  14.373  0.2450 -0.0197  0.1077
  323TMC3     C 4854   1.242   2.123  14.191 -0.1499 -0.2077 -0.1929
  323TMC3     O 4855   1.219   2.021  14.255  0.3674 -0.4072  0.0023
  323TMC3     H 4856   1.393   2.286  14.071 -1.1262  2.1552 -0.7139
  323TMC3    H1 4857   1.290   2.126  14.439  1.8827 -0.0815  0.6339
  323TMC3    H2 4858   1.604   2.420  14.419  0.9769  2.0316 -3.9089
  323TMC3    C7 4859   1.517   2.186  14.547  0.1508  0.0874  0.3031
  323TMC3    C8 4860   1.617   2.375  14.165 -0.0238 -0.2461 -0.0665
  323TMC3    O1 4861   1.446   2.111  14.612 -1.0078 -0.1401  0.4480
  323TMC3    O2 4862   1.704   2.323  14.234 -0.4436  0.7467 -0.0400
  324MPD2     C 4863   3.194   3.329  14.179 -0.5196  0.2162  0.4064
  324MPD2    C1 4864   3.106   3.405  14.243  0.4584  0.3222  0.3292
  324MPD2    C2 4865   2.970   3.387  14.212 -0.0972 -0.5978 -0.2470
  324MPD2    C3 4866   2.934   3.294  14.114 -0.4024  0.0586 -0.5903
  324MPD2    C4 4867   3.025   3.204  14.062 -0.7254 -0.1102 -0.3859
  324MPD2    C5 4868   3.155   3.227  14.096 -0.1074  0.2605  0.1266
  324MPD2     H 4869   2.895   3.449  14.260  1.0031  1.8147 -1.6434
  324MPD2    H1 4870   3.002   3.128  13.988  1.8197 -1.2940  0.0470
  324MPD2    H2 4871   3.300   3.328  14.202 -0.1753 -1.0770 -1.2487
  324MPD2    H3 4872   3.228   3.161  14.051 -0.3919 -0.0168  0.0807
  324MPD2     N 4873   2.805   3.275  14.063  0.1227  0.5554 -0.7268
  324MPD2    H5 4874   2.773   3.182  14.038  1.9564  0.2359 -1.9093
  324MPD2    N1 4875   3.130   3.501  14.339  0.6144  0.2705 -0.0979
  324MPD2    H7 4876   3.047   3.540  14.381  0.9041  1.7831 -0.9657
  325TMC3    C1 4877   2.573   3.324  14.022 -1.0652  0.0231 -0.3943
  325TMC3    C2 4878   2.555   3.198  13.986  0.7776 -0.3693  0.0435
  325TMC3    C3 4879   2.441   3.170  13.929 -0.0633  0.0322  0.4932
  325TMC3    C4 4880   2.482   3.426  13.996 -0.8326 -0.3152  1.4518
  325TMC3    C5 4881   2.370   3.397  13.938  1.1518  0.8706 -0.1604
  325TMC3    C6 4882   2.347   3.265  13.901 -0.5729 -0.1785 -0.2570
  325TMC3     C 4883   2.704   3.370  14.077 -0.4523  0.0894  0.6860
  325TMC3     O 4884   2.723   3.485  14.101  0.2183  0.7171 -0.1095
  325TMC3     H 4885   2.624   3.114  13.995 -0.1667 -1.2374 -0.8345
  325TMC3    H1 4886   2.517   3.527  14.016 -0.4626  0.4518 -3.0584
  325TMC3    H2 4887   2.267   3.241  13.833 -0.3704 -3.0149  0.5067
  325TMC3    C7 4888   2.293   3.508  13.883  0.1999  0.3189  1.0261
  325TMC3    C8 4889   2.432   3.032  13.886  0.9767 -0.4337 -0.2137
  325TMC3    O1 4890   2.267   3.498  13.765 -0.0602  0.6151 -0.3483
  325TMC3    O2 4891   2.532   2.990  13.826  0.2588 -0.1309  0.4329
  326MPD2     C 4892   4.401   4.509  11.469 -0.0216  0.4886  0.3509
  326MPD2    C1 4893   4.458   4.448  11.360 -0.4345  0.1140  0.7995
  326MPD2    C2 4894   4.584   4.478  11.316  0.8476  0.7985 -0.1390
  326MPD2    C3 4895   4.659   4.576  11.381  0.2989 -0.2150  0.2571
  326MPD2    C4 4896   4.605   4.633  11.500  0.0174  0.0209  0.5066
  326MPD2    C5 4897   4.477   4.599  11.545 -0.5478  0.1600 -0.9429
  326MPD2     H 4898   4.625   4.408  11.244 -1.3198 -0.4140 -0.2082
  326MPD2    H1 4899   4.658   4.712  11.551  0.5472  0.1533 -0.2513
  326MPD2    H2 4900   4.299   4.489  11.498  0.3045  0.0791  1.2077
  326MPD2    H3 4901   4.433   4.654  11.627 -0.2359 -2.4401  0.9610
  326MPD2     N 4902   0.062   4.617  11.334 -0.5610 -0.3579  0.0049
  326MPD2    H5 4903   0.121   4.678  11.390 -2.3525  0.2356  1.2672
  326MPD2    N1 4904   4.371   4.377  11.272 -0.3135 -0.4257 -0.2835
  326MPD2    H7 4905   4.272   4.401  11.273 -0.8082 -2.4451 -1.7390
  327TMC3    C1 4906   4.307   4.265  11.081 -0.0266  0.3693  0.3066
  327TMC3    C2 4907   4.250   4.383  11.040  0.1791  0.1280  0.3913
  327TMC3    C3 4908   4.239   4.415  10.911  0.2808  0.8500 -0.2426
  327TMC3    C4 4909   4.360   4.186  10.983  0.1976 -0.4971  0.0182
  327TMC3    C5 4910   4.361   4.226  10.849  0.2167 -0.5516  0.3864
  327TMC3    C6 4911   4.278   4.326  10.815  0.3152 -0.7501 -0.0501
  327TMC3     C 4912   4.409   4.291  11.175 -0.3265  1.0643 -0.3098
  327TMC3     O 4913   4.520   4.255  11.143 -0.4216 -0.3706  0.2532
  327TMC3     H 4914   4.217   4.451  11.118  0.1783  1.5555 -0.8462
  327TMC3    H1 4915   4.414   4.101  11.024  1.4361  0.0816 -0.4136
  327TMC3    H2 4916   4.274   4.354  10.710  2.3723  0.3554  0.1777
  327TMC3    C7 4917   4.486   4.232  10.784  0.1173 -0.5842  0.2000
  327TMC3    C8 4918   4.187   4.543  10.863 -1.1104 -0.5763 -1.1393
  327TMC3    O1 4919   4.492   4.262  10.665 -0.1207 -0.3306 -0.3697
  327TMC3    O2 4920   4.185   4.569  10.742  0.2183  0.8435 -0.4290
  328MPD2     C 4921   1.502   4.096  17.245  0.0787  0.1641  0.5143
  328MPD2    C1 4922   1.521   4.050  17.111  0.4558  0.2772  0.6395
  328MPD2    C2 4923   1.543   4.139  17.013 -0.2627  0.2576  0.8748
  328MPD2    C3 4924   1.551   4.275  17.037  0.0692  0.5457  0.1651
  328MPD2    C4 4925   1.551   4.322  17.164  0.0856 -0.9383  0.8958
  328MPD2    C5 4926   1.510   4.235  17.267  0.1889  0.3937  0.1103
  328MPD2     H 4927   1.544   4.098  16.912  0.3927 -1.2373  1.4968
  328MPD2    H1 4928   1.544   4.429  17.180 -1.5483 -1.1789  1.8006
  328MPD2    H2 4929   1.467   4.030  17.323 -1.1869  0.5029  0.2248
  328MPD2    H3 4930   1.504   4.264  17.371 -0.5640 -0.1707  0.2204
  328MPD2     N 4931   1.557   4.374  16.940  0.0115 -0.1987  0.3324
  328MPD2    H5 4932   1.551   4.471  16.967  1.9221  0.0331 -0.0734
  328MPD2    N1 4933   1.501   3.915  17.098 -0.3598  0.1238  0.0036
  328MPD2    H7 4934   1.477   3.863  17.182  1.5412 -0.8617 -0.0627
  329TMC3    C1 4935   1.526   3.703  17.020 -0.0726  0.1184  0.1369
  329TMC3    C2 4936   1.525   3.656  17.154 -0.9919  0.4715 -0.1277
  329TMC3    C3 4937   1.500   3.520  17.165 -0.0044 -0.0097  0.4860
  329TMC3    C4 4938   1.539   3.611  16.915  0.5723 -0.4114 -0.1064
  329TMC3    C5 4939   1.518   3.477  16.938 -0.3869  0.4737  0.8622
  329TMC3    C6 4940   1.494   3.428  17.062 -0.6078  0.0333 -0.5248
  329TMC3     C 4941   1.512   3.843  16.984 -0.1135  0.0743  0.2070
  329TMC3     O 4942   1.534   3.883  16.867  0.5468  0.0374  0.0944
  329TMC3     H 4943   1.537   3.716  17.244  0.8083  0.2534 -0.2094
  329TMC3    H1 4944   1.526   3.639  16.811  2.7447  0.6213 -0.0997
  329TMC3    H2 4945   1.469   3.324  17.074 -0.5615  0.2299  1.1792
  329TMC3    C7 4946   1.537   3.373  16.834  0.3829  0.8510  0.2836
  329TMC3    C8 4947   1.456   3.471  17.299  0.1929  0.2254 -0.5199
  329TMC3    O1 4948   1.475   3.393  16.731 -0.7907 -0.0169  0.3574
  329TMC3    O2 4949   1.479   3.354  17.326  0.2835  0.8408 -0.2178
  330TMC3    C1 4950   0.371   4.243   9.262 -0.1269  0.1133 -0.4173
  330TMC3    C2 4951   0.396   4.152   9.362 -0.3518 -0.1181  0.5556
  330TMC3    C3 4952   0.385   4.199   9.495 -0.1163 -0.1136 -0.0674
  330TMC3    C4 4953   0.346   4.377   9.290 -0.0820  0.5121 -0.7217
  330TMC3    C5 4954   0.331   4.418   9.416  0.1574 -0.2811 -0.3145
  330TMC3    C6 4955   0.352   4.332   9.520 -0.0932 -0.1642 -0.7406
  330TMC3     C 4956   0.354   4.184   9.128 -0.5675  0.2484  0.2381
  330TMC3     O 4957   0.378   4.063   9.106  0.0936  0.4684 -0.2623
  330TMC3     H 4958   0.415   4.048   9.338  0.5784  0.3580 -0.7960
  330TMC3    H1 4959   0.343   4.447   9.208 -1.4678  1.0554 -0.1931
  330TMC3    H2 4960   0.346   4.359   9.624 -0.7292  2.0373 -1.3597
  330TMC3    C7 4961   0.294   4.555   9.437  0.5240  0.2469 -0.5879
  330TMC3    C8 4962   0.395   4.109   9.603  0.1525 -0.7314  0.1310
  330TMC3    O1 4963   0.248   4.620   9.341  0.1208  0.0841  0.3562
  330TMC3    O2 4964   0.400   4.154   9.711 -0.3659  0.2144 -0.3470
  331MPD2     C 4965   2.399   2.686  12.586 -0.0166 -0.1659  0.0505
  331MPD2    C1 4966   2.519   2.750  12.545 -0.4981 -0.2015 -0.6330
  331MPD2    C2 4967   2.618   2.661  12.502 -0.6842 -0.2214  0.0663
  331MPD2    C3 4968   2.609   2.523  12.508  0.3225  0.1974 -0.0031
  331MPD2    C4 4969   2.493   2.463  12.568  0.7754 -0.1411 -0.1519
  331MPD2    C5 4970   2.386   2.550  12.591  0.2984 -0.0976  0.4246
  331MPD2     H 4971   2.714   2.701  12.471 -1.5629  1.7555 -0.0813
  331MPD2    H1 4972   2.473   2.357  12.579 -2.0259  0.3526 -0.3666
  331MPD2    H2 4973   2.314   2.751  12.600 -0.0235  0.0076 -0.7893
  331MPD2    H3 4974   2.288   2.513  12.619  0.4222  0.6462  1.8274
  331MPD2     N 4975   2.719   2.446  12.460  0.0689 -0.2090  0.3228
  331MPD2    H5 4976   2.794   2.498  12.414 -1.6263 -1.1118 -3.4393
  331MPD2    N1 4977   2.522   2.884  12.519  0.4308 -0.1458  0.4735
  331MPD2    H7 4978   2.433   2.928  12.499  0.0527 -0.8454  0.6107
  332TMC3    C1 4979   2.874   2.293  12.436  0.2775 -0.3366  0.0662
  332TMC3    C2 4980   2.895   2.311  12.299 -0.8851  0.2401 -0.4336
  332TMC3    C3 4981   2.996   2.394  12.254  0.7458 -0.2446 -0.2781
  332TMC3    C4 4982   2.967   2.339  12.525 -0.3307 -0.0447  0.7340
  332TMC3    C5 4983   3.069   2.421  12.475  0.1315 -0.0417 -0.1259
  332TMC3    C6 4984   3.087   2.449  12.342  0.0024 -0.4614  0.0800
  332TMC3     C 4985   2.737   2.316  12.466  0.3703 -0.2384  0.1717
  332TMC3     O 4986   2.669   2.224  12.517 -0.0465 -0.5300  0.2468
  332TMC3     H 4987   2.815   2.280  12.233  1.0394 -3.1846 -1.1247
  332TMC3    H1 4988   2.952   2.329  12.632  0.7525 -1.1745  0.7717
  332TMC3    H2 4989   3.150   2.528  12.303 -0.7829 -0.5812 -1.4567
  332TMC3    C7 4990   3.155   2.489  12.568 -0.5415  0.7422 -0.0995
  332TMC3    C8 4991   2.975   2.471  12.138  0.4898  0.2387 -0.1033
  332TMC3    O1 4992   3.129   2.486  12.687 -0.0583 -0.3028 -0.0751
  332TMC3    O2 4993   3.019   2.579  12.145  0.4116 -0.4396 -0.0092
  333MPD2     C 4994   3.024   2.532  11.097 -0.3750  0.5847 -0.5094
  333MPD2    C1 4995   3.029   2.422  11.009 -0.6285 -0.2428  0.4293
  333MPD2    C2 4996   2.984   2.299  11.058 -0.0990  0.0376 -0.1234
  333MPD2    C3 4997   2.952   2.274  11.191 -0.7748  0.4320  0.5018
  333MPD2    C4 4998   2.941   2.386  11.273 -0.7688  0.2625 -0.0311
  333MPD2    C5 4999   2.966   2.514  11.221 -0.2158  0.7617 -0.0838
  333MPD2     H 5000   2.995   2.207  11.001  2.3657 -1.2448  2.4170
  333MPD2    H1 5001   2.916   2.385  11.378  0.2590 -1.0031  0.2064
  333MPD2    H2 5002   3.030   2.634  11.061 -0.9087  0.5007 -0.8441
  333MPD2    H3 5003   2.950   2.602  11.282 -0.3239  1.1446 -0.6626
  333MPD2     N 5004   2.931   2.146  11.236  0.4594  0.0170 -0.0705
  333MPD2    H5 5005   2.934   2.073  11.166 -2.7501 -0.4012  0.2222
  333MPD2    N1 5006   3.082   2.442  10.879 -0.0306 -0.4430 -0.7780
  333MPD2    H7 5007   3.102   2.540  10.864  0.0913 -0.3604 -0.0685
  334TMC3    C1 5008   3.176   2.394  10.676 -0.1296  0.2170  0.8875
  334TMC3    C2 5009   3.282   2.327  10.634  0.1070 -0.1019 -0.1095
  334TMC3    C3 5010   3.383   2.390  10.558  0.1791 -0.1764  0.4397
  334TMC3    C4 5011   3.156   2.525  10.636  0.0852  0.4667 -0.2727
  334TMC3    C5 5012   3.253   2.586  10.561  0.6315  0.2395  0.1530
  334TMC3    C6 5013   3.359   2.514  10.512  0.5520  0.3048 -0.5362
  334TMC3     C 5014   3.098   2.343  10.785 -0.1780 -0.0230 -0.2750
  334TMC3     O 5015   3.067   2.221  10.788  0.3617 -0.6321 -0.2142
  334TMC3     H 5016   3.307   2.224  10.657 -0.3644 -0.6716 -2.1557
  334TMC3    H1 5017   3.063   2.577  10.656 -2.3743 -3.1172 -2.3289
  334TMC3    H2 5018   3.432   2.572  10.456  0.3768  0.0086 -1.0665
  334TMC3    C7 5019   3.243   2.724  10.509  0.1367  0.7820 -0.3042
  334TMC3    C8 5020   3.518   2.336  10.564  0.4755 -0.3756 -0.1415
  334TMC3    O1 5021   3.280   2.745  10.397  0.0344  0.1357 -0.0231
  334TMC3    O2 5022   3.527   2.215  10.587  0.7922  0.0342  0.2251
  335TMC3    C1 5023   2.521   4.676  17.137 -0.8223  0.0027  0.1035
  335TMC3    C2 5024   2.479   4.651  17.009 -0.4245 -0.3501 -0.5011
  335TMC3    C3 5025   2.578   4.610  16.921  0.3977 -0.0653  0.5895
  335TMC3    C4 5026   2.653   4.701  17.165  0.3154 -0.3866  0.7432
  335TMC3    C5 5027   2.740   4.666  17.070 -0.2856  0.5371  0.4265
  335TMC3    C6 5028   2.710   4.614  16.948  0.3918  0.4323  1.0460
  335TMC3     C 5029   2.421   4.710  17.231  0.1452 -0.0987 -0.0926
  335TMC3     O 5030   2.318   0.042  17.192 -0.0128 -0.2161  0.2225
  335TMC3     H 5031   2.373   4.635  16.993 -0.9004  1.4058  1.0252
  335TMC3    H1 5032   2.675   0.007  17.267 -2.6666  1.7555  0.7677
  335TMC3    H2 5033   2.781   4.574  16.877  1.1514 -1.2759  2.7645
  335TMC3    C7 5034   2.876   4.709  17.086 -0.5676  0.4071  0.5366
  335TMC3    C8 5035   2.542   4.545  16.798 -0.1584  0.1585 -0.1998
  335TMC3    O1 5036   2.955   4.661  17.004 -0.9104 -0.0148 -0.2266
  335TMC3    O2 5037   2.627   4.525  16.715 -0.4191  0.3335 -0.3633
  336MPD2     C 5038   2.078   2.238  16.517  0.6082 -0.7334  0.6913
  336MPD2    C1 5039   2.084   2.161  16.401  0.0349 -0.2624  0.0598
  336MPD2    C2 5040   2.122   2.032  16.407 -0.4963 -0.0953 -0.6612
  336MPD2    C3 5041   2.151   1.975  16.528  0.6409  0.6873 -0.7174
  336MPD2    C4 5042   2.164   2.054  16.635  0.7596 -0.4879  0.0584
  336MPD2    C5 5043   2.128   2.181  16.629  0.0550  0.3561 -0.4293
  336MPD2     H 5044   2.120   1.975  16.314 -4.4912  1.4253 -1.5253
  336MPD2    H1 5045   2.210   2.019  16.726 -0.4719 -0.4181  0.7038
  336MPD2    H2 5046   2.034   2.337  16.515  0.5705 -0.7976 -1.4834
  336MPD2    H3 5047   2.141   2.237  16.721 -0.6504  0.3274 -0.3104
  336MPD2     N 5048   2.182   1.838  16.540  0.7740  0.2035 -0.1480
  336MPD2    H5 5049   2.196   1.802  16.634  1.5386 -0.5787 -0.5692
  336MPD2    N1 5050   2.049   2.211  16.275 -0.0050  0.6260  0.1211
  336MPD2    H7 5051   2.049   2.145  16.197 -0.8270  1.2112 -0.3777
  337TMC3    C1 5052   2.045   2.376  16.100 -0.0721 -0.6161  0.4716
  337TMC3    C2 5053   1.928   2.331  16.039 -0.3179  0.6102  0.2281
  337TMC3    C3 5054   1.866   2.406  15.950  0.4163 -0.1344 -0.5651
  337TMC3    C4 5055   2.102   2.491  16.061 -0.1164  0.3060  0.7624
  337TMC3    C5 5056   2.028   2.569  15.976 -0.3783  0.6079  0.5591
  337TMC3    C6 5057   1.909   2.531  15.923  0.0349  0.5057 -0.0621
  337TMC3     C 5058   2.067   2.344  16.241  0.6166  0.5685 -0.3457
  337TMC3     O 5059   2.078   2.435  16.319  0.1255 -0.4572  0.3953
  337TMC3     H 5060   1.881   2.239  16.073 -0.0780  0.0997 -0.8296
  337TMC3    H1 5061   2.194   2.530  16.103  1.2140 -2.3768  0.3377
  337TMC3    H2 5062   1.848   2.581  15.849 -1.3816 -0.3675  0.5156
  337TMC3    C7 5063   2.077   2.695  15.927 -0.2877  0.1998  0.2280
  337TMC3    C8 5064   1.733   2.356  15.910 -0.0503  0.5722  0.0015
  337TMC3    O1 5065   2.182   2.728  15.973 -0.2561  0.3871 -0.4554
  337TMC3    O2 5066   1.680   2.275  15.986  0.1094 -0.0354  0.5705
  338MPD2     C 5067   2.256   1.221   1.081 -1.1358 -0.1591  0.5858
  338MPD2    C1 5068   2.230   1.300   0.971 -0.5846  0.6978 -0.8459
  338MPD2    C2 5069   2.138   1.408   0.998 -0.4348 -0.4721  1.0667
  338MPD2    C3 5070   2.084   1.432   1.123 -0.6867  0.0593  0.9853
  338MPD2    C4 5071   2.117   1.352   1.227 -0.0308 -0.2376  0.2899
  338MPD2    C5 5072   2.196   1.241   1.205 -0.3924  0.7848 -0.8828
  338MPD2     H 5073   2.105   1.470   0.916  3.0942  1.6971  1.2586
  338MPD2    H1 5074   2.060   1.360   1.318  0.5175  0.3000  0.5821
  338MPD2    H2 5075   2.324   1.136   1.089 -1.2935 -0.4282 -1.0129
  338MPD2    H3 5076   2.187   1.161   1.277  2.0616  0.6773 -0.6961
  338MPD2     N 5077   1.979   1.524   1.133  0.4804 -0.2766 -0.3304
  338MPD2    H5 5078   1.942   1.564   1.047 -1.0353  0.3199  0.5901
  338MPD2    N1 5079   2.272   1.274   0.844  0.1789 -0.4325  0.2089
  338MPD2    H7 5080   2.253   1.351   0.781  0.6399 -0.0925  0.4870
  339TMC3    C1 5081   1.805   1.652   1.234 -0.1506 -0.4562 -1.1066
  339TMC3    C2 5082   1.715   1.632   1.333 -0.0163  0.4809  0.3605
  339TMC3    C3 5083   1.592   1.672   1.318 -0.5875  0.3858 -0.8725
  339TMC3    C4 5084   1.776   1.711   1.118 -0.7432  0.3361 -0.4341
  339TMC3    C5 5085   1.644   1.743   1.101 -0.1563 -0.0767 -0.2391
  339TMC3    C6 5086   1.554   1.732   1.199  0.0227 -0.4704 -0.4982
  339TMC3     C 5087   1.920   1.560   1.254  0.0017  0.3394  0.5984
  339TMC3     O 5088   1.967   1.558   1.367 -0.0856 -0.2708  0.0220
  339TMC3     H 5089   1.755   1.597   1.427  0.0291  2.6063  1.1258
  339TMC3    H1 5090   1.844   1.714   1.034  1.3835  0.2117  1.2937
  339TMC3    H2 5091   1.455   1.776   1.189  0.1302  0.3093  1.8234
  339TMC3    C7 5092   1.608   1.775   0.956 -0.2063  0.0994 -0.0306
  339TMC3    C8 5093   1.492   1.601   1.392  0.1574  0.4899  0.0805
  339TMC3    O1 5094   1.526   1.865   0.938  0.0549  0.1302  0.1579
  339TMC3    O2 5095   1.379   1.649   1.389 -0.2624 -0.0997 -0.1723
  340MPD2     C 5096   3.057   4.565   9.864 -0.2891  0.5422 -0.0076
  340MPD2    C1 5097   3.020   4.426   9.860 -1.0031 -0.6058 -0.5272
  340MPD2    C2 5098   3.107   4.320   9.889 -0.6116  0.1117 -0.3559
  340MPD2    C3 5099   3.233   4.358   9.932 -0.1052  0.8721 -0.6451
  340MPD2    C4 5100   3.270   4.493   9.921 -0.0264 -0.2694  0.2607
  340MPD2    C5 5101   3.182   4.596   9.897 -0.4226 -0.3583 -0.1712
  340MPD2     H 5102   3.075   4.218   9.905 -0.6499  0.2048  0.1684
  340MPD2    H1 5103   3.373   4.527   9.933 -0.4106  0.0457  2.6482
  340MPD2    H2 5104   2.980   4.640   9.848 -1.3658 -0.3858  0.8203
  340MPD2    H3 5105   3.224   4.696   9.888 -0.6313 -0.2502  0.0273
  340MPD2     N 5106   3.331   4.271   9.982  0.2965 -0.2305  0.5265
  340MPD2    H5 5107   3.420   4.317  10.000  0.9940 -0.8806 -1.2666
  340MPD2    N1 5108   2.884   4.406   9.812 -0.0586  0.7354  0.2583
  340MPD2    H7 5109   2.821   4.486   9.815 -2.7259 -1.4180  0.9773
  341TMC3    C1 5110   2.915   4.211   9.680  0.1391 -0.0256  0.1552
  341TMC3    C2 5111   2.888   4.075   9.682 -0.0808  0.0047 -0.0202
  341TMC3    C3 5112   2.971   4.002   9.598  0.9923 -0.1245  0.6732
  341TMC3    C4 5113   3.013   4.276   9.603 -0.5903 -0.4810  0.0609
  341TMC3    C5 5114   3.096   4.193   9.534 -0.0579  0.3083 -0.3692
  341TMC3    C6 5115   3.083   4.058   9.545  0.6432 -0.0859  0.6829
  341TMC3     C 5116   2.830   4.285   9.768 -0.5148 -0.1058  0.0662
  341TMC3     O 5117   2.713   4.248   9.757  0.1588 -0.1529  0.1903
  341TMC3     H 5118   2.812   4.035   9.748 -0.4055 -0.1503 -0.4928
  341TMC3    H1 5119   3.029   4.383   9.610  1.4326 -0.6536 -1.8821
  341TMC3    H2 5120   3.148   3.990   9.490  1.0954  1.0151 -0.1378
  341TMC3    C7 5121   3.224   4.241   9.477 -0.1855 -0.2799 -0.2361
  341TMC3    C8 5122   2.928   3.874   9.575 -0.4022 -0.2644  0.1937
  341TMC3    O1 5123   3.314   4.166   9.458 -0.3108  0.2568 -0.1179
  341TMC3    O2 5124   2.866   3.812   9.664  0.1689  0.1458 -0.1145
  342MPD2     C 5125   0.002   2.599  17.315 -0.6013  0.9162  0.1746
  342MPD2    C1 5126   0.136   2.629  17.283 -0.2367  0.7984 -0.4458
  342MPD2    C2 5127   0.189   2.752  17.330 -0.5399  0.5925 -0.0101
  342MPD2    C3 5128   0.113   2.838  17.399  0.6170 -0.8396 -0.1327
  342MPD2    C4 5129   4.707   2.801  17.429  0.6120 -0.5382  0.0558
  342MPD2    C5 5130   4.658   2.684  17.389 -0.1720 -0.3360 -0.9404
  342MPD2     H 5131   0.295   2.771  17.319 -0.9250  1.1752 -2.8634
  342MPD2    H1 5132   4.645   2.857  17.498  0.3331 -0.4565 -0.2641
  342MPD2    H2 5133   4.675   2.513  17.273 -0.3069  1.1733 -0.7130
  342MPD2    H3 5134   4.554   2.663  17.414  0.4534  0.4068  2.2532
  342MPD2     N 5135   0.159   2.967  17.433 -0.3644  0.2933 -0.2988
  342MPD2    H5 5136   0.098   3.028  17.486 -3.1900 -1.4784 -1.4838
  342MPD2    N1 5137   0.224   2.542  17.219  0.3758  0.0524 -0.4245
  342MPD2    H7 5138   0.323   2.562  17.221  0.3895  0.0952 -1.4890
  343TMC3    C1 5139   0.294   2.318  17.148  0.5606  0.2391  0.0580
  343TMC3    C2 5140   0.421   2.354  17.119 -0.4960  0.3358 -0.2921
  343TMC3    C3 5141   0.516   2.249  17.098  0.2671 -0.0082 -0.3998
  343TMC3    C4 5142   0.267   2.182  17.165 -0.0008  0.7547  0.0866
  343TMC3    C5 5143   0.359   2.089  17.170  0.4812 -0.3224  0.1872
  343TMC3    C6 5144   0.496   2.118  17.132 -0.7513 -0.7820  0.1330
  343TMC3     C 5145   0.186   2.415  17.174  0.7616  0.1868 -0.2903
  343TMC3     O 5146   0.075   2.359  17.165  0.1258  0.0897 -0.4431
  343TMC3     H 5147   0.434   2.451  17.072 -0.7934 -1.3818 -3.9734
  343TMC3    H1 5148   0.169   2.163  17.208  0.1170  0.2427  0.1298
  343TMC3    H2 5149   0.574   2.043  17.139  0.4242  0.2433 -2.0853
  343TMC3    C7 5150   0.323   1.959  17.212 -0.2673  0.4532  1.0862
  343TMC3    C8 5151   0.636   2.283  17.039 -0.2452 -0.0513  0.0131
  343TMC3    O1 5152   0.209   1.918  17.185  0.4281 -0.5024 -0.1437
  343TMC3    O2 5153   0.678   2.398  17.057  0.2324 -0.4035  0.0027
  344MPD2     C 5154   2.096   1.824  10.535  0.3264  0.0616  0.0972
  344MPD2    C1 5155   1.964   1.835  10.484 -0.5202  0.0836 -0.5270
  344MPD2    C2 5156   1.942   1.892  10.355  0.0524  0.2900  0.1900
  344MPD2    C3 5157   2.049   1.925  10.281  0.0639  0.5136  0.5149
  344MPD2    C4 5158   2.177   1.925  10.329  0.2227  0.3073 -0.0458
  344MPD2    C5 5159   2.197   1.863  10.456 -0.2575 -0.2235 -0.6319
  344MPD2     H 5160   1.842   1.889  10.312  0.5959 -1.1553 -0.9334
  344MPD2    H1 5161   2.260   1.959  10.268 -2.0255  0.7053 -2.8814
  344MPD2    H2 5162   2.126   1.789  10.634  0.8131  1.1988  0.3550
  344MPD2    H3 5163   2.299   1.862  10.492  0.1308  0.5122 -1.7024
  344MPD2     N 5164   2.037   1.988  10.151 -0.6670  0.2486 -0.3537
  344MPD2    H5 5165   2.120   2.007  10.097 -0.0620 -0.0631  0.4608
  344MPD2    N1 5166   1.848   1.781  10.550  0.5200  0.4641  0.0059
  344MPD2    H7 5167   1.761   1.799  10.502  1.0820  0.8262 -0.8844
  345TMC3    C1 5168   1.932   2.104   9.987  0.0891 -0.3012  0.2017
  345TMC3    C2 5169   2.005   2.066   9.883 -0.9602 -0.8450 -0.2612
  345TMC3    C3 5170   2.021   2.148   9.778 -0.3085 -0.4973  0.1687
  345TMC3    C4 5171   1.868   2.224   9.988 -0.2990  0.3832 -0.2648
  345TMC3    C5 5172   1.880   2.308   9.883  0.4157  0.2973 -0.5284
  345TMC3    C6 5173   1.964   2.273   9.784 -0.1944  1.0134 -0.5496
  345TMC3     C 5174   1.916   2.026  10.103 -0.1025  0.8609 -1.0337
  345TMC3     O 5175   1.805   2.045  10.153 -0.1578 -0.2813 -0.3858
  345TMC3     H 5176   2.071   1.981   9.895  0.1332  0.1638  0.9289
  345TMC3    H1 5177   1.802   2.259  10.066  0.4286 -2.0407  1.4483
  345TMC3    H2 5178   1.972   2.335   9.696 -2.0495 -0.3269 -1.6800
  345TMC3    C7 5179   1.868   2.450   9.917 -0.6423  0.6175  0.0909
  345TMC3    C8 5180   2.155   2.151   9.712  0.7264  0.8092  0.1539
  345TMC3    O1 5181   1.834   2.537   9.837  0.3025 -0.4440  0.6464
  345TMC3    O2 5182   2.243   2.081   9.763 -0.5973 -0.3846  0.2994
  346MPD2     C 5183   1.071   3.478  14.079  0.5149 -0.0735  0.2411
  346MPD2    C1 5184   1.189   3.498  14.012  0.0598 -0.2626 -0.0524
  346MPD2    C2 5185   1.293   3.575  14.067  0.2020  1.1755  0.2342
  346MPD2    C3 5186   1.288   3.618  14.198  0.3010 -0.2925 -0.1041
  346MPD2    C4 5187   1.175   3.588  14.270  0.2862 -0.2159 -0.0830
  346MPD2    C5 5188   1.064   3.518  14.215  0.6167 -1.1224  0.0475
  346MPD2     H 5189   1.374   3.605  14.003 -0.3734 -0.2434 -1.1636
  346MPD2    H1 5190   1.180   3.607  14.377 -2.2275  0.5420 -0.1021
  346MPD2    H2 5191   0.992   3.421  14.031 -0.5061  0.8068  0.8681
  346MPD2    H3 5192   0.975   3.506  14.277 -0.1300  0.3103 -0.7386
  346MPD2     N 5193   1.394   3.702  14.247 -0.4069 -0.1557  0.3334
  346MPD2    H5 5194   1.461   3.726  14.175 -0.8215  0.6595  0.2144
  346MPD2    N1 5195   1.204   3.462  13.872  0.3978  0.2010 -0.8146
  346MPD2    H7 5196   1.283   3.498  13.821  1.3724  0.1873  0.7042
  347TMC3    C1 5197   1.536   3.812  14.402  1.1320 -0.1778  0.1898
  347TMC3    C2 5198   1.644   3.779  14.322  0.5592  0.5617 -0.1039
  347TMC3    C3 5199   1.765   3.820  14.377 -0.2049 -0.4806  0.6009
  347TMC3    C4 5200   1.544   3.877  14.520 -0.3336 -0.6843 -0.0750
  347TMC3    C5 5201   1.663   3.917  14.565 -0.4927  0.4511  0.3477
  347TMC3    C6 5202   1.777   3.885  14.494 -0.0433 -0.3417 -0.2921
  347TMC3     C 5203   1.410   3.744  14.379 -0.6101 -0.3230  0.4086
  347TMC3     O 5204   1.357   3.708  14.481 -0.4498  0.5426 -0.2759
  347TMC3     H 5205   1.637   3.720  14.232 -2.0983  1.2070 -0.3117
  347TMC3    H1 5206   1.450   3.891  14.572 -1.0924  1.2321 -1.9609
  347TMC3    H2 5207   1.873   3.930  14.515 -1.0086  1.0912  1.0653
  347TMC3    C7 5208   1.667   3.954  14.704 -0.4883 -0.5701  0.4244
  347TMC3    C8 5209   1.882   3.793  14.297 -0.0073 -0.4877  0.5151
  347TMC3    O1 5210   1.560   3.985  14.758  0.3158 -0.7421 -0.2345
  347TMC3    O2 5211   1.984   3.777  14.361 -0.0742 -0.6759 -0.1750
  348MPD2     C 5212   0.591   2.718  11.838  0.4025  0.1158 -0.0901
  348MPD2    C1 5213   0.673   2.833  11.838 -0.2525 -0.5467  0.8874
  348MPD2    C2 5214   0.626   2.949  11.777  0.2720  0.4881 -0.0403
  348MPD2    C3 5215   0.499   2.954  11.720 -0.1251 -0.8494  0.8111
  348MPD2    C4 5216   0.420   2.837  11.720 -0.9461 -0.3314  0.4762
  348MPD2    C5 5217   0.467   2.722  11.779 -0.2838  0.1999 -0.1587
  348MPD2     H 5218   0.693   3.035  11.773 -1.7990  2.0419 -1.3663
  348MPD2    H1 5219   0.319   2.831  11.681  0.4115 -3.3457 -2.5587
  348MPD2    H2 5220   0.617   2.622  11.880  1.7623  1.3731  1.9773
  348MPD2    H3 5221   0.408   2.633  11.801  0.5776 -1.1167 -3.1675
  348MPD2     N 5222   0.466   3.077  11.656  0.0048 -0.6957 -0.4956
  348MPD2    H5 5223   0.533   3.152  11.675 -0.3155 -0.2878 -0.9838
  348MPD2    N1 5224   0.801   2.831  11.886 -0.1133  0.2134  0.2346
  348MPD2    H7 5225   0.849   2.920  11.877  1.2366 -0.5251  0.1608
  349TMC3    C1 5226   1.005   2.760  11.966 -0.2597  1.0853 -0.5713
  349TMC3    C2 5227   1.074   2.643  11.968 -0.0549  0.0205 -0.0234
  349TMC3    C3 5228   1.188   2.633  11.888 -0.0103 -0.1609  0.2864
  349TMC3    C4 5229   1.050   2.862  11.892 -0.0407 -0.2900  0.3621
  349TMC3    C5 5230   1.148   2.836  11.803 -0.1517 -0.1104 -0.1493
  349TMC3    C6 5231   1.231   2.728  11.800  0.2239 -0.0312  0.0659
  349TMC3     C 5232   0.861   2.734  11.958  0.5791  0.6432  0.2862
  349TMC3     O 5233   0.822   2.622  11.997  0.3212  0.1508 -0.3692
  349TMC3     H 5234   1.037   2.558  12.024 -1.6112  0.8566  0.2386
  349TMC3    H1 5235   0.997   2.957  11.894 -1.1265 -0.8756 -0.5310
  349TMC3    H2 5236   1.305   2.726  11.720 -0.2405 -2.2965 -0.3127
  349TMC3    C7 5237   1.119   2.886  11.673  0.4041 -0.1360  0.5986
  349TMC3    C8 5238   1.280   2.540  11.942 -0.1648 -0.0627  0.5157
  349TMC3    O1 5239   1.082   2.811  11.588  0.0751  0.3722 -0.0617
  349TMC3    O2 5240   1.251   2.491  12.054  0.4211  0.3178  0.1699
  350MPD2     C 5241   4.417   1.505   9.947  0.3613 -0.0114 -0.2764
  350MPD2    C1 5242   4.508   1.407   9.968  0.5198  0.3176  0.5883
  350MPD2    C2 5243   4.643   1.437   9.991  0.3176  0.0790 -0.0762
  350MPD2    C3 5244   4.690   1.565   9.979  0.2369  0.5090  0.1488
  350MPD2    C4 5245   4.600   1.668   9.945  0.3640  0.7997 -0.3153
  350MPD2    C5 5246   4.469   1.635   9.926  0.1703 -0.8743 -0.3223
  350MPD2     H 5247   4.706   1.349   9.991  0.2005 -0.0015 -1.6442
  350MPD2    H1 5248   4.621   1.773   9.928  0.1458  0.6814 -1.3533
  350MPD2    H2 5249   4.310   1.492   9.936  0.3221  1.4389 -1.6787
  350MPD2    H3 5250   4.404   1.718   9.901  0.9872  0.1832  1.0620
  350MPD2     N 5251   0.101   1.585  10.003 -0.8838 -0.2662 -0.1879
  350MPD2    H5 5252   0.153   1.499  10.018  2.1338  1.8444  1.5893
  350MPD2    N1 5253   4.473   1.271   9.985  0.2311  0.7757  0.4564
  350MPD2    H7 5254   4.550   1.206   9.978  0.5545  1.3788 -1.7415
  351TMC3    C1 5255   4.347   1.079   9.995  0.3390 -0.4078  1.2465
  351TMC3    C2 5256   4.462   1.000   9.990 -0.8500 -0.2602 -0.4894
  351TMC3    C3 5257   4.466   0.879   9.933 -0.8229 -0.4271 -0.3557
  351TMC3    C4 5258   4.229   1.023   9.940  0.2948  0.1173  0.6422
  351TMC3    C5 5259   4.235   0.901   9.875 -0.7660  0.1517  0.1702
  351TMC3    C6 5260   4.356   0.829   9.866 -0.1561 -0.2063 -0.1704
  351TMC3     C 5261   4.348   1.223   9.994 -0.2304  0.7175 -0.8606
  351TMC3     O 5262   4.241   1.278   9.989  0.4729  0.1035 -0.0677
  351TMC3     H 5263   4.559   1.036  10.023 -0.5433 -0.0245 -1.6526
  351TMC3    H1 5264   4.143   1.089   9.928  0.7300  0.4124 -0.8392
  351TMC3    H2 5265   4.368   0.738   9.809 -3.8292 -0.5522 -0.3534
  351TMC3    C7 5266   4.125   0.872   9.785 -0.4160 -0.5714 -0.8457
  351TMC3    C8 5267   4.593   0.811   9.920  0.4900 -0.5157  0.9172
  351TMC3    O1 5268   4.031   0.946   9.778 -0.0019 -0.3927 -0.1986
  351TMC3    O2 5269   4.693   0.867   9.869 -0.3034  0.1074 -0.8364
  352MPD2     C 5270   2.272   3.696   1.002  0.3395 -0.5255  0.7552
  352MPD2    C1 5271   2.142   3.682   1.043  0.5032  0.3786  0.3063
  352MPD2    C2 5272   2.098   3.577   1.123  0.2159 -0.4244 -0.1037
  352MPD2    C3 5273   2.185   3.477   1.166  0.4009 -0.0074 -0.3624
  352MPD2    C4 5274   2.319   3.484   1.119 -0.1789 -0.3339  0.0834
  352MPD2    C5 5275   2.357   3.595   1.043  1.1022 -0.1323 -0.5800
  352MPD2     H 5276   1.999   3.576   1.167  1.4364  1.0160  2.6251
  352MPD2    H1 5277   2.400   3.416   1.144  0.1047  0.4600  1.3407
  352MPD2    H2 5278   2.313   3.782   0.950 -0.7380 -1.6906 -2.0255
  352MPD2    H3 5279   2.460   3.595   1.009  0.6624  0.1134 -1.8975
  352MPD2     N 5280   2.149   3.371   1.245 -0.2758 -0.6508  0.2098
  352MPD2    H5 5281   2.228   3.317   1.279  0.8504 -0.0969 -1.5360
  352MPD2    N1 5282   2.060   3.788   0.997  0.2606  1.1714 -0.3558
  352MPD2    H7 5283   2.102   3.847   0.926 -0.4214  2.2467  0.1379
  353TMC3    C1 5284   2.008   3.219   1.352  0.1746 -0.4553 -0.5778
  353TMC3    C2 5285   2.120   3.140   1.377  0.2328 -0.0560  0.3552
  353TMC3    C3 5286   2.105   3.003   1.379 -0.1053 -0.2940  0.7567
  353TMC3    C4 5287   1.882   3.167   1.331  0.5083 -0.2885 -0.0369
  353TMC3    C5 5288   1.869   3.030   1.341  0.0270  0.5782 -0.7688
  353TMC3    C6 5289   1.975   2.949   1.358 -0.3417  0.0927 -0.0110
  353TMC3     C 5290   2.023   3.342   1.283  0.4591 -0.3561 -0.6674
  353TMC3     O 5291   1.921   3.404   1.269  0.4089 -0.4190 -0.0517
  353TMC3     H 5292   2.212   3.186   1.412  0.1912 -1.1501  1.8933
  353TMC3    H1 5293   1.793   3.223   1.304  1.2375  0.8339 -0.0812
  353TMC3    H2 5294   1.967   2.842   1.341  2.6129 -0.5180  2.4480
  353TMC3    C7 5295   1.751   2.969   1.293 -0.0110  0.2520  0.2697
  353TMC3    C8 5296   2.217   2.925   1.431  0.3384 -0.2130  0.0599
  353TMC3    O1 5297   1.646   3.034   1.317  0.0994  0.2716 -0.5280
  353TMC3    O2 5298   2.318   2.983   1.469 -0.1543 -0.1444  0.0660
  354TMC3    C1 5299   4.288   4.454  13.135 -0.1735 -0.1888  0.3347
  354TMC3    C2 5300   4.219   4.565  13.094  0.9433 -0.3818  0.2682
  354TMC3    C3 5301   4.251   4.629  12.972  0.9519 -0.0766  0.4379
  354TMC3    C4 5302   4.392   4.404  13.060 -0.2587  0.0986  0.3219
  354TMC3    C5 5303   4.421   4.477  12.942  0.1286  0.0342  0.0491
  354TMC3    C6 5304   4.351   4.580  12.896  0.1265 -0.2136 -0.5407
  354TMC3     C 5305   4.252   4.400  13.261 -0.0584  0.2589  0.2246
  354TMC3     O 5306   4.147   4.436  13.306 -0.2356 -0.4767 -0.1784
  354TMC3     H 5307   4.135   4.597  13.156  0.9886 -1.4380  0.8774
  354TMC3    H1 5308   4.453   4.322  13.095 -0.2643 -0.1953 -0.3491
  354TMC3    H2 5309   4.363   4.627  12.799  1.0139 -1.6915 -1.1413
  354TMC3    C7 5310   4.521   4.415  12.864  0.4398 -0.3624 -0.7351
  354TMC3    C8 5311   4.224   0.044  12.942 -1.0011  0.3890  0.6688
  354TMC3    O1 5312   4.542   4.295  12.880 -0.0514 -0.1082  0.0608
  354TMC3    O2 5313   4.275   0.095  12.842  0.5964  0.2175  0.1133
  355MPD2     C 5314   4.246   0.713  11.910  0.3178  0.0318 -0.9282
  355MPD2    C1 5315   4.338   0.707  11.808 -0.0867 -0.1205  0.6324
  355MPD2    C2 5316   4.474   0.734  11.829 -0.3868  0.3058  0.4083
  355MPD2    C3 5317   4.513   0.798  11.940 -0.5980  0.4457 -0.1384
  355MPD2    C4 5318   4.420   0.801  12.045 -0.2145 -0.7225  0.6063
  355MPD2    C5 5319   4.288   0.766  12.026  1.0733  1.0953  0.5315
  355MPD2     H 5320   4.550   0.709  11.755 -1.4133 -0.1103 -0.4966
  355MPD2    H1 5321   4.448   0.839  12.142  3.7568  0.0018 -0.8516
  355MPD2    H2 5322   4.140   0.707  11.889  0.2834  2.1411 -1.3397
  355MPD2    H3 5323   4.219   0.772  12.110 -0.9508 -0.4108 -1.0094
  355MPD2     N 5324   4.640   0.862  11.952 -0.2454  0.1184 -0.0138
  355MPD2    H5 5325   4.659   0.884  12.050  1.7876  0.2587 -0.4286
  355MPD2    N1 5326   4.295   0.671  11.681  0.4254 -0.3296  0.9853
  355MPD2    H7 5327   4.223   0.599  11.680 -0.2931  0.3763  1.4720
  356TMC3    C1 5328   0.133   0.943  11.894 -0.2747 -0.0242  0.4580
  356TMC3    C2 5329   0.221   0.976  11.794  1.2244  0.1987 -0.3874
  356TMC3    C3 5330   0.334   1.036  11.829  0.1536  0.0457  0.3768
  356TMC3    C4 5331   0.159   0.963  12.025  0.1878 -0.4517  0.6189
  356TMC3    C5 5332   0.261   1.047  12.059 -0.5471 -0.1389  0.5317
  356TMC3    C6 5333   0.353   1.079  11.960  0.4261  0.1325  0.1544
  356TMC3     C 5334   0.014   0.874  11.854 -0.3769 -0.8984  0.3045
  356TMC3     O 5335   0.015   0.823  11.742 -0.3194 -0.5915  0.0043
  356TMC3     H 5336   0.198   0.950  11.692 -2.8756  2.0330  0.0863
  356TMC3    H1 5337   0.088   0.935  12.102 -1.7603 -0.1242 -1.0564
  356TMC3    H2 5338   0.449   1.124  11.986  0.1541  1.0314 -0.4071
  356TMC3    C7 5339   0.276   1.100  12.195 -0.1645 -0.2001  0.1397
  356TMC3    C8 5340   0.414   1.086  11.719  0.3016 -0.4054 -0.9886
  356TMC3    O1 5341   0.238   1.026  12.283  0.1972  0.2702  0.4302
  356TMC3    O2 5342   0.357   1.101  11.610  0.1292 -0.1766 -0.4491
  357MPD2     C 5343   3.656   0.945   1.891  0.1426  0.2034  0.1371
  357MPD2    C1 5344   3.649   0.872   1.773  0.1329  0.4592 -0.3749
  357MPD2    C2 5345   3.541   0.901   1.684 -0.0431 -0.8564 -0.0243
  357MPD2    C3 5346   3.448   1.001   1.709  0.8687 -0.1228  0.4585
  357MPD2    C4 5347   3.456   1.058   1.835 -0.5159  0.4631 -0.3575
  357MPD2    C5 5348   3.559   1.032   1.922  1.3096  0.4668 -0.6968
  357MPD2     H 5349   3.524   0.832   1.601 -2.5619 -1.5228  1.0669
  357MPD2    H1 5350   3.392   1.141   1.865  1.4484  1.6442  0.5723
  357MPD2    H2 5351   3.721   0.919   1.974  0.1230 -0.7513 -0.1360
  357MPD2    H3 5352   3.574   1.089   2.013  0.2216  0.4454 -0.5064
  357MPD2     N 5353   3.348   1.033   1.621 -0.0320  0.9506 -0.1649
  357MPD2    H5 5354   3.267   1.086   1.652  1.2489  2.4810  0.5272
  357MPD2    N1 5355   3.746   0.770   1.749  0.1200 -0.3832  0.4038
  357MPD2    H7 5356   3.816   0.750   1.820  0.9111  1.5714  0.1721
  358TMC3    C1 5357   3.856   0.601   1.609  0.2674  0.2222  0.1288
  358TMC3    C2 5358   3.849   0.545   1.484  0.3206  0.3447  0.1363
  358TMC3    C3 5359   3.907   0.428   1.471  0.0293  0.4320 -0.1110
  358TMC3    C4 5360   3.920   0.543   1.720  0.2864 -0.2600 -0.1481
  358TMC3    C5 5361   3.977   0.418   1.695 -0.2720  1.3455  0.6967
  358TMC3    C6 5362   3.971   0.358   1.572 -0.3739  0.1764  0.0158
  358TMC3     C 5363   3.767   0.720   1.621 -0.1244 -0.5436 -0.8847
  358TMC3     O 5364   3.704   0.742   1.518  0.8001 -0.4164  0.7783
  358TMC3     H 5365   3.804   0.597   1.400  0.2044  0.7783  0.4672
  358TMC3    H1 5366   3.951   0.597   1.809  0.2299 -0.9385  0.2900
  358TMC3    H2 5367   4.002   0.254   1.565 -2.1783 -0.3123 -0.6266
  358TMC3    C7 5368   4.095   0.365   1.768 -0.1025  0.1167 -0.1483
  358TMC3    C8 5369   3.934   0.389   1.335 -0.5967 -0.2777 -0.1264
  358TMC3    O1 5370   4.154   0.276   1.703 -0.3078  0.3183  0.0773
  358TMC3    O2 5371   3.936   0.480   1.252  0.4825 -0.3943 -0.0843
  359MPD2     C 5372   0.058   4.130  12.171 -0.4949 -0.0429 -0.4969
  359MPD2    C1 5373   0.103   3.999  12.185  0.8123  0.0706  0.0828
  359MPD2    C2 5374   0.018   3.905  12.247 -0.8954 -0.4660  0.6420
  359MPD2    C3 5375   4.615   3.945  12.284  0.5063 -0.2399 -0.8432
  359MPD2    C4 5376   4.569   4.071  12.267  0.7620  0.2516 -0.3369
  359MPD2    C5 5377   4.654   4.170  12.207  0.3260 -0.1209  0.2702
  359MPD2     H 5378   0.048   3.807  12.283 -1.3047 -0.3879  1.2064
  359MPD2    H1 5379   4.477   4.100  12.316 -0.4149 -3.2035 -0.4693
  359MPD2    H2 5380   0.125   4.208  12.138 -0.3606  0.6561  1.4159
  359MPD2    H3 5381   4.636   4.275  12.188 -1.6915 -0.5865 -0.4133
  359MPD2     N 5382   4.522   3.852  12.341  0.1985 -0.5281 -0.4786
  359MPD2    H5 5383   4.428   3.890  12.355 -0.3725 -2.1606  0.1640
  359MPD2    N1 5384   0.224   3.946  12.132  0.0302  0.0651 -0.8200
  359MPD2    H7 5385   0.236   3.846  12.146  0.9475  0.0677 -1.5882
  360TMC3    C1 5386   0.436   3.953  12.010  0.6747 -0.3132 -0.3036
  360TMC3    C2 5387   0.556   4.020  11.983 -0.3204  0.9749 -0.2969
  360TMC3    C3 5388   0.660   3.937  11.958  0.1838  0.3129 -0.3420
  360TMC3    C4 5389   0.420   3.818  11.994  0.2594 -0.0347 -0.2586
  360TMC3    C5 5390   0.535   3.744  11.966 -0.7212 -0.0088 -0.1365
  360TMC3    C6 5391   0.653   3.802  11.947 -0.0517  0.2833 -0.8628
  360TMC3     C 5392   0.322   4.028  12.061 -0.0536 -0.4065  0.6256
  360TMC3     O 5393   0.322   4.147  12.040 -0.3189 -1.0286 -0.0003
  360TMC3     H 5394   0.572   4.119  12.025  4.3917  0.4454 -0.7832
  360TMC3    H1 5395   0.323   3.770  11.991  0.1530  0.1687 -0.0919
  360TMC3    H2 5396   0.741   3.741  11.930 -0.3575 -0.3542 -0.1553
  360TMC3    C7 5397   0.540   3.598  11.943 -0.4101  0.5966 -0.3883
  360TMC3    C8 5398   0.786   4.003  11.925 -0.2891 -0.2843 -0.1549
  360TMC3    O1 5399   0.642   3.552  11.992 -0.6992  0.3867  0.2308
  360TMC3    O2 5400   0.810   4.119  11.960  0.2538  0.0267 -0.6964
  361MPD2     C 5401   1.164   2.975  16.705  0.1140 -0.3380 -0.5303
  361MPD2    C1 5402   1.185   3.052  16.815  0.2928 -0.0976 -0.4297
  361MPD2    C2 5403   1.291   3.014  16.902  0.4923 -0.0026 -0.2750
  361MPD2    C3 5404   1.383   2.920  16.870  0.0933 -0.3074  0.9172
  361MPD2    C4 5405   1.364   2.855  16.749 -0.3935  0.2139  0.4255
  361MPD2    C5 5406   1.257   2.877  16.670  0.0396  0.6530  0.1526
  361MPD2     H 5407   1.309   3.062  16.998 -1.3692  0.9426 -0.4022
  361MPD2    H1 5408   1.432   2.780  16.711 -0.2984 -0.5381  2.0452
  361MPD2    H2 5409   1.083   2.986  16.635 -0.4883  0.4037  0.2909
  361MPD2    H3 5410   1.246   2.830  16.572  0.2299 -0.1186  0.4975
  361MPD2     N 5411   1.489   2.868  16.948  0.3193  0.0624  0.0515
  361MPD2    H5 5412   1.547   2.800  16.900  1.4948  2.6982 -2.2572
  361MPD2    N1 5413   1.090   3.148  16.856  0.7171 -0.4061  0.7665
  361MPD2    H7 5414   1.115   3.213  16.930 -2.2658  0.0642  1.3639
  362TMC3    C1 5415   0.896   3.285  16.849  0.2612  0.6336 -0.0222
  362TMC3    C2 5416   0.765   3.274  16.896 -0.1114 -0.4221 -0.4979
  362TMC3    C3 5417   0.683   3.384  16.887 -0.5193  0.3232  0.6228
  362TMC3    C4 5418   0.952   3.396  16.794  0.2467  0.3127 -0.5236
  362TMC3    C5 5419   0.861   3.504  16.788  0.1678  0.2916 -0.1623
  362TMC3    C6 5420   0.727   3.501  16.827 -0.4059  0.1936  1.3735
  362TMC3     C 5421   0.956   3.156  16.812  0.3066 -0.0879  0.1801
  362TMC3     O 5422   0.882   3.082  16.751 -0.3703  0.2882 -0.3600
  362TMC3     H 5423   0.722   3.182  16.931  0.2173  0.1004  1.2777
  362TMC3    H1 5424   1.050   3.389  16.749 -0.4970  1.5706 -2.3239
  362TMC3    H2 5425   0.657   3.584  16.823  1.3373  1.4835 -2.6480
  362TMC3    C7 5426   0.908   3.617  16.703 -0.1128 -0.5086  0.9788
  362TMC3    C8 5427   0.540   3.364  16.901  0.7836 -0.2246  0.3723
  362TMC3    O1 5428   0.831   3.709  16.679 -0.0741 -0.6909 -0.2660
  362TMC3    O2 5429   0.498   3.265  16.842 -0.1134 -0.2308 -0.1126
  363TMC3    C1 5430   1.026   0.816   9.365  0.7012 -0.3388 -0.3936
  363TMC3    C2 5431   0.957   0.714   9.421  0.3084 -0.6349 -0.2033
  363TMC3    C3 5432   0.866   0.751   9.516  0.3394 -0.0848  0.1221
  363TMC3    C4 5433   0.991   0.945   9.366 -0.2383 -0.1808  0.1377
  363TMC3    C5 5434   0.888   0.975   9.444 -0.1531  0.4538 -0.6867
  363TMC3    C6 5435   0.833   0.878   9.531  0.6500 -0.1575  0.1410
  363TMC3     C 5436   1.121   0.793   9.255  0.2326 -0.8637 -0.5772
  363TMC3     O 5437   1.115   0.685   9.197  0.0130 -0.0854 -0.1831
  363TMC3     H 5438   0.979   0.608   9.410  0.1633 -0.8498  1.5037
  363TMC3    H1 5439   1.029   1.019   9.297  0.9771 -0.0810  0.9157
  363TMC3    H2 5440   0.769   0.894   9.617 -0.3846  1.1427 -0.8743
  363TMC3    C7 5441   0.856   1.113   9.466 -0.7131 -0.1744 -0.2088
  363TMC3    C8 5442   0.838   0.657   9.620  0.1225  0.4585 -0.0325
  363TMC3    O1 5443   0.930   1.205   9.424 -0.3616  0.4121  0.1137
  363TMC3    O2 5444   0.838   0.702   9.735 -0.0682 -0.1098  0.5448
  364MPD2     C 5445   4.114   0.327  10.974 -0.0480 -0.4188  0.0699
  364MPD2    C1 5446   4.148   0.262  10.853 -0.8081  0.2150  0.0547
  364MPD2    C2 5447   4.176   0.127  10.845 -0.0159  0.3433  0.6603
  364MPD2    C3 5448   4.162   0.051  10.963  0.3084  0.2370  0.0720
  364MPD2    C4 5449   4.152   0.116  11.084 -0.0743  0.4403  0.5405
  364MPD2    C5 5450   4.126   0.252  11.088 -0.8921 -0.0661 -0.8777
  364MPD2     H 5451   4.195   0.079  10.749 -1.1629  0.0511  0.5743
  364MPD2    H1 5452   4.164   0.054  11.172 -2.5064  0.6615  1.0222
  364MPD2    H2 5453   4.098   0.434  10.982 -0.2581 -0.4374 -0.1336
  364MPD2    H3 5454   4.143   0.310  11.178 -2.2331 -0.6945 -0.2218
  364MPD2     N 5455   4.168   4.632  10.964  0.6137  0.5624  0.5394
  364MPD2    H5 5456   4.157   4.588  11.055 -1.0762  1.7239  0.8943
  364MPD2    N1 5457   4.157   0.344  10.740 -0.0846  0.3336 -0.4929
  364MPD2    H7 5458   4.116   0.437  10.737 -1.6786 -0.2804  1.7409
  365TMC3    C1 5459   4.224   0.427  10.528 -0.3963  0.2715  0.9280
  365TMC3    C2 5460   4.267   0.401  10.399 -0.2167  0.4469 -0.0863
  365TMC3    C3 5461   4.279   0.501  10.308  0.0801  0.9124  0.7132
  365TMC3    C4 5462   4.190   0.555  10.564  0.0012 -0.2707 -0.2695
  365TMC3    C5 5463   4.218   0.656  10.473  0.0693  0.8036  0.9495
  365TMC3    C6 5464   4.255   0.632  10.344 -0.7959 -0.2358  0.2505
  365TMC3     C 5465   4.210   0.308  10.621 -0.1483  0.1033 -0.1017
  365TMC3     O 5466   4.259   0.202  10.583  0.3910 -0.2589 -0.0989
  365TMC3     H 5467   4.280   0.297  10.370  2.1804  0.8625 -0.5213
  365TMC3    H1 5468   4.164   0.580  10.667  0.0066 -3.1868  0.4265
  365TMC3    H2 5469   4.265   0.712  10.272  0.9088 -1.3293 -0.7457
  365TMC3    C7 5470   4.217   0.798  10.513  0.5392 -0.2600  0.3940
  365TMC3    C8 5471   4.321   0.477  10.168 -0.3385  0.2716  0.4016
  365TMC3    O1 5472   4.260   0.876  10.428  0.1891 -0.1834 -0.8988
  365TMC3    O2 5473   4.368   0.569  10.107  0.3925  0.3050  0.0115
  366MPD2     C 5474   1.938   1.098  15.320  0.3657 -0.1264  0.0413
  366MPD2    C1 5475   1.991   1.179  15.411 -1.4167  0.5594 -0.1373
  366MPD2    C2 5476   2.111   1.154  15.472  0.8321  0.4887 -0.0036
  366MPD2    C3 5477   2.180   1.047  15.432  0.1509 -0.1629  0.6349
  366MPD2    C4 5478   2.128   0.955  15.346 -0.7757  0.5419  0.1174
  366MPD2    C5 5479   2.009   0.983  15.289 -0.0651 -0.1692  0.1068
  366MPD2     H 5480   2.134   1.215  15.558 -0.0423 -0.1098  0.6510
  366MPD2    H1 5481   2.184   0.870  15.307 -0.0177  1.6623 -1.2461
  366MPD2    H2 5482   1.836   1.109  15.285  0.6704  0.8107 -0.5420
  366MPD2    H3 5483   1.947   0.914  15.232  1.6482 -0.8265 -0.9323
  366MPD2     N 5484   2.297   1.032  15.503 -0.6935  0.0638 -0.1131
  366MPD2    H5 5485   2.303   1.090  15.586  1.0855 -0.2181 -0.0395
  366MPD2    N1 5486   1.922   1.289  15.455  0.1021  0.4239  1.0307
  366MPD2    H7 5487   1.980   1.354  15.506  0.0252  1.9460 -0.8061
  367TMC3    C1 5488   1.773   1.460  15.474 -0.3314  0.4841  0.1878
  367TMC3    C2 5489   1.850   1.518  15.573  0.0114  0.1914  0.1389
  367TMC3    C3 5490   1.848   1.654  15.590  0.3380  0.3471  0.8408
  367TMC3    C4 5491   1.700   1.536  15.384 -0.1900  0.0522  1.2356
  367TMC3    C5 5492   1.695   1.670  15.412 -0.1847 -1.0168 -0.2191
  367TMC3    C6 5493   1.766   1.736  15.509 -0.2342 -0.0043 -0.7511
  367TMC3     C 5494   1.795   1.326  15.435 -1.2577 -0.3196 -0.1809
  367TMC3     O 5495   1.704   1.265  15.380  0.2307  0.5670 -0.2740
  367TMC3     H 5496   1.905   1.465  15.650  1.0775  1.2481  0.1049
  367TMC3    H1 5497   1.653   1.492  15.296  2.6374  0.9587 -0.7346
  367TMC3    H2 5498   1.755   1.844  15.516 -0.1793 -0.1125  0.9848
  367TMC3    C7 5499   1.616   1.751  15.322  0.1756  0.2079  0.1854
  367TMC3    C8 5500   1.962   1.715  15.659 -0.3370  0.2951  0.1840
  367TMC3    O1 5501   1.645   1.870  15.326  0.1484  0.1969  0.1524
  367TMC3    O2 5502   2.046   1.637  15.703  0.0141 -0.3365  1.2049
  368MPD2     C 5503   3.012   3.491  13.350 -1.1925  0.4163 -0.1031
  368MPD2    C1 5504   2.999   3.613  13.289 -0.4474  0.2726 -0.2268
  368MPD2    C2 5505   3.114   3.681  13.251 -1.0795  0.4234 -0.2730
  368MPD2    C3 5506   3.237   3.616  13.265  0.2260  0.5596  0.0104
  368MPD2    C4 5507   3.244   3.500  13.335  0.6474 -0.5620 -0.7986
  368MPD2    C5 5508   3.133   3.444  13.385 -0.1153 -0.7708  0.2210
  368MPD2     H 5509   3.115   3.780  13.208 -0.5007  0.0442 -1.1467
  368MPD2    H1 5510   3.338   3.463  13.375 -0.2146 -1.9433 -0.0670
  368MPD2    H2 5511   2.926   3.432  13.379  0.2119 -0.7320  1.7344
  368MPD2    H3 5512   3.137   3.345  13.431  0.1983 -0.6200  0.5166
  368MPD2     N 5513   3.358   3.671  13.216  0.1928  0.3859 -0.2311
  368MPD2    H5 5514   3.442   3.623  13.245 -0.8633 -0.0080  2.1454
  368MPD2    N1 5515   2.866   3.654  13.255 -0.2356  0.5914 -0.1206
  368MPD2    H7 5516   2.786   3.604  13.294 -0.1422 -0.4371 -1.2765
  369TMC3    C1 5517   2.699   3.753  13.120 -0.7156  0.2805 -0.3258
  369TMC3    C2 5518   2.696   3.830  13.011 -0.2512 -0.1154  0.3918
  369TMC3    C3 5519   2.684   3.775  12.887  0.0843  0.2197  0.3576
  369TMC3    C4 5520   2.657   3.627  13.109  0.4461  0.5231 -0.3803
  369TMC3    C5 5521   2.626   3.579  12.985 -0.3401 -0.2101 -0.1956
  369TMC3    C6 5522   2.642   3.648  12.869  0.2453 -0.1123  0.0068
  369TMC3     C 5523   2.834   3.764  13.175  0.1852 -0.5653 -0.1723
  369TMC3     O 5524   2.911   3.853  13.135 -0.4400  0.2618 -0.1909
  369TMC3     H 5525   2.722   3.935  13.017 -1.6434  0.0285  4.1055
  369TMC3    H1 5526   2.652   3.556  13.191 -1.6750 -1.4833 -2.2198
  369TMC3    H2 5527   2.649   3.602  12.771  2.8045  0.8174 -0.2662
  369TMC3    C7 5528   2.609   3.440  12.977  0.0168 -0.2418 -0.3392
  369TMC3    C8 5529   2.774   3.835  12.786  0.7706 -0.6404 -0.2441
  369TMC3    O1 5530   2.636   3.369  13.073 -0.0068 -0.0058 -0.1658
  369TMC3    O2 5531   2.763   3.795  12.668 -0.1057  0.0703 -0.5736
  370TMC3    C1 5532   2.608   3.950  16.093 -0.0732 -0.1398  0.1789
  370TMC3    C2 5533   2.515   3.897  16.188 -0.5670 -0.2751 -0.5600
  370TMC3    C3 5534   2.500   3.761  16.197  0.2134 -0.9592 -0.4166
  370TMC3    C4 5535   2.682   3.869  16.011 -0.7160  0.5226 -0.1581
  370TMC3    C5 5536   2.667   3.734  16.026  0.1507  0.1206 -0.5887
  370TMC3    C6 5537   2.572   3.674  16.108  1.6604 -0.2490  0.3057
  370TMC3     C 5538   2.599   4.092  16.077 -0.4004  0.2656 -0.2159
  370TMC3     O 5539   2.521   4.150  16.153 -0.4228  0.4820  0.2130
  370TMC3     H 5540   2.472   3.970  16.256  1.0946  0.6419 -0.5029
  370TMC3    H1 5541   2.760   3.903  15.944 -0.1544 -1.5359 -0.5462
  370TMC3    H2 5542   2.568   3.567  16.126  1.7132 -0.3618 -0.3649
  370TMC3    C7 5543   2.767   3.648  15.970 -0.7150 -0.4542 -1.2556
  370TMC3    C8 5544   2.436   3.699  16.315 -0.2540 -0.4764 -0.1479
  370TMC3    O1 5545   2.874   3.695  15.946  0.2907 -0.8170 -0.1511
  370TMC3    O2 5546   2.446   3.577  16.321  0.4219  0.2291 -0.2068
  371TMC3    C1 5547   3.997   2.298  15.501  0.1873 -0.1070 -0.1493
  371TMC3    C2 5548   3.950   2.293  15.634 -0.0146  0.1764 -0.6667
  371TMC3    C3 5549   3.903   2.409  15.687 -0.1460 -0.2122  0.5314
  371TMC3    C4 5550   4.011   2.416  15.439 -0.4218 -0.9055 -0.1158
  371TMC3    C5 5551   3.970   2.529  15.498 -0.0118 -0.0627  0.1940
  371TMC3    C6 5552   3.905   2.530  15.619  0.2702  0.2024 -0.0713
  371TMC3     C 5553   4.032   2.176  15.416 -0.4795  0.0687  0.8318
  371TMC3     O 5554   4.106   2.190  15.319  0.2194 -0.1895  0.3538
  371TMC3     H 5555   3.951   2.203  15.695 -0.1046  0.1105 -0.7628
  371TMC3    H1 5556   4.060   2.419  15.343 -1.3037  0.5887 -0.5194
  371TMC3    H2 5557   3.874   2.624  15.665  1.2782  0.1819  0.6446
  371TMC3    C7 5558   3.988   2.655  15.427  0.4031  0.2388  0.4807
  371TMC3    C8 5559   3.864   2.418  15.829  0.2112 -0.4672 -0.4522
  371TMC3    O1 5560   3.971   2.756  15.498  0.3166  0.4250 -0.4924
  371TMC3    O2 5561   3.904   2.330  15.903 -0.8221  0.4172 -0.0563
  372MPD2     C 5562   3.808   3.534  13.691  0.0638  0.3042 -0.1462
  372MPD2    C1 5563   3.829   3.422  13.612  0.0901 -0.0759  0.4486
  372MPD2    C2 5564   3.749   3.314  13.634 -0.3572 -0.2420 -0.2624
  372MPD2    C3 5565   3.646   3.308  13.731 -0.6246 -0.5017 -0.5888
  372MPD2    C4 5566   3.618   3.426  13.795 -0.2362 -0.4936  0.1104
  372MPD2    C5 5567   3.701   3.535  13.777  0.8652  0.5326 -0.2755
  372MPD2     H 5568   3.767   3.224  13.577  0.5508 -1.1176  1.3971
  372MPD2    H1 5569   3.546   3.442  13.875 -0.4307  0.6617 -0.3083
  372MPD2    H2 5570   3.874   3.620  13.685  0.4564  0.0926  1.1691
  372MPD2    H3 5571   3.676   3.626  13.830  2.0123  0.0239  1.1493
  372MPD2     N 5572   3.581   3.189  13.763  0.1045  0.1967  0.3162
  372MPD2    H5 5573   3.603   3.106  13.711 -0.1092 -0.5038  1.3374
  372MPD2    N1 5574   3.930   3.409  13.517 -0.1528 -0.4107  0.3748
  372MPD2    H7 5575   3.937   3.319  13.471  1.7948 -0.2557  0.3727
  373TMC3    C1 5576   3.442   3.031  13.868 -0.4114 -0.5814 -0.6312
  373TMC3    C2 5577   3.428   2.968  13.985  0.2177 -0.3951  0.2560
  373TMC3    C3 5578   3.357   2.853  13.989 -0.4373 -0.0436 -0.2425
  373TMC3    C4 5579   3.402   2.978  13.748 -0.7428  0.7225 -0.0263
  373TMC3    C5 5580   3.346   2.852  13.757  0.4598  0.2947 -0.1428
  373TMC3    C6 5581   3.329   2.786  13.878 -0.0019  0.1531 -0.5620
  373TMC3     C 5582   3.497   3.166  13.870  0.6091  0.4260 -0.1016
  373TMC3     O 5583   3.487   3.230  13.974 -0.3578 -0.3325  0.0623
  373TMC3     H 5584   3.460   3.025  14.071  3.5002 -1.3633 -0.2944
  373TMC3    H1 5585   3.421   3.018  13.649  3.0694  1.9545  1.1869
  373TMC3    H2 5586   3.291   2.685  13.876 -0.0645  0.1075  2.5182
  373TMC3    C7 5587   3.371   2.765  13.639 -0.2997 -0.4254 -0.8522
  373TMC3    C8 5588   3.399   2.757  14.091 -0.1098 -0.1168 -0.3817
  373TMC3    O1 5589   3.462   2.809  13.565  0.3301 -0.0417  0.3125
  373TMC3    O2 5590   3.308   2.713  14.157  0.2953 -0.2012 -0.8995
  374TMC3    C1 5591   4.014   3.002   9.686 -0.8841 -0.5777 -0.0210
  374TMC3    C2 5592   4.097   3.102   9.709  0.5619 -0.6116 -0.2449
  374TMC3    C3 5593   4.137   3.177   9.602 -0.2389  0.5993  0.3518
  374TMC3    C4 5594   3.974   2.970   9.560  0.5048  0.0992 -0.2359
  374TMC3    C5 5595   3.997   3.051   9.458  0.7518 -0.5402  0.4898
  374TMC3    C6 5596   4.085   3.159   9.478 -0.1937 -0.1474  0.1920
  374TMC3     C 5597   4.003   2.884   9.776 -0.0186 -0.5527  0.3689
  374TMC3     O 5598   3.926   2.796   9.743  0.0829 -0.1555  0.4811
  374TMC3     H 5599   4.158   3.099   9.798 -1.1231  0.6678  0.9574
  374TMC3    H1 5600   3.910   2.884   9.544  0.2258  0.5991 -1.8145
  374TMC3    H2 5601   4.122   3.219   9.396  1.9032  0.2651  1.4470
  374TMC3    C7 5602   3.946   3.015   9.328 -0.3364  0.4966  0.5794
  374TMC3    C8 5603   4.210   3.299   9.624  0.1407 -0.3756 -0.9707
  374TMC3    O1 5604   3.861   2.931   9.323 -0.2526  0.3211  0.7517
  374TMC3    O2 5605   4.185   3.390   9.543 -0.1381  0.5537 -0.0509
  375MPD2     C 5606   4.182   4.502  16.990 -0.0428 -0.3530  0.5819
  375MPD2    C1 5607   4.075   4.411  16.982 -0.6633  0.4781 -0.4064
  375MPD2    C2 5608   4.102   4.276  16.947 -0.1064 -0.7975  0.0543
  375MPD2    C3 5609   4.234   4.234  16.935  0.9400  0.3180  0.4802
  375MPD2    C4 5610   4.334   4.326  16.944  0.5150  1.0477 -0.3522
  375MPD2    C5 5611   4.306   4.457  16.968  0.1262  0.2116 -0.5944
  375MPD2     H 5612   4.025   4.200  16.936  0.0057 -1.0221  0.8094
  375MPD2    H1 5613   4.434   4.293  16.920 -0.1032 -0.7572 -0.4745
  375MPD2    H2 5614   4.153   4.606  16.986  2.8672  0.4734  0.9224
  375MPD2    H3 5615   4.389   4.526  16.955  0.7189 -0.0673  1.8303
  375MPD2     N 5616   4.283   4.108  16.894 -0.0004 -0.0216 -0.2459
  375MPD2    H5 5617   4.383   4.093  16.903  0.3723  0.8575 -3.0176
  375MPD2    N1 5618   3.935   4.451  16.998 -0.1986 -0.1226  0.0265
  375MPD2    H7 5619   3.866   4.380  16.975  0.4946  0.0844 -2.5980
  376TMC3    C1 5620   4.283   3.901  16.778  0.5592 -0.1403 -0.0192
  376TMC3    C2 5621   4.419   3.891  16.802 -0.1685  0.2756 -0.1419
  376TMC3    C3 5622   4.507   3.877  16.697 -0.5768 -0.0415  0.2884
  376TMC3    C4 5623   4.249   3.894  16.651 -0.4052  0.6472 -0.2393
  376TMC3    C5 5624   4.341   3.898  16.546 -0.4153 -0.2933 -0.6379
  376TMC3    C6 5625   4.473   3.882  16.571 -0.5100 -0.0562 -0.3389
  376TMC3     C 5626   4.207   4.004  16.847 -0.1864  0.4325 -0.3095
  376TMC3     O 5627   4.089   4.007  16.815 -0.3644  0.2082 -0.1142
  376TMC3     H 5628   4.459   3.898  16.902  0.0459 -0.3499 -0.1828
  376TMC3    H1 5629   4.143   3.900  16.632 -0.4445 -0.9441 -0.5715
  376TMC3    H2 5630   4.549   3.883  16.493  0.3564  0.6254  0.5221
  376TMC3    C7 5631   4.297   3.935  16.415 -0.0129 -0.1828 -0.1282
  376TMC3    C8 5632   4.653   3.891  16.723 -0.2936  0.1209  0.3768
  376TMC3    O1 5633   4.379   3.987  16.339  0.0690  0.5385 -0.4210
  376TMC3    O2 5634   4.683   3.847  16.835  0.6125 -0.3047  0.1388
  377MPD2     C 5635   1.993   3.610  11.957  0.0917  0.3357 -0.3126
  377MPD2    C1 5636   2.068   3.581  12.066 -0.2700  0.1288  0.5244
  377MPD2    C2 5637   2.007   3.537  12.180  0.0505  0.0326 -0.5131
  377MPD2    C3 5638   1.869   3.531  12.188 -0.3271  0.0410  0.4727
  377MPD2    C4 5639   1.788   3.581  12.087 -0.2498 -0.3139 -0.2384
  377MPD2    C5 5640   1.852   3.619  11.970 -0.7459  0.5928 -0.5878
  377MPD2     H 5641   2.072   3.515  12.264  0.4982 -0.5860 -1.0173
  377MPD2    H1 5642   1.680   3.580  12.090 -0.2942  2.1679 -1.2741
  377MPD2    H2 5643   2.030   3.642  11.861 -1.0954 -0.0848 -0.9081
  377MPD2    H3 5644   1.791   3.658  11.889 -3.0515 -1.1271  0.3213
  377MPD2     N 5645   1.809   3.471  12.304 -0.5713 -0.3218 -0.2293
  377MPD2    H5 5646   1.707   3.471  12.309 -0.5466 -2.3793  0.2655
  377MPD2    N1 5647   2.215   3.593  12.057  0.4788 -0.1176  0.1083
  377MPD2    H7 5648   2.244   3.624  11.965 -1.6851 -0.3622 -0.6428
  378TMC3    C1 5649   2.605   3.634  11.955 -0.7766  0.4110  0.5183
  378TMC3    C2 5650   2.477   3.608  11.983 -0.1402  0.4260 -0.9789
  378TMC3    C3 5651   2.440   3.609  12.117  0.8722  0.1995  0.2065
  378TMC3    C4 5652   2.702   3.675  12.050  0.1823  0.2746 -1.3469
  378TMC3    C5 5653   2.660   3.679  12.182  0.2240 -0.2162 -0.3849
  378TMC3    C6 5654   2.532   3.646  12.214 -0.0160 -0.1074 -0.0026
  378TMC3     C 5655   2.642   3.627  11.818 -0.3030  0.0626 -0.5537
  378TMC3     O 5656   2.560   3.666  11.735 -0.7182  0.0142 -0.0789
  378TMC3     H 5657   2.431   3.554  11.902 -2.0681 -1.1123  1.1310
  378TMC3    H1 5658   2.789   3.730  12.016 -0.0581 -0.0165 -2.4531
  378TMC3    H2 5659   2.492   3.653  12.315 -0.8759  0.2797 -0.3769
  378TMC3    C7 5660   2.764   3.672  12.280 -0.2577  0.5798  0.1377
  378TMC3    C8 5661   2.307   3.572  12.157  0.4367 -0.4567 -0.2212
  378TMC3    O1 5662   2.722   3.696  12.393  0.5044  1.3137  0.5157
  378TMC3    O2 5663   2.293   3.541  12.275  0.2108 -0.3266  0.7198
  379MPD2     C 5664   2.535   1.826  16.543 -0.1266  0.2273 -0.1849
  379MPD2    C1 5665   2.634   1.757  16.473 -1.2641  0.4453 -0.5957
  379MPD2    C2 5666   2.701   1.651  16.530 -0.0044 -0.0794 -0.3610
  379MPD2    C3 5667   2.671   1.621  16.664  0.7310 -0.0634 -1.1006
  379MPD2    C4 5668   2.571   1.683  16.731  0.0328  0.5221 -0.5004
  379MPD2    C5 5669   2.505   1.786  16.669  0.2469 -0.1762  0.3448
  379MPD2     H 5670   2.772   1.588  16.478  0.5842  2.1774 -2.2698
  379MPD2    H1 5671   2.551   1.674  16.837  0.0714  1.3075 -0.4242
  379MPD2    H2 5672   2.499   1.918  16.498 -0.9102  0.3565  0.6984
  379MPD2    H3 5673   2.417   1.821  16.722  0.2102  0.3305 -0.0439
  379MPD2     N 5674   2.743   1.521  16.732 -0.1796 -0.0686 -0.2351
  379MPD2    H5 5675   2.699   1.497  16.821 -0.6235  0.3292 -0.3520
  379MPD2    N1 5676   2.660   1.808  16.341 -0.4631 -0.3931  0.3439
  379MPD2    H7 5677   2.588   1.863  16.295 -0.0257  0.9641  1.2894
  380TMC3    C1 5678   2.736   1.785  16.120  0.1370 -0.2146  0.1262
  380TMC3    C2 5679   2.849   1.774  16.036 -0.3647 -0.2889  0.6984
  380TMC3    C3 5680   2.824   1.819  15.908  0.6866  0.4100 -0.4560
  380TMC3    C4 5681   2.616   1.842  16.082 -0.1747 -0.3168 -0.3306
  380TMC3    C5 5682   2.606   1.881  15.952  0.5665 -0.4845  1.1076
  380TMC3    C6 5683   2.709   1.870  15.859  0.0563 -1.0324 -0.0615
  380TMC3     C 5684   2.760   1.756  16.265  0.7344 -0.5096  0.2141
  380TMC3     O 5685   2.860   1.695  16.297 -0.4968  0.1614  0.6060
  380TMC3     H 5686   2.932   1.709  16.061  0.0694 -0.2546 -0.6766
  380TMC3    H1 5687   2.522   1.849  16.136 -0.0977  2.1283 -0.5495
  380TMC3    H2 5688   2.701   1.924  15.765  0.5332  0.3483  0.6872
  380TMC3    C7 5689   2.506   1.976  15.917 -0.0706  0.9821 -0.4254
  380TMC3    C8 5690   2.924   1.806  15.807  0.7218 -0.0072 -0.2838
  380TMC3    O1 5691   2.542   2.097  15.911  0.2601  0.0179 -0.4676
  380TMC3    O2 5692   2.893   1.817  15.688 -0.2652  0.2159 -0.0117
  381TMC3    C1 5693   2.638   3.030  16.151  0.1232  0.2156  0.3230
  381TMC3    C2 5694   2.713   3.148  16.160 -0.3438  0.0867 -0.1029
  381TMC3    C3 5695   2.662   3.258  16.222 -0.6210  0.2111  0.1760
  381TMC3    C4 5696   2.511   3.027  16.201 -0.1361  0.9406  0.3752
  381TMC3    C5 5697   2.458   3.142  16.254 -0.5712 -0.6900  0.2645
  381TMC3    C6 5698   2.530   3.254  16.269  0.9278 -0.2220 -0.6527
  381TMC3     C 5699   2.689   2.902  16.101 -0.5280 -0.0330 -0.8751
  381TMC3     O 5700   2.610   2.810  16.082  0.0420 -0.5607  0.4469
  381TMC3     H 5701   2.808   3.151  16.107 -1.8313  0.5922 -2.7076
  381TMC3    H1 5702   2.466   2.929  16.199  2.0473 -0.0151 -1.9504
  381TMC3    H2 5703   2.483   3.347  16.302 -1.9722 -1.5090 -1.1284
  381TMC3    C7 5704   2.322   3.135  16.290 -0.5412 -0.7112 -0.0262
  381TMC3    C8 5705   2.760   3.354  16.258 -0.4733 -0.4904 -0.3398
  381TMC3    O1 5706   2.268   3.028  16.263 -0.0339 -0.1622  0.3354
  381TMC3    O2 5707   2.876   3.325  16.234 -0.2948  0.0444  0.4426
  382MPD2     C 5708   1.521   0.656  17.625 -0.3247 -0.1130  0.2388
  382MPD2    C1 5709   1.583   0.563   0.007 -0.4464 -0.6658 -0.3897
  382MPD2    C2 5710   1.565   0.427  17.661  0.3338  0.2704  0.5271
  382MPD2    C3 5711   1.500   0.392  17.544 -0.9118  0.1789 -0.1092
  382MPD2    C4 5712   1.438   0.491  17.469  0.1724 -0.2523  0.0458
  382MPD2    C5 5713   1.456   0.620  17.509  0.7870  0.0582 -0.0013
  382MPD2     H 5714   1.610   0.355   0.033  2.5299  1.8976  0.8159
  382MPD2    H1 5715   1.387   0.463  17.378 -0.3716  0.1324  0.2296
  382MPD2    H2 5716   1.522   0.762  17.651  2.5679 -0.5240  1.8037
  382MPD2    H3 5717   1.416   0.704  17.453  0.9212 -0.9032 -1.5556
  382MPD2     N 5718   1.481   0.261  17.503  0.1877 -0.3721 -0.0523
  382MPD2    H5 5719   1.419   0.258  17.423  0.4451  0.1275 -0.2699
  382MPD2    N1 5720   1.644   0.587   0.134 -0.2604 -0.6466  0.2084
  382MPD2    H7 5721   1.681   0.510   0.188 -2.2874 -2.5288 -1.1110
  383TMC3    C1 5722   1.467   0.022  17.522 -0.6807  0.0099 -0.7286
  383TMC3    C2 5723   1.382   0.021  17.414 -1.3582  0.1645 -0.1973
  383TMC3    C3 5724   1.332   4.623  17.375  0.1003  0.8181  0.2310
  383TMC3    C4 5725   1.520   4.633  17.587 -0.2377 -0.7137 -0.1064
  383TMC3    C5 5726   1.458   4.517  17.551  0.3956  0.9123  0.4116
  383TMC3    C6 5727   1.364   4.512  17.452 -0.1025  0.1344 -0.3354
  383TMC3     C 5728   1.536   0.143  17.556  1.1537  0.5505 -0.6054
  383TMC3     O 5729   1.624   0.139  17.645  0.1040  0.1731 -0.6085
  383TMC3     H 5730   1.352   0.115  17.369 -1.4012  0.8616  1.2767
  383TMC3    H1 5731   1.603   4.635  17.657 -1.2532 -3.1230  1.1788
  383TMC3    H2 5732   1.311   4.418  17.437 -1.1115  0.8338 -1.1080
  383TMC3    C7 5733   1.461   4.391  17.623 -0.0288 -0.1062  0.2720
  383TMC3    C8 5734   1.244   4.616  17.260  0.0333  0.4319 -0.8753
  383TMC3    O1 5735   1.402   4.290  17.589  0.3576 -0.5212 -0.3380
  383TMC3    O2 5736   1.191   4.722  17.223 -0.3239  0.0830  0.3998
  384MPD2     C 5737   3.558   2.304  12.461 -1.0458 -0.5389 -0.8733
  384MPD2    C1 5738   3.451   2.225  12.461  0.2405  1.3210 -0.7086
  384MPD2    C2 5739   3.415   2.164  12.344  0.3761  0.1902 -0.0651
  384MPD2    C3 5740   3.495   2.182  12.234 -0.6282 -0.0885  0.5775
  384MPD2    C4 5741   3.596   2.273  12.237 -0.4612  0.4079  0.3445
  384MPD2    C5 5742   3.631   2.334  12.349  0.4852 -0.1602 -0.1205
  384MPD2     H 5743   3.349   2.079  12.349  0.4221  0.1168 -0.6867
  384MPD2    H1 5744   3.653   2.289  12.146 -3.4672  0.3469 -1.5607
  384MPD2    H2 5745   3.592   2.351  12.552 -1.1734 -1.4588 -0.3586
  384MPD2    H3 5746   3.703   2.414  12.353 -0.0801  0.3840 -0.9796
  384MPD2     N 5747   3.494   2.103  12.122 -0.0281 -0.7755 -0.2094
  384MPD2    H5 5748   3.582   2.117  12.072 -1.0422  2.4204 -1.1191
  384MPD2    N1 5749   3.389   2.182  12.577  1.2788  0.2463 -0.1282
  384MPD2    H7 5750   3.442   2.186  12.664  0.1587  0.4798  0.5474
  385TMC3    C1 5751   3.429   1.926  11.979  0.3815 -0.5781  0.3738
  385TMC3    C2 5752   3.538   1.942  11.904 -0.5162 -0.2867 -0.4135
  385TMC3    C3 5753   3.605   1.832  11.872 -0.0470 -0.7116  0.1228
  385TMC3    C4 5754   3.394   1.803  12.038  0.7006  0.4047 -0.5609
  385TMC3    C5 5755   3.464   1.694  12.009  0.0659  0.4821  0.3939
  385TMC3    C6 5756   3.572   1.708  11.929 -0.2152  0.3401  0.6351
  385TMC3     C 5757   3.396   2.024  12.081  0.6108  0.0838  0.5407
  385TMC3     O 5758   3.274   2.033  12.103  0.2240  0.0730 -0.0292
  385TMC3     H 5759   3.560   2.039  11.863 -0.0941 -0.8078 -1.4126
  385TMC3    H1 5760   3.324   1.786  12.119  0.9555  4.6364  0.5290
  385TMC3    H2 5761   3.644   1.627  11.919 -0.4219 -0.2165  3.7186
  385TMC3    C7 5762   3.477   1.625  12.133 -0.0399 -0.8156  0.1887
  385TMC3    C8 5763   3.676   1.836  11.744  0.5849  0.1902 -0.2334
  385TMC3    O1 5764   3.542   1.689  12.211  0.1100  0.1629  0.0452
  385TMC3    O2 5765   3.716   1.946  11.700 -0.0013  0.1635 -0.2709
  386TMC3    C1 5766   4.134   3.538  11.598  0.2565  0.5181  0.3315
  386TMC3    C2 5767   4.110   3.465  11.485  0.1538 -0.0988  0.4425
  386TMC3    C3 5768   3.977   3.466  11.443 -0.2973 -0.0472 -1.1992
  386TMC3    C4 5769   4.037   3.602  11.676  0.9207 -1.3100 -0.9957
  386TMC3    C5 5770   3.909   3.586  11.640 -0.3006 -0.5867 -0.7189
  386TMC3    C6 5771   3.879   3.535  11.518  0.4659  0.6174 -0.1540
  386TMC3     C 5772   4.257   3.529  11.675 -0.2046  0.9207  0.8915
  386TMC3     O 5773   4.315   3.633  11.706 -0.2517  0.1048  0.4188
  386TMC3     H 5774   4.194   3.434  11.425  1.6378 -0.1504  2.5639
  386TMC3    H1 5775   4.065   3.650  11.769 -1.9541 -0.5842 -0.5305
  386TMC3    H2 5776   3.773   3.521  11.498  0.3505 -0.7485  1.3724
  386TMC3    C7 5777   3.807   3.646  11.720 -0.3318  0.4525 -0.3716
  386TMC3    C8 5778   3.942   3.433  11.310 -0.2937  0.2850  0.3999
  386TMC3    O1 5779   3.699   3.658  11.671 -0.2768  0.5208 -0.1822
  386TMC3    O2 5780   3.832   3.481  11.283 -0.3685  0.4313  0.2349
  387MPD2     C 5781   2.172   3.659   9.321 -0.0924  0.2824  0.3077
  387MPD2    C1 5782   2.188   3.705   9.454  0.4035 -0.3971 -0.3998
  387MPD2    C2 5783   2.169   3.622   9.561  0.3217  0.4544 -0.6663
  387MPD2    C3 5784   2.139   3.494   9.539  0.0859 -0.2464  1.6254
  387MPD2    C4 5785   2.122   3.442   9.413  0.1915 -0.5430  0.4848
  387MPD2    C5 5786   2.140   3.523   9.306  0.5463  0.7566  0.6222
  387MPD2     H 5787   2.189   3.668   9.657 -0.6415  2.1763 -1.2897
  387MPD2    H1 5788   2.086   3.343   9.388  0.3247 -0.6738  0.8008
  387MPD2    H2 5789   2.188   3.717   9.230  2.0589 -0.0761  0.4609
  387MPD2    H3 5790   2.127   3.481   9.207  0.8644 -2.4322  1.9404
  387MPD2     N 5791   2.116   3.424   9.658  0.0758  0.1270 -0.2296
  387MPD2    H5 5792   2.132   3.472   9.746 -0.6421  0.1101 -0.0892
  387MPD2    N1 5793   2.222   3.840   9.496 -0.0144 -0.6883 -0.2072
  387MPD2    H7 5794   2.215   3.855   9.596  0.7169 -1.3010 -0.0593
  388TMC3    C1 5795   2.171   4.072   9.480  0.2488 -1.0556 -0.0914
  388TMC3    C2 5796   2.147   4.179   9.399  0.4128 -0.0769 -0.5664
  388TMC3    C3 5797   2.100   4.294   9.464 -0.0868  0.0613 -0.1212
  388TMC3    C4 5798   2.150   4.069   9.612  0.1682  0.3980  0.2131
  388TMC3    C5 5799   2.107   4.186   9.673 -0.5938 -0.4644 -0.7184
  388TMC3    C6 5800   2.082   4.299   9.602 -0.1823 -0.4792  0.0402
  388TMC3     C 5801   2.218   3.948   9.413 -1.4438 -0.0190 -0.8978
  388TMC3     O 5802   2.237   3.952   9.293  0.3684  0.1159  0.0155
  388TMC3     H 5803   2.159   4.179   9.291  0.3301 -0.5557 -0.5757
  388TMC3    H1 5804   2.166   3.984   9.677  0.5608  0.6520  0.4520
  388TMC3    H2 5805   2.049   4.388   9.654 -0.2939 -0.0121 -0.8190
  388TMC3    C7 5806   2.054   4.183   9.809  0.8781  0.5758  0.1147
  388TMC3    C8 5807   2.068   4.402   9.372  0.2199  0.0064  0.2023
  388TMC3    O1 5808   1.975   4.272   9.830  0.1327 -0.0309  0.2296
  388TMC3    O2 5809   2.101   4.393   9.258 -0.3836  0.0525 -0.2626
  389MPD2     C 5810   0.938   1.895  11.504 -0.6386  0.2211  0.2990
  389MPD2    C1 5811   0.877   1.842  11.398  0.2386  0.2005 -0.1169
  389MPD2    C2 5812   0.773   1.752  11.418 -0.8723  0.2148 -0.1871
  389MPD2    C3 5813   0.734   1.729  11.551 -0.0719  0.2037  0.4144
  389MPD2    C4 5814   0.794   1.796  11.653 -0.0720 -0.5335 -0.2884
  389MPD2    C5 5815   0.900   1.876  11.634 -0.0808 -0.0037  0.4009
  389MPD2     H 5816   0.731   1.685  11.344 -1.7546 -0.2051  0.6951
  389MPD2    H1 5817   0.770   1.781  11.757 -0.9014  1.8197 -0.1292
  389MPD2    H2 5818   1.029   1.953  11.492 -0.8444 -0.0959 -2.6884
  389MPD2    H3 5819   0.960   1.909  11.718 -1.6231 -0.1432  1.5564
  389MPD2     N 5820   0.644   1.640  11.592 -0.1356 -0.2054  0.5323
  389MPD2    H5 5821   0.613   1.640  11.689  1.6311  2.2201  1.0913
  389MPD2    N1 5822   0.924   1.872  11.262  0.5400 -0.1811 -0.8397
  389MPD2    H7 5823   0.987   1.951  11.253  1.4799 -0.7237  0.8276
  390TMC3    C1 5824   0.425   1.533  11.588 -0.3717 -0.3369 -0.2750
  390TMC3    C2 5825   0.431   1.494  11.719 -0.2287  0.6610  0.8276
  390TMC3    C3 5826   0.309   1.509  11.790  0.2717  0.6474  0.6040
  390TMC3    C4 5827   0.307   1.571  11.528  0.5503  0.7127  0.4848
  390TMC3    C5 5828   0.192   1.590  11.603 -0.0331  0.2653  0.4269
  390TMC3    C6 5829   0.195   1.578  11.739  0.2564 -0.0592 -0.5546
  390TMC3     C 5830   0.550   1.572  11.512  0.3531  0.4422  1.0030
  390TMC3     O 5831   0.540   1.558  11.388  0.3467  0.2534 -0.4803
  390TMC3     H 5832   0.518   1.448  11.763 -0.4937  0.6902  1.3837
  390TMC3    H1 5833   0.320   1.615  11.430  0.5363 -4.2384 -1.7252
  390TMC3    H2 5834   0.108   1.604  11.797 -0.7410 -0.5951 -1.8284
  390TMC3    C7 5835   0.066   1.583  11.530 -0.0746 -0.4323 -0.5784
  390TMC3    C8 5836   0.297   1.442  11.920 -0.6354  0.3572  1.0751
  390TMC3    O1 5837   0.087   1.534  11.422 -0.2315  0.3694  0.2077
  390TMC3    O2 5838   0.404   1.402  11.962  0.2408  0.1518  0.7103
  391MPD2     C 5839   4.605   3.237  11.165  1.0161 -0.9990 -0.6777
  391MPD2    C1 5840   0.004   3.271  11.122 -0.2167 -0.3229  0.0270
  391MPD2    C2 5841   0.026   3.296  10.986  0.1735  0.0076  0.2376
  391MPD2    C3 5842   4.645   3.293  10.897  0.0570  0.3866  0.4074
  391MPD2    C4 5843   4.518   3.267  10.944 -0.0975  0.1176  0.6028
  391MPD2    C5 5844   4.497   3.247  11.078 -0.0012  0.3004  0.2744
  391MPD2     H 5845   0.130   3.303  10.957  0.5903 -1.5749  1.3098
  391MPD2    H1 5846   4.430   3.265  10.880  0.6263 -0.3821 -0.3798
  391MPD2    H2 5847   4.584   3.216  11.269  0.6308 -1.7489 -0.9095
  391MPD2    H3 5848   4.395   3.237  11.114 -0.3601 -0.5739 -0.9570
  391MPD2     N 5849   4.674   3.300  10.759  0.3022 -0.0091  0.0310
  391MPD2    H5 5850   0.048   3.324  10.740  0.2303  1.2448  1.2704
  391MPD2    N1 5851   0.103   3.276  11.220  0.8316 -0.5335  0.3459
  391MPD2    H7 5852   0.086   3.246  11.315 -0.0272 -1.7946 -0.2111
  392TMC3    C1 5853   4.625   3.343  10.530  0.6984  0.1836  0.1054
  392TMC3    C2 5854   4.522   3.344  10.438 -0.0850  0.2135  0.7165
  392TMC3    C3 5855   4.523   3.454  10.348 -0.1914  0.1700 -0.8192
  392TMC3    C4 5856   4.720   3.445  10.535  0.1109 -0.8899  0.1377
  392TMC3    C5 5857   4.711   3.550  10.446 -0.6001 -0.2004 -0.4033
  392TMC3    C6 5858   4.612   3.559  10.347 -0.7097  0.1088 -0.4366
  392TMC3     C 5859   4.588   3.266  10.651  0.5636 -0.5755  0.1848
  392TMC3     O 5860   4.485   3.202  10.650  0.0295  0.2511 -0.3675
  392TMC3     H 5861   4.461   3.255  10.427 -0.9263  1.0428 -1.2743
  392TMC3    H1 5862   0.066   3.460  10.616 -0.7632  0.1427  0.6952
  392TMC3    H2 5863   4.592   3.654  10.297  0.7125  0.3828 -0.4701
  392TMC3    C7 5864   0.086   3.648  10.452 -0.9834 -0.1705  0.3570
  392TMC3    C8 5865   4.423   3.447  10.235  0.1189 -0.8074 -0.3670
  392TMC3    O1 5866   0.161   3.642  10.547 -0.0456  0.4679 -0.0284
  392TMC3    O2 5867   4.351   3.351  10.228 -0.1622 -0.2780 -0.1112
  393TMC3    C1 5868   4.299   1.614  10.271  0.4917 -0.5026  0.6735
  393TMC3    C2 5869   4.177   1.590  10.312 -0.2699  0.1261  0.2491
  393TMC3    C3 5870   4.150   1.485  10.392 -0.3201 -0.3812 -0.1044
  393TMC3    C4 5871   4.411   1.533  10.297 -0.0328 -0.0323 -0.8192
  393TMC3    C5 5872   4.379   1.420  10.362  0.0812 -0.1496 -0.3230
  393TMC3    C6 5873   4.255   1.399  10.415 -0.3036 -0.2915  0.7356
  393TMC3     C 5874   4.311   1.757  10.225 -0.4530 -0.1000 -0.0289
  393TMC3     O 5875   4.210   1.826  10.202 -0.0004 -0.0282 -0.2269
  393TMC3     H 5876   4.096   1.659  10.290 -0.9591 -1.2348 -1.4548
  393TMC3    H1 5877   4.508   1.549  10.252 -0.5600 -2.2810 -2.7807
  393TMC3    H2 5878   4.237   1.313  10.478  1.6053 -1.4300 -0.2960
  393TMC3    C7 5879   4.474   1.313  10.382  0.1462 -0.9565 -0.3148
  393TMC3    C8 5880   4.028   1.414  10.346 -0.3189 -0.0744  0.8152
  393TMC3    O1 5881   4.432   1.206  10.428 -0.4594 -0.3240  0.0339
  393TMC3    O2 5882   3.939   1.478  10.288 -0.4132 -0.1205 -0.2911
  394TMC3    C1 5883   0.930   1.893  11.034 -0.1800 -0.3437  0.3586
  394TMC3    C2 5884   0.847   1.909  10.922  0.3074  0.0500  0.2658
  394TMC3    C3 5885   0.906   1.950  10.808 -0.0611 -0.0926 -0.0430
  394TMC3    C4 5886   1.072   1.902  11.025  0.1644 -0.2200  0.1953
  394TMC3    C5 5887   1.121   1.930  10.900  0.5049  0.3753 -0.1372
  394TMC3    C6 5888   1.040   1.947  10.790  0.4226 -0.1336 -0.2573
  394TMC3     C 5889   0.864   1.829  11.145 -0.3186  0.0745 -0.4326
  394TMC3     O 5890   0.796   1.729  11.119 -0.2904 -0.1404  0.3806
  394TMC3     H 5891   0.739   1.901  10.924  0.2335  0.8551 -0.4939
  394TMC3    H1 5892   1.132   1.895  11.115 -0.2174 -1.4851  0.3440
  394TMC3    H2 5893   1.087   1.965  10.694 -1.4505 -1.6669 -1.4777
  394TMC3    C7 5894   1.266   1.936  10.884  0.2859  0.3865  0.7928
  394TMC3    C8 5895   0.818   1.975  10.695  0.1836  0.6585  0.1091
  394TMC3    O1 5896   1.305   1.966  10.773 -0.5178  0.1027 -0.0909
  394TMC3    O2 5897   0.731   2.057  10.709  0.1163  0.2369 -0.1603
  395TMC3    C1 5898   4.469   3.873  14.470  0.4476 -0.0712  0.4280
  395TMC3    C2 5899   4.399   3.799  14.563 -0.8926 -0.1290  0.2431
  395TMC3    C3 5900   4.377   3.846  14.686 -0.3347 -0.1587 -0.6460
  395TMC3    C4 5901   4.537   3.985  14.506  0.0266  0.2120  0.3705
  395TMC3    C5 5902   4.522   4.024  14.637  0.2156 -0.1708  0.0820
  395TMC3    C6 5903   4.436   3.963  14.724 -0.1173  0.1847  0.1546
  395TMC3     C 5904   4.433   3.838  14.327  0.0971  0.7597  0.4260
  395TMC3     O 5905   4.311   3.820  14.309  0.1454  0.5127 -0.2279
  395TMC3     H 5906   4.348   3.710  14.528 -1.9716  0.6490 -0.1530
  395TMC3    H1 5907   4.578   4.050  14.429 -3.0559 -0.8260 -2.1603
  395TMC3    H2 5908   4.423   3.980  14.830  0.5125  0.4531  0.1848
  395TMC3    C7 5909   4.621   4.113  14.689  0.0257  0.3250 -0.9612
  395TMC3    C8 5910   4.338   3.757  14.787 -0.1614 -0.6557 -0.0253
  395TMC3    O1 5911   4.580   4.184  14.782 -0.2188 -0.7609  0.1943
  395TMC3    O2 5912   4.308   3.798  14.899 -0.1678  0.3481  0.0526
  396MPD2     C 5913   4.032   0.933  17.025  0.3461  0.5159  0.2774
  396MPD2    C1 5914   4.161   0.918  17.070 -0.1271  0.0993  0.1462
  396MPD2    C2 5915   4.267   0.969  16.988 -0.4909  0.2995 -0.2256
  396MPD2    C3 5916   4.249   0.994  16.850  0.1136 -0.0452 -0.2713
  396MPD2    C4 5917   4.116   1.007  16.812 -0.1745  0.0607 -0.0859
  396MPD2    C5 5918   4.009   0.984  16.894 -0.0135  0.2063  0.2094
  396MPD2     H 5919   4.365   0.974  17.034  0.3058  1.1270 -2.0289
  396MPD2    H1 5920   4.092   1.037  16.711  2.1449  0.4275 -0.5273
  396MPD2    H2 5921   3.950   0.897  17.085  4.0033 -3.2758  3.0433
  396MPD2    H3 5922   3.909   0.985  16.853  0.0146  2.8220  0.2186
  396MPD2     N 5923   4.361   1.013  16.771  0.3306 -0.7709  0.0410
  396MPD2    H5 5924   4.451   1.019  16.818  0.7790 -2.6465 -0.5783
  396MPD2    N1 5925   4.181   0.873  17.203 -0.0893 -0.4256  0.1471
  396MPD2    H7 5926   4.098   0.868  17.261  0.6840 -1.9610  1.1115
  397TMC3    C1 5927   4.285   0.820  17.407 -0.2704 -0.8737  0.0426
  397TMC3    C2 5928   4.374   0.883  17.490  0.4023  0.8200 -0.7400
  397TMC3    C3 5929   4.475   0.821  17.558 -0.9260 -0.4495  0.4044
  397TMC3    C4 5930   4.305   0.686  17.399  0.5325 -0.1986 -0.1140
  397TMC3    C5 5931   4.375   0.622  17.495  0.5758 -0.4365  0.0936
  397TMC3    C6 5932   4.462   0.684  17.578  0.2059 -0.2006  0.2148
  397TMC3     C 5933   4.296   0.876  17.279  0.1256 -0.3925  0.2890
  397TMC3     O 5934   4.410   0.886  17.239 -0.0876 -0.1104  0.1217
  397TMC3     H 5935   4.397   0.984  17.460  1.9419  0.7191  0.0860
  397TMC3    H1 5936   4.264   0.635  17.312 -0.8345 -0.9872  0.9933
  397TMC3    H2 5937   4.544   0.630  17.625 -0.3493 -0.5019  0.8286
  397TMC3    C7 5938   4.397   0.473  17.479  0.7915  0.2609  1.1875
  397TMC3    C8 5939   4.611   0.867  17.538 -0.6245  0.4104  0.0597
  397TMC3    O1 5940   4.406   0.423  17.371  0.0248  0.4616  0.3399
  397TMC3    O2 5941   4.700   0.821  17.614  0.6347 -0.0934 -0.2010
  398MPD2     C 5942   2.456   1.298   0.312  0.0092  0.4154 -0.6123
  398MPD2    C1 5943   2.553   1.219   0.362 -0.3997 -0.5422 -0.2204
  398MPD2    C2 5944   2.622   1.260   0.478  0.2672  0.6551  0.0140
  398MPD2    C3 5945   2.596   1.384   0.530  0.1933  0.6356  0.7684
  398MPD2    C4 5946   2.490   1.465   0.488  0.4130 -0.3538  0.3401
  398MPD2    C5 5947   2.425   1.414   0.377  0.1155  0.1014 -1.1538
  398MPD2     H 5948   2.706   1.207   0.522 -0.5162 -0.0904  0.6124
  398MPD2    H1 5949   2.472   1.565   0.525 -2.9986 -0.5423 -0.7926
  398MPD2    H2 5950   2.397   1.283   0.222  2.5145  2.0110 -2.5549
  398MPD2    H3 5951   2.347   1.482   0.344 -1.5075 -1.5397 -0.6706
  398MPD2     N 5952   2.675   1.421   0.643 -0.4977  0.4581  0.1057
  398MPD2    H5 5953   2.745   1.358   0.681 -1.1403  1.3252  2.7021
  398MPD2    N1 5954   2.598   1.104   0.294  0.2217  0.4082 -0.2189
  398MPD2    H7 5955   2.674   1.055   0.338  2.5479  4.2591  0.0721
  399TMC3    C1 5956   2.609   0.925   0.143  0.4937  0.2533 -0.1135
  399TMC3    C2 5957   2.740   0.909   0.174 -0.2092 -0.0709  0.2717
  399TMC3    C3 5958   2.785   0.779   0.170 -0.7550 -0.3934 -0.4486
  399TMC3    C4 5959   2.519   0.824   0.119  0.5048  0.6266 -0.3015
  399TMC3    C5 5960   2.568   0.697   0.128 -0.1861 -0.7336  0.2481
  399TMC3    C6 5961   2.696   0.679   0.161 -0.1271  0.1660 -1.0056
  399TMC3     C 5962   2.537   1.046   0.183 -0.3343  0.2472  0.0734
  399TMC3     O 5963   2.441   1.073   0.120  0.3029  0.1323 -0.0945
  399TMC3     H 5964   2.810   0.989   0.193  0.4527 -0.3849 -0.8391
  399TMC3    H1 5965   2.415   0.853   0.112  0.5496  0.9050  0.2756
  399TMC3    H2 5966   2.725   0.574   0.156 -0.3343  0.0347  0.6364
  399TMC3    C7 5967   2.481   0.586   0.089  0.8572  0.2491 -0.1491
  399TMC3    C8 5968   2.929   0.749   0.145 -0.2113 -0.0402 -0.2443
  399TMC3    O1 5969   2.523   0.476   0.120 -0.1793 -0.1449  0.5205
  399TMC3    O2 5970   3.006   0.835   0.118 -0.0275  0.7019 -0.2218
  400TMC3    C1 5971   1.518   4.471  16.743  0.7833 -0.2504  0.5843
  400TMC3    C2 5972   1.389   4.512  16.749 -0.1960  0.2638 -0.1659
  400TMC3    C3 5973   1.364   4.644  16.712 -0.5771 -0.0329 -0.7288
  400TMC3    C4 5974   1.631   4.556  16.737 -0.5452 -0.7206 -0.3043
  400TMC3    C5 5975   1.599   4.688  16.717  0.7216  0.4528  0.3713
  400TMC3    C6 5976   1.467   0.007  16.699  0.4452  0.3366 -0.3556
  400TMC3     C 5977   1.540   4.348  16.804  0.2956 -0.4425  0.1789
  400TMC3     O 5978   1.527   4.251  16.730 -0.3850 -0.3064  0.3355
  400TMC3     H 5979   1.310   4.440  16.768 -1.4771  2.4476  2.8768
  400TMC3    H1 5980   1.733   4.524  16.722 -0.1340 -0.0490  1.0612
  400TMC3    H2 5981   1.445   0.098  16.644 -2.3293 -0.6378 -0.8731
  400TMC3    C7 5982   1.710   0.060  16.726 -0.3601  0.0925 -0.4629
  400TMC3    C8 5983   1.233   4.697  16.663 -0.3813  0.3724  0.0698
  400TMC3    O1 5984   1.822   0.017  16.701  0.1623  0.2797 -0.2336
  400TMC3    O2 5985   1.222   0.088  16.625 -0.0348 -0.1148  0.3007
  401MPD2     C 5986   4.465   3.245   0.389 -0.4819  0.2033  0.6058
  401MPD2    C1 5987   4.433   3.251   0.522 -0.6507  0.7618  0.0526
  401MPD2    C2 5988   4.481   3.151   0.610  0.5231  0.6091  0.2352
  401MPD2    C3 5989   4.556   3.046   0.568 -0.3294 -0.2769  0.0881
  401MPD2    C4 5990   4.588   3.043   0.432  0.8654  0.0472 -0.0151
  401MPD2    C5 5991   4.544   3.143   0.346  0.0872  0.0601  0.5184
  401MPD2     H 5992   4.462   3.172   0.715  2.6349  1.2713  0.4806
  401MPD2    H1 5993   4.651   2.964   0.392  2.1715  0.8560  0.4469
  401MPD2    H2 5994   4.439   3.317   0.313  2.6890  1.4247  0.6511
  401MPD2    H3 5995   4.588   3.142   0.247 -1.1911  0.9356 -0.0653
  401MPD2     N 5996   4.585   2.941   0.659 -0.0892  0.0720  0.5954
  401MPD2    H5 5997   4.561   2.960   0.755 -1.5713 -0.3911  0.3153
  401MPD2    N1 5998   4.359   3.352   0.582  0.3451  0.1037  0.3271
  401MPD2    H7 5999   4.371   3.374   0.680  0.6795 -0.7181  0.4774
  402TMC3    C1 6000   4.615   2.713   0.724  0.2586 -0.3249 -0.1781
  402TMC3    C2 6001   4.557   2.736   0.845  0.3028  0.5648 -0.3901
  402TMC3    C3 6002   4.535   2.635   0.929  0.3097 -0.0100 -0.4863
  402TMC3    C4 6003   4.652   2.591   0.689 -0.4842 -0.4488  0.5762
  402TMC3    C5 6004   4.637   2.488   0.781  0.0601 -0.4708 -0.3204
  402TMC3    C6 6005   4.580   2.510   0.902  0.3207 -0.6587  1.0589
  402TMC3     C 6006   4.626   2.816   0.623 -0.0148 -0.2607  0.1177
  402TMC3     O 6007   4.651   2.776   0.510 -0.0706 -0.4412 -0.3872
  402TMC3     H 6008   4.521   2.835   0.872 -1.1074  0.1590 -0.8372
  402TMC3    H1 6009   4.708   2.571   0.599 -2.2049 -0.7597 -0.4350
  402TMC3    H2 6010   4.569   2.427   0.970  0.3597  0.1407  2.0566
  402TMC3    C7 6011   4.705   2.361   0.756 -0.5480 -0.1626  0.4861
  402TMC3    C8 6012   4.526   2.660   1.074  0.7089 -0.1789  0.8292
  402TMC3    O1 6013   0.014   2.328   0.645  0.8813  0.4202  0.1119
  402TMC3    O2 6014   4.576   2.568   1.137 -0.0642 -0.3597 -0.5136
  403MPD2     C 6015   2.930   1.696  13.137  0.3087 -0.0915  0.1686
  403MPD2    C1 6016   2.945   1.603  13.229  0.4560  0.3841 -0.8035
  403MPD2    C2 6017   3.034   1.625  13.329 -0.0460 -0.1443  0.0199
  403MPD2    C3 6018   3.114   1.732  13.334 -0.3486 -0.2462  0.2578
  403MPD2    C4 6019   3.106   1.829  13.237  0.1685  0.0297  1.2009
  403MPD2    C5 6020   3.014   1.806  13.138  0.0086  0.0697 -1.0174
  403MPD2     H 6021   3.052   1.541  13.396 -0.4939  0.5217  0.9729
  403MPD2    H1 6022   3.183   1.903  13.219 -0.3445  0.6024  1.3654
  403MPD2    H2 6023   2.856   1.689  13.058  0.1084  0.3162  0.3189
  403MPD2    H3 6024   3.007   1.884  13.064 -0.8968  0.3804 -0.6052
  403MPD2     N 6025   3.208   1.731  13.438 -0.3391  0.5185  0.0716
  403MPD2    H5 6026   3.226   1.638  13.472  1.5035  0.7443 -0.2727
  403MPD2    N1 6027   2.876   1.477  13.212 -0.4139 -0.3549  0.4293
  403MPD2    H7 6028   2.801   1.476  13.144 -0.6291  2.2743  0.6240
  404TMC3    C1 6029   2.821   1.247  13.219  0.2291  0.4203 -0.2993
  404TMC3    C2 6030   2.810   1.138  13.294  0.3611 -0.1416 -0.0830
  404TMC3    C3 6031   2.768   1.019  13.229 -0.3641  0.7019  0.8436
  404TMC3    C4 6032   2.806   1.251  13.083 -0.1300 -0.2907  0.2347
  404TMC3    C5 6033   2.771   1.128  13.021  0.3316 -0.5311  0.1788
  404TMC3    C6 6034   2.749   1.018  13.095  0.1155  1.0756 -0.1472
  404TMC3     C 6035   2.895   1.362  13.284 -1.0338  0.4788  0.5441
  404TMC3     O 6036   2.961   1.335  13.383 -0.0253 -0.0022  0.3368
  404TMC3     H 6037   2.836   1.145  13.399 -1.8141 -1.0907  0.5145
  404TMC3    H1 6038   2.830   1.334  13.017 -0.3251 -0.5175 -0.1238
  404TMC3    H2 6039   2.711   0.924  13.056 -0.9784  0.8142  1.5450
  404TMC3    C7 6040   2.763   1.109  12.882  0.7187  0.0540  0.6032
  404TMC3    C8 6041   2.780   0.898  13.311  0.5087  0.9024 -0.2191
  404TMC3    O1 6042   2.719   1.003  12.837  0.3539  0.0681 -0.0834
  404TMC3    O2 6043   2.787   0.785  13.266  0.0175 -0.0932 -0.1402
  405MPD2     C 6044   3.403   2.062  14.759 -0.0510 -1.5587 -0.2152
  405MPD2    C1 6045   3.363   1.989  14.654  0.0052  0.5869  0.1955
  405MPD2    C2 6046   3.357   2.044  14.527  0.1849  0.4184 -0.1262
  405MPD2    C3 6047   3.383   2.175  14.508  0.7732  0.0550  0.0493
  405MPD2    C4 6048   3.410   2.253  14.617 -0.2189  0.2652 -0.0931
  405MPD2    C5 6049   3.433   2.196  14.743  0.0076 -0.3021  0.3118
  405MPD2     H 6050   3.329   1.993  14.435 -0.8439  0.1263  0.3447
  405MPD2    H1 6051   3.429   2.359  14.607 -0.0749 -0.1052 -3.7272
  405MPD2    H2 6052   3.410   2.014  14.856 -0.7999 -1.8102 -0.2831
  405MPD2    H3 6053   3.473   2.259  14.821  0.8006  0.8750 -1.0538
  405MPD2     N 6054   3.365   2.219  14.376 -0.1844  0.2406  0.6063
  405MPD2    H5 6055   3.351   2.150  14.303 -0.3684  2.5490 -1.5385
  405MPD2    N1 6056   3.342   1.848  14.681 -0.7564 -0.5219  0.6859
  405MPD2    H7 6057   3.315   1.817  14.773 -1.5094  2.3168  1.4209
  406TMC3    C1 6058   3.091   2.391  14.082  0.0435  0.6885  0.1276
  406TMC3    C2 6059   3.140   2.302  13.987  0.6240 -0.3350 -0.1590
  406TMC3    C3 6060   3.269   2.240  14.004  0.3152 -0.1935 -0.6709
  406TMC3    C4 6061   3.166   2.419  14.191 -0.0124 -0.3182  0.0778
  406TMC3    C5 6062   3.287   2.360  14.204 -0.7649 -0.1336  0.3301
  406TMC3    C6 6063   3.334   2.261  14.119  0.0861  0.4802 -0.7535
  406TMC3     C 6064   2.955   2.424  14.081  0.7410 -0.1635  0.4160
  406TMC3     O 6065   2.919   2.494  13.989  0.1439  0.2502  0.1197
  406TMC3     H 6066   3.069   2.267  13.913  1.1745 -1.0575 -0.3378
  406TMC3    H1 6067   3.136   2.497  14.260 -1.5132  0.8114 -1.8527
  406TMC3    H2 6068   3.433   2.222  14.142  0.0267 -0.5203 -2.2473
  406TMC3    C7 6069   3.326   2.348  14.339  0.2549 -0.7434  0.1161
  406TMC3    C8 6070   3.286   2.111  13.934  0.0342 -0.1421 -0.0217
  406TMC3    O1 6071   3.302   2.437  14.420  0.0219 -0.2870  0.2919
  406TMC3    O2 6072   3.244   2.103  13.820  0.3719  0.8129  0.3463
  407MPD2     C 6073   1.629   3.013   9.378  0.0757  1.0874  0.3205
  407MPD2    C1 6074   1.727   3.091   9.432  0.7738 -0.1149 -0.2051
  407MPD2    C2 6075   1.697   3.190   9.520  0.5132 -0.3184  0.0707
  407MPD2    C3 6076   1.566   3.216   9.560  0.0640 -0.2531  0.7760
  407MPD2    C4 6077   1.472   3.135   9.514 -0.6327  0.5018 -0.0468
  407MPD2    C5 6078   1.498   3.036   9.423 -0.3697  0.3906 -0.9345
  407MPD2     H 6079   1.778   3.250   9.561  0.4453 -0.1185 -0.0911
  407MPD2    H1 6080   1.368   3.155   9.538 -0.7632  1.8147 -1.6693
  407MPD2    H2 6081   1.647   2.929   9.311 -0.5819 -0.0786  1.6194
  407MPD2    H3 6082   1.421   2.972   9.380 -0.7902 -1.1289  2.1073
  407MPD2     N 6083   1.519   3.321   9.639 -0.6211 -0.3061  0.2671
  407MPD2    H5 6084   1.424   3.326   9.674 -0.6250 -1.7549  0.4274
  407MPD2    N1 6085   1.869   3.077   9.404  0.5270  0.1288 -0.3671
  407MPD2    H7 6086   1.929   3.135   9.462  1.0441 -1.5895  0.8238
  408TMC3    C1 6087   2.067   3.003   9.300 -0.2025  0.4127  0.0632
  408TMC3    C2 6088   2.144   3.015   9.417  0.2343 -1.0138 -0.1855
  408TMC3    C3 6089   2.272   3.062   9.384  0.1051  0.2250  0.8561
  408TMC3    C4 6090   2.099   3.051   9.177 -0.2407 -0.5820 -0.9706
  408TMC3    C5 6091   2.225   3.097   9.159  0.6575  0.0915  0.4134
  408TMC3    C6 6092   2.317   3.096   9.261  0.5143  0.6818 -0.3602
  408TMC3     C 6093   1.927   2.989   9.318 -0.0392 -0.0317  1.0659
  408TMC3     O 6094   1.871   2.926   9.232  0.4109 -0.0956 -0.3893
  408TMC3     H 6095   2.117   2.970   9.512 -1.4193  0.8133  0.2054
  408TMC3    H1 6096   2.022   3.060   9.101  1.6994 -1.8860 -3.0746
  408TMC3    H2 6097   2.419   3.130   9.250  1.7792 -1.5702  4.1299
  408TMC3    C7 6098   2.238   3.209   9.069  0.3026  0.6526 -0.2630
  408TMC3    C8 6099   2.342   3.119   9.501 -0.2192  0.8827  0.2750
  408TMC3    O1 6100   2.269   3.317   9.118  0.5722  0.0120  0.0788
  408TMC3    O2 6101   2.314   3.082   9.616 -0.0602  0.5662  0.2827
  409MPD2     C 6102   4.681   4.279  16.774 -0.4278 -0.2281 -0.6040
  409MPD2    C1 6103   0.032   4.309  16.885 -0.5887 -0.0255 -0.6575
  409MPD2    C2 6104   0.145   4.389  16.870  0.2980  0.1287 -0.2154
  409MPD2    C3 6105   0.177   4.449  16.750 -0.2245  0.6304 -0.5335
  409MPD2    C4 6106   0.093   4.436  16.643  0.3865 -0.2720  0.0633
  409MPD2    C5 6107   4.706   4.353  16.661 -1.0435 -0.0304 -0.1251
  409MPD2     H 6108   0.206   4.408  16.957 -0.4417  1.7081 -0.0433
  409MPD2    H1 6109   0.109   4.486  16.548 -2.2153  0.4614  0.0072
  409MPD2    H2 6110   4.597   4.210  16.776  0.9435 -1.8340  1.5350
  409MPD2    H3 6111   4.635   4.335  16.581 -1.3689 -1.4213  0.4831
  409MPD2     N 6112   0.292   4.528  16.732 -0.4278 -0.0548 -0.1384
  409MPD2    H5 6113   0.306   4.569  16.640 -0.7961  0.0543 -0.1488
  409MPD2    N1 6114   0.005   4.250  17.013 -0.3580 -0.3239  0.1713
  409MPD2    H7 6115   0.076   4.284  17.077 -0.7732  0.6866  0.0931
  410TMC3    C1 6116   0.506   4.627  16.766 -1.0677  0.7246 -0.0568
  410TMC3    C2 6117   0.620   4.622  16.844 -0.8825 -0.0911  0.0941
  410TMC3    C3 6118   0.726   4.700  16.803  0.8643 -0.4200 -0.4278
  410TMC3    C4 6119   0.492   4.714  16.661 -0.5522 -0.7087 -0.3096
  410TMC3    C5 6120   0.586   0.087  16.639  0.2555  0.4408 -0.0465
  410TMC3    C6 6121   0.709   0.072  16.704 -0.0141  1.2665 -0.0782
  410TMC3     C 6122   0.398   4.546  16.813  0.5675 -0.2767 -0.3257
  410TMC3     O 6123   0.410   4.508  16.936 -0.6268 -0.5371  0.0948
  410TMC3     H 6124   0.636   4.554  16.927  0.1336  1.0456  0.8290
  410TMC3    H1 6125   0.394   0.005  16.616 -1.7327 -0.8256  2.2146
  410TMC3    H2 6126   0.795   0.129  16.671  0.9267  0.1698  0.4644
  410TMC3    C7 6127   0.578   0.138  16.504 -0.4313  0.6234 -0.4708
  410TMC3    C8 6128   0.859   4.675  16.859  0.1143 -0.3856  0.0651
  410TMC3    O1 6129   0.501   0.089  16.427  0.1992  0.0651  0.4530
  410TMC3    O2 6130   0.944   0.039  16.878  0.3117  0.0173 -0.2822
  411MPD2     C 6131   0.683   0.061  14.697  0.1405 -0.3538  0.0951
  411MPD2    C1 6132   0.586   0.067  14.595 -0.2251  0.2741 -0.4879
  411MPD2    C2 6133   0.558   4.673  14.527 -0.4411 -0.0603 -0.5254
  411MPD2    C3 6134   0.619   4.550  14.561  0.0578  0.0310  0.8944
  411MPD2    C4 6135   0.699   4.541  14.665  0.6945 -0.2760  0.2252
  411MPD2    C5 6136   0.731   4.655  14.726 -0.2428 -0.4306 -0.0045
  411MPD2     H 6137   0.481   4.689  14.452 -0.1261  0.7896 -0.6734
  411MPD2    H1 6138   0.748   4.447  14.690  2.0789  0.5500  0.6140
  411MPD2    H2 6139   0.724   0.145  14.751  2.1163 -0.9006 -0.5646
  411MPD2    H3 6140   0.806   4.653  14.804 -0.3114 -0.9636  0.0475
  411MPD2     N 6141   0.597   4.429  14.489 -0.1479 -0.7475  0.2754
  411MPD2    H5 6142   0.662   4.355  14.514 -1.4599 -1.5932  1.2287
  411MPD2    N1 6143   0.534   0.193  14.544  0.0521 -0.6792  0.0296
  411MPD2    H7 6144   0.586   0.274  14.578  1.6107 -1.6085 -0.1446
  412TMC3    C1 6145   0.526   4.286  14.306 -0.6036 -0.1002 -0.0892
  412TMC3    C2 6146   0.414   4.236  14.237  0.0036  0.8499 -0.3647
  412TMC3    C3 6147   0.441   4.127  14.158 -0.0612  0.6619 -0.9595
  412TMC3    C4 6148   0.654   4.235  14.295 -0.6959  0.5521 -0.7596
  412TMC3    C5 6149   0.672   4.131  14.210 -0.4464 -0.1222  0.7195
  412TMC3    C6 6150   0.567   4.072  14.146  0.6927  0.8399 -0.0692
  412TMC3     C 6151   0.507   4.404  14.388  0.2509 -0.0260  0.3835
  412TMC3     O 6152   0.407   4.473  14.385 -0.6724  0.0775 -0.2305
  412TMC3     H 6153   0.325   4.298  14.229 -0.8630 -0.4070 -0.4433
  412TMC3    H1 6154   0.741   4.295  14.319 -0.1508  0.0532 -1.4751
  412TMC3    H2 6155   0.581   3.971  14.111 -0.1604  0.8048 -0.3195
  412TMC3    C7 6156   0.781   4.161  14.117 -0.2869  0.4185  0.8016
  412TMC3    C8 6157   0.392   4.123  14.024  0.1030  1.0044  0.4297
  412TMC3    O1 6158   0.885   4.208  14.164  0.8101  0.2362 -0.1353
  412TMC3    O2 6159   0.461   4.073  13.937  0.0410  0.2759  0.0634
  413MPD2     C 6160   2.327   3.411  15.508  0.0959  0.5050  0.6003
  413MPD2    C1 6161   2.269   3.350  15.404  0.5840 -0.4902  0.0618
  413MPD2    C2 6162   2.354   3.281  15.328  0.8405  0.7483  0.3711
  413MPD2    C3 6163   2.488   3.269  15.352 -0.3388 -0.4583 -0.2362
  413MPD2    C4 6164   2.541   3.327  15.462 -0.3290 -0.2482 -0.0859
  413MPD2    C5 6165   2.461   3.404  15.537  0.4931 -0.0413 -0.0013
  413MPD2     H 6166   2.317   3.223  15.244 -0.9116 -0.8039  2.1876
  413MPD2    H1 6167   2.644   3.322  15.496  0.4339 -2.4212 -2.7082
  413MPD2    H2 6168   2.265   3.462  15.580 -1.5870  0.7990 -1.0516
  413MPD2    H3 6169   2.507   3.450  15.623  1.5071  0.5217 -0.8520
  413MPD2     N 6170   2.563   3.186  15.263 -0.4318 -0.2118  0.0561
  413MPD2    H5 6171   2.513   3.163  15.178 -1.2952 -0.4358  0.6211
  413MPD2    N1 6172   2.130   3.360  15.383  0.2053  0.1072 -0.0205
  413MPD2    H7 6173   2.084   3.428  15.443  0.6141  0.4980 -0.1494
  414TMC3    C1 6174   2.759   3.074  15.183 -0.0052 -0.0957  0.0149
  414TMC3    C2 6175   2.820   2.962  15.221  0.2743 -0.1107 -0.0170
  414TMC3    C3 6176   2.853   2.873  15.126  0.6336 -0.1828  0.7181
  414TMC3    C4 6177   2.726   3.103  15.047  0.3395  0.6846 -0.1186
  414TMC3    C5 6178   2.767   3.012  14.946 -0.2355  0.3330  0.1134
  414TMC3    C6 6179   2.821   2.896  14.994 -0.3990 -0.5458 -0.3072
  414TMC3     C 6180   2.694   3.153  15.287  0.2154  1.0221 -0.2443
  414TMC3     O 6181   2.759   3.151  15.390  0.3647  0.2934  0.2872
  414TMC3     H 6182   2.820   2.930  15.325 -0.1121  1.7457  0.5502
  414TMC3    H1 6183   2.677   3.196  15.023 -0.9795 -0.6354 -2.5110
  414TMC3    H2 6184   2.836   2.812  14.926  0.5010 -1.4191  0.9620
  414TMC3    C7 6185   2.703   3.014  14.812  0.2671  0.1605 -1.3548
  414TMC3    C8 6186   2.962   2.785  15.152 -0.6364  0.3245  0.1869
  414TMC3    O1 6187   2.585   3.049  14.818  0.4285 -0.2649  0.1709
  414TMC3    O2 6188   2.961   2.691  15.077  0.6217 -1.2437  0.1492
  415TMC3    C1 6189   3.536   0.531  10.164 -0.8006 -0.0938  0.3513
  415TMC3    C2 6190   3.574   0.611  10.059 -0.2257  0.4317  0.3393
  415TMC3    C3 6191   3.518   0.578   9.932  0.0477  0.3617 -0.1102
  415TMC3    C4 6192   3.445   0.425  10.150  0.4247  0.3058 -1.1304
  415TMC3    C5 6193   3.401   0.403  10.025 -1.0918  0.6247 -0.1305
  415TMC3    C6 6194   3.429   0.475   9.918  1.0125  0.0292 -0.3963
  415TMC3     C 6195   3.578   0.555  10.302  0.2012 -0.3255 -0.2490
  415TMC3     O 6196   3.536   0.476  10.386  0.0074  0.3076  0.0360
  415TMC3     H 6197   3.662   0.675  10.062 -0.1124  0.2995 -0.0736
  415TMC3    H1 6198   3.411   0.358  10.228  0.3103  2.4789  0.6919
  415TMC3    H2 6199   3.388   0.450   9.821 -1.6898  0.4485  0.6261
  415TMC3    C7 6200   3.285   0.316  10.012 -0.7693 -0.1389 -0.3131
  415TMC3    C8 6201   3.534   0.662   9.812  0.2356 -0.3854 -0.4198
  415TMC3    O1 6202   3.253   0.290   9.896 -0.1279 -0.2316  0.2186
  415TMC3    O2 6203   3.438   0.650   9.735 -0.1809  0.2010 -0.6936
  416MPD2     C 6204   0.453   4.712  11.926 -0.4876 -0.1361 -0.3287
  416MPD2    C1 6205   0.377   4.717  11.808  0.0354  0.1164 -0.1037
  416MPD2    C2 6206   0.403   4.626  11.709  0.1205 -0.4545 -0.7718
  416MPD2    C3 6207   0.490   4.519  11.722  0.5880 -0.5288 -0.1908
  416MPD2    C4 6208   0.567   4.520  11.835 -0.5549  0.3167 -1.1902
  416MPD2    C5 6209   0.547   4.612  11.935  0.1212  0.9556  0.2883
  416MPD2     H 6210   0.353   4.635  11.613 -0.5726  2.8115 -0.0806
  416MPD2    H1 6211   0.659   4.463  11.838 -0.8318 -0.0650  0.3616
  416MPD2    H2 6212   0.447   0.057  12.010 -1.5016 -1.0102  0.3113
  416MPD2    H3 6213   0.625   4.619  12.009  1.7764  1.0122 -1.4589
  416MPD2     N 6214   0.511   4.417  11.628  0.3954 -0.8184 -0.1555
  416MPD2    H5 6215   0.575   4.344  11.659  1.4245 -1.1537 -3.0711
  416MPD2    N1 6216   0.287   0.101  11.800 -0.7851 -0.6523  0.1930
  416MPD2    H7 6217   0.276   0.159  11.883  0.7815  0.5210 -0.4298
  417TMC3    C1 6218   0.099   0.230  11.703  0.9165 -0.2325 -0.8404
  417TMC3    C2 6219   0.071   0.303  11.820  0.1121 -0.0264  0.0206
  417TMC3    C3 6220   4.705   0.409  11.814  0.4744  0.3750  0.0491
  417TMC3    C4 6221   0.032   0.249  11.589  0.2280  0.0029  0.3699
  417TMC3    C5 6222   4.678   0.363  11.581  0.2342 -0.0190 -0.5454
  417TMC3    C6 6223   4.653   0.441  11.693 -0.1138 -0.8202  0.4159
  417TMC3     C 6224   0.191   0.108  11.699  0.2713 -0.7571  0.0114
  417TMC3     O 6225   0.163   0.029  11.607  0.4084  0.0004 -0.8556
  417TMC3     H 6226   0.087   0.262  11.919 -0.2737 -0.3556 -0.0531
  417TMC3    H1 6227   0.062   0.194  11.500  0.4350  0.0205  0.4303
  417TMC3    H2 6228   4.581   0.522  11.696  1.1092  0.2442  1.2944
  417TMC3    C7 6229   4.619   0.385  11.456  0.3217  0.3388 -0.3195
  417TMC3    C8 6230   4.656   0.469  11.940 -0.0353  0.1187 -0.1062
  417TMC3    O1 6231   4.633   0.501  11.409 -0.7693  0.6581 -0.1307
  417TMC3    O2 6232   4.539   0.478  11.959 -0.0080  0.1421 -0.4689
  418TMC3    C1 6233   3.040   1.623   0.689 -0.5594  0.4798  0.0491
  418TMC3    C2 6234   2.906   1.654   0.711 -0.0776 -0.2397  0.7040
  418TMC3    C3 6235   2.819   1.561   0.764  0.2346  0.4590  0.6395
  418TMC3    C4 6236   3.091   1.506   0.742 -0.5609 -0.1965 -0.1363
  418TMC3    C5 6237   3.007   1.420   0.810 -0.4569 -0.6255  0.3713
  418TMC3    C6 6238   2.872   1.439   0.817 -0.0254  0.2079  0.6251
  418TMC3     C 6239   3.108   1.699   0.573 -0.7888 -0.1029  0.3376
  418TMC3     O 6240   3.072   1.812   0.546 -0.1251  0.8376  0.5512
  418TMC3     H 6241   2.869   1.743   0.664 -0.7053 -0.6005  0.5220
  418TMC3    H1 6242   3.198   1.491   0.737 -0.6715 -0.7685 -0.7020
  418TMC3    H2 6243   2.810   1.372   0.876  2.2284 -1.2429  1.3324
  418TMC3    C7 6244   3.051   1.280   0.824  0.4585  0.0502  0.5681
  418TMC3    C8 6245   2.691   1.552   0.689 -0.3898 -0.6170 -0.3439
  418TMC3    O1 6246   2.974   1.194   0.790  0.1878 -0.4339 -0.2088
  418TMC3    O2 6247   2.659   1.655   0.640 -0.1889  0.3181  0.1591
  419MPD2     C 6248   2.152   0.425  13.124  0.1818 -0.2821  0.1430
  419MPD2    C1 6249   2.030   0.487  13.109  0.3090 -0.9195 -0.2870
  419MPD2    C2 6250   1.986   0.564  13.214  0.5334 -0.0569 -0.4482
  419MPD2    C3 6251   2.060   0.578  13.334  0.4740 -0.0605  0.0427
  419MPD2    C4 6252   2.178   0.517  13.342 -0.6293 -0.2929  0.0113
  419MPD2    C5 6253   2.225   0.446  13.237 -0.3836  0.2999 -0.6378
  419MPD2     H 6254   1.889   0.610  13.198 -0.4660 -1.1159  2.5412
  419MPD2    H1 6255   2.244   0.539  13.426 -0.5204 -0.4620 -0.0322
  419MPD2    H2 6256   2.202   0.367  13.047 -0.9666 -0.9245 -0.1318
  419MPD2    H3 6257   2.327   0.409  13.235  0.1891  1.5883  4.4869
  419MPD2     N 6258   2.014   0.645  13.446 -0.1185 -0.1303 -0.3156
  419MPD2    H5 6259   2.072   0.637  13.530  0.3972  1.8653 -0.4687
  419MPD2    N1 6260   1.960   0.483  12.986  0.1845  0.5925  0.4986
  419MPD2    H7 6261   1.876   0.540  12.978  0.9071  1.6953  0.8210
  420TMC3    C1 6262   1.849   0.731  13.595  0.1922  0.5519  0.3458
  420TMC3    C2 6263   1.731   0.797  13.613  0.2113  0.2850  0.3270
  420TMC3    C3 6264   1.653   0.781  13.724  0.4971  0.1432 -0.3475
  420TMC3    C4 6265   1.865   0.632  13.683  0.6747 -0.8131 -0.2072
  420TMC3    C5 6266   1.779   0.603  13.783  0.1360 -0.3035  0.1543
  420TMC3    C6 6267   1.676   0.679  13.816  0.5068  0.2439 -0.9557
  420TMC3     C 6268   1.892   0.705  13.461 -0.5709 -0.0443 -0.4969
  420TMC3     O 6269   1.810   0.726  13.373 -0.1068 -0.4984 -0.5341
  420TMC3     H 6270   1.716   0.873  13.537  1.8029 -0.1242 -0.3936
  420TMC3    H1 6271   1.962   0.584  13.686  0.4985 -1.0996  0.9560
  420TMC3    H2 6272   1.606   0.637  13.889  2.5603  1.6245  1.8037
  420TMC3    C7 6273   1.743   0.464  13.765 -0.6426  0.0835  0.1313
  420TMC3    C8 6274   1.517   0.808  13.698  0.5436  0.3735  0.0972
  420TMC3    O1 6275   1.691   0.411  13.863 -0.1094  0.0713  0.0306
  420TMC3    O2 6276   1.475   0.783  13.584 -0.4896  0.5404 -0.2277
  421TMC3    C1 6277   3.382   1.822  13.560 -0.7525 -0.2860 -0.2661
  421TMC3    C2 6278   3.438   1.940  13.622 -0.4191  0.7054  0.0482
  421TMC3    C3 6279   3.543   1.920  13.712 -0.1159  0.4798 -0.8044
  421TMC3    C4 6280   3.433   1.700  13.580  0.5409  0.5116  0.6332
  421TMC3    C5 6281   3.545   1.690  13.658  0.0412 -0.4064 -0.4460
  421TMC3    C6 6282   3.593   1.796  13.728 -0.3103  0.2162 -0.2083
  421TMC3     C 6283   3.263   1.842  13.484  0.4636 -0.5460  0.3984
  421TMC3     O 6284   3.224   1.954  13.462  0.3007 -0.0853  0.3491
  421TMC3     H 6285   3.387   2.036  13.623 -2.0558 -0.1381 -1.9418
  421TMC3    H1 6286   3.400   1.618  13.518  1.1765  0.5869  0.1880
  421TMC3    H2 6287   3.670   1.778  13.801 -1.7018 -0.8751  0.9987
  421TMC3    C7 6288   3.597   1.557  13.705 -0.0977  0.0394  0.5782
  421TMC3    C8 6289   3.597   2.030  13.780  0.2533  0.4327 -0.0710
  421TMC3    O1 6290   3.716   1.559  13.742  0.1733 -0.3047 -0.2646
  421TMC3    O2 6291   3.641   1.995  13.891  0.8389  0.2468 -0.0454
  422TMC3    C1 6292   1.250   2.839  12.260  0.7870 -0.4083  0.0075
  422TMC3    C2 6293   1.180   2.953  12.292  0.6958 -0.4664  0.4475
  422TMC3    C3 6294   1.052   2.938  12.347 -0.0174  0.1704  0.5719
  422TMC3    C4 6295   1.200   2.716  12.285  0.1342  0.7544 -0.4719
  422TMC3    C5 6296   1.079   2.707  12.342 -0.6805  0.0035  0.7863
  422TMC3    C6 6297   1.010   2.816  12.382  0.4922 -0.2299 -0.4494
  422TMC3     C 6298   1.378   2.843  12.188  0.3277 -0.0174  0.1950
  422TMC3     O 6299   1.384   2.925  12.100 -0.5559  0.5945  0.7209
  422TMC3     H 6300   1.232   3.044  12.263 -3.2896  1.2886 -1.2872
  422TMC3    H1 6301   1.247   2.628  12.241  0.9463  1.7744 -1.6429
  422TMC3    H2 6302   0.912   2.811  12.429 -0.8766  2.8498 -2.9231
  422TMC3    C7 6303   1.011   2.576  12.345 -0.3010 -0.3754 -0.2109
  422TMC3    C8 6304   0.981   3.053  12.379 -0.4071 -0.5021  0.0761
  422TMC3    O1 6305   1.055   2.485  12.274  0.5070  0.0825 -0.2566
  422TMC3    O2 6306   0.861   3.037  12.403  0.4432  0.2832  0.0538
  423MPD2     C 6307   2.017   4.224   0.417  0.3560 -0.1770 -0.7674
  423MPD2    C1 6308   1.996   4.099   0.468 -0.3507  0.4305  0.0388
  423MPD2    C2 6309   2.011   3.990   0.383 -0.0745 -0.4259  0.6127
  423MPD2    C3 6310   2.061   4.008   0.249  0.8869 -0.4103  0.0760
  423MPD2    C4 6311   2.087   4.130   0.203  0.3959  0.4054  0.0748
  423MPD2    C5 6312   2.061   4.234   0.291 -0.1089 -0.0363 -0.4359
  423MPD2     H 6313   1.984   3.890   0.416  0.0748 -0.1512  1.5682
  423MPD2    H1 6314   2.126   4.142   0.103  0.6937  3.1463  0.5030
  423MPD2    H2 6315   2.007   4.321   0.465  0.0299  0.0412 -1.2790
  423MPD2    H3 6316   2.078   4.336   0.258 -2.0448  0.7789  1.0513
  423MPD2     N 6317   2.101   3.903   0.158  0.0371 -0.1824  0.4106
  423MPD2    H5 6318   2.125   3.928   0.063 -0.1444 -1.0683  0.1326
  423MPD2    N1 6319   1.967   4.069   0.604  0.7605 -0.1533  0.5047
  423MPD2    H7 6320   1.956   3.970   0.621  1.3413 -0.0534  1.5270
  424TMC3    C1 6321   1.882   4.102   0.815 -0.3471 -0.4837 -0.4599
  424TMC3    C2 6322   1.943   3.992   0.867  0.7471  0.1398  0.1732
  424TMC3    C3 6323   1.892   3.945   0.985 -0.1411 -0.8625  0.2285
  424TMC3    C4 6324   1.786   4.171   0.879 -0.5452 -0.6081  0.5052
  424TMC3    C5 6325   1.741   4.118   0.998 -0.0145 -0.3518 -0.0191
  424TMC3    C6 6326   1.796   4.011   1.058 -0.8320 -0.1925  0.2091
  424TMC3     C 6327   1.927   4.164   0.695  0.7884 -0.1125  0.5217
  424TMC3     O 6328   1.932   4.286   0.696  0.8446 -0.0586  0.2753
  424TMC3     H 6329   2.006   3.923   0.813 -0.1557  0.8675 -1.8151
  424TMC3    H1 6330   1.743   4.260   0.835  1.9717  0.2498 -0.1699
  424TMC3    H2 6331   1.777   3.978   1.160  0.7126  0.0011  0.5620
  424TMC3    C7 6332   1.620   4.180   1.055 -0.4755 -0.6173  0.2503
  424TMC3    C8 6333   1.940   3.822   1.046  0.7480  0.4468 -0.1619
  424TMC3    O1 6334   1.566   4.271   1.004 -1.2135 -0.5984 -0.4420
  424TMC3    O2 6335   1.873   3.767   1.136  0.3408  0.2088 -0.2060
  425MPD2     C 6336   1.055   3.341  17.363 -0.1008  0.0882  0.1991
  425MPD2    C1 6337   0.992   3.233  17.300  0.1610 -0.7514 -0.1567
  425MPD2    C2 6338   0.860   3.251  17.278 -0.2199  0.7010 -0.1465
  425MPD2    C3 6339   0.781   3.354  17.328 -0.6487 -0.1195 -0.3235
  425MPD2    C4 6340   0.848   3.456  17.387 -0.0602 -0.5185 -0.1115
  425MPD2    C5 6341   0.988   3.458  17.396  0.5625 -0.5744 -0.3076
  425MPD2     H 6342   0.809   3.171  17.225 -0.2930  0.5804  0.1069
  425MPD2    H1 6343   0.792   3.544  17.417  1.8934 -0.2255  2.7140
  425MPD2    H2 6344   1.163   3.339  17.369 -0.2358 -0.8085  2.2035
  425MPD2    H3 6345   1.033   3.538  17.453  0.6936 -0.5398 -0.4611
  425MPD2     N 6346   0.637   3.344  17.317 -0.4996  0.5139 -0.0075
  425MPD2    H5 6347   0.615   3.262  17.262  0.7420 -0.6252  1.1729
  425MPD2    N1 6348   1.065   3.121  17.258 -0.2149  0.0759 -0.1542
  425MPD2    H7 6349   1.163   3.116  17.282 -0.7540 -1.7367  1.7167
  426TMC3    C1 6350   1.106   2.904  17.184  0.8154  0.1315 -0.1502
  426TMC3    C2 6351   1.100   2.828  17.069  0.3824 -0.3758 -0.0351
  426TMC3    C3 6352   1.195   2.728  17.057 -0.2409 -0.0997 -0.6369
  426TMC3    C4 6353   1.168   2.869  17.297  0.7276 -0.5127 -0.5979
  426TMC3    C5 6354   1.256   2.756  17.280  0.7019  0.9183  0.0080
  426TMC3    C6 6355   1.273   2.695  17.161  0.1999 -0.7037  0.3808
  426TMC3     C 6356   1.017   3.014  17.186 -0.4272 -0.2671  0.6141
  426TMC3     O 6357   0.906   2.993  17.134  0.1270  0.8377 -0.6300
  426TMC3     H 6358   1.040   2.869  16.988  2.2054  0.1988 -1.0965
  426TMC3    H1 6359   1.165   2.928  17.388 -1.1855 -1.1772 -0.2456
  426TMC3    H2 6360   1.326   2.600  17.163  1.4096 -0.0256  0.0482
  426TMC3    C7 6361   1.281   2.680  17.404  0.1453  1.1624 -0.5190
  426TMC3    C8 6362   1.191   2.640  16.943  0.3049  0.1010  0.3504
  426TMC3    O1 6363   1.374   2.597  17.405  0.8894  0.1556  0.4811
  426TMC3    O2 6364   1.282   2.563  16.920  0.0780 -0.1691  0.3872
  427MPD2     C 6365   4.421   0.235  14.733  0.0410 -0.3909  0.3183
  427MPD2    C1 6366   4.408   0.225  14.868 -0.0941 -0.8714  0.5661
  427MPD2    C2 6367   4.305   0.296  14.924 -0.4004  0.8969 -0.1420
  427MPD2    C3 6368   4.199   0.357  14.847  0.3879  0.2094 -0.3009
  427MPD2    C4 6369   4.216   0.365  14.715 -0.5258 -0.5257 -0.2955
  427MPD2    C5 6370   4.327   0.302  14.659  0.5095  0.0499  0.9162
  427MPD2     H 6371   4.308   0.310  15.031 -0.7206 -0.1147  0.0063
  427MPD2    H1 6372   4.142   0.418  14.656 -1.3442 -1.1400  0.1941
  427MPD2    H2 6373   4.516   0.213  14.686  0.1101 -1.3941  0.9370
  427MPD2    H3 6374   4.351   0.310  14.553 -1.6728 -0.8996  0.3393
  427MPD2     N 6375   4.087   0.414  14.903  0.3766  0.7313 -0.2047
  427MPD2    H5 6376   4.012   0.429  14.836  2.6267 -0.4552 -3.0128
  427MPD2    N1 6377   4.502   0.163  14.946 -0.1479  0.4301  0.0826
  427MPD2    H7 6378   4.591   0.139  14.903 -1.1032  0.0690 -1.7001
  428TMC3    C1 6379   4.580   0.031  15.132 -0.1686  0.0459  0.0364
  428TMC3    C2 6380   4.570   4.621  15.176 -0.9003 -0.2524  0.3474
  428TMC3    C3 6381   4.679   4.553  15.225 -0.4683  0.2524  0.3314
  428TMC3    C4 6382   4.702   0.095  15.137  0.1456  0.8089  0.0882
  428TMC3    C5 6383   0.083   0.026  15.194  0.2167 -0.1900 -0.0628
  428TMC3    C6 6384   0.071   4.625  15.254  0.2123  0.2440 -0.3976
  428TMC3     C 6385   4.476   0.099  15.059 -0.4320 -0.3732 -0.3347
  428TMC3     O 6386   4.371   0.073  15.116  0.9133  0.4076  0.1115
  428TMC3     H 6387   4.479   4.567  15.154 -0.1530 -1.1333 -0.5791
  428TMC3    H1 6388   4.716   0.193  15.094  0.8483 -0.1170 -1.8119
  428TMC3    H2 6389   0.153   4.576  15.306  0.0482  0.4362  0.0406
  428TMC3    C7 6390   0.216   0.079  15.214 -0.0179 -0.2936 -0.4983
  428TMC3    C8 6391   4.694   4.412  15.204 -0.0503 -0.3567 -0.2675
  428TMC3    O1 6392   0.283   0.055  15.314  0.0367 -0.9097  0.3778
  428TMC3    O2 6393   0.084   4.376  15.178 -0.6409  0.4113  0.3927
  429MPD2     C 6394   0.857   0.612  17.481  0.8161  0.2635 -0.3780
  429MPD2    C1 6395   0.932   0.516  17.412 -0.7120 -0.0568  1.2214
  429MPD2    C2 6396   1.046   0.565  17.350 -0.6707  0.4223  0.2116
  429MPD2    C3 6397   1.075   0.701  17.341 -0.1902  0.2049  0.0613
  429MPD2    C4 6398   0.997   0.788  17.408 -0.1240 -0.1072 -0.0172
  429MPD2    C5 6399   0.889   0.740  17.480 -0.0930 -0.3516 -0.0813
  429MPD2     H 6400   1.116   0.502  17.296  0.5101  0.4140  1.7662
  429MPD2    H1 6401   1.015   0.893  17.391 -2.0896  0.4772  1.5433
  429MPD2    H2 6402   0.767   0.579  17.532  1.0106 -0.2671 -0.3736
  429MPD2    H3 6403   0.820   0.813  17.521  0.8865 -0.9747  2.6225
  429MPD2     N 6404   1.201   0.734  17.271 -0.3141 -0.5352  0.2559
  429MPD2    H5 6405   1.242   0.656  17.221  1.6907  1.7704 -1.7481
  429MPD2    N1 6406   0.904   0.379  17.413 -0.3116  0.0794 -0.3173
  429MPD2    H7 6407   0.976   0.322  17.369  0.0265  0.2565  0.0030
  430TMC3    C1 6408   1.362   0.864  17.168 -0.0375  0.2347 -0.3388
  430TMC3    C2 6409   1.386   0.984  17.105 -0.2123  0.5295 -0.1368
  430TMC3    C3 6410   1.457   0.982  16.990 -0.6344  0.9649  0.0110
  430TMC3    C4 6411   1.429   0.750  17.147  0.0786  0.7561  0.2683
  430TMC3    C5 6412   1.516   0.759  17.037 -0.1887 -0.1671  0.2373
  430TMC3    C6 6413   1.521   0.867  16.954 -0.3104 -0.0240  0.3736
  430TMC3     C 6414   1.245   0.860  17.255 -0.3511  0.6171 -0.3631
  430TMC3     O 6415   1.211   0.967  17.311 -0.1680  0.5833  0.3293
  430TMC3     H 6416   1.317   1.065  17.125  0.7317  1.6645 -1.4769
  430TMC3    H1 6417   1.409   0.658  17.202  0.5035 -0.6298 -1.8829
  430TMC3    H2 6418   1.587   0.872  16.868 -0.7012  0.9305  0.1352
  430TMC3    C7 6419   1.582   0.637  16.995 -0.0431  0.2610 -0.6322
  430TMC3    C8 6420   1.416   1.071  16.884  0.4740  0.0506  0.5763
  430TMC3    O1 6421   1.533   0.537  17.052  0.3666 -0.0190  0.1209
  430TMC3    O2 6422   1.439   1.034  16.772 -0.8296 -0.3872  0.1716
  431MPD2     C 6423   1.850   0.972  12.140 -0.0824 -0.1448 -0.0838
  431MPD2    C1 6424   1.948   0.949  12.234  0.4969  0.3989  0.1971
  431MPD2    C2 6425   1.923   0.874  12.347 -0.1363  0.5782  0.2210
  431MPD2    C3 6426   1.797   0.814  12.365  0.0978  0.4839 -0.2199
  431MPD2    C4 6427   1.699   0.833  12.266 -0.5134 -0.6273 -0.0894
  431MPD2    C5 6428   1.729   0.918  12.154  0.7057  0.4173  0.1523
  431MPD2     H 6429   2.005   0.857  12.416 -0.1877  0.2029  0.1885
  431MPD2    H1 6430   1.605   0.782  12.281 -0.0257 -1.3133  0.6415
  431MPD2    H2 6431   1.873   1.041  12.060 -2.5658  1.4360  0.5612
  431MPD2    H3 6432   1.662   0.916  12.069  0.2322 -0.5399  0.5529
  431MPD2     N 6433   1.765   0.734  12.475 -0.1125  0.0566  0.1149
  431MPD2    H5 6434   1.672   0.694  12.478  0.8011 -1.8000  2.9651
  431MPD2    N1 6435   2.083   0.997  12.230 -0.1674  0.4229  0.2688
  431MPD2    H7 6436   2.144   0.974  12.308  0.8110 -1.2570 -0.9906
  432TMC3    C1 6437   1.809   0.572  12.632 -0.0264 -0.3816 -0.1652
  432TMC3    C2 6438   1.746   0.480  12.558  0.4797 -0.0597  0.0424
  432TMC3    C3 6439   1.774   0.346  12.600 -0.4452  0.0361  0.4690
  432TMC3    C4 6440   1.879   0.545  12.746  0.1675  0.4541  0.5352
  432TMC3    C5 6441   1.904   0.414  12.775  0.2051  0.4146  0.6568
  432TMC3    C6 6442   1.858   0.309  12.706 -0.0901 -0.9663  0.0046
  432TMC3     C 6443   1.843   0.702  12.581  0.1529 -0.5258 -0.0218
  432TMC3     O 6444   1.941   0.760  12.627  0.4703  0.1343  0.0146
  432TMC3     H 6445   1.710   0.496  12.457 -0.7564  0.6528  0.5954
  432TMC3    H1 6446   1.909   0.623  12.814 -2.4892  1.0681  0.9954
  432TMC3    H2 6447   1.864   0.209  12.747 -0.2293 -1.2900 -0.7501
  432TMC3    C7 6448   1.992   0.387  12.885 -0.3381  0.1894 -0.0046
  432TMC3    C8 6449   1.748   0.240  12.509 -0.1579 -0.0922 -0.3799
  432TMC3    O1 6450   2.052   0.282  12.894 -0.1880  0.3299  0.7581
  432TMC3    O2 6451   1.652   0.242  12.435  0.7197  0.0843 -0.2743
  433MPD2     C 6452   0.928   3.322  10.583  0.1529 -0.5683  0.2838
  433MPD2    C1 6453   1.048   3.275  10.625  0.2864  0.5415 -0.0743
  433MPD2    C2 6454   1.100   3.321  10.746 -0.5510 -0.0568 -1.0959
  433MPD2    C3 6455   1.027   3.392  10.835 -0.2616 -0.2887 -0.7366
  433MPD2    C4 6456   0.903   3.431  10.804 -0.4739  0.3661  0.3880
  433MPD2    C5 6457   0.855   3.396  10.677 -0.1013  0.1314 -0.4793
  433MPD2     H 6458   1.201   3.287  10.765 -1.7969 -2.6306  0.8310
  433MPD2    H1 6459   0.837   3.484  10.871  0.7388  1.1076  0.9927
  433MPD2    H2 6460   0.887   3.298  10.486 -2.1672 -0.2401  1.1711
  433MPD2    H3 6461   0.756   3.428  10.646 -0.9428 -1.2804  0.7204
  433MPD2     N 6462   1.080   3.410  10.965  0.1193  0.4400  0.1473
  433MPD2    H5 6463   1.178   3.385  10.969 -0.4426 -1.9904 -1.3844
  433MPD2    N1 6464   1.114   3.185  10.536 -0.6471  0.7491  0.3116
  433MPD2    H7 6465   1.069   3.167  10.447 -1.0818 -1.2517  0.9327
  434TMC3    C1 6466   1.277   3.040  10.447 -1.1189 -0.0561  0.8963
  434TMC3    C2 6467   1.402   3.002  10.467  0.4965  0.2675  0.7041
  434TMC3    C3 6468   1.456   2.915  10.378  0.8332 -0.3956 -0.0840
  434TMC3    C4 6469   1.193   2.986  10.358  0.2023  0.1871 -0.8525
  434TMC3    C5 6470   1.250   2.898  10.272 -0.0932  0.8013 -0.6776
  434TMC3    C6 6471   1.384   2.859  10.275  0.6194  0.6373 -0.2432
  434TMC3     C 6472   1.231   3.126  10.559  0.0673 -0.1668  0.4985
  434TMC3     O 6473   1.307   3.146  10.654  0.4470  0.7290 -0.6880
  434TMC3     H 6474   1.454   3.019  10.560 -0.1223 -1.9824  1.4760
  434TMC3    H1 6475   1.088   3.010  10.346  0.0943  1.6753  2.8520
  434TMC3    H2 6476   1.423   2.782  10.210  0.1897 -0.5749  0.9481
  434TMC3    C7 6477   1.163   2.828  10.180 -0.5642 -0.3123 -1.3542
  434TMC3    C8 6478   1.581   2.862  10.413 -0.1002  0.7802  0.2903
  434TMC3    O1 6479   1.071   2.879  10.119 -0.1984  0.1167  0.0553
  434TMC3    O2 6480   1.640   2.792  10.332 -0.1098  0.7023 -0.5964
  435MPD2     C 6481   2.665   3.770  15.387  0.1161 -0.2735 -0.4868
  435MPD2    C1 6482   2.641   3.746  15.520 -0.3031 -0.0534 -0.0553
  435MPD2    C2 6483   2.747   3.726  15.608 -0.0177  0.7193 -0.5310
  435MPD2    C3 6484   2.876   3.736  15.572 -0.1488 -0.2859  0.6625
  435MPD2    C4 6485   2.901   3.754  15.438 -0.1350  0.0656 -0.6965
  435MPD2    C5 6486   2.794   3.769  15.349 -0.3415 -0.4162  0.9190
  435MPD2     H 6487   2.730   3.711  15.715  0.2024  1.6224 -0.3736
  435MPD2    H1 6488   3.001   3.767  15.397 -0.0205 -4.3977 -1.7950
  435MPD2    H2 6489   2.591   3.798  15.312  0.8457  1.9126 -0.4041
  435MPD2    H3 6490   2.816   3.798  15.247 -0.6304 -1.8656  0.4440
  435MPD2     N 6491   2.980   3.735  15.669  0.1938  0.0188 -0.0520
  435MPD2    H5 6492   2.940   3.717  15.761  0.2539  0.9966  0.1672
  435MPD2    N1 6493   2.508   3.750  15.572 -0.4194 -0.6749  0.3324
  435MPD2    H7 6494   2.506   3.746  15.673 -4.2835 -1.4623  0.2196
  436TMC3    C1 6495   2.074   3.849  15.650 -0.0463 -0.0556 -0.7052
  436TMC3    C2 6496   2.161   3.819  15.555  0.1644  0.3744 -0.1857
  436TMC3    C3 6497   2.274   3.753  15.595 -0.1978  0.2575 -0.5516
  436TMC3    C4 6498   2.082   3.805  15.781  0.3211 -0.3056  0.5538
  436TMC3    C5 6499   2.195   3.727  15.803 -0.4638 -0.0487  0.1334
  436TMC3    C6 6500   2.298   3.710  15.723  0.5739  0.1588  0.9909
  436TMC3     C 6501   2.001   3.963  15.619  0.6115 -0.3013 -0.2178
  436TMC3     O 6502   1.955   3.974  15.506  0.2765  0.1211 -0.0852
  436TMC3     H 6503   2.154   3.867  15.458 -3.7661  0.8431  0.3128
  436TMC3    H1 6504   2.010   3.831  15.857  1.3570  1.8518  0.7889
  436TMC3    H2 6505   2.382   3.644  15.745 -0.9288 -2.0827  0.0226
  436TMC3    C7 6506   2.182   3.629  15.910  0.1467  0.1849  0.6073
  436TMC3    C8 6507   2.390   3.764  15.502  1.1072  0.1663 -0.0576
  436TMC3    O1 6508   2.237   3.524  15.892 -0.7584  0.3875  0.4454
  436TMC3    O2 6509   2.372   3.774  15.381  0.2071 -0.6329  0.2818
  437TMC3    C1 6510   1.480   0.965  12.643 -0.2525  0.5971  0.1542
  437TMC3    C2 6511   1.431   1.028  12.753 -0.1894 -0.2117  0.1033
  437TMC3    C3 6512   1.438   1.166  12.747  0.3351 -0.6766  0.3316
  437TMC3    C4 6513   1.525   1.027  12.524  0.1684 -0.0731 -0.0543
  437TMC3    C5 6514   1.538   1.163  12.531  0.4477  0.0194  0.5538
  437TMC3    C6 6515   1.502   1.236  12.644  0.2770 -0.1326  0.1416
  437TMC3     C 6516   1.443   0.820  12.625  0.4783  0.2553 -0.4117
  437TMC3     O 6517   1.459   0.776  12.511  0.0611 -0.8296 -0.3445
  437TMC3     H 6518   1.368   0.981  12.828 -1.4150 -0.8237 -1.3076
  437TMC3    H1 6519   1.548   0.969  12.435 -2.9768  0.0658 -0.9737
  437TMC3    H2 6520   1.493   1.343  12.633  3.1717  0.0222 -0.6820
  437TMC3    C7 6521   1.642   1.217  12.452 -0.4982  0.1908 -0.0471
  437TMC3    C8 6522   1.355   1.238  12.839  0.1630  0.1498  0.1075
  437TMC3    O1 6523   1.610   1.297  12.363  0.4456  0.0050 -0.0147
  437TMC3    O2 6524   1.243   1.188  12.860 -0.2420 -0.0865 -0.2293
  438MPD2     C 6525   3.453   1.409  16.555 -0.0704 -0.5711  0.0327
  438MPD2    C1 6526   3.555   1.361  16.640 -0.2603  0.1500 -0.2200
  438MPD2    C2 6527   3.542   1.396  16.773 -0.0322  0.3683  0.1900
  438MPD2    C3 6528   3.439   1.477  16.820 -0.4431 -0.3276 -0.1318
  438MPD2    C4 6529   3.346   1.521  16.740 -0.7298 -0.3062 -0.1776
  438MPD2    C5 6530   3.359   1.492  16.604  0.7822 -0.2312 -0.5054
  438MPD2     H 6531   3.614   1.360  16.846  1.4425  0.7899 -1.0562
  438MPD2    H1 6532   3.273   1.597  16.765 -1.0546 -1.5206  2.5163
  438MPD2    H2 6533   3.462   1.406  16.447  1.9033 -1.1270  0.2021
  438MPD2    H3 6534   3.285   1.540  16.541 -0.9736 -3.1865 -0.7176
  438MPD2     N 6535   3.429   1.487  16.962  0.1102  0.2281 -0.6032
  438MPD2    H5 6536   3.504   1.444  17.015  0.2283 -0.3361 -1.2330
  438MPD2    N1 6537   3.671   1.292  16.603 -0.4867  0.0549 -0.3510
  438MPD2    H7 6538   3.738   1.272  16.677 -0.0238 -1.3410 -1.1341
  439TMC3    C1 6539   3.845   1.245  16.472  0.0930 -0.6581 -0.1423
  439TMC3    C2 6540   3.898   1.201  16.350  0.6480 -0.7940 -0.2388
  439TMC3    C3 6541   4.032   1.182  16.344 -0.8131  0.7361  0.0022
  439TMC3    C4 6542   3.931   1.267  16.577  0.0370  0.5760 -0.4159
  439TMC3    C5 6543   4.065   1.254  16.561 -0.0180  0.7866  0.2318
  439TMC3    C6 6544   4.118   1.210  16.443  0.0644  0.0993 -1.0819
  439TMC3     C 6545   3.706   1.271  16.477 -0.2101 -0.4499 -0.2943
  439TMC3     O 6546   3.638   1.274  16.375 -0.1555 -0.1615  0.0385
  439TMC3     H 6547   3.831   1.179  16.268  1.5014 -0.9894 -0.8730
  439TMC3    H1 6548   3.904   1.325  16.666 -0.0236 -3.4483  2.1911
  439TMC3    H2 6549   4.224   1.190  16.436  0.4418  0.6288  2.7807
  439TMC3    C7 6550   4.146   1.326  16.655  0.1038  0.4767 -0.3347
  439TMC3    C8 6551   4.071   1.105  16.229 -0.4447  0.3190 -1.1490
  439TMC3    O1 6552   4.103   1.336  16.767 -0.1630 -0.3720  0.4377
  439TMC3    O2 6553   4.006   1.120  16.128  0.6039  0.3532 -0.3263
  440MPD2     C 6554   2.870   2.460  14.678  0.0182  0.5515  0.2630
  440MPD2    C1 6555   2.826   2.425  14.807 -0.2282  0.3643  0.0794
  440MPD2    C2 6556   2.896   2.332  14.876  0.1308  0.0153  0.3327
  440MPD2    C3 6557   3.016   2.285  14.830 -0.0226 -0.0931  0.5401
  440MPD2    C4 6558   3.055   2.306  14.703 -0.5520  0.5449  0.3566
  440MPD2    C5 6559   2.983   2.399  14.628 -0.1888  0.4727 -0.2236
  440MPD2     H 6560   2.862   2.319  14.978 -1.0710 -3.0050 -0.4538
  440MPD2    H1 6561   3.144   2.263  14.658 -1.0673  1.4724 -1.5255
  440MPD2    H2 6562   2.826   2.537  14.615  0.8973  1.4874  0.7867
  440MPD2    H3 6563   3.026   2.438  14.536 -1.5372 -0.2793 -1.1720
  440MPD2     N 6564   3.105   2.207  14.910  0.1965 -0.4031  0.8404
  440MPD2    H5 6565   3.197   2.189  14.871 -0.9767 -1.3308 -1.4773
  440MPD2    N1 6566   2.714   2.486  14.870  0.3537 -0.3061  0.1309
  440MPD2    H7 6567   2.684   2.452  14.961  1.2841 -1.3126  0.0527
  441TMC3    C1 6568   3.204   2.114  15.083  0.6564  0.1963 -1.2934
  441TMC3    C2 6569   3.303   2.210  15.089 -0.0240 -0.1527  0.7024
  441TMC3    C3 6570   3.388   2.213  15.195 -0.6647 -0.9302 -0.2737
  441TMC3    C4 6571   3.190   2.019  15.174  0.0787  0.8404 -0.3815
  441TMC3    C5 6572   3.292   2.005  15.264 -0.6343  0.1525 -0.0834
  441TMC3    C6 6573   3.382   2.112  15.281  0.1737  0.3265 -0.4583
  441TMC3     C 6574   3.083   2.166  15.034 -0.6685  0.2335  0.4756
  441TMC3     O 6575   2.984   2.159  15.105  0.4497 -0.4664 -0.0211
  441TMC3     H 6576   3.312   2.285  15.010 -0.1115 -1.4232 -0.5054
  441TMC3    H1 6577   3.109   1.947  15.166  0.6857 -0.2278  2.9463
  441TMC3    H2 6578   3.429   2.118  15.379 -0.3045  1.6424 -0.3140
  441TMC3    C7 6579   3.239   1.959  15.396  0.3622 -0.3282 -0.2314
  441TMC3    C8 6580   3.419   2.347  15.249 -0.3648 -0.2684 -0.0287
  441TMC3    O1 6581   3.120   1.985  15.412  0.0389  0.2672  0.3018
  441TMC3    O2 6582   3.498   2.354  15.343 -0.0227  0.1036 -0.6761
  442MPD2     C 6583   0.298   2.410  16.824  0.5051 -0.6317  0.0124
  442MPD2    C1 6584   0.381   2.500  16.755 -0.1497 -0.3674 -0.3764
  442MPD2    C2 6585   0.455   2.447  16.645 -0.1757 -0.2783 -0.1575
  442MPD2    C3 6586   0.444   2.313  16.611 -0.0144 -0.5217  0.6043
  442MPD2    C4 6587   0.373   2.226  16.693 -0.0578  0.0627 -0.4071
  442MPD2    C5 6588   0.294   2.279  16.794 -0.4221  0.4409 -0.5302
  442MPD2     H 6589   0.498   2.517  16.574 -1.9865 -0.0040 -0.9566
  442MPD2    H1 6590   0.359   2.124  16.658  2.8540 -0.3177 -0.4639
  442MPD2    H2 6591   0.248   2.435  16.916  1.0987  0.5210  0.0146
  442MPD2    H3 6592   0.224   2.211  16.841  0.2701  0.2274  0.1883
  442MPD2     N 6593   0.504   2.255  16.500 -0.5392  0.4032 -0.4057
  442MPD2    H5 6594   0.504   2.154  16.504 -0.9527  0.3508 -1.8076
  442MPD2    N1 6595   0.394   2.639  16.789  0.6072  0.4042 -0.3675
  442MPD2    H7 6596   0.462   2.695  16.740 -1.5664  3.5014  0.1396
  443TMC3    C1 6597   0.348   2.849  16.892 -0.5061 -0.4747  0.4653
  443TMC3    C2 6598   0.348   2.902  16.765 -0.2704 -0.6103 -0.3491
  443TMC3    C3 6599   0.264   3.008  16.734 -0.5545  0.1164  0.5100
  443TMC3    C4 6600   0.261   2.894  16.981  0.4169  0.2855 -0.5479
  443TMC3    C5 6601   0.173   2.993  16.946 -1.2602 -0.0942 -0.5371
  443TMC3    C6 6602   0.168   3.049  16.823  0.2896  0.5472 -0.5872
  443TMC3     C 6603   0.323   2.705  16.889 -0.3559 -0.0213  0.0353
  443TMC3     O 6604   0.218   2.663  16.938 -0.0830 -0.3326  0.1875
  443TMC3     H 6605   0.414   2.876  16.684  1.7750  0.4018  0.9884
  443TMC3    H1 6606   0.250   2.846  17.077  2.5171 -2.5884 -1.7474
  443TMC3    H2 6607   0.071   3.078  16.783 -0.6555  0.8188  1.8882
  443TMC3    C7 6608   0.041   2.995  17.002 -0.3168  0.7019  0.6939
  443TMC3    C8 6609   0.218   2.982  16.601  0.0630 -0.3951  0.7689
  443TMC3    O1 6610   4.704   3.096  17.013 -0.0430  0.0601  0.1721
  443TMC3    O2 6611   0.149   2.879  16.590  0.0830  0.9234  0.4196
  444MPD2     C 6612   0.936   2.263  16.983 -0.1818 -0.0385 -0.4005
  444MPD2    C1 6613   0.849   2.159  16.964 -0.0159  0.1384  0.4136
  444MPD2    C2 6614   0.904   2.033  16.928  0.6604  0.4357 -0.2545
  444MPD2    C3 6615   1.038   2.011  16.898 -0.6771  0.3890  0.4546
  444MPD2    C4 6616   1.120   2.123  16.895  0.1904  0.2576  0.2992
  444MPD2    C5 6617   1.069   2.241  16.943 -0.1345 -0.3440 -0.4614
  444MPD2     H 6618   0.831   1.954  16.911  0.6905 -0.0523  1.8532
  444MPD2    H1 6619   1.223   2.113  16.861 -0.3685 -1.9844 -0.7649
  444MPD2    H2 6620   0.908   2.360  17.022  2.9230  0.3183  0.8694
  444MPD2    H3 6621   1.133   2.328  16.952 -1.4562  0.4870  0.9667
  444MPD2     N 6622   1.078   1.877  16.876  0.0594  0.0366  0.3156
  444MPD2    H5 6623   1.001   1.812  16.862 -0.2352  0.5835 -0.5626
  444MPD2    N1 6624   0.707   2.171  16.991  0.6079  0.0963  0.0750
  444MPD2    H7 6625   0.641   2.098  16.964 -1.0906  0.2582  3.7634
  445TMC3    C1 6626   1.252   1.715  16.813 -0.0938 -0.1146 -0.1746
  445TMC3    C2 6627   1.165   1.654  16.731  0.0696 -0.1911 -0.5182
  445TMC3    C3 6628   1.208   1.548  16.656  0.3048  0.7911  0.4814
  445TMC3    C4 6629   1.382   1.668  16.832  0.4076  0.3746 -0.4598
  445TMC3    C5 6630   1.414   1.550  16.770  0.3645  0.7963 -0.1474
  445TMC3    C6 6631   1.333   1.487  16.679 -0.5068 -0.0417 -0.1957
  445TMC3     C 6632   1.212   1.844  16.861 -0.0263 -0.2709  0.0396
  445TMC3     O 6633   1.310   1.903  16.900  0.4023  0.8809 -0.0198
  445TMC3     H 6634   1.062   1.687  16.727  0.4910  1.2835  0.8191
  445TMC3    H1 6635   1.445   1.708  16.910  0.4527  0.3998 -0.5087
  445TMC3    H2 6636   1.359   1.389  16.639  2.3825  1.5964 -2.3257
  445TMC3    C7 6637   1.547   1.505  16.780  0.2917  0.0623  0.0381
  445TMC3    C8 6638   1.145   1.532  16.531 -0.2596 -0.6191 -0.5322
  445TMC3    O1 6639   1.593   1.464  16.673 -0.3159  0.5126  0.1362
  445TMC3    O2 6640   1.047   1.599  16.507  0.5988 -0.3064  0.3273
  446MPD2     C 6641   1.071   3.007  11.167  0.0207  1.3322 -0.4959
  446MPD2    C1 6642   1.068   3.015  11.033  0.2414  0.1331 -0.4732
  446MPD2    C2 6643   1.194   3.039  10.973 -0.1853  0.0091 -0.3119
  446MPD2    C3 6644   1.314   3.049  11.042  0.0829  0.4731 -0.1536
  446MPD2    C4 6645   1.307   3.048  11.180 -0.2269 -0.2444  0.1455
  446MPD2    C5 6646   1.186   3.017  11.241 -0.4725  0.4166 -0.1744
  446MPD2     H 6647   1.191   3.049  10.865 -3.0202  0.6803 -0.1652
  446MPD2    H1 6648   1.395   3.070  11.238  0.2457 -1.6295 -0.0348
  446MPD2    H2 6649   0.981   3.000  11.226  0.4825  0.3152  0.0828
  446MPD2    H3 6650   1.181   3.041  11.346  2.0565  0.0614  0.0218
  446MPD2     N 6651   1.430   3.078  10.971 -0.3907 -1.0830 -0.2574
  446MPD2    H5 6652   1.426   3.086  10.870 -1.3223  1.2905 -0.0495
  446MPD2    N1 6653   0.955   3.000  10.953 -0.2051 -0.0560 -0.1074
  446MPD2    H7 6654   0.960   3.009  10.853  0.6762  0.3209 -0.0252
  447TMC3    C1 6655   1.644   3.148  10.905  0.3828  0.5293 -0.4853
  447TMC3    C2 6656   1.600   3.198  10.783 -0.5052 -0.4011 -0.2184
  447TMC3    C3 6657   1.687   3.212  10.682  0.5311 -0.1385 -0.2423
  447TMC3    C4 6658   1.783   3.116  10.925  0.5869  0.3976 -0.4509
  447TMC3    C5 6659   1.865   3.152  10.825  0.2842  0.0953  0.4010
  447TMC3    C6 6660   1.817   3.191  10.702 -0.2751  0.0329 -0.0806
  447TMC3     C 6661   1.559   3.101  11.013 -0.0813 -1.3666  0.5522
  447TMC3     O 6662   1.616   3.055  11.112 -0.0986 -1.0354  0.2101
  447TMC3     H 6663   1.494   3.218  10.770 -0.1047  1.0664 -1.1121
  447TMC3    H1 6664   1.817   3.077  11.020 -0.1828  0.1988 -0.2549
  447TMC3    H2 6665   1.886   3.214  10.621  0.2817 -3.0768 -0.5269
  447TMC3    C7 6666   2.008   3.168  10.847 -0.0540  0.7502  0.0588
  447TMC3    C8 6667   1.655   3.279  10.559 -0.1346 -0.6296 -0.7909
  447TMC3    O1 6668   2.068   3.204  10.752  0.1146 -0.3651 -0.8259
  447TMC3    O2 6669   1.744   3.301  10.474 -0.1749  0.0757  0.1103
  448TMC3    C1 6670   3.344   2.960  16.889  0.2959  0.5101  0.0312
  448TMC3    C2 6671   3.362   2.854  16.800  0.2232 -0.7341 -0.1153
  448TMC3    C3 6672   3.467   2.775  16.821  0.4733  0.4339 -0.0621
  448TMC3    C4 6673   3.440   2.996  16.980 -0.4853 -0.4588  0.0249
  448TMC3    C5 6674   3.548   2.914  16.988  0.2745  0.4197 -0.4940
  448TMC3    C6 6675   3.559   2.802  16.916  0.1547  0.1724  1.0088
  448TMC3     C 6676   3.241   3.059  16.857  0.1984 -0.5442  0.1177
  448TMC3     O 6677   3.214   3.061  16.738 -0.0397  0.7038  0.0560
  448TMC3     H 6678   3.289   2.840  16.721  1.9537 -0.2438 -1.8074
  448TMC3    H1 6679   3.421   3.077  17.049  1.6619 -0.6005  0.7793
  448TMC3    H2 6680   3.659   2.759  16.912  0.2353  0.3198  1.4062
  448TMC3    C7 6681   3.669   2.986  17.039 -0.2922 -0.1991  0.8623
  448TMC3    C8 6682   3.463   2.630  16.795 -0.0212  0.2336 -0.8379
  448TMC3    O1 6683   3.651   3.102  17.075 -0.3829  0.3522 -0.0162
  448TMC3    O2 6684   3.574   2.572  16.807 -0.3436 -0.0882  0.2996
  449MPD2     C 6685   0.620   1.095  14.165 -0.3605  0.9073  0.7747
  449MPD2    C1 6686   0.500   1.079  14.097  0.1647  0.6122 -0.6106
  449MPD2    C2 6687   0.386   1.131  14.155  0.6358  0.2583  0.0992
  449MPD2    C3 6688   0.383   1.195  14.277 -0.4829 -0.6514  0.6896
  449MPD2    C4 6689   0.501   1.210  14.346  0.9366 -0.6981  0.4194
  449MPD2    C5 6690   0.611   1.160  14.285 -0.3846 -0.6598  0.2059
  449MPD2     H 6691   0.290   1.130  14.105  1.8200  1.9149 -2.2344
  449MPD2    H1 6692   0.527   1.259  14.438  0.4861  0.4141 -0.0525
  449MPD2    H2 6693   0.713   1.050  14.133 -1.7269 -0.5697 -1.1458
  449MPD2    H3 6694   0.701   1.158  14.345 -1.7396  0.6006  2.2771
  449MPD2     N 6695   0.265   1.268  14.307 -0.0781  0.0020 -0.8279
  449MPD2    H5 6696   0.194   1.262  14.235  0.6580 -0.1772 -1.5463
  449MPD2    N1 6697   0.488   1.036  13.961 -0.8716 -0.4037 -0.4624
  449MPD2    H7 6698   0.397   1.035  13.917 -1.0783 -1.2680 -0.0178
  450TMC3    C1 6699   0.570   1.012  13.739 -0.7350 -0.5366  0.4638
  450TMC3    C2 6700   0.682   1.030  13.661  0.6788 -0.0564  0.3500
  450TMC3    C3 6701   0.662   1.092  13.538  0.0564 -0.1705 -0.0678
  450TMC3    C4 6702   0.446   1.051  13.687  0.1985  0.2021  0.6507
  450TMC3    C5 6703   0.442   1.124  13.568 -0.6629  0.8566 -0.2456
  450TMC3    C6 6704   0.548   1.126  13.477 -0.5112  0.1643  0.2423
  450TMC3     C 6705   0.598   1.006  13.879 -0.8548  0.7174  0.6337
  450TMC3     O 6706   0.712   0.980  13.908  0.8697  0.0341  0.0924
  450TMC3     H 6707   0.779   0.996  13.694  0.3113  0.1971  1.6998
  450TMC3    H1 6708   0.348   1.038  13.732  1.3648 -0.9033  2.8904
  450TMC3    H2 6709   0.546   1.190  13.389 -2.2056  1.1146  0.9599
  450TMC3    C7 6710   0.335   1.219  13.545  0.0987 -0.2679 -0.6971
  450TMC3    C8 6711   0.760   1.077  13.433 -0.7453  0.7016  0.5195
  450TMC3    O1 6712   0.354   1.293  13.446 -0.2630  0.1089 -0.2003
  450TMC3    O2 6713   0.725   1.050  13.316 -0.4639 -0.1519  0.3280
  451MPD2     C 6714   1.207   4.533   1.571 -0.1354 -0.1368  0.7522
  451MPD2    C1 6715   1.288   4.628   1.503  0.4240 -0.0486  0.5103
  451MPD2    C2 6716   1.410   4.587   1.452  0.1805  0.4289  0.0063
  451MPD2    C3 6717   1.452   4.453   1.465  0.7337  0.0989 -0.4277
  451MPD2    C4 6718   1.373   4.372   1.539 -0.1541 -1.0959 -0.2906
  451MPD2    C5 6719   1.251   4.406   1.583 -0.4790 -0.3872 -0.0614
  451MPD2     H 6720   1.469   4.663   1.403  0.5917  0.0854 -0.0267
  451MPD2    H1 6721   1.413   4.276   1.569 -0.5719 -1.1408  0.1156
  451MPD2    H2 6722   1.124   4.564   1.634 -1.5720 -0.7488 -0.8718
  451MPD2    H3 6723   1.204   4.335   1.648 -1.5433  0.2686 -0.1176
  451MPD2     N 6724   1.577   4.402   1.422 -0.6680  0.9168 -0.4320
  451MPD2    H5 6725   1.601   4.312   1.463 -1.3360 -0.2496 -2.5948
  451MPD2    N1 6726   1.260   0.040   1.501  0.5042 -0.6785  0.1885
  451MPD2    H7 6727   1.331   0.097   1.457  0.1471 -1.9521 -2.0658
  452TMC3    C1 6728   1.779   4.386   1.304  0.0935  0.4336  0.0836
  452TMC3    C2 6729   1.832   4.278   1.370  0.2227  0.4679  0.4486
  452TMC3    C3 6730   1.956   4.231   1.339 -0.0371 -0.1127 -0.4239
  452TMC3    C4 6731   1.850   4.434   1.197  0.3924  0.7803  0.4588
  452TMC3    C5 6732   1.967   4.382   1.163  0.0297 -0.3362 -0.7888
  452TMC3    C6 6733   2.033   4.291   1.237  0.5141  0.0409 -0.2455
  452TMC3     C 6734   1.661   4.465   1.334  0.0988 -0.1806  0.5444
  452TMC3     O 6735   1.642   4.567   1.267 -0.0443 -0.1292 -0.6826
  452TMC3     H 6736   1.794   4.233   1.461  0.3718 -0.5501  0.0047
  452TMC3    H1 6737   1.805   4.513   1.139 -0.6089 -0.8841 -1.0362
  452TMC3    H2 6738   2.126   4.245   1.206  0.3847 -0.6449  0.3779
  452TMC3    C7 6739   2.023   4.422   1.034 -0.3922 -0.3359  0.0256
  452TMC3    C8 6740   2.029   4.145   1.426  0.1844 -0.2278  0.2066
  452TMC3    O1 6741   1.946   4.481   0.962  0.4687  0.4580 -0.6475
  452TMC3    O2 6742   1.957   4.073   1.496 -0.6417 -0.5034 -0.3704
  453TMC3    C1 6743   3.224   2.519  11.582  0.7926 -0.0219  0.4236
  453TMC3    C2 6744   3.181   2.414  11.659  0.4284 -0.1215  0.5711
  453TMC3    C3 6745   3.165   2.292  11.593  0.6055 -0.5854  0.4168
  453TMC3    C4 6746   3.264   2.495  11.451 -0.0196  0.1830  0.4970
  453TMC3    C5 6747   3.238   2.380  11.384  0.4076 -0.2455  0.8399
  453TMC3    C6 6748   3.186   2.272  11.459 -0.4650 -0.2092 -0.4616
  453TMC3     C 6749   3.287   2.631  11.651  1.0669 -0.1666 -0.2021
  453TMC3     O 6750   3.356   2.702  11.579  0.3603  0.0129  0.5110
  453TMC3     H 6751   3.157   2.422  11.764  0.6864  0.0675  0.6160
  453TMC3    H1 6752   3.291   2.579  11.389 -0.8094  0.0932  0.0277
  453TMC3    H2 6753   3.182   2.173  11.414 -1.6897 -0.6942  0.7111
  453TMC3    C7 6754   3.304   2.366  11.258  0.7732 -0.4332 -0.5950
  453TMC3    C8 6755   3.147   2.176  11.677 -0.4741  0.7940 -0.9768
  453TMC3    O1 6756   3.378   2.456  11.214  0.3075 -0.4078 -0.0397
  453TMC3    O2 6757   3.105   2.184  11.792  0.2271  0.1735  0.3020
  454MPD2     C 6758   1.829   1.799  16.611 -0.8806 -0.0167 -0.1350
  454MPD2    C1 6759   1.786   1.916  16.548 -0.2009  0.8011  0.3685
  454MPD2    C2 6760   1.708   2.008  16.615  0.2327  0.4148  0.5406
  454MPD2    C3 6761   1.666   1.979  16.740  0.2710 -0.5906  0.2038
  454MPD2    C4 6762   1.716   1.867  16.808  0.4368  0.5486  0.0633
  454MPD2    C5 6763   1.799   1.775  16.744  0.4538  0.7582  0.8796
  454MPD2     H 6764   1.670   2.099  16.570 -0.9746 -0.1465  0.4247
  454MPD2    H1 6765   1.708   1.845  16.913 -1.1381 -1.3839 -0.4646
  454MPD2    H2 6766   1.884   1.724  16.557 -0.6290  0.1028 -0.0465
  454MPD2    H3 6767   1.841   1.693  16.802 -1.0170 -0.5849  0.0397
  454MPD2     N 6768   1.580   2.061  16.817 -0.0104  0.0665  0.1597
  454MPD2    H5 6769   1.589   2.051  16.918  0.2189  2.1924  0.3469
  454MPD2    N1 6770   1.806   1.939  16.412 -0.3665  0.1423  0.0370
  454MPD2    H7 6771   1.779   2.031  16.378 -2.1854  1.0223  3.8520
  455TMC3    C1 6772   1.435   2.122  16.635 -0.4053  0.4657  0.0105
  455TMC3    C2 6773   1.394   2.229  16.569  0.5531  0.1561  0.2592
  455TMC3    C3 6774   1.294   2.219  16.478 -0.0188  0.6135 -0.3460
  455TMC3    C4 6775   1.377   1.998  16.613  0.1134  0.2319  0.8844
  455TMC3    C5 6776   1.285   1.987  16.518  0.0397  0.2447  0.1081
  455TMC3    C6 6777   1.231   2.100  16.458 -0.1911  0.7420 -0.5676
  455TMC3     C 6778   1.490   2.148  16.768 -0.0479 -0.4309  0.1104
  455TMC3     O 6779   1.424   2.230  16.835 -0.1960  0.3233 -0.1054
  455TMC3     H 6780   1.434   2.327  16.591  1.3638 -0.4367  1.3937
  455TMC3    H1 6781   1.407   1.924  16.688 -0.6749 -1.5602 -0.5792
  455TMC3    H2 6782   1.175   2.090  16.366  0.2352 -2.1156 -0.5112
  455TMC3    C7 6783   1.298   1.869  16.431 -0.1305  0.6087 -1.5405
  455TMC3    C8 6784   1.212   2.336  16.492  0.1329  0.3132 -0.3414
  455TMC3    O1 6785   1.222   1.867  16.336  0.2785 -0.1443 -0.2737
  455TMC3    O2 6786   1.271   2.448  16.483 -0.0489 -0.0270  0.0858
  456MPD2     C 6787   3.846   1.533  16.079  0.2178 -0.5395  0.6914
  456MPD2    C1 6788   3.940   1.542  16.179 -0.0909 -0.3461 -0.1946
  456MPD2    C2 6789   3.908   1.569  16.309 -0.9854 -0.8468  0.7763
  456MPD2    C3 6790   3.777   1.596  16.341  0.2209  0.3511 -0.3885
  456MPD2    C4 6791   3.687   1.601  16.244  0.2521  0.3358 -0.4193
  456MPD2    C5 6792   3.715   1.554  16.114 -0.1658 -0.0962 -0.2882
  456MPD2     H 6793   3.976   1.578  16.393 -1.8594 -2.1294  1.6243
  456MPD2    H1 6794   3.584   1.634  16.256 -0.1643 -1.3137  0.5358
  456MPD2    H2 6795   3.856   1.511  15.973 -1.0245  1.5993  0.1183
  456MPD2    H3 6796   3.637   1.550  16.039 -1.9185 -1.4991  1.6281
  456MPD2     N 6797   3.750   1.664  16.462 -0.0845  0.4279  0.7939
  456MPD2    H5 6798   3.830   1.672  16.525  0.6573 -2.9331  0.2960
  456MPD2    N1 6799   4.071   1.525  16.132 -0.0682 -0.4641 -0.2048
  456MPD2    H7 6800   4.069   1.522  16.030 -0.5585  1.4853 -0.2491
  457TMC3    C1 6801   3.642   1.781  16.644  0.4074 -0.1813 -0.1174
  457TMC3    C2 6802   3.574   1.896  16.657  0.5670 -0.6746 -0.1387
  457TMC3    C3 6803   3.593   1.956  16.774 -0.3580  0.3051 -0.0510
  457TMC3    C4 6804   3.719   1.725  16.743  0.6991  1.1521  0.8114
  457TMC3    C5 6805   3.718   1.783  16.867  0.6554  0.0583  0.3880
  457TMC3    C6 6806   3.659   1.901  16.878 -0.7101 -0.0836  0.5430
  457TMC3     C 6807   3.631   1.717  16.508  0.4754 -0.0627  0.1704
  457TMC3     O 6808   3.529   1.728  16.447  0.0068 -0.5637  0.2026
  457TMC3     H 6809   3.535   1.941  16.566 -1.0272  1.0990  1.4198
  457TMC3    H1 6810   3.753   1.622  16.747 -0.8317  0.5595 -1.1556
  457TMC3    H2 6811   3.669   1.956  16.972  0.1012 -1.0783  1.0456
  457TMC3    C7 6812   3.811   1.748  16.970  0.4970 -0.1739  0.3434
  457TMC3    C8 6813   3.525   2.086  16.795 -0.1304 -0.7778  0.0414
  457TMC3    O1 6814   3.772   1.790  17.080 -0.2314  0.0745 -0.5354
  457TMC3    O2 6815   3.571   2.153  16.890  0.2082 -0.5481 -0.0455
  458MPD2     C 6816   2.136   1.336  12.380 -0.2262  0.8161  0.2115
  458MPD2    C1 6817   2.122   1.273  12.495  0.4602 -0.9174  0.0843
  458MPD2    C2 6818   1.997   1.235  12.541  0.0383 -0.2165  0.5120
  458MPD2    C3 6819   1.882   1.256  12.466 -0.2487 -0.3908  0.7944
  458MPD2    C4 6820   1.897   1.319  12.347 -0.5981 -0.4373  0.0952
  458MPD2    C5 6821   2.023   1.355  12.309  0.1719 -0.1023 -0.5518
  458MPD2     H 6822   1.988   1.184  12.636  0.7450  2.3309  1.9639
  458MPD2    H1 6823   1.814   1.344  12.282 -1.2975 -2.5446  0.1820
  458MPD2    H2 6824   2.236   1.367  12.350  0.8415 -1.7466  1.1358
  458MPD2    H3 6825   2.024   1.405  12.212  2.0682 -2.0386 -1.5377
  458MPD2     N 6826   1.757   1.200  12.513 -0.3482  0.2727  0.2955
  458MPD2    H5 6827   1.771   1.140  12.593 -0.9607 -0.6839 -0.3194
  458MPD2    N1 6828   2.241   1.253  12.572  0.1219 -0.4689  0.0970
  458MPD2    H7 6829   2.328   1.290  12.536 -0.6070  1.4180  0.2796
  459TMC3    C1 6830   2.358   1.191  12.762  0.3267 -0.2476  0.2748
  459TMC3    C2 6831   2.430   1.313  12.742 -1.1990 -0.0713  0.1499
  459TMC3    C3 6832   2.493   1.369  12.850  0.5915  0.3664 -0.6453
  459TMC3    C4 6833   2.350   1.130  12.887 -0.3587 -0.3487  0.4451
  459TMC3    C5 6834   2.435   1.185  12.978  0.6683  0.1774 -0.2583
  459TMC3    C6 6835   2.503   1.301  12.966  0.0322 -1.1827  0.2136
  459TMC3     C 6836   2.246   1.161  12.672  0.4667 -0.0818 -0.2807
  459TMC3     O 6837   2.163   1.080  12.705 -0.2684 -0.1191 -0.0624
  459TMC3     H 6838   2.436   1.344  12.638  2.8749 -2.3668 -0.2730
  459TMC3    H1 6839   2.294   1.038  12.900 -1.9998  0.5992  0.0420
  459TMC3    H2 6840   2.568   1.337  13.045 -0.8269 -2.1016  1.3568
  459TMC3    C7 6841   2.405   1.135  13.112  0.1592  0.4363  0.2940
  459TMC3    C8 6842   2.585   1.478  12.824  0.1033  0.0962  0.2722
  459TMC3    O1 6843   2.368   1.021  13.128  0.6818  0.1755 -0.2956
  459TMC3    O2 6844   2.683   1.497  12.901 -0.5188  0.3350  0.2454
  460MPD2     C 6845   1.322   3.443  10.505 -0.3230 -0.3589  0.4415
  460MPD2    C1 6846   1.454   3.411  10.475 -0.1509 -0.1623 -0.1990
  460MPD2    C2 6847   1.512   3.460  10.355 -0.4658  0.3552 -0.4776
  460MPD2    C3 6848   1.427   3.539  10.276 -1.0043  0.4240  0.2672
  460MPD2    C4 6849   1.303   3.579  10.319 -0.5470 -0.5605 -0.6790
  460MPD2    C5 6850   1.255   3.530  10.434 -0.3039 -0.5303 -0.1499
  460MPD2     H 6851   1.615   3.438  10.329 -0.2261  3.0100 -1.7510
  460MPD2    H1 6852   1.237   3.645  10.264  0.4654  3.1312  2.5476
  460MPD2    H2 6853   1.289   3.417  10.605 -0.8795  0.0244  0.3554
  460MPD2    H3 6854   1.161   3.569  10.473 -0.5125 -0.9426 -0.2452
  460MPD2     N 6855   1.469   3.571  10.144 -0.0042  0.5415  0.5059
  460MPD2    H5 6856   1.558   3.532  10.113 -1.7452 -1.0355 -2.5282
  460MPD2    N1 6857   1.527   3.328  10.567  0.1194 -0.5711  0.3841
  460MPD2    H7 6858   1.470   3.299  10.646  0.3825  1.1982  1.2287
  461TMC3    C1 6859   1.465   3.652   9.924 -0.8055 -0.2838  0.0391
  461TMC3    C2 6860   1.498   3.527   9.873 -0.8256 -0.8567 -0.2362
  461TMC3    C3 6861   1.509   3.521   9.735  0.8813 -0.2343 -0.9472
  461TMC3    C4 6862   1.448   3.765   9.849 -0.4699  0.3408  0.5226
  461TMC3    C5 6863   1.462   3.748   9.717  0.5061 -0.0074  1.0084
  461TMC3    C6 6864   1.503   3.631   9.654 -0.6474  0.2228 -0.5597
  461TMC3     C 6865   1.411   3.657  10.055  0.0595 -0.1877 -0.0989
  461TMC3     O 6866   1.321   3.734  10.072  0.1280  0.2141  0.1333
  461TMC3     H 6867   1.518   3.440   9.934  2.6528  0.2186  0.1641
  461TMC3    H1 6868   1.420   3.858   9.898 -0.9682  1.2531 -1.4938
  461TMC3    H2 6869   1.509   3.612   9.547  1.8891  0.7453 -0.5238
  461TMC3    C7 6870   1.435   3.868   9.635 -0.7072  0.2854  0.3081
  461TMC3    C8 6871   1.593   3.421   9.678  0.1434  0.0890  0.7052
  461TMC3    O1 6872   1.392   3.967   9.688 -0.3932  0.1103 -0.0717
  461TMC3    O2 6873   1.706   3.442   9.642  0.8807 -0.2871  0.3441
  462TMC3    C1 6874   1.194   4.181   0.347 -0.5620 -0.4899 -0.1963
  462TMC3    C2 6875   1.238   4.058   0.310  0.4796  0.0508 -0.2443
  462TMC3    C3 6876   1.183   3.994   0.201 -0.8531 -0.5094 -0.0853
  462TMC3    C4 6877   1.101   4.248   0.277 -0.1688  0.2473 -0.0830
  462TMC3    C5 6878   1.061   4.183   0.162 -0.3556 -0.1901  0.7514
  462TMC3    C6 6879   1.087   4.053   0.129 -0.0104 -0.7082  0.3452
  462TMC3     C 6880   1.248   4.238   0.465  0.3317 -0.6809  0.0975
  462TMC3     O 6881   1.310   4.167   0.540  0.6112 -0.2251  0.0794
  462TMC3     H 6882   1.308   4.007   0.376 -0.0773 -0.5290 -0.0991
  462TMC3    H1 6883   1.061   4.347   0.297  0.8844  0.5289  0.6034
  462TMC3    H2 6884   1.050   4.028   0.031 -1.1465 -0.3314  0.6818
  462TMC3    C7 6885   0.941   4.230   0.109  0.4455 -0.5812 -0.1916
  462TMC3    C8 6886   1.216   3.855   0.179  0.5540 -0.4522 -0.6427
  462TMC3    O1 6887   0.847   4.150   0.092 -0.3340 -0.2820  0.0761
  462TMC3    O2 6888   1.274   3.785   0.260  0.5460  0.8442  0.0970
  463MPD2     C 6889   2.244   3.261   1.672  0.1074 -0.6411  0.6527
  463MPD2    C1 6890   2.152   3.360   1.644  0.2861 -0.4738 -0.1985
  463MPD2    C2 6891   2.190   3.464   1.571 -0.0186 -0.2082 -1.1138
  463MPD2    C3 6892   2.320   3.479   1.537 -0.5548  0.2180  0.0569
  463MPD2    C4 6893   2.416   3.395   1.589 -0.2262 -0.6985 -0.3276
  463MPD2    C5 6894   2.374   3.277   1.645 -0.1066 -0.7386  0.2310
  463MPD2     H 6895   2.120   3.540   1.541 -0.3830 -0.3230 -0.5545
  463MPD2    H1 6896   2.519   3.402   1.557  0.7348 -2.8513  2.4196
  463MPD2    H2 6897   2.211   3.175   1.729 -1.2033 -1.2371 -1.0229
  463MPD2    H3 6898   2.448   3.198   1.651  0.8586  0.2250  1.1140
  463MPD2     N 6899   2.360   3.595   1.464 -0.2045 -0.2619 -0.2267
  463MPD2    H5 6900   2.454   3.592   1.425 -0.2522 -2.1274 -0.2206
  463MPD2    N1 6901   2.018   3.359   1.676 -0.5965  0.0136 -0.1164
  463MPD2    H7 6902   1.956   3.438   1.661 -0.4777  0.3785  1.2896
  464TMC3    C1 6903   1.819   3.282   1.768  0.3744 -0.6463 -0.6840
  464TMC3    C2 6904   1.742   3.317   1.656 -0.1144 -0.2745 -0.2447
  464TMC3    C3 6905   1.608   3.305   1.660  0.1033  0.5183  0.4865
  464TMC3    C4 6906   1.758   3.210   1.863  0.1380 -0.2658  0.0848
  464TMC3    C5 6907   1.622   3.202   1.876  0.2759  0.2560  0.2530
  464TMC3    C6 6908   1.546   3.250   1.769  0.3908 -0.6650 -0.5455
  464TMC3     C 6909   1.961   3.263   1.746 -0.2696  0.4908 -0.5542
  464TMC3     O 6910   2.006   3.164   1.798  0.5045  0.3867  0.5219
  464TMC3     H 6911   1.788   3.359   1.567 -0.8754  0.0326 -0.4950
  464TMC3    H1 6912   1.821   3.182   1.947 -1.3146 -0.9121  0.9448
  464TMC3    H2 6913   1.440   3.266   1.778  0.3063  0.6811 -4.2553
  464TMC3    C7 6914   1.557   3.124   1.975  0.1268  0.2198  0.7233
  464TMC3    C8 6915   1.529   3.378   1.557  0.2731 -0.7105 -0.2859
  464TMC3    O1 6916   1.614   3.091   2.078 -0.4758  0.1925  0.0657
  464TMC3    O2 6917   1.593   3.448   1.478 -0.4284  0.1328  0.1428
  465MPD2     C 6918   2.914   1.553  17.187 -0.5757  0.1169  0.7392
  465MPD2    C1 6919   2.816   1.626  17.254 -0.4317 -0.4709 -0.4683
  465MPD2    C2 6920   2.752   1.727  17.187  0.1559 -0.3156  0.0395
  465MPD2    C3 6921   2.803   1.772  17.064  0.1194  1.1592  0.5627
  465MPD2    C4 6922   2.914   1.719  17.012 -0.5745 -0.3784  0.0162
  465MPD2    C5 6923   2.962   1.605  17.068 -0.4818 -0.0751 -0.3945
  465MPD2     H 6924   2.672   1.778  17.239 -1.1915 -1.0657 -1.2685
  465MPD2    H1 6925   2.949   1.739  16.912  0.9494 -0.7523  0.4723
  465MPD2    H2 6926   2.964   1.466  17.230 -0.9634 -0.8421 -0.7400
  465MPD2    H3 6927   3.043   1.553  17.017 -1.4042 -0.0125 -1.9511
  465MPD2     N 6928   2.727   1.867  16.998 -0.1830 -0.1003 -0.1784
  465MPD2    H5 6929   2.640   1.899  17.040 -1.5357  1.3352 -3.9911
  465MPD2    N1 6930   2.771   1.600  17.388  0.4081  0.7696  0.0430
  465MPD2    H7 6931   2.705   1.666  17.428 -0.0137 -0.0057  0.6245
  466TMC3    C1 6932   2.494   2.178  16.920  0.4418 -0.1699 -0.3729
  466TMC3    C2 6933   2.518   2.257  16.810 -0.1259 -0.4259 -0.9273
  466TMC3    C3 6934   2.615   2.220  16.729 -0.4944  0.1427 -0.0987
  466TMC3    C4 6935   2.551   2.056  16.941 -0.1900  0.6429 -0.0029
  466TMC3    C5 6936   2.650   2.026  16.849  0.2601 -0.1499  0.4817
  466TMC3    C6 6937   2.674   2.099  16.739 -0.1013  0.5153 -0.1752
  466TMC3     C 6938   2.391   2.217  17.010  0.3301 -0.6639  0.8845
  466TMC3     O 6939   2.405   2.169  17.122  0.1105  0.5445 -0.2241
  466TMC3     H 6940   2.474   2.356  16.800  0.1487 -0.2861 -0.7637
  466TMC3    H1 6941   2.524   1.987  17.019  0.3394  0.4799  0.0364
  466TMC3    H2 6942   2.755   2.074  16.671  0.0801  2.6976 -0.7703
  466TMC3    C7 6943   2.751   1.924  16.879  0.5417  0.1448 -0.1554
  466TMC3    C8 6944   2.680   2.317  16.646  0.6638  0.0801 -0.0183
  466TMC3    O1 6945   2.838   1.891  16.802  0.1391  0.1077 -0.5724
  466TMC3    O2 6946   2.761   2.264  16.573  0.0275 -0.0746  0.1909
  467TMC3    C1 6947   4.238   0.548  13.511 -0.4774 -0.0748 -0.2199
  467TMC3    C2 6948   4.258   0.593  13.383  0.2405  0.1939  0.6279
  467TMC3    C3 6949   4.151   0.628  13.307 -1.0961  0.2160  0.5190
  467TMC3    C4 6950   4.117   0.551  13.566 -0.4158  0.2723 -0.3444
  467TMC3    C5 6951   4.008   0.593  13.496  0.1944  0.2645  0.8881
  467TMC3    C6 6952   4.026   0.637  13.361 -0.0095 -0.1082  0.0993
  467TMC3     C 6953   4.354   0.513  13.589 -0.4764  0.6845  0.2697
  467TMC3     O 6954   4.376   0.567  13.696  0.3914 -0.0082  1.4836
  467TMC3     H 6955   4.358   0.594  13.340  0.6840 -2.1058  1.6055
  467TMC3    H1 6956   4.101   0.523  13.670  0.1943  0.6307 -0.1563
  467TMC3    H2 6957   3.940   0.667  13.302 -0.0323 -1.8626 -0.7705
  467TMC3    C7 6958   3.906   0.673  13.563 -0.4054  1.0057  0.0006
  467TMC3    C8 6959   4.196   0.735  13.220 -0.4530 -0.8044 -0.0835
  467TMC3    O1 6960   3.869   0.778  13.507 -0.8796  0.3108 -0.2162
  467TMC3    O2 6961   4.118   0.833  13.222  0.3685  0.5211 -0.1714
  468MPD2     C 6962   3.167   3.223  10.604 -0.6802  0.3797 -0.0834
  468MPD2    C1 6963   3.265   3.157  10.532  0.3652  0.2648 -0.1310
  468MPD2    C2 6964   3.267   3.020  10.525  0.9710  0.1525 -0.0933
  468MPD2    C3 6965   3.164   2.947  10.588 -0.2773  0.2082 -0.1777
  468MPD2    C4 6966   3.074   3.011  10.670 -0.2727 -0.0588 -0.7258
  468MPD2    C5 6967   3.075   3.146  10.672  0.1409  0.0579  0.5325
  468MPD2     H 6968   3.338   2.965  10.463  0.8414  1.7324 -1.6429
  468MPD2    H1 6969   3.003   2.963  10.735  0.5366  2.0955  1.7539
  468MPD2    H2 6970   3.161   3.331  10.605 -2.1070  0.2922  1.6723
  468MPD2    H3 6971   3.005   3.202  10.735 -0.9381 -0.8626  0.1472
  468MPD2     N 6972   3.171   2.803  10.597 -0.1835  0.1583 -0.1677
  468MPD2    H5 6973   3.125   2.753  10.673  1.3182  1.1363  1.3942
  468MPD2    N1 6974   3.376   3.229  10.469 -0.3628  0.2352  0.4456
  468MPD2    H7 6975   3.457   3.172  10.445 -1.5306 -1.9091  1.6262
  469TMC3    C1 6976   3.517   3.414  10.488 -0.2460 -0.5027  0.2240
  469TMC3    C2 6977   3.604   3.326  10.549  0.2476  0.8691 -0.2277
  469TMC3    C3 6978   3.715   3.381  10.614 -0.0922 -0.1449  0.1714
  469TMC3    C4 6979   3.525   3.548  10.494 -0.3262 -0.7677  0.2502
  469TMC3    C5 6980   3.637   3.595  10.559  0.2374 -0.5984  0.0623
  469TMC3    C6 6981   3.733   3.516  10.627  0.1840  0.5200  0.0746
  469TMC3     C 6982   3.384   3.367  10.456  0.1317  0.6435 -0.2634
  469TMC3     O 6983   3.294   3.449  10.450 -0.0606 -0.2235  0.1149
  469TMC3     H 6984   3.591   3.219  10.564 -1.1055  1.3173  1.8887
  469TMC3    H1 6985   3.463   3.611  10.431 -0.5842  1.0047  2.2782
  469TMC3    H2 6986   3.827   3.565  10.649  1.4494 -2.7365  1.8611
  469TMC3    C7 6987   3.693   3.733  10.532  1.0168 -0.6066 -0.1318
  469TMC3    C8 6988   3.794   3.289  10.691 -0.5907  0.6203 -0.3228
  469TMC3    O1 6989   3.816   3.757  10.546  0.2616 -0.0600  0.8060
  469TMC3    O2 6990   3.798   3.171  10.664 -0.1185  0.2101 -0.7738
  470TMC3    C1 6991   4.643   4.066   1.024  0.0980 -0.2400  0.4017
  470TMC3    C2 6992   4.628   4.184   0.960  0.0557  0.1299 -0.1351
  470TMC3    C3 6993   4.633   4.298   1.034 -0.3988 -0.1598  0.0334
  470TMC3    C4 6994   4.637   4.046   1.164 -0.4274  0.1512  0.0700
  470TMC3    C5 6995   4.641   4.162   1.238  1.2213  0.5893  0.2276
  470TMC3    C6 6996   4.635   4.292   1.177  0.3278 -0.0602  0.2138
  470TMC3     C 6997   4.667   3.938   0.946  0.1431 -0.6528  0.3649
  470TMC3     O 6998   4.686   3.837   1.008  0.6423  0.5916 -0.0920
  470TMC3     H 6999   4.630   4.192   0.852 -1.9627 -0.8761 -0.2494
  470TMC3    H1 7000   4.659   3.949   1.208 -0.5740  0.4360  0.7693
  470TMC3    H2 7001   4.657   4.385   1.228  3.3626 -1.9710  2.4441
  470TMC3    C7 7002   4.660   4.153   1.377  0.0530 -0.2508  0.0649
  470TMC3    C8 7003   4.674   4.418   0.961  0.3757  0.3578  0.3929
  470TMC3    O1 7004   4.710   4.043   1.408  0.2057  0.2022  0.1096
  470TMC3    O2 7005   4.702   4.396   0.843 -0.4116 -0.7823  0.1729
  471MPD2     C 7006   0.984   1.312  16.782 -0.2926 -0.3034 -0.1952
  471MPD2    C1 7007   1.052   1.213  16.706 -0.0354 -0.6422 -0.9181
  471MPD2    C2 7008   1.175   1.174  16.755 -0.1952 -0.1737 -0.1779
  471MPD2    C3 7009   1.227   1.234  16.872 -0.8592  0.5074  0.3499
  471MPD2    C4 7010   1.163   1.344  16.934 -0.3499 -0.6614 -0.3549
  471MPD2    C5 7011   1.035   1.374  16.890  0.4050 -0.0453 -0.3022
  471MPD2     H 7012   1.224   1.092  16.704 -2.7630 -1.3933 -0.6807
  471MPD2    H1 7013   1.202   1.386  17.026 -0.8098  0.5012 -0.7009
  471MPD2    H2 7014   0.879   1.331  16.766 -0.2880 -0.4136 -0.3548
  471MPD2    H3 7015   0.975   1.453  16.934  0.5735  0.2532 -0.6115
  471MPD2     N 7016   1.342   1.178  16.933 -0.4800  0.4446 -0.1338
  471MPD2    H5 7017   1.365   1.216  17.024  0.1103 -0.9651  0.3029
  471MPD2    N1 7018   1.001   1.146  16.591 -0.0276  0.3077 -0.3842
  471MPD2    H7 7019   1.063   1.075  16.552 -0.1077 -1.0909  2.0153
  472TMC3    C1 7020   0.858   1.077  16.411 -0.0615  0.1441 -0.3394
  472TMC3    C2 7021   0.760   1.113  16.319  0.5203 -0.2849  0.1127
  472TMC3    C3 7022   0.728   1.029  16.223 -0.2089  0.6004  0.1404
  472TMC3    C4 7023   0.925   0.958  16.402 -0.1536 -0.7465 -0.0566
  472TMC3    C5 7024   0.887   0.876  16.301 -0.4775 -0.8850  0.0620
  472TMC3    C6 7025   0.797   0.913  16.202 -0.1207  0.1508 -0.3884
  472TMC3     C 7026   0.882   1.173  16.526  0.6022 -0.7973 -0.7691
  472TMC3     O 7027   0.807   1.272  16.539  0.3448  0.6251 -0.3665
  472TMC3     H 7028   0.715   1.211  16.331  2.1565  0.9208 -3.6043
  472TMC3    H1 7029   0.990   0.918  16.479  0.0056  0.1035  0.2502
  472TMC3    H2 7030   0.781   0.845  16.120  1.2935  2.0570 -2.2447
  472TMC3    C7 7031   0.869   0.734  16.341 -0.1682  0.6924  0.2711
  472TMC3    C8 7032   0.586   1.027  16.208 -0.5574  0.3490 -0.2915
  472TMC3    O1 7033   0.903   0.702  16.454 -0.5425 -0.6091 -0.4297
  472TMC3    O2 7034   0.526   1.048  16.314  0.7061 -0.1105 -0.1663
  473MPD2     C 7035   0.901   2.866  14.071  0.2353 -0.1193 -0.4611
  473MPD2    C1 7036   0.950   2.990  14.031 -0.3261 -0.2146 -0.2476
  473MPD2    C2 7037   1.009   3.071  14.127 -0.2893 -0.2432  0.2384
  473MPD2    C3 7038   1.016   3.028  14.260 -1.2041  0.7001  0.4603
  473MPD2    C4 7039   0.959   2.908  14.296 -0.8648  0.0388  0.0994
  473MPD2    C5 7040   0.915   2.819  14.202  0.1779  0.7086 -0.4180
  473MPD2     H 7041   1.046   3.170  14.105 -0.5992 -0.3601 -0.7832
  473MPD2    H1 7042   0.981   2.870  14.395  0.4502  1.3908  0.3340
  473MPD2    H2 7043   0.851   2.796  14.006 -2.1185  1.2481 -0.1225
  473MPD2    H3 7044   0.867   2.728  14.237  0.3175  0.5816 -0.5609
  473MPD2     N 7045   1.094   3.094  14.352 -0.4880 -0.1340  0.1459
  473MPD2    H5 7046   1.067   3.073  14.447 -0.3918 -2.0988 -0.2566
  473MPD2    N1 7047   0.929   3.038  13.900 -0.8194 -0.5755 -0.5323
  473MPD2    H7 7048   0.962   3.131  13.876  0.4857 -0.6913  0.8206
  474TMC3    C1 7049   1.239   3.239  14.444 -1.2563  0.0982  0.6547
  474TMC3    C2 7050   1.137   3.291  14.518 -0.1386 -0.8500 -0.2682
  474TMC3    C3 7051   1.157   3.403  14.599 -0.0996 -0.3007  0.5307
  474TMC3    C4 7052   1.367   3.292  14.458 -0.5406  0.0034  0.1242
  474TMC3    C5 7053   1.389   3.390  14.549 -0.5634 -0.2550  0.1694
  474TMC3    C6 7054   1.281   3.452  14.617 -0.4037 -0.7544  0.2871
  474TMC3     C 7055   1.204   3.163  14.328  0.2118  0.6401 -0.5784
  474TMC3     O 7056   1.284   3.153  14.233  0.1787  0.2320 -0.1989
  474TMC3     H 7057   1.033   3.259  14.510 -0.1865 -0.4183 -1.2976
  474TMC3    H1 7058   1.449   3.233  14.418  1.3905  1.7360  1.5756
  474TMC3    H2 7059   1.298   3.539  14.679  0.1672  0.5348 -1.6822
  474TMC3    C7 7060   1.518   3.396  14.611  0.0308 -0.0976  0.0075
  474TMC3    C8 7061   1.043   3.496  14.603 -0.0756  0.2917  0.7620
  474TMC3    O1 7062   1.621   3.406  14.543 -0.3064 -0.1331 -0.7526
  474TMC3    O2 7063   0.930   3.455  14.623 -0.0631 -0.2881  0.2722
  475MPD2     C 7064   0.239   1.162  10.396  0.2891  0.4855  0.9694
  475MPD2    C1 7065   0.228   1.265  10.308  0.6275 -0.0298  0.7566
  475MPD2    C2 7066   0.104   1.328  10.294  0.2815  0.1880  0.8381
  475MPD2    C3 7067   4.717   1.275  10.353  0.3399 -0.3916  0.0865
  475MPD2    C4 7068   0.007   1.180  10.453 -0.3813  0.0347 -0.3293
  475MPD2    C5 7069   0.132   1.127  10.475 -0.1563  0.1242 -0.6671
  475MPD2     H 7070   0.086   1.417  10.233  1.3688  0.5279  1.0089
  475MPD2    H1 7071   4.648   1.138  10.510 -3.3741  2.2808 -3.0103
  475MPD2    H2 7072   0.335   1.115  10.418  0.7152 -0.3450 -2.7209
  475MPD2    H3 7073   0.123   1.047  10.548 -1.7803  0.5610 -0.3897
  475MPD2     N 7074   4.602   1.348  10.330  0.2091 -0.3730  0.2515
  475MPD2    H5 7075   4.608   1.436  10.280 -1.8818 -0.0401  0.5577
  475MPD2    N1 7076   0.348   1.313  10.252 -0.1183  0.1312 -0.0998
  475MPD2    H7 7077   0.440   1.300  10.293 -1.4370 -1.3527  2.4416
  476TMC3    C1 7078   0.416   1.491  10.123 -0.5128  0.1932  0.3575
  476TMC3    C2 7079   0.352   1.558  10.018  0.4894  0.1364 -0.4080
  476TMC3    C3 7080   0.309   1.683  10.044 -0.0738 -0.3527 -0.4544
  476TMC3    C4 7081   0.427   1.548  10.247  0.8091  0.5023 -0.2256
  476TMC3    C5 7082   0.392   1.680  10.260 -0.7838 -0.0688 -0.5141
  476TMC3    C6 7083   0.327   1.748  10.162 -0.0917  0.1760  0.4483
  476TMC3     C 7084   0.339   1.367  10.132 -0.5798  0.1592  0.7880
  476TMC3     O 7085   0.247   1.354  10.051  0.6360 -0.2383 -0.0113
  476TMC3     H 7086   0.340   1.517   9.919  0.6156  0.2930 -0.4870
  476TMC3    H1 7087   0.483   1.500  10.327 -0.3951 -2.2950 -1.0739
  476TMC3    H2 7088   0.285   1.848  10.166 -1.5294 -0.3972 -0.1800
  476TMC3    C7 7089   0.327   1.703  10.392  0.1611 -1.2321  0.5572
  476TMC3    C8 7090   0.170   1.699  10.000  0.2847  0.0397 -0.2398
  476TMC3    O1 7091   0.281   1.818  10.399  0.4455  0.1049  0.3843
  476TMC3    O2 7092   0.126   1.813   9.984  0.0063  0.3535  0.5237
  477MPD2     C 7093   2.426   2.799  11.472  0.1513 -0.0119 -0.1957
  477MPD2    C1 7094   2.331   2.715  11.517  1.0190  0.7345  0.8704
  477MPD2    C2 7095   2.333   2.680  11.650  0.5057 -0.1455 -0.5269
  477MPD2    C3 7096   2.431   2.716  11.738  0.7404  0.1592 -0.1976
  477MPD2    C4 7097   2.533   2.803  11.691  0.4578  0.6073 -0.4777
  477MPD2    C5 7098   2.530   2.835  11.558 -0.2075  0.3066 -0.0192
  477MPD2     H 7099   2.255   2.616  11.690  0.8948 -0.1206  0.2688
  477MPD2    H1 7100   2.605   2.847  11.758  1.0285 -0.4367 -0.4115
  477MPD2    H2 7101   2.430   2.837  11.371  1.0775  0.6292  0.0891
  477MPD2    H3 7102   2.603   2.900  11.511  0.8066  0.3545  1.6323
  477MPD2     N 7103   2.429   2.677  11.873  0.4348 -0.3843 -0.4569
  477MPD2    H5 7104   2.355   2.611  11.893  1.6641 -1.2180  1.2470
  477MPD2    N1 7105   2.226   2.696  11.428  0.2442  0.2389 -0.7738
  477MPD2    H7 7106   2.214   2.758  11.349  1.2534 -0.3263 -1.3661
  478TMC3    C1 7107   2.014   2.636  11.368 -0.5781  0.0996  0.4623
  478TMC3    C2 7108   1.893   2.664  11.425 -0.8743 -0.3479 -0.0379
  478TMC3    C3 7109   1.798   2.734  11.354 -0.5505  0.0923  0.1379
  478TMC3    C4 7110   2.044   2.680  11.244 -0.5181 -0.3804  0.0096
  478TMC3    C5 7111   1.945   2.749  11.172 -0.6211 -0.0984 -0.6185
  478TMC3    C6 7112   1.822   2.784  11.229  0.4535 -0.4495 -0.0573
  478TMC3     C 7113   2.119   2.614  11.461  0.3398  0.5566  0.3045
  478TMC3     O 7114   2.100   2.536  11.553  0.4963 -0.5587  0.3384
  478TMC3     H 7115   1.882   2.628  11.527  0.1065 -0.1282  0.1406
  478TMC3    H1 7116   2.134   2.651  11.191  0.2877  2.3426 -0.1064
  478TMC3    H2 7117   1.746   2.842  11.177  0.8492  0.2384  0.1312
  478TMC3    C7 7118   1.974   2.764  11.028 -0.7139 -0.4712  0.2581
  478TMC3    C8 7119   1.710   2.802  11.447 -0.5469  0.3640  0.4950
  478TMC3    O1 7120   2.086   2.738  10.983  0.4753  0.4002 -0.0290
  478TMC3    O2 7121   1.664   2.733  11.539  0.1771  0.2995  0.2837
  479MPD2     C 7122   0.388   0.244  14.936 -0.1219 -0.2040  0.7449
  479MPD2    C1 7123   0.375   0.200  15.062  0.1207 -0.0543 -0.0207
  479MPD2    C2 7124   0.467   0.228  15.157 -0.3206  0.7908 -0.1345
  479MPD2    C3 7125   0.576   0.308  15.117  0.7995  0.0595  0.5234
  479MPD2    C4 7126   0.591   0.353  14.994  0.0647  0.3240 -0.2344
  479MPD2    C5 7127   0.494   0.324  14.903 -0.0245 -0.8681 -0.8048
  479MPD2     H 7128   0.451   0.207  15.262 -3.0004  1.0208 -0.5106
  479MPD2    H1 7129   0.661   0.434  14.980 -0.1783  0.5121 -0.3660
  479MPD2    H2 7130   0.312   0.218  14.864  1.2893 -0.1006 -0.7759
  479MPD2    H3 7131   0.498   0.360  14.801 -1.9012 -0.0294 -0.5840
  479MPD2     N 7132   0.665   0.363  15.209  0.5541 -0.0141  0.0459
  479MPD2    H5 7133   0.724   0.442  15.186  0.3235  0.1033 -0.1498
  479MPD2    N1 7134   0.259   0.126  15.091 -0.3914  0.0796  0.0313
  479MPD2    H7 7135   0.192   0.129  15.014 -0.0477 -1.8131 -0.3391
  480TMC3    C1 7136   0.482   0.508  15.599  0.1466 -0.7630  0.3779
  480TMC3    C2 7137   0.389   0.572  15.525 -0.7561  0.4371  0.1640
  480TMC3    C3 7138   0.403   0.590  15.394 -0.0494 -0.6141 -0.0174
  480TMC3    C4 7139   0.599   0.461  15.533  0.0820 -0.0796  0.1203
  480TMC3    C5 7140   0.605   0.477  15.401 -0.7051 -0.4120  0.3088
  480TMC3    C6 7141   0.516   0.550  15.324  1.0410 -0.4665  0.0068
  480TMC3     C 7142   0.452   0.453  15.730  0.4234  0.3502  0.2470
  480TMC3     O 7143   0.544   0.415  15.798  0.2167 -0.5719 -0.5648
  480TMC3     H 7144   0.297   0.610  15.568 -0.5997  0.4170  0.5223
  480TMC3    H1 7145   0.672   0.394  15.577 -1.3066 -3.5475 -2.8470
  480TMC3    H2 7146   0.539   0.566  15.219 -1.3114  0.3278 -0.3838
  480TMC3    C7 7147   0.651   0.347  15.345 -0.1361 -0.2091  0.6977
  480TMC3    C8 7148   0.280   0.595  15.317  0.0094  0.1574  0.4191
  480TMC3    O1 7149   0.614   0.251  15.406  0.6437  0.2446 -0.7498
  480TMC3    O2 7150   0.174   0.584  15.376 -0.0341  0.2364 -0.1910
  481MPD2     C 7151   1.996   4.462  14.079  0.0931 -0.1786 -0.0549
  481MPD2    C1 7152   1.874   4.407  14.106  0.0497 -0.6796 -0.5677
  481MPD2    C2 7153   1.845   4.363  14.238  0.1970  0.7056  0.4456
  481MPD2    C3 7154   1.951   4.363  14.329 -0.5933  0.3896  0.2095
  481MPD2    C4 7155   2.076   4.407  14.289  0.3872  0.0224 -0.1155
  481MPD2    C5 7156   2.100   4.452  14.166  0.6763 -0.2600 -0.3155
  481MPD2     H 7157   1.746   4.332  14.269  0.1879 -0.0638 -0.3499
  481MPD2    H1 7158   2.161   4.403  14.356  0.5963  1.2940 -0.3091
  481MPD2    H2 7159   2.014   4.517  13.987  0.9122 -3.0265 -1.5910
  481MPD2    H3 7160   2.199   4.491  14.146 -0.6915  4.0900  1.2961
  481MPD2     N 7161   1.940   4.322  14.466 -0.7678 -0.3304 -0.2092
  481MPD2    H5 7162   2.018   4.344  14.527 -1.3144 -0.8577  0.6802
  481MPD2    N1 7163   1.773   4.414  14.008 -0.1194 -0.5842  0.5598
  481MPD2    H7 7164   1.792   4.465  13.922  1.1620 -1.0773  0.5548
  482TMC3    C1 7165   1.565   4.368  13.894 -0.1775 -0.1358  0.0413
  482TMC3    C2 7166   1.474   4.273  13.854  0.1541 -0.3086  0.1263
  482TMC3    C3 7167   1.430   4.276  13.724  0.4717  0.4342 -0.0920
  482TMC3    C4 7168   1.615   4.459  13.803  0.7528 -1.2266 -0.2431
  482TMC3    C5 7169   1.554   4.471  13.680  0.4132  0.3872 -0.2485
  482TMC3    C6 7170   1.462   4.379  13.639 -0.2486  0.0953  0.4438
  482TMC3     C 7171   1.653   4.351  14.007 -0.2087  0.7351 -0.1207
  482TMC3     O 7172   1.622   4.253  14.083 -0.2719  0.0206  0.0082
  482TMC3     H 7173   1.446   4.193  13.921  0.4007 -1.6140 -1.3186
  482TMC3    H1 7174   1.690   4.532  13.830  0.2714 -0.5990 -0.6098
  482TMC3    H2 7175   1.410   4.389  13.544  1.1312 -1.7433 -0.4905
  482TMC3    C7 7176   1.608   4.562  13.581 -0.5480  0.8874  0.2761
  482TMC3    C8 7177   1.366   4.159  13.676  0.9036 -0.8481  0.0840
  482TMC3    O1 7178   1.575   4.532  13.466  0.0346 -0.4595  0.0335
  482TMC3    O2 7179   1.337   4.068  13.749  0.0335  0.2948  0.2011
  483TMC3    C1 7180   4.203   3.522   0.604 -0.9483  0.6013  1.1612
  483TMC3    C2 7181   4.207   3.642   0.550  0.2815  0.5710 -1.0449
  483TMC3    C3 7182   4.259   3.748   0.625 -0.1783 -0.1832 -0.4642
  483TMC3    C4 7183   4.218   3.504   0.738  0.2642  0.2768  0.4856
  483TMC3    C5 7184   4.277   3.606   0.803  0.0338 -0.4147  0.5652
  483TMC3    C6 7185   4.296   3.736   0.757  0.1025 -0.8424 -0.1735
  483TMC3     C 7186   4.261   3.420   0.520 -0.0391 -0.2499  0.0967
  483TMC3     O 7187   4.241   3.424   0.398 -0.0607 -0.8853  0.2329
  483TMC3     H 7188   4.187   3.650   0.444 -1.5368  2.3025 -0.5835
  483TMC3    H1 7189   4.204   3.405   0.780 -0.2142 -0.5724 -1.6742
  483TMC3    H2 7190   4.362   3.806   0.808 -0.1772 -1.1492  0.6201
  483TMC3    C7 7191   4.367   3.543   0.898  0.4150  0.5567  0.0474
  483TMC3    C8 7192   4.290   3.874   0.553 -0.0930 -0.7502  0.0697
  483TMC3    O1 7193   4.424   3.441   0.857  0.6913 -0.2135 -0.0408
  483TMC3    O2 7194   4.302   3.871   0.433  0.5102 -0.2886 -0.2667
  484MPD2     C 7195   2.567   1.705  12.532 -0.1577 -0.3195 -0.1541
  484MPD2    C1 7196   2.617   1.645  12.642 -0.6737  0.1341  1.2706
  484MPD2    C2 7197   2.736   1.698  12.687  0.0553 -0.3011  0.0443
  484MPD2    C3 7198   2.805   1.804  12.628 -0.5578 -0.0188  0.1984
  484MPD2    C4 7199   2.734   1.868  12.522  0.1029 -0.5690 -0.1752
  484MPD2    C5 7200   2.616   1.820  12.478 -0.6206  0.2297 -0.9221
  484MPD2     H 7201   2.776   1.665  12.782  0.4637  0.1645  0.0293
  484MPD2    H1 7202   2.778   1.957  12.479 -2.3823  1.9684  2.5809
  484MPD2    H2 7203   2.485   1.659  12.479 -1.4158 -0.2932  1.7672
  484MPD2    H3 7204   2.575   1.864  12.387 -0.8530  0.4662 -0.7029
  484MPD2     N 7205   2.921   1.860  12.674  0.5827 -0.1891  0.7077
  484MPD2    H5 7206   2.954   1.944  12.627  0.3775  0.7833  2.3314
  484MPD2    N1 7207   2.550   1.534  12.700 -0.1280 -0.7044  0.3855
  484MPD2    H7 7208   2.466   1.498  12.656 -0.0706  0.0641 -0.3511
  485TMC3    C1 7209   3.126   1.854  12.792  0.1820 -0.2053  0.0813
  485TMC3    C2 7210   3.228   1.753  12.793 -0.7357  0.4806  1.0037
  485TMC3    C3 7211   3.352   1.804  12.745 -0.0289 -0.0054  0.2987
  485TMC3    C4 7212   3.144   1.974  12.735 -0.0012 -0.3363 -0.6597
  485TMC3    C5 7213   3.270   2.020  12.703 -0.0210  0.4083 -0.4263
  485TMC3    C6 7214   3.376   1.938  12.703 -0.6453  0.1504 -0.5956
  485TMC3     C 7215   3.001   1.789  12.763  0.3542  0.0218  0.0111
  485TMC3     O 7216   3.001   1.671  12.789 -0.2764 -0.1256  0.4925
  485TMC3     H 7217   3.223   1.659  12.846 -1.8047  0.2806  0.5339
  485TMC3    H1 7218   3.062   2.044  12.728  0.8911  0.7494 -0.1002
  485TMC3    H2 7219   3.478   1.961  12.673 -0.8694  0.3994 -1.1664
  485TMC3    C7 7220   3.269   2.113  12.588  0.5774 -0.1370 -0.5423
  485TMC3    C8 7221   3.411   1.708  12.648 -0.8353 -0.4749 -0.3690
  485TMC3    O1 7222   3.172   2.125  12.514 -0.3072  0.1875  0.1562
  485TMC3    O2 7223   3.492   1.758  12.573  0.2061 -0.3045  0.0291
  486MPD2     C 7224   0.519   0.747  12.733 -0.1335  0.3436  0.0471
  486MPD2    C1 7225   0.414   0.700  12.664 -0.7196 -0.4024 -0.4404
  486MPD2    C2 7226   0.312   0.791  12.626  0.0959 -0.2931 -0.5717
  486MPD2    C3 7227   0.311   0.931  12.667 -0.1530  0.5703 -0.4306
  486MPD2    C4 7228   0.427   0.972  12.738 -0.5357 -0.2501 -0.4647
  486MPD2    C5 7229   0.525   0.877  12.766  1.0644  0.3283 -0.2504
  486MPD2     H 7230   0.237   0.751  12.559  0.8505 -2.4026 -0.1598
  486MPD2    H1 7231   0.435   1.070  12.783  2.6540 -0.6076 -0.2742
  486MPD2    H2 7232   0.598   0.680  12.766  0.0584  0.5584  0.0228
  486MPD2    H3 7233   0.607   0.915  12.826 -0.8950  1.4225  1.6946
  486MPD2     N 7234   0.200   1.013  12.625 -0.1828  0.0954  0.6573
  486MPD2    H5 7235   0.138   0.978  12.552  1.0324  0.3887 -0.5195
  486MPD2    N1 7236   0.427   0.566  12.610  0.2762 -0.5314 -0.0062
  486MPD2    H7 7237   0.522   0.533  12.594  0.2850 -0.1513 -0.7614
  487TMC3    C1 7238   0.351   0.357  12.536 -0.3761 -0.1767  0.5495
  487TMC3    C2 7239   0.269   0.286  12.451 -0.2460  0.1332 -0.4077
  487TMC3    C3 7240   0.285   0.147  12.433  0.0225 -0.2277  0.2031
  487TMC3    C4 7241   0.457   0.297  12.591  0.2933  0.2896  0.4652
  487TMC3    C5 7242   0.476   0.161  12.566  0.0405  0.3151 -0.0251
  487TMC3    C6 7243   0.407   0.090  12.468  0.0643  0.1897  0.1546
  487TMC3     C 7244   0.318   0.493  12.566  0.4129  0.2660 -1.1559
  487TMC3     O 7245   0.200   0.532  12.572 -0.4019 -0.6256  0.5487
  487TMC3     H 7246   0.183   0.341  12.412 -0.3877 -1.3143 -2.1301
  487TMC3    H1 7247   0.513   0.339  12.674  3.0067 -1.0837 -0.6535
  487TMC3    H2 7248   0.422   4.707  12.477  0.5982  0.1744 -0.9835
  487TMC3    C7 7249   0.530   0.088  12.678  0.6970 -0.6360 -0.0431
  487TMC3    C8 7250   0.170   0.075  12.475  0.0838  0.5170 -0.5337
  487TMC3    O1 7251   0.516   0.141  12.786 -0.0785  0.3353  0.1558
  487TMC3    O2 7252   0.085   0.139  12.539 -0.1165  0.4066  0.2482
  488MPD2     C 7253   0.077   2.003  16.419  0.0719  0.2205 -0.2942
  488MPD2    C1 7254   0.096   2.137  16.447 -0.3548  0.0807  0.3485
  488MPD2    C2 7255   0.057   2.182  16.578  0.1479  0.2667  0.0359
  488MPD2    C3 7256   4.715   2.094  16.669  0.1572 -0.0500  0.6979
  488MPD2    C4 7257   4.692   1.969  16.631 -0.2255  0.3178 -0.1807
  488MPD2    C5 7258   0.011   1.917  16.510  0.3958  0.1961 -0.3713
  488MPD2     H 7259   0.074   2.283  16.612  1.9310  0.0108 -0.1030
  488MPD2    H1 7260   4.631   1.901  16.689 -0.3783  0.4551 -0.1836
  488MPD2    H2 7261   0.116   1.953  16.332 -0.9063 -0.3095 -0.4347
  488MPD2    H3 7262   4.709   1.816  16.482 -2.9459  0.6707  0.9098
  488MPD2     N 7263   4.663   2.138  16.790  0.0826 -0.3062 -0.2204
  488MPD2    H5 7264   4.654   2.239  16.799 -0.6013 -0.4705  0.9008
  488MPD2    N1 7265   0.155   2.231  16.358  0.1422 -0.0353 -0.6347
  488MPD2    H7 7266   0.148   2.326  16.393 -0.9550 -0.0987 -0.7027
  489TMC3    C1 7267   4.600   2.119  17.020 -1.5845 -0.4707 -0.1688
  489TMC3    C2 7268   4.505   2.226  17.020  0.6348 -0.3469  0.1114
  489TMC3    C3 7269   4.428   2.246  17.135 -0.0965  0.0611  0.4092
  489TMC3    C4 7270   4.632   2.066  17.142 -0.4190  0.1529 -0.2286
  489TMC3    C5 7271   4.566   2.111  17.258  0.1736 -0.2868  0.1896
  489TMC3    C6 7272   4.463   2.199  17.254  0.2418  0.3032 -0.2024
  489TMC3     C 7273   4.668   2.059  16.905 -0.8156  0.0087  0.1415
  489TMC3     O 7274   4.700   1.942  16.911 -0.0099  0.0122 -0.1719
  489TMC3     H 7275   4.476   2.271  16.926  0.6925 -0.3257  0.1036
  489TMC3    H1 7276   4.700   1.983  17.154 -1.0795 -0.6583 -2.1704
  489TMC3    H2 7277   4.416   2.243  17.340  1.1158  0.8021  0.0206
  489TMC3    C7 7278   4.624   2.113  17.393 -0.0030  0.6225 -0.9075
  489TMC3    C8 7279   4.383   2.386  17.154 -0.0020  0.7683  0.5480
  489TMC3    O1 7280   4.577   2.190  17.472 -0.3539 -0.0941 -0.0733
  489TMC3    O2 7281   4.284   2.413  17.226 -0.1374 -0.2570 -0.4413
  490MPD2     C 7282   0.946   1.951  17.552  0.5467  0.0394 -0.0542
  490MPD2    C1 7283   0.932   1.813  17.571 -0.3359 -0.4560  0.1886
  490MPD2    C2 7284   0.973   1.760  17.688 -0.0211 -0.2429  0.2079
  490MPD2    C3 7285   1.013   1.838   0.097 -0.5754 -0.8407 -0.4718
  490MPD2    C4 7286   1.017   1.975   0.085 -0.4857  0.7493  0.3562
  490MPD2    C5 7287   0.989   2.025  17.655 -0.0014  0.2701  0.1009
  490MPD2     H 7288   0.944   1.658   0.015 -1.5782  0.2353  0.3833
  490MPD2    H1 7289   1.040   2.046   0.163  3.3868 -1.1383  0.8982
  490MPD2    H2 7290   0.915   2.005  17.463  2.0241 -0.4655 -0.8843
  490MPD2    H3 7291   0.998   2.132  17.645 -0.0917  0.3626  1.0418
  490MPD2     N 7292   1.066   1.778   0.212  0.8381 -0.2464 -0.0146
  490MPD2    H5 7293   1.078   1.834   0.296 -3.0899  0.2618  0.1926
  490MPD2    N1 7294   0.869   1.718  17.480  0.5831 -0.0601  0.1144
  490MPD2    H7 7295   0.873   1.623  17.517  3.0649 -1.1061 -2.8249
  491TMC3    C1 7296   0.750   1.646  17.277 -0.2367 -0.2269  0.6568
  491TMC3    C2 7297   0.757   1.513  17.310 -0.4610  0.4657 -0.4494
  491TMC3    C3 7298   0.676   1.426  17.241 -0.2609 -0.7588  0.7773
  491TMC3    C4 7299   0.672   1.690  17.173 -0.2998 -0.7899 -0.1671
  491TMC3    C5 7300   0.592   1.597  17.114 -0.1718 -0.0424  0.3770
  491TMC3    C6 7301   0.600   1.465  17.134  0.1108 -0.8737  0.7582
  491TMC3     C 7302   0.825   1.751  17.353 -0.0837  0.3886  0.5071
  491TMC3     O 7303   0.831   1.862  17.304  0.2663  0.5870 -0.2134
  491TMC3     H 7304   0.823   1.476  17.388 -0.5850  0.2025 -0.4685
  491TMC3    H1 7305   0.666   1.796  17.152  1.1949 -0.7937 -0.5442
  491TMC3    H2 7306   0.539   1.392  17.081  2.6434 -1.2868 -1.5584
  491TMC3    C7 7307   0.505   1.644  17.008  0.5167  0.5096  0.1385
  491TMC3    C8 7308   0.648   1.298  17.296 -0.0366  0.4407  0.6186
  491TMC3    O1 7309   0.539   1.746  16.955  0.0123  0.6792  0.1998
  491TMC3    O2 7310   0.620   1.210  17.212 -0.2698  0.1196 -0.0186
  492MPD2     C 7311   1.802   1.559  11.293  0.9588  0.6528 -0.6467
  492MPD2    C1 7312   1.691   1.507  11.231 -0.4954  0.6151  0.4134
  492MPD2    C2 7313   1.591   1.443  11.305 -0.2368  0.8142  1.1391
  492MPD2    C3 7314   1.613   1.422  11.440 -0.5698 -0.2108 -0.6346
  492MPD2    C4 7315   1.734   1.464  11.501  0.2025  0.3808  0.3987
  492MPD2    C5 7316   1.824   1.541  11.429 -0.1123  0.7015 -0.7280
  492MPD2     H 7317   1.496   1.412  11.262 -0.0409 -1.6169  2.4421
  492MPD2    H1 7318   1.760   1.457  11.606  2.3694  1.0913 -0.0929
  492MPD2    H2 7319   1.881   1.623  11.254 -0.9658  4.2403  1.4230
  492MPD2    H3 7320   1.918   1.580  11.466 -0.8503  3.4888 -1.8175
  492MPD2     N 7321   1.515   1.374  11.529 -0.2116 -0.2777 -0.5993
  492MPD2    H5 7322   1.532   1.376  11.629  1.6084 -0.9210 -0.8960
  492MPD2    N1 7323   1.673   1.554  11.101 -0.2937  0.1804 -0.5574
  492MPD2    H7 7324   1.760   1.584  11.057 -0.5394  2.2855  0.4071
  493TMC3    C1 7325   1.578   1.591  10.888 -0.1481 -0.2383  0.4591
  493TMC3    C2 7326   1.699   1.643  10.848 -0.2320 -0.0692  0.0726
  493TMC3    C3 7327   1.711   1.675  10.717  0.5151 -0.1087  0.3241
  493TMC3    C4 7328   1.476   1.561  10.803 -0.2465 -0.2514  1.0632
  493TMC3    C5 7329   1.498   1.590  10.667  0.5071 -0.4664 -0.4312
  493TMC3    C6 7330   1.618   1.640  10.620  0.4363 -0.2117  0.5493
  493TMC3     C 7331   1.562   1.542  11.025 -0.1057  0.3930 -0.8037
  493TMC3     O 7332   1.466   1.478  11.057 -0.4290  0.4092  0.4977
  493TMC3     H 7333   1.768   1.692  10.916  1.1809 -0.8992 -0.7489
  493TMC3    H1 7334   1.382   1.520  10.838 -2.9610  4.6966 -0.4325
  493TMC3    H2 7335   1.629   1.655  10.513  0.6781  4.1618  1.1883
  493TMC3    C7 7336   1.412   1.527  10.571  0.1661  0.3239 -0.0445
  493TMC3    C8 7337   1.848   1.708  10.670 -0.5079  0.0800 -0.3042
  493TMC3    O1 7338   1.420   1.577  10.459  0.4966  0.2139 -0.2946
  493TMC3    O2 7339   1.939   1.697  10.750 -0.1865 -0.2265  0.1507
  494TMC3    C1 7340   1.783   3.586   0.243  0.3374  0.5469 -0.0460
  494TMC3    C2 7341   1.780   3.451   0.243 -0.3928 -0.6830  0.0577
  494TMC3    C3 7342   1.765   3.388   0.124  0.3594 -0.5971 -0.4739
  494TMC3    C4 7343   1.758   3.664   0.137 -0.4166 -0.2690 -0.1170
  494TMC3    C5 7344   1.732   3.596   0.020 -0.9223  0.3583  0.4216
  494TMC3    C6 7345   1.748   3.462   0.010 -0.1290  0.3660  0.2854
  494TMC3     C 7346   1.766   3.660   0.366  0.0971 -0.6365 -0.0641
  494TMC3     O 7347   1.691   3.755   0.372 -0.9378 -0.4766  0.2652
  494TMC3     H 7348   1.797   3.400   0.337  1.3117 -0.3155 -0.0567
  494TMC3    H1 7349   1.768   3.771   0.152 -0.4175 -0.1824 -0.7673
  494TMC3    H2 7350   1.722   3.419  17.608 -0.9989  1.8998 -0.1629
  494TMC3    C7 7351   1.746   3.678  17.598  0.7755 -0.4222  0.5111
  494TMC3    C8 7352   1.745   3.244   0.136 -0.5956  0.4452  0.0126
  494TMC3    O1 7353   1.784   3.613  17.501  0.3500 -0.0673 -0.6181
  494TMC3    O2 7354   1.744   3.201   0.248  0.6667 -0.1533 -0.1970
  495TMC3    C1 7355   0.411   0.358  14.427  0.6415  0.3844  0.1672
  495TMC3    C2 7356   0.320   0.386  14.336 -0.3765 -0.3973  0.4776
  495TMC3    C3 7357   0.254   0.507  14.340  0.4224  0.5008  0.3295
  495TMC3    C4 7358   0.449   0.450  14.522 -0.3798 -0.2253 -0.2845
  495TMC3    C5 7359   0.377   0.565  14.536 -0.3980  0.5581 -0.8058
  495TMC3    C6 7360   0.280   0.590  14.447  0.4084  0.2889  0.6431
  495TMC3     C 7361   0.436   0.214  14.450  0.2421 -0.0020 -0.3184
  495TMC3     O 7362   0.364   0.135  14.390  0.7253  0.0692 -0.5658
  495TMC3     H 7363   0.297   0.306  14.266 -1.2646 -0.2152  0.5556
  495TMC3    H1 7364   0.519   0.433  14.603 -3.8413  0.0735  2.7793
  495TMC3    H2 7365   0.219   0.677  14.465 -0.0691  0.8128 -3.6345
  495TMC3    C7 7366   0.363   0.620  14.669  0.1454  0.1513 -0.2305
  495TMC3    C8 7367   0.127   0.517  14.279  0.4833  0.1381 -0.3445
  495TMC3    O1 7368   0.466   0.635  14.736  0.2604 -0.4464 -0.7061
  495TMC3    O2 7369   0.055   0.610  14.315  0.1844  0.1952  0.1578
  496MPD2     C 7370   2.912   0.451  15.385 -0.5570  0.2347  0.2081
  496MPD2    C1 7371   2.823   0.373  15.328 -0.7232  0.0375  0.1874
  496MPD2    C2 7372   2.697   0.417  15.300 -0.1591  0.0385 -0.2366
  496MPD2    C3 7373   2.665   0.548  15.328  0.1686  1.0194 -0.1426
  496MPD2    C4 7374   2.750   0.631  15.395  0.3078 -0.3528  0.2636
  496MPD2    C5 7375   2.875   0.580  15.430  0.1627 -0.1058  0.6056
  496MPD2     H 7376   2.630   0.351  15.247 -0.6306  0.7235 -0.4892
  496MPD2    H1 7377   2.726   0.736  15.411 -0.0685 -0.5770  1.2263
  496MPD2    H2 7378   3.014   0.415  15.394 -0.6015  0.2535  0.8368
  496MPD2    H3 7379   2.945   0.647  15.477 -0.9843  0.2660  1.7905
  496MPD2     N 7380   2.536   0.596  15.294  0.0691  0.2070 -0.3861
  496MPD2    H5 7381   2.512   0.685  15.337  1.2204 -0.1532  1.0154
  496MPD2    N1 7382   2.876   0.255  15.280 -0.8569 -0.5521  0.2111
  496MPD2    H7 7383   2.977   0.247  15.283 -0.9435 -1.2285  1.2370
  497TMC3    C1 7384   2.306   0.583  15.252 -0.0284  0.3256 -0.1987
  497TMC3    C2 7385   2.211   0.578  15.149 -0.1440 -0.3437  0.2304
  497TMC3    C3 7386   2.076   0.597  15.188  0.4030 -0.6249  0.3512
  497TMC3    C4 7387   2.271   0.593  15.382 -0.3192 -0.3442  0.3340
  497TMC3    C5 7388   2.144   0.622  15.414 -0.0369  0.2269  0.4446
  497TMC3    C6 7389   2.039   0.617  15.321 -0.3620 -0.1574  0.1738
  497TMC3     C 7390   2.435   0.531  15.228  0.6530 -0.7699  0.0770
  497TMC3     O 7391   2.440   0.447  15.143 -0.0861 -0.4240  0.1213
  497TMC3     H 7392   2.242   0.557  15.047 -1.2904  0.5337 -0.3015
  497TMC3    H1 7393   2.353   0.604  15.453 -1.2194  4.2530  0.7075
  497TMC3    H2 7394   1.938   0.595  15.356  0.2590  0.5945  2.4651
  497TMC3    C7 7395   2.104   0.625  15.553  0.7050  0.4296  0.2344
  497TMC3    C8 7396   1.980   0.527  15.103  0.3938  0.5499 -0.5556
  497TMC3    O1 7397   1.984   0.627  15.575 -0.5646  0.1768 -0.2943
  497TMC3    O2 7398   1.868   0.500  15.153  0.1654  0.0987 -0.2349
  498MPD2     C 7399   3.662   1.096   9.584 -0.2148  0.3399 -0.1357
  498MPD2    C1 7400   3.763   1.067   9.671 -0.6709  0.1458  0.2349
  498MPD2    C2 7401   3.741   0.958   9.754 -0.0753 -0.2253 -0.4670
  498MPD2    C3 7402   3.636   0.872   9.744  0.6983  0.0765 -0.3024
  498MPD2    C4 7403   3.537   0.900   9.650 -0.4745 -0.1616 -0.4707
  498MPD2    C5 7404   3.552   1.013   9.573  0.0950  0.0709 -0.4445
  498MPD2     H 7405   3.812   0.927   9.829 -0.5613  0.0507  0.1047
  498MPD2    H1 7406   3.445   0.844   9.643 -1.4487  1.4810 -0.6843
  498MPD2    H2 7407   3.666   1.189   9.528  0.4448  1.2560  1.4317
  498MPD2    H3 7408   3.468   1.037   9.508  0.1246 -1.3877 -1.0262
  498MPD2     N 7409   3.629   0.762   9.833 -0.0625 -0.2235  0.7550
  498MPD2    H5 7410   3.707   0.754   9.897  1.0075 -2.0497 -0.7785
  498MPD2    N1 7411   3.878   1.145   9.686 -0.6483  0.1579  0.0402
  498MPD2    H7 7412   3.944   1.106   9.753 -0.4959 -0.6079 -0.5633
  499TMC3    C1 7413   4.046   1.291   9.651 -0.4161  0.6038  0.5198
  499TMC3    C2 7414   4.146   1.200   9.648  0.4226  0.7607  0.3737
  499TMC3    C3 7415   4.276   1.241   9.661  0.1402 -0.9717 -0.2256
  499TMC3    C4 7416   4.071   1.421   9.662 -0.2911  0.0465 -0.4335
  499TMC3    C5 7417   4.200   1.455   9.680 -0.3994 -0.0942  0.0541
  499TMC3    C6 7418   4.301   1.373   9.679 -0.3351 -0.3695  0.0076
  499TMC3     C 7419   3.905   1.265   9.629 -0.1094  1.2421  0.4976
  499TMC3     O 7420   3.829   1.347   9.579 -0.4644  0.5440 -0.2600
  499TMC3     H 7421   4.119   1.095   9.640 -1.8169  1.2917  0.8440
  499TMC3    H1 7422   3.987   1.489   9.670  0.1795  0.9849 -3.1650
  499TMC3    H2 7423   4.403   1.408   9.666 -0.5570  0.0585 -0.6194
  499TMC3    C7 7424   4.235   1.597   9.664  0.6070 -0.3917 -0.5529
  499TMC3    C8 7425   4.387   1.153   9.613 -0.2187  0.3248  0.3931
  499TMC3    O1 7426   4.342   1.616   9.608  1.2155  0.3474 -0.3543
  499TMC3    O2 7427   4.500   1.176   9.656  0.1113 -0.1005 -0.0750
  500MPD2     C 7428   0.818   2.819  10.489  0.3380  0.3247 -0.6439
  500MPD2    C1 7429   0.750   2.706  10.460 -0.0499  0.3811  0.2798
  500MPD2    C2 7430   0.632   2.708  10.391 -0.3847  0.0929 -0.5983
  500MPD2    C3 7431   0.583   2.838  10.344  0.2523 -0.7927  0.0877
  500MPD2    C4 7432   0.661   2.953  10.366 -0.5133  0.1901  0.0871
  500MPD2    C5 7433   0.772   2.941  10.442  0.5887 -0.1463 -0.7680
  500MPD2     H 7434   0.577   2.616  10.376 -2.1234  0.8733  0.9098
  500MPD2    H1 7435   0.629   3.053  10.340  1.4619  0.4999 -1.1570
  500MPD2    H2 7436   0.907   2.832  10.548 -0.2811  2.6475 -0.2402
  500MPD2    H3 7437   0.824   3.032  10.472  1.4145 -1.2042  0.9894
  500MPD2     N 7438   0.456   2.854  10.281 -0.1451 -0.1135 -0.2280
  500MPD2    H5 7439   0.423   2.947  10.256 -0.3504  0.5130  2.2895
  500MPD2    N1 7440   0.802   2.581  10.501 -0.4284  0.2580  0.0320
  500MPD2    H7 7441   0.750   2.498  10.474 -2.8139  2.0713 -0.8954
  501TMC3    C1 7442   0.947   2.428  10.616 -0.1706  0.3843 -0.3974
  501TMC3    C2 7443   0.951   2.361  10.495 -0.1002 -0.3033 -0.4930
  501TMC3    C3 7444   1.059   2.281  10.469  0.3647  0.0334 -0.4512
  501TMC3    C4 7445   1.049   2.409  10.704 -0.3728 -0.0179 -0.4443
  501TMC3    C5 7446   1.146   2.316  10.685  0.5237  0.9958 -1.0957
  501TMC3    C6 7447   1.146   2.253  10.564 -0.2442 -0.9562  0.6755
  501TMC3     C 7448   0.900   2.567  10.594  0.3733  0.5210 -0.3721
  501TMC3     O 7449   0.950   2.647  10.671  1.0304  0.0990  0.3278
  501TMC3     H 7450   0.874   2.369  10.420 -2.0358 -0.8029  1.4329
  501TMC3    H1 7451   1.061   2.469  10.793 -0.6973 -2.1585  1.0376
  501TMC3    H2 7452   1.220   2.176  10.548  2.9275  2.3102 -0.2106
  501TMC3    C7 7453   1.267   2.319  10.773 -0.3081  0.3241  0.0081
  501TMC3    C8 7454   1.048   2.176  10.375  0.3122 -0.1346  0.2803
  501TMC3    O1 7455   1.248   2.351  10.888  0.0465 -0.4054  0.3812
  501TMC3    O2 7456   1.056   2.059  10.408 -0.3550 -0.1868  0.3042
  502TMC3    C1 7457   4.584   1.042  14.630  0.0613  0.1122  0.1626
  502TMC3    C2 7458   4.596   1.169  14.571 -0.6556  0.3265  0.1141
  502TMC3    C3 7459   4.491   1.253  14.570  0.3485  0.2592 -0.8078
  502TMC3    C4 7460   4.475   0.997  14.678  1.1454  0.4514  0.2802
  502TMC3    C5 7461   4.368   1.084  14.679 -0.0123 -0.2710 -0.3593
  502TMC3    C6 7462   4.373   1.205  14.628 -0.4369  0.3016 -0.1914
  502TMC3     C 7463   4.708   1.021  14.709 -0.5902 -0.1795  0.4402
  502TMC3     O 7464   0.090   1.039  14.651 -0.0258 -0.5678  0.4767
  502TMC3     H 7465   4.695   1.197  14.537  0.6422 -3.7815  0.4566
  502TMC3    H1 7466   4.474   0.903  14.733 -1.2464  1.0546  1.2852
  502TMC3    H2 7467   4.291   1.273  14.647  0.0761  1.1058 -0.8137
  502TMC3    C7 7468   4.334   1.091  14.819  0.4169 -0.0482 -0.7074
  502TMC3    C8 7469   4.531   1.394  14.579 -0.0892 -0.6759  0.7688
  502TMC3    O1 7470   4.413   1.043  14.897  0.9642 -0.2760 -0.0573
  502TMC3    O2 7471   4.453   1.481  14.548 -0.3682  0.9481 -0.0665
  503MPD2     C 7472   1.840   2.223  16.930  0.4486 -0.4596 -0.1166
  503MPD2    C1 7473   1.814   2.236  17.062 -0.6761 -0.0663 -0.0474
  503MPD2    C2 7474   1.848   2.128  17.143 -0.2486 -0.6901  0.5083
  503MPD2    C3 7475   1.909   2.014  17.095 -0.6995 -0.1617  0.4584
  503MPD2    C4 7476   1.944   2.007  16.963  0.3266 -0.2897 -0.0857
  503MPD2    C5 7477   1.918   2.117  16.888 -0.0655 -0.4826 -0.0735
  503MPD2     H 7478   1.832   2.128  17.250 -1.0143 -0.2608  0.3868
  503MPD2    H1 7479   2.002   1.926  16.919 -1.4712 -1.6893  0.1226
  503MPD2    H2 7480   1.805   2.286  16.849  2.1938  0.7086  0.0300
  503MPD2    H3 7481   1.935   2.114  16.782 -2.4428  2.4318 -0.5387
  503MPD2     N 7482   1.933   1.906  17.189  0.4609  0.1822  0.1724
  503MPD2    H5 7483   1.906   1.927  17.284 -0.0001  0.0623  0.0644
  503MPD2    N1 7484   1.760   2.353  17.121  0.5454 -0.2651 -0.1677
  503MPD2    H7 7485   1.741   2.358  17.221 -2.0256  1.7434 -0.7474
  504TMC3    C1 7486   2.046   1.709  17.265  0.0793 -0.4860  0.5517
  504TMC3    C2 7487   1.999   1.726  17.387 -0.0303 -0.0610  0.5963
  504TMC3    C3 7488   2.056   1.655  17.495  0.5624 -0.7422  0.6713
  504TMC3    C4 7489   2.152   1.620  17.240  0.1148 -0.7323  0.6126
  504TMC3    C5 7490   2.218   1.564  17.347 -0.2869  0.1956 -0.7422
  504TMC3    C6 7491   2.168   1.582  17.476  0.5521 -0.4674  0.8528
  504TMC3     C 7492   2.004   1.791  17.153  0.0153  0.3201 -0.9861
  504TMC3     O 7493   2.036   1.746  17.045  0.2558  0.0500  0.3184
  504TMC3     H 7494   1.916   1.793  17.410  1.1150  1.8285 -0.8884
  504TMC3    H1 7495   2.198   1.598  17.143  0.3345 -0.4126  0.6459
  504TMC3    H2 7496   2.231   1.556  17.560  2.2731 -0.8631 -0.5487
  504TMC3    C7 7497   2.347   1.499  17.319 -0.5522 -0.2323 -0.1928
  504TMC3    C8 7498   1.979   1.653  17.618  0.0930 -0.4719 -0.0530
  504TMC3    O1 7499   2.400   1.540  17.217 -0.0523 -0.6175 -0.2032
  504TMC3    O2 7500   1.868   1.706  17.623 -0.5057  0.0221  0.1572
  505MPD2     C 7501   2.973   0.884  10.641  0.0048 -0.3456  0.0668
  505MPD2    C1 7502   2.940   0.791  10.734  0.3521  0.0292 -0.4140
  505MPD2    C2 7503   3.019   0.780  10.850  1.1301 -0.0765  0.7963
  505MPD2    C3 7504   3.130   0.859  10.873  0.8625 -0.3214 -0.3545
  505MPD2    C4 7505   3.157   0.965  10.784  0.2476 -0.2078 -0.3784
  505MPD2    C5 7506   3.075   0.973  10.670  0.6948  0.3550  0.6277
  505MPD2     H 7507   2.994   0.715  10.933 -1.4249 -1.7121 -1.2575
  505MPD2    H1 7508   3.236   1.037  10.798 -2.0767  1.7123  3.0132
  505MPD2    H2 7509   2.900   0.907  10.564  1.0502  1.0252 -0.5244
  505MPD2    H3 7510   3.095   1.052  10.600 -0.3223  1.1975  1.2751
  505MPD2     N 7511   3.214   0.829  10.984 -0.1863 -0.4980 -0.2473
  505MPD2    H5 7512   3.210   0.738  11.028  1.6659 -0.3489  0.2321
  505MPD2    N1 7513   2.827   0.709  10.708  0.4958 -0.5568  0.0210
  505MPD2    H7 7514   2.783   0.730  10.619  0.6758  0.6910  0.2194
  506TMC3    C1 7515   2.689   0.505  10.735 -0.0365 -0.0692  0.4288
  506TMC3    C2 7516   2.697   0.467  10.599 -1.0571 -0.1459  0.7685
  506TMC3    C3 7517   2.661   0.337  10.576 -0.0018  0.2916  0.1788
  506TMC3    C4 7518   2.645   0.415  10.836 -0.4822 -0.3525 -0.3067
  506TMC3    C5 7519   2.631   0.288  10.802  0.7823  0.7839  0.4907
  506TMC3    C6 7520   2.636   0.248  10.675  0.2624  0.0560  0.3229
  506TMC3     C 7521   2.778   0.606  10.791  0.0498 -0.1231  0.5350
  506TMC3     O 7522   2.808   0.575  10.906  0.2053  0.4702  0.1466
  506TMC3     H 7523   2.745   0.525  10.521 -0.5706 -1.1985  0.2803
  506TMC3    H1 7524   2.639   0.440  10.942  0.0461  0.4467 -0.4682
  506TMC3    H2 7525   2.607   0.143  10.667  1.0162 -0.2096  1.1606
  506TMC3    C7 7526   2.730   0.208  10.874 -0.2193  0.7287 -0.0094
  506TMC3    C8 7527   2.701   0.285  10.455  0.0903  0.7778 -0.1290
  506TMC3    O1 7528   2.716   0.085  10.863  0.1971  0.3541 -0.1996
  506TMC3    O2 7529   2.629   0.189  10.422 -0.0053 -0.1410 -0.5198
  507TMC3    C1 7530   3.053   1.570  14.581  0.3220  0.4967  0.1226
  507TMC3    C2 7531   3.078   1.495  14.473 -0.1375 -0.0179 -0.1390
  507TMC3    C3 7532   3.208   1.476  14.430  0.0294 -0.3139 -0.1837
  507TMC3    C4 7533   3.154   1.629  14.659 -0.6341 -0.1180  0.2017
  507TMC3    C5 7534   3.286   1.623  14.610 -0.0058 -0.0361  0.6229
  507TMC3    C6 7535   3.307   1.541  14.502  0.3345 -0.0844 -0.0129
  507TMC3     C 7536   2.922   1.574  14.641  0.3631  0.0768 -0.0761
  507TMC3     O 7537   2.927   1.645  14.738 -0.1153 -0.2465  0.2309
  507TMC3     H 7538   3.007   1.453  14.403 -1.9897 -0.7177  2.1606
  507TMC3    H1 7539   3.132   1.719  14.715  1.9807 -0.2686  1.4621
  507TMC3    H2 7540   3.407   1.540  14.461 -0.0801  0.6901 -1.0390
  507TMC3    C7 7541   3.347   1.752  14.577  0.3929 -0.4016 -0.5362
  507TMC3    C8 7542   3.224   1.479  14.286 -0.2352 -0.0745 -0.3700
  507TMC3    O1 7543   3.369   1.762  14.457  0.2283 -0.5255  0.5322
  507TMC3    O2 7544   3.157   1.404  14.213  0.1227 -0.7610 -0.1217
  508MPD2     C 7545   3.993   3.796  16.262  0.0605  0.3039 -0.2417
  508MPD2    C1 7546   4.097   3.889  16.286  0.2744 -0.0008 -0.3108
  508MPD2    C2 7547   4.115   3.991  16.199  0.0553 -0.7854 -0.6237
  508MPD2    C3 7548   4.027   4.009  16.092 -1.1455 -0.5410  0.2082
  508MPD2    C4 7549   3.920   3.928  16.090 -0.6193 -0.2308  0.2096
  508MPD2    C5 7550   3.904   3.819  16.169 -0.3406 -0.0054  0.2074
  508MPD2     H 7551   4.200   4.057  16.211 -2.2607  2.5172 -2.2757
  508MPD2    H1 7552   3.838   3.947  16.022 -0.4757  0.6090  0.2594
  508MPD2    H2 7553   3.970   3.706  16.319  0.0441 -0.3119 -1.2318
  508MPD2    H3 7554   3.808   3.769  16.167 -0.0800 -0.5528  1.4459
  508MPD2     N 7555   4.040   4.119  16.008  0.9726  0.7673  0.2516
  508MPD2    H5 7556   4.115   4.179  16.039  1.6394 -1.0212  2.1154
  508MPD2    N1 7557   4.184   3.862  16.392 -0.6003  0.3674 -0.2503
  508MPD2    H7 7558   4.154   3.787  16.453  0.1586  0.0413 -0.2834
  509TMC3    C1 7559   3.911   4.494  15.807  0.1880 -0.0400  0.3975
  509TMC3    C2 7560   4.040   4.536  15.771  0.3064 -0.1155  0.4761
  509TMC3    C3 7561   4.142   4.443  15.780  0.5375 -0.7705  0.3738
  509TMC3    C4 7562   3.883   4.368  15.849 -0.8602  0.1005  0.3648
  509TMC3    C5 7563   3.988   4.289  15.858 -0.4951  1.3629 -0.1900
  509TMC3    C6 7564   4.121   4.321  15.839 -0.2486 -0.5744  0.6808
  509TMC3     C 7565   3.796   4.584  15.787  0.8791  0.3449 -0.2984
  509TMC3     O 7566   3.695   4.562  15.849  0.2788  0.6912  0.5148
  509TMC3     H 7567   4.062   4.636  15.736  0.7969 -0.1693  0.6206
  509TMC3    H1 7568   3.784   4.329  15.868 -0.0999 -1.1760  1.7570
  509TMC3    H2 7569   4.194   4.241  15.832 -0.0661 -0.3536  0.1026
  509TMC3    C7 7570   3.960   4.150  15.899 -0.4144  0.3584  0.4166
  509TMC3    C8 7571   4.278   4.474  15.724 -0.2483 -0.6382  0.2625
  509TMC3    O1 7572   3.855   4.105  15.860 -0.1058 -0.0838 -0.5148
  509TMC3    O2 7573   4.365   4.398  15.763  0.1292 -0.2270  0.1664
  510MPD2     C 7574   1.981   1.146  14.316  0.3387 -0.1709  0.0858
  510MPD2    C1 7575   2.034   1.073  14.427  0.9447  0.4763 -0.7950
  510MPD2    C2 7576   2.168   1.038  14.418 -0.4032 -0.7533 -0.4004
  510MPD2    C3 7577   2.259   1.087  14.327  0.0650 -0.1396 -0.5641
  510MPD2    C4 7578   2.217   1.187  14.249 -0.1584  0.1848  0.2223
  510MPD2    C5 7579   2.078   1.204  14.242 -0.3832 -0.0036  0.2316
  510MPD2     H 7580   2.206   0.975  14.498 -1.6830  0.5382  1.2391
  510MPD2    H1 7581   2.279   1.251  14.187  2.3587 -1.9450  0.5458
  510MPD2    H2 7582   1.880   1.182  14.307  0.8635  1.3818  0.3383
  510MPD2    H3 7583   2.045   1.280  14.172 -0.9391 -1.2363 -0.8442
  510MPD2     N 7584   2.389   1.038  14.321  0.2203  0.1254 -0.3375
  510MPD2    H5 7585   2.411   0.962  14.384  1.2093 -0.1287 -0.9946
  510MPD2    N1 7586   1.942   1.028  14.533 -0.1701 -0.2266 -0.1729
  510MPD2    H7 7587   1.842   1.038  14.523  0.1561  2.3187 -0.6839
  511TMC3    C1 7588   1.867   0.906  14.719  0.2672 -0.2539  0.2845
  511TMC3    C2 7589   1.869   0.909  14.857 -0.5465  0.8454  0.1140
  511TMC3    C3 7590   1.785   0.823  14.933  0.2515  0.3618  0.0936
  511TMC3    C4 7591   1.792   0.815  14.649 -0.1691  0.2104  0.9401
  511TMC3    C5 7592   1.715   0.730  14.730 -0.6417 -0.2040 -0.0906
  511TMC3    C6 7593   1.714   0.722  14.864  0.5218  0.1235 -0.1707
  511TMC3     C 7594   1.980   0.972  14.651 -0.3065 -0.1461  0.1642
  511TMC3     O 7595   2.091   0.957  14.700 -0.0977  0.0375  0.0065
  511TMC3     H 7596   1.920   0.985  14.914  0.4274 -0.1083  0.5175
  511TMC3    H1 7597   1.786   0.805  14.542  0.9067 -1.9652  1.0814
  511TMC3    H2 7598   1.633   0.672  14.917  0.2567 -0.3257 -0.9950
  511TMC3    C7 7599   1.641   0.631  14.657  0.9614 -0.2041 -0.2910
  511TMC3    C8 7600   1.740   0.865  15.071 -0.5152 -0.7196  0.0258
  511TMC3    O1 7601   1.612   0.656  14.543  0.4713 -0.2709  0.6634
  511TMC3    O2 7602   1.720   0.985  15.080  0.3748  0.8888  0.4309
  512TMC3    C1 7603   0.898   0.245  13.142 -0.0263 -0.4808  0.0056
  512TMC3    C2 7604   0.987   0.216  13.242  0.6436  0.0531  0.0593
  512TMC3    C3 7605   1.067   0.103  13.228 -0.4310  0.4798 -0.1901
  512TMC3    C4 7606   0.889   0.161  13.036 -0.0544  0.0528 -0.6560
  512TMC3    C5 7607   0.968   0.050  13.027 -0.4184 -0.3107  0.2281
  512TMC3    C6 7608   1.061   0.018  13.120 -0.8189 -0.2449 -0.3160
  512TMC3     C 7609   0.777   0.322  13.191 -0.9182 -0.1625 -0.2753
  512TMC3     O 7610   0.756   0.313  13.310 -0.4983 -0.1700  0.5387
  512TMC3     H 7611   0.985   0.280  13.329  1.9869 -0.8786  0.7885
  512TMC3    H1 7612   0.823   0.182  12.953 -0.1745 -0.6469 -0.7444
  512TMC3    H2 7613   1.116   4.649  13.105  1.0052  0.7757  0.0911
  512TMC3    C7 7614   0.986   4.717  12.896  0.0312  0.3776  0.3381
  512TMC3    C8 7615   1.150   0.052  13.339 -0.0593 -0.1832  0.5148
  512TMC3    O1 7616   0.966   0.075  12.805 -0.2785 -0.2157 -0.8245
  512TMC3    O2 7617   1.188   4.659  13.323  0.1187  0.5029  0.1450
  513MPD2     C 7618   2.717   0.085  13.910 -1.2674 -0.2967 -0.2863
  513MPD2    C1 7619   2.731   0.141  13.785 -0.4038 -0.5133  0.3919
  513MPD2    C2 7620   2.833   0.228  13.753  0.0100 -0.7764  0.0751
  513MPD2    C3 7621   2.927   0.267  13.851 -0.6703  0.3572  0.1946
  513MPD2    C4 7622   2.911   0.213  13.980  0.5305  0.3254 -0.2669
  513MPD2    C5 7623   2.802   0.133  13.998 -0.1923 -0.6640  0.5143
  513MPD2     H 7624   2.826   0.261  13.650 -0.0126 -1.1217 -0.0354
  513MPD2    H1 7625   2.975   0.234  14.065  1.2218  1.4984 -1.0741
  513MPD2    H2 7626   2.641   0.016  13.944 -1.1209  0.0968  0.8362
  513MPD2    H3 7627   2.794   0.104  14.102 -0.9193 -0.7880  0.4199
  513MPD2     N 7628   3.040   0.340  13.814 -0.4395 -0.4569  0.4917
  513MPD2    H5 7629   3.048   0.368  13.717 -1.4493 -3.8534 -0.5741
  513MPD2    N1 7630   2.656   0.102  13.679  0.3872 -0.6332 -0.3358
  513MPD2    H7 7631   2.694   0.135  13.591 -0.4632 -2.3118 -1.3317
  514TMC3    C1 7632   2.492   0.001  13.546  0.4109 -0.1211  0.0345
  514TMC3    C2 7633   2.486   4.591  13.519 -0.2143 -0.1288  0.0065
  514TMC3    C3 7634   2.530   4.543  13.401 -0.1750  0.2708 -1.0125
  514TMC3    C4 7635   2.549   0.088  13.458  0.5722  0.1646 -0.4176
  514TMC3    C5 7636   2.609   0.046  13.340  0.4158  0.4577  0.0458
  514TMC3    C6 7637   2.604   4.626  13.321  0.0089  0.0541  0.0454
  514TMC3     C 7638   2.541   0.026  13.680  0.4282  0.8587  0.3419
  514TMC3     O 7639   2.468   4.719  13.774 -0.6457  0.8268  0.3374
  514TMC3     H 7640   2.429   4.535  13.592  0.8967  0.0803  1.0273
  514TMC3    H1 7641   2.545   0.192  13.489 -1.1708  0.0115 -0.1689
  514TMC3    H2 7642   2.647   4.587  13.229  0.8470  0.1319  0.4084
  514TMC3    C7 7643   2.742   0.102  13.343  0.4446 -0.1467  0.1933
  514TMC3    C8 7644   2.453   4.434  13.342 -0.3503  0.7280 -0.1849
  514TMC3    O1 7645   2.769   0.182  13.431  0.3903 -0.1154  0.0738
  514TMC3    O2 7646   2.413   4.351  13.419  0.0030  0.2194 -0.5174
  515MPD2     C 7647   0.588   2.200  14.923 -0.0860  0.5332  0.6950
  515MPD2    C1 7648   0.689   2.127  14.862 -0.3729  0.5138  0.1826
  515MPD2    C2 7649   0.824   2.176  14.865 -0.3542 -0.2880 -0.3113
  515MPD2    C3 7650   0.857   2.299  14.931  0.0668 -0.1471  0.4422
  515MPD2    C4 7651   0.746   2.367  14.985 -0.3336 -0.5795 -0.3180
  515MPD2    C5 7652   0.621   2.317  14.987  0.4452 -0.2832 -0.5659
  515MPD2     H 7653   0.901   2.113  14.820 -1.6861 -1.0589 -1.5296
  515MPD2    H1 7654   0.772   2.452  15.047 -1.4751  0.0304 -0.6714
  515MPD2    H2 7655   0.484   2.172  14.927 -0.0063  0.0909 -0.2612
  515MPD2    H3 7656   0.547   2.372  15.044  1.2723 -0.9120  1.1177
  515MPD2     N 7657   0.988   2.349  14.954  0.2585  0.1610 -0.4162
  515MPD2    H5 7658   0.997   2.440  14.997  2.1716 -0.1451 -0.1672
  515MPD2    N1 7659   0.665   2.008  14.795  0.0037  0.0437 -0.0026
  515MPD2    H7 7660   0.732   1.979  14.724 -2.4956 -0.2785 -2.2219
  516TMC3    C1 7661   0.553   1.800  14.750 -0.5304 -0.4109 -0.4795
  516TMC3    C2 7662   0.565   1.802  14.610 -0.4554 -0.3811  1.0277
  516TMC3    C3 7663   0.562   1.688  14.536 -0.1170 -0.3924  0.3746
  516TMC3    C4 7664   0.513   1.679  14.804  0.1422 -0.3144  0.4100
  516TMC3    C5 7665   0.528   1.567  14.731 -0.3293  0.1421  0.2819
  516TMC3    C6 7666   0.546   1.565  14.597  0.7624  0.8903 -0.1330
  516TMC3     C 7667   0.568   1.918  14.837 -0.3120 -0.0304  0.5898
  516TMC3     O 7668   0.494   1.920  14.934 -0.0605  0.5419 -0.1458
  516TMC3     H 7669   0.591   1.896  14.563 -2.3760  1.3479  3.4439
  516TMC3    H1 7670   0.504   1.677  14.912 -0.9905  0.0340  0.3144
  516TMC3    H2 7671   0.546   1.472  14.543 -0.1092  1.2618 -0.7580
  516TMC3    C7 7672   0.544   1.449  14.813 -0.1861 -0.0790 -0.0946
  516TMC3    C8 7673   0.524   1.699  14.397 -0.3395 -0.1105  0.0416
  516TMC3    O1 7674   0.562   1.464  14.935  0.1760  0.1035  0.3756
  516TMC3    O2 7675   0.485   1.810  14.363  0.1516 -0.0739 -0.3361
  517MPD2     C 7676   4.599   3.659  17.563  0.0376  0.4468 -0.0311
  517MPD2    C1 7677   0.012   3.685  17.565 -0.6708 -0.3742  0.1307
  517MPD2    C2 7678   0.062   3.805  17.608 -0.0128  0.5254 -0.5591
  517MPD2    C3 7679   4.693   3.907  17.630  0.3546 -0.0678 -0.0008
  517MPD2    C4 7680   4.556   3.885  17.626 -0.5665  0.1534  0.0470
  517MPD2    C5 7681   4.512   3.758  17.597  0.0324  0.4474  0.2371
  517MPD2     H 7682   0.167   3.799  17.635  0.0258  3.6185  0.0393
  517MPD2    H1 7683   4.482   3.961  17.649  0.6808  0.0908  4.2882
  517MPD2    H2 7684   4.556   3.566  17.528 -1.9646  1.2030  0.4529
  517MPD2    H3 7685   4.405   3.743  17.596 -0.0126  0.6716  1.4002
  517MPD2     N 7686   0.009   4.024   0.005 -0.1244  0.2982  0.1691
  517MPD2    H5 7687   4.664   4.097   0.023 -0.6390  0.0238 -0.6662
  517MPD2    N1 7688   0.104   3.591  17.519  0.1541 -0.6421  0.1761
  517MPD2    H7 7689   0.200   3.616  17.540 -0.4591  2.6864 -0.8052
  518TMC3    C1 7690   0.191   3.385  17.448  0.0161  0.5563 -0.3135
  518TMC3    C2 7691   0.179   3.247  17.439 -0.3978  0.2901  0.1011
  518TMC3    C3 7692   0.290   3.171  17.415  0.1660 -0.6110 -0.1957
  518TMC3    C4 7693   0.310   3.449  17.425 -0.0790  0.6541  1.2831
  518TMC3    C5 7694   0.410   3.368  17.391  0.7026  0.3199 -0.0713
  518TMC3    C6 7695   0.407   3.232  17.391  0.1349  0.7036  0.1670
  518TMC3     C 7696   0.077   3.456  17.488 -0.0798 -0.3569  0.4402
  518TMC3     O 7697   4.709   3.386  17.521 -0.0935  0.1032  0.3253
  518TMC3     H 7698   0.088   3.190  17.447 -0.8570  0.8232 -1.4490
  518TMC3    H1 7699   0.330   3.556  17.417  1.4164  0.2250 -0.9163
  518TMC3    H2 7700   0.491   3.166  17.372  0.8180  1.5463  0.2449
  518TMC3    C7 7701   0.545   3.426  17.383  0.2869 -0.7362 -0.1967
  518TMC3    C8 7702   0.273   3.032  17.377  0.0976  0.0853 -0.9228
  518TMC3    O1 7703   0.567   3.538  17.432 -0.6091 -0.2630  0.3822
  518TMC3    O2 7704   0.360   2.985  17.302  0.4224  0.4070 -0.4753
  519MPD2     C 7705   2.336   1.791  14.645 -0.1403 -0.0475  0.3618
  519MPD2    C1 7706   2.255   1.782  14.535  0.1262  0.7179  0.1364
  519MPD2    C2 7707   2.310   1.793  14.409 -0.4278 -0.8588 -0.3521
  519MPD2    C3 7708   2.443   1.827  14.388  0.3242  0.1253  0.5261
  519MPD2    C4 7709   2.521   1.848  14.499 -0.6268  0.4314  0.6430
  519MPD2    C5 7710   2.468   1.825  14.634 -0.7148  0.0229 -0.5942
  519MPD2     H 7711   2.241   1.762  14.332 -0.4382 -1.4940 -0.0876
  519MPD2    H1 7712   2.624   1.882  14.492  0.0603 -1.7957 -0.2476
  519MPD2    H2 7713   2.288   1.781  14.742 -0.1719  0.2024  0.3726
  519MPD2    H3 7714   2.524   1.833  14.726 -2.8975 -0.3647  0.7404
  519MPD2     N 7715   2.490   1.858  14.259  0.3608 -0.0102  0.4410
  519MPD2    H5 7716   2.586   1.880  14.234 -0.6755  3.2561 -0.7401
  519MPD2    N1 7717   2.119   1.749  14.548  0.5611  0.3738  0.1139
  519MPD2    H7 7718   2.083   1.719  14.638  0.0165 -0.9328 -0.5380
  520TMC3    C1 7719   2.464   1.832  14.031  0.1393 -0.6402  0.7022
  520TMC3    C2 7720   2.394   1.861  13.919  0.1241 -0.6378  0.0956
  520TMC3    C3 7721   2.447   1.812  13.804  0.3648  0.2618 -0.0802
  520TMC3    C4 7722   2.580   1.759  14.028  0.4688 -0.2735  0.2772
  520TMC3    C5 7723   2.622   1.703  13.915 -0.1089 -0.3249  0.1142
  520TMC3    C6 7724   2.561   1.740  13.794  0.1977  0.1763  0.1679
  520TMC3     C 7725   2.403   1.869  14.154 -0.5139 -0.3231 -0.5719
  520TMC3     O 7726   2.285   1.893  14.153  0.4648  0.9660  0.6176
  520TMC3     H 7727   2.321   1.941  13.915  1.5809  0.5788 -2.7820
  520TMC3    H1 7728   2.635   1.729  14.117 -1.3279 -0.1794  1.4194
  520TMC3    H2 7729   2.606   1.723  13.697  0.8036 -0.7655  0.6147
  520TMC3    C7 7730   2.747   1.635  13.929  0.8453 -0.1038  0.0214
  520TMC3    C8 7731   2.368   1.824  13.685  0.9770  0.6797  0.4290
  520TMC3    O1 7732   2.809   1.625  14.033  0.3467 -0.8403 -0.3352
  520TMC3    O2 7733   2.420   1.837  13.573 -0.1577  0.5565  0.0827
  521MPD2     C 7734   3.028   0.281  17.227 -0.3969  0.0120 -0.6006
  521MPD2    C1 7735   3.023   0.155  17.178 -0.1206 -0.1896  0.1110
  521MPD2    C2 7736   3.144   0.094  17.144  0.0709 -0.5304  0.2321
  521MPD2    C3 7737   3.267   0.162  17.147  0.5499  0.3614  0.0018
  521MPD2    C4 7738   3.262   0.293  17.186  0.7322 -0.2149  0.6382
  521MPD2    C5 7739   3.147   0.342  17.236  0.1332 -0.4347 -0.1120
  521MPD2     H 7740   3.141   4.711  17.122  1.8923 -0.6932  0.7426
  521MPD2    H1 7741   3.356   0.346  17.182  0.9498 -0.4354  2.9219
  521MPD2    H2 7742   2.941   0.341  17.252  0.3037  0.7058  0.1624
  521MPD2    H3 7743   3.155   0.448  17.256  0.6564 -0.4195 -0.4106
  521MPD2     N 7744   3.378   0.101  17.091 -0.3722 -0.7339 -0.9573
  521MPD2    H5 7745   3.356   0.007  17.059 -1.0354 -0.5485 -1.0447
  521MPD2    N1 7746   2.894   0.090  17.162 -0.2676  0.4439 -0.0866
  521MPD2    H7 7747   2.809   0.133  17.198  0.2734  0.9368  0.6050
  522TMC3    C1 7748   3.581   0.029  17.031 -0.1736 -0.6649 -0.8888
  522TMC3    C2 7749   3.697   4.714  17.082 -0.2201 -0.1599 -0.9306
  522TMC3    C3 7750   3.756   4.601  17.022 -0.2960  0.2512  0.1226
  522TMC3    C4 7751   3.514   4.687  16.926  0.4787 -1.0870  0.1585
  522TMC3    C5 7752   3.583   4.582  16.866 -0.8025  0.4210 -0.2172
  522TMC3    C6 7753   3.699   4.532  16.921 -0.3177  0.1161 -0.1629
  522TMC3     C 7754   3.508   0.140  17.085  0.1996 -1.4994  1.0474
  522TMC3     O 7755   3.571   0.239  17.127  0.0042  0.0259 -0.5751
  522TMC3     H 7756   3.738   0.036  17.172  2.1314  0.5183 -2.3422
  522TMC3    H1 7757   3.432   0.018  16.879 -2.2444 -1.6939  4.1791
  522TMC3    H2 7758   3.748   4.448  16.873 -1.6753 -0.0916 -1.1765
  522TMC3    C7 7759   3.557   4.553  16.725  0.1281  0.2274 -0.1337
  522TMC3    C8 7760   3.892   4.571  17.039  0.1783 -0.1316  0.1749
  522TMC3    O1 7761   3.646   4.492  16.661 -0.8914  0.6916  0.1639
  522TMC3    O2 7762   3.959   4.664  17.079 -0.0530  0.0102  0.3429
  523MPD2     C 7763   1.534   3.893   9.278  0.5827  0.0567 -1.1740
  523MPD2    C1 7764   1.466   3.933   9.397 -0.0446  0.0173 -0.6595
  523MPD2    C2 7765   1.393   4.049   9.395  0.5797 -0.2022  0.4212
  523MPD2    C3 7766   1.382   4.122   9.282 -0.1654  0.3706  0.8266
  523MPD2    C4 7767   1.446   4.084   9.164 -0.7559 -0.2441  0.3204
  523MPD2    C5 7768   1.523   3.968   9.161 -0.3958  0.2327 -0.4186
  523MPD2     H 7769   1.360   4.079   9.494  0.0853 -1.1765  0.5570
  523MPD2    H1 7770   1.434   4.142   9.073 -1.4738  2.5557  2.1698
  523MPD2    H2 7771   1.595   3.803   9.279 -1.8959 -1.6055  0.6062
  523MPD2    H3 7772   1.571   3.934   9.070  0.9309  0.2964  0.2598
  523MPD2     N 7773   1.320   4.249   9.282  0.7458 -0.3254  0.3043
  523MPD2    H5 7774   1.314   4.299   9.194 -1.3294  0.6794  1.0086
  523MPD2    N1 7775   1.488   3.852   9.506 -1.2306 -0.5259 -0.4108
  523MPD2    H7 7776   1.549   3.773   9.493 -1.1494 -0.6220  0.5558
  524TMC3    C1 7777   1.190   4.438   9.358  0.6531  0.1559  0.0124
  524TMC3    C2 7778   1.141   4.455   9.231 -0.1762 -0.2636  0.9796
  524TMC3    C3 7779   1.045   4.562   9.219  0.4542 -0.2987  0.5469
  524TMC3    C4 7780   1.140   4.501   9.465 -0.0274  0.5822 -0.3144
  524TMC3    C5 7781   1.053   4.606   9.444  0.1639  1.0592 -0.3529
  524TMC3    C6 7782   0.998   4.636   9.323 -0.6283 -0.2144  0.0799
  524TMC3     C 7783   1.262   4.307   9.393 -0.3029  0.2383  0.4196
  524TMC3     O 7784   1.252   4.267   9.509  0.4040  0.1152  0.2424
  524TMC3     H 7785   1.167   4.402   9.141 -2.4781  0.0612  0.1250
  524TMC3    H1 7786   1.182   4.490   9.564 -2.6868  0.1627  0.7733
  524TMC3    H2 7787   0.910   4.697   9.306 -1.3849 -1.1973  0.4741
  524TMC3    C7 7788   1.027   4.687   9.559 -0.2243 -0.4157  0.5508
  524TMC3    C8 7789   0.999   4.576   9.080  0.4193  0.1506  0.0536
  524TMC3    O1 7790   1.036   4.632   9.668  0.0356 -0.2455  0.0715
  524TMC3    O2 7791   0.987   4.476   9.009  0.3004 -0.5407  0.4064
  525MPD2     C 7792   3.488   1.232  14.395 -0.4012 -0.3915 -0.0620
  525MPD2    C1 7793   3.565   1.282  14.498  0.2844  0.6238  0.2620
  525MPD2    C2 7794   3.640   1.395  14.483  1.1466 -0.0906  0.4413
  525MPD2    C3 7795   3.644   1.461  14.359  0.1870 -0.7059  0.4671
  525MPD2    C4 7796   3.578   1.400  14.251 -0.0164 -0.9181  0.1511
  525MPD2    C5 7797   3.495   1.294  14.278  0.0870 -0.2980  0.4137
  525MPD2     H 7798   3.695   1.437  14.567 -1.8297  0.6086  2.0437
  525MPD2    H1 7799   3.578   1.432  14.147  3.1988  0.1164  0.4945
  525MPD2    H2 7800   3.438   1.136  14.404  0.2389 -0.5895  1.3722
  525MPD2    H3 7801   3.434   1.257  14.198  0.3331 -1.4546  0.7627
  525MPD2     N 7802   3.708   1.585  14.353 -0.3648 -0.0618 -0.0367
  525MPD2    H5 7803   3.738   1.628  14.440  0.3933 -0.9230  0.1274
  525MPD2    N1 7804   3.572   1.208  14.617 -0.3746 -0.2892  0.5006
  525MPD2    H7 7805   3.638   1.240  14.687  0.3558 -0.9295  0.1074
  526TMC3    C1 7806   3.523   1.040  14.782 -0.6154 -0.1341  0.2056
  526TMC3    C2 7807   3.429   0.996  14.869 -0.4855  0.4156  0.5389
  526TMC3    C3 7808   3.486   0.939  14.981 -0.2150  0.3049 -0.0911
  526TMC3    C4 7809   3.657   1.010  14.796 -0.1970  0.3512  0.5344
  526TMC3    C5 7810   3.696   0.941  14.907  1.0920 -0.1667  0.2861
  526TMC3    C6 7811   3.613   0.906  15.002 -0.0027  0.4946 -0.1843
  526TMC3     C 7812   3.480   1.109  14.660  0.1131  0.1984 -0.1770
  526TMC3     O 7813   3.370   1.082  14.612  0.0599 -0.3521 -0.0171
  526TMC3     H 7814   3.326   1.028  14.859 -0.3285  1.2086  1.5128
  526TMC3    H1 7815   3.736   1.048  14.732  1.0690  2.2428  3.2119
  526TMC3    H2 7816   3.643   0.861  15.096 -2.8704 -2.1219 -0.5106
  526TMC3    C7 7817   3.821   0.878  14.909  0.2235 -0.3940  0.6682
  526TMC3    C8 7818   3.401   0.937  15.104 -0.0050  0.4768  0.1859
  526TMC3    O1 7819   3.884   0.867  15.014 -0.0295 -0.0777  0.1085
  526TMC3    O2 7820   3.454   0.882  15.204 -0.3818 -0.4049  0.0837
  527MPD2     C 7821   1.186   4.120   1.351 -0.2821  0.4531 -0.0078
  527MPD2    C1 7822   1.279   4.021   1.380 -0.3976  0.0702 -0.6661
  527MPD2    C2 7823   1.405   4.016   1.320  0.3859 -0.2100  0.5821
  527MPD2    C3 7824   1.439   4.113   1.223  0.1038  0.7196 -0.5617
  527MPD2    C4 7825   1.345   4.210   1.193 -0.4646 -0.4844  0.1298
  527MPD2    C5 7826   1.225   4.211   1.256 -0.4773 -0.4638  0.1056
  527MPD2     H 7827   1.480   3.942   1.345 -0.3533 -0.2701  2.6673
  527MPD2    H1 7828   1.358   4.281   1.112 -0.8333 -0.3289  0.2051
  527MPD2    H2 7829   1.083   4.126   1.385 -0.6871 -0.4441 -1.0798
  527MPD2    H3 7830   1.156   4.291   1.233 -1.2793 -1.0044  0.6308
  527MPD2     N 7831   1.566   4.095   1.155  0.2533 -0.2138 -0.0946
  527MPD2    H5 7832   1.626   4.022   1.194 -0.7943 -0.3558  1.2461
  527MPD2    N1 7833   1.247   3.925   1.480  0.1317  0.5899 -1.0448
  527MPD2    H7 7834   1.311   3.850   1.503 -1.2719  0.0192  0.9622
  528TMC3    C1 7835   1.143   3.814   1.662 -0.4101 -0.2198  0.1210
  528TMC3    C2 7836   1.272   3.774   1.685 -0.4666 -0.0392 -0.1630
  528TMC3    C3 7837   1.278   3.669   1.769  0.1504 -0.4471  0.4950
  528TMC3    C4 7838   1.028   3.754   1.700  0.3172 -0.0844 -0.2670
  528TMC3    C5 7839   1.041   3.633   1.767 -0.1998  0.0466  0.2243
  528TMC3    C6 7840   1.168   3.583   1.799  0.0609 -0.1064  0.0309
  528TMC3     C 7841   1.133   3.912   1.550  1.0627 -0.4230 -0.0371
  528TMC3     O 7842   1.023   3.960   1.530 -0.2838 -0.6577 -0.2252
  528TMC3     H 7843   1.364   3.825   1.660 -1.1492  1.7338  0.9866
  528TMC3    H1 7844   0.932   3.785   1.662  0.4836  0.8305  0.0634
  528TMC3    H2 7845   1.185   3.487   1.846  2.4374 -0.4518 -1.5629
  528TMC3    C7 7846   0.931   3.546   1.776 -0.9184 -0.4921 -1.0552
  528TMC3    C8 7847   1.412   3.623   1.805 -0.7151  0.0503 -0.6236
  528TMC3    O1 7848   0.954   3.429   1.788  0.3566 -0.4270 -0.5342
  528TMC3    O2 7849   1.512   3.663   1.751 -0.2239  0.1193  0.0039
  529MPD2     C 7850   4.229   2.804   0.679 -0.6830  0.5140 -0.4016
  529MPD2    C1 7851   4.244   2.670   0.633  0.2979 -0.5551  0.1703
  529MPD2    C2 7852   4.259   2.641   0.499 -0.5267 -0.4736  0.2900
  529MPD2    C3 7853   4.264   2.743   0.404  0.2586  0.1841 -0.0681
  529MPD2    C4 7854   4.257   2.871   0.445 -0.9767  0.0892 -0.0640
  529MPD2    C5 7855   4.236   2.895   0.575 -0.6875 -0.3556 -0.6173
  529MPD2     H 7856   4.259   2.535   0.477 -0.2993 -0.1302 -1.3648
  529MPD2    H1 7857   4.276   2.954   0.378 -1.6749 -0.1447 -0.5496
  529MPD2    H2 7858   4.227   2.833   0.784 -3.4009 -1.2977  0.0444
  529MPD2    H3 7859   4.214   2.999   0.597 -0.6475 -0.8128  1.5845
  529MPD2     N 7860   4.271   2.723   0.262  0.6728 -0.5139  0.4829
  529MPD2    H5 7861   4.249   2.805   0.207 -0.3572 -0.0968  1.5171
  529MPD2    N1 7862   4.244   2.562   0.728 -0.5881  0.1496  0.1547
  529MPD2    H7 7863   4.257   2.471   0.686  0.3229 -0.0641  0.8809
  530TMC3    C1 7864   4.211   2.452   0.936  0.1275 -0.4145 -0.0658
  530TMC3    C2 7865   4.239   2.465   1.069 -0.3317 -0.1806 -0.4906
  530TMC3    C3 7866   4.190   2.376   1.147  0.5393  0.6355 -0.5189
  530TMC3    C4 7867   4.133   2.358   0.887 -0.0594 -0.4850  0.2818
  530TMC3    C5 7868   4.078   2.266   0.979  0.6258 -1.5326 -0.6947
  530TMC3    C6 7869   4.108   2.273   1.112 -0.2428  0.0648  0.7077
  530TMC3     C 7870   4.226   2.576   0.865  0.0587  0.5991 -0.5047
  530TMC3     O 7871   4.236   2.677   0.929 -0.4907 -0.3498  0.2059
  530TMC3     H 7872   4.302   2.544   1.108  1.4409 -1.9261  0.2058
  530TMC3    H1 7873   4.127   2.338   0.781 -2.1351  1.0975  0.1006
  530TMC3    H2 7874   4.077   2.193   1.178 -1.5975  1.3887  1.6682
  530TMC3    C7 7875   4.020   2.137   0.923 -0.0572  0.4094  0.2997
  530TMC3    C8 7876   4.196   2.394   1.289  0.3342 -0.4235  0.3382
  530TMC3    O1 7877   4.023   2.116   0.803  0.5781 -0.0705  0.5993
  530TMC3    O2 7878   4.180   2.512   1.331 -0.3031 -0.1044  0.1353
  531MPD2     C 7879   3.227   0.174  13.182 -0.4883  0.3500  0.0532
  531MPD2    C1 7880   3.171   0.205  13.301 -0.4068  0.0276 -0.4533
  531MPD2    C2 7881   3.039   0.160  13.326 -0.8759  0.5010  0.6891
  531MPD2    C3 7882   2.966   0.095  13.236 -0.3844  0.1468 -0.3643
  531MPD2    C4 7883   3.020   0.070  13.113  0.2626  0.3270 -0.8545
  531MPD2    C5 7884   3.153   0.104  13.086  0.9248  0.1061 -0.3540
  531MPD2     H 7885   3.006   0.181  13.427  1.1801 -2.1657  1.9004
  531MPD2    H1 7886   2.970   0.011  13.037  0.7809  0.5862 -1.3975
  531MPD2    H2 7887   3.323   0.211  13.148 -0.3493 -1.8510 -1.9684
  531MPD2    H3 7888   3.193   0.097  12.985 -0.2019 -0.9177 -0.7300
  531MPD2     N 7889   2.834   0.048  13.250 -0.0651  0.5184  0.3279
  531MPD2    H5 7890   2.800   4.721  13.169 -0.0090  1.6665 -0.4052
  531MPD2    N1 7891   3.244   0.291  13.390 -0.1491  0.1382 -0.0894
  531MPD2    H7 7892   3.333   0.322  13.352 -1.4025  1.0463 -2.2934
  532TMC3    C1 7893   3.281   0.435  13.581  0.1492  0.0911  0.5311
  532TMC3    C2 7894   3.210   0.467  13.696 -0.2148  0.2064 -0.2284
  532TMC3    C3 7895   3.258   0.427  13.820  0.7764 -0.8293  0.5142
  532TMC3    C4 7896   3.402   0.374  13.592 -0.0083  0.5250  0.1229
  532TMC3    C5 7897   3.452   0.338  13.714 -0.2544 -0.0270 -1.0858
  532TMC3    C6 7898   3.376   0.359  13.828  0.6600  0.1563  0.3135
  532TMC3     C 7899   3.183   0.365  13.492  1.5582 -0.4528  0.4299
  532TMC3     O 7900   3.067   0.384  13.531 -0.1545 -0.4761  0.5104
  532TMC3     H 7901   3.133   0.543  13.691 -0.4845 -0.0698 -0.2748
  532TMC3    H1 7902   3.451   0.348  13.499 -0.5893  2.9387 -0.8616
  532TMC3    H2 7903   3.400   0.308  13.921 -0.1137 -1.1706 -0.2085
  532TMC3    C7 7904   3.526   0.214  13.715  0.2506 -0.9267  0.0979
  532TMC3    C8 7905   3.151   0.358  13.894 -0.5821  0.1348 -0.0969
  532TMC3    O1 7906   3.577   0.191  13.825  0.1612  0.4414  0.2541
  532TMC3    O2 7907   3.175   0.331  14.014  0.0633 -0.3035 -0.3151
  533TMC3    C1 7908   3.767   1.792  14.269 -0.0742  0.9144  0.1731
  533TMC3    C2 7909   3.899   1.816  14.238 -0.3278 -0.2846 -0.4705
  533TMC3    C3 7910   3.968   1.898  14.325  0.3315  0.3406 -0.4517
  533TMC3    C4 7911   3.712   1.837  14.386  0.4997 -0.0648 -0.4960
  533TMC3    C5 7912   3.773   1.915  14.473  0.2807  0.1574 -0.3576
  533TMC3    C6 7913   3.903   1.949  14.437  0.0315 -0.6762 -0.3410
  533TMC3     C 7914   3.726   1.657  14.236 -0.6022 -0.1154 -1.0039
  533TMC3     O 7915   3.747   1.613  14.122 -0.1964 -0.3799  0.6419
  533TMC3     H 7916   3.948   1.769  14.154  0.4870  0.5167 -0.4410
  533TMC3    H1 7917   3.610   1.806  14.411  0.7295 -2.0480 -2.0702
  533TMC3    H2 7918   3.955   2.019  14.501 -2.3789  0.2128  0.6649
  533TMC3    C7 7919   3.730   1.900  14.610 -0.2652 -0.1980 -0.1236
  533TMC3    C8 7920   4.101   1.932  14.309  0.6404  0.2605 -0.7012
  533TMC3    O1 7921   3.677   1.792  14.633 -0.2720  0.0548  0.0622
  533TMC3    O2 7922   4.163   1.924  14.418 -0.0341  0.1883  0.1574
  534MPD2     C 7923   1.352   2.982   2.148 -0.9436  0.3727 -0.3484
  534MPD2    C1 7924   1.340   3.002   2.013  0.2384  0.6462  0.2676
  534MPD2    C2 7925   1.235   2.937   1.946 -0.1090  0.0215  0.1731
  534MPD2    C3 7926   1.151   2.844   2.014 -0.1552  0.0317 -0.3501
  534MPD2    C4 7927   1.162   2.828   2.153 -0.3775  0.1700  0.7077
  534MPD2    C5 7928   1.260   2.905   2.216  0.4257 -0.0178  0.7525
  534MPD2     H 7929   1.219   2.966   1.843  0.2835  0.5501  0.2604
  534MPD2    H1 7930   1.095   2.772   2.217 -0.4492 -0.9412 -0.3294
  534MPD2    H2 7931   1.422   3.040   2.207  0.3087 -0.7415 -0.7354
  534MPD2    H3 7932   1.269   2.900   2.324  2.8963 -0.3771  0.5350
  534MPD2     N 7933   1.040   2.789   1.956  0.5223 -0.8494  0.1152
  534MPD2    H5 7934   0.970   2.747   2.017 -0.0253  1.8164  1.2950
  534MPD2    N1 7935   1.427   3.087   1.935  0.2588 -0.3812 -0.6949
  534MPD2    H7 7936   1.409   3.105   1.837  0.5062  1.6029 -0.3651
  535TMC3    C1 7937   0.875   2.736   1.794 -0.4021  0.0636  0.5506
  535TMC3    C2 7938   0.773   2.729   1.893  0.3952 -0.3444  0.0554
  535TMC3    C3 7939   0.643   2.714   1.839  0.0139 -0.7796 -0.3061
  535TMC3    C4 7940   0.849   2.742   1.657  0.3836  0.7106 -0.0106
  535TMC3    C5 7941   0.719   2.738   1.621  0.3344  0.4334 -0.3008
  535TMC3    C6 7942   0.617   2.719   1.704 -0.2208 -0.5646 -0.8032
  535TMC3     C 7943   1.012   2.787   1.818  0.5206  0.3277 -0.6141
  535TMC3     O 7944   1.076   2.838   1.725 -0.4623 -0.6264  0.3178
  535TMC3     H 7945   0.790   2.718   2.000 -2.1871  1.5413  0.6508
  535TMC3    H1 7946   0.928   2.732   1.584  0.8205  1.3323  0.3708
  535TMC3    H2 7947   0.513   2.708   1.676 -0.8960  0.1939  1.3997
  535TMC3    C7 7948   0.683   2.731   1.479 -0.4093 -0.4056  0.0693
  535TMC3    C8 7949   0.556   2.628   1.914  0.5317 -0.3679 -0.5766
  535TMC3    O1 7950   0.767   2.688   1.403  0.6497 -0.1236 -0.5879
  535TMC3    O2 7951   0.493   2.551   1.842 -0.4268 -0.0376  0.2850
  536MPD2     C 7952   0.239   1.153  16.066 -0.4174  0.5614  0.1993
  536MPD2    C1 7953   0.101   1.174  16.084 -0.5266 -1.0249 -0.3521
  536MPD2    C2 7954   0.020   1.205  15.971  0.4713  0.3353  0.3366
  536MPD2    C3 7955   0.084   1.246  15.852 -0.3726 -0.0465 -0.6587
  536MPD2    C4 7956   0.219   1.219  15.840 -0.3453  0.5423 -0.1441
  536MPD2    C5 7957   0.296   1.178  15.944 -0.1350  0.5949 -0.4603
  536MPD2     H 7958   4.635   1.203  15.979  0.6095 -0.7874  1.9436
  536MPD2    H1 7959   0.266   1.231  15.744 -1.5864 -0.4852 -0.8864
  536MPD2    H2 7960   0.311   1.132  16.144 -0.5760  1.7419  0.6611
  536MPD2    H3 7961   0.399   1.150  15.929  0.0802  0.9882  0.3224
  536MPD2     N 7962   0.008   1.277  15.739 -0.5178  0.1753  1.0863
  536MPD2    H5 7963   0.053   1.257  15.651 -1.6382 -1.9179  0.9969
  536MPD2    N1 7964   0.049   1.155  16.214  0.4290  0.4226 -0.1775
  536MPD2    H7 7965   0.115   1.133  16.288 -0.8879 -1.1648  0.5231
  537TMC3    C1 7966   4.622   1.151  16.389 -0.1897  0.6247  0.4974
  537TMC3    C2 7967   0.003   1.203  16.463 -0.6640  0.6496  0.4831
  537TMC3    C3 7968   4.708   1.201  16.595  0.1422  0.1066 -0.4709
  537TMC3    C4 7969   4.508   1.093  16.437 -0.1707  0.5423 -0.2495
  537TMC3    C5 7970   4.487   1.095  16.577  0.1245 -1.0380  0.5899
  537TMC3    C6 7971   4.595   1.147  16.653  0.5412  0.0963 -0.6181
  537TMC3     C 7972   4.641   1.166  16.251  0.3998 -0.4712  0.0783
  537TMC3     O 7973   4.537   1.175  16.188 -0.6084 -0.2529 -0.0056
  537TMC3     H 7974   0.082   1.264  16.421  0.3657 -1.5309 -0.7626
  537TMC3    H1 7975   4.429   1.053  16.375 -0.5567 -1.0784  1.2762
  537TMC3    H2 7976   4.569   1.150  16.758  1.8521 -2.4340 -0.2231
  537TMC3    C7 7977   4.363   1.031  16.633 -0.1265 -0.2586  0.1747
  537TMC3    C8 7978   0.079   1.272  16.681  0.0985 -0.0043 -0.4829
  537TMC3    O1 7979   4.275   1.001  16.547 -0.3533 -0.1056  0.5228
  537TMC3    O2 7980   0.082   1.244  16.799 -0.4026 -0.4247 -0.0521
  538TMC3    C1 7981   1.689   3.577  10.675 -0.0941 -0.5882 -0.2434
  538TMC3    C2 7982   1.792   3.596  10.589 -0.1845 -0.0666  0.1719
  538TMC3    C3 7983   1.775   3.689  10.494  0.4987  0.1356 -1.3172
  538TMC3    C4 7984   1.574   3.659  10.672 -0.6742 -0.0594 -0.5118
  538TMC3    C5 7985   1.561   3.746  10.564  0.6917 -0.0831 -0.2547
  538TMC3    C6 7986   1.659   3.764  10.474  0.2274 -0.1185 -0.2291
  538TMC3     C 7987   1.729   3.524  10.802  0.6532  0.1566 -0.4083
  538TMC3     O 7988   1.640   3.486  10.880  0.1546 -0.5669  0.0939
  538TMC3     H 7989   1.871   3.523  10.586 -0.2610 -0.0380 -2.1100
  538TMC3    H1 7990   1.505   3.663  10.755 -0.2962  2.2114 -0.3166
  538TMC3    H2 7991   1.651   3.841  10.398 -1.0241  0.5303  0.5580
  538TMC3    C7 7992   1.428   3.811  10.546 -0.0571  0.0081  0.1390
  538TMC3    C8 7993   1.900   3.729  10.429  0.3486  0.3540  0.4955
  538TMC3    O1 7994   1.342   3.789  10.629 -0.4586 -0.2368 -0.7378
  538TMC3    O2 7995   1.988   3.647  10.409  0.8035 -0.6541  0.5232
  539MPD2     C 7996   1.574   2.992  11.627 -0.0376 -0.4395  0.8249
  539MPD2    C1 7997   1.590   3.019  11.487  0.1557 -0.1972 -0.0055
  539MPD2    C2 7998   1.543   3.134  11.432 -0.0473 -0.2096 -0.9440
  539MPD2    C3 7999   1.452   3.213  11.503 -0.0919 -0.5708  0.4092
  539MPD2    C4 8000   1.419   3.173  11.633 -0.2000  0.2256 -0.6505
  539MPD2    C5 8001   1.484   3.067  11.701  0.4407 -0.3248  0.9318
  539MPD2     H 8002   1.570   3.158  11.330  0.4855 -0.2714 -0.8161
  539MPD2    H1 8003   1.357   3.238  11.693 -0.7984 -1.7424  0.8581
  539MPD2    H2 8004   1.623   2.912  11.680  0.9426 -0.4326 -0.0598
  539MPD2    H3 8005   1.462   3.050  11.806  0.6225 -1.3244  0.8068
  539MPD2     N 8006   1.396   3.337  11.452 -0.4915  0.0480 -0.5368
  539MPD2    H5 8007   1.321   3.377  11.507  0.0671 -0.3162  0.5013
  539MPD2    N1 8008   1.675   2.937  11.409  0.1253 -0.1424 -0.3474
  539MPD2    H7 8009   1.694   2.977  11.317 -0.9190  1.6493  0.2086
  540TMC3    C1 8010   1.319   3.481  11.287  0.7179  0.3537  0.0027
  540TMC3    C2 8011   1.235   3.435  11.182 -0.3061 -0.0822  0.2877
  540TMC3    C3 8012   1.117   3.505  11.177 -0.2523 -0.3331 -0.6341
  540TMC3    C4 8013   1.279   3.581  11.370 -0.1234  0.5844 -0.2056
  540TMC3    C5 8014   1.173   3.653  11.348 -0.1755 -0.1401  0.2982
  540TMC3    C6 8015   1.082   3.617  11.249 -0.2700 -0.0550  0.6111
  540TMC3     C 8016   1.422   3.390  11.329  0.2327  0.7615 -0.2429
  540TMC3     O 8017   1.493   3.346  11.243 -0.4271  0.0570 -0.0864
  540TMC3     H 8018   1.246   3.340  11.129  1.7759  0.2109  0.1940
  540TMC3    H1 8019   1.346   3.611  11.450 -2.1953  3.5043  0.4342
  540TMC3    H2 8020   0.987   3.667  11.237 -0.2458 -0.2320 -0.3349
  540TMC3    C7 8021   1.114   3.700  11.468  0.6329 -0.1471 -0.3999
  540TMC3    C8 8022   1.021   3.477  11.067  0.2020 -0.2042  0.0489
  540TMC3    O1 8023   1.005   3.654  11.506 -0.0169  1.3421 -0.0075
  540TMC3    O2 8024   0.921   3.544  11.069 -0.1213 -0.6725 -0.0526
  541MPD2     C 8025   3.998   0.257  13.130  0.5041  0.0168 -0.3027
  541MPD2    C1 8026   4.091   0.230  13.034  0.1156  0.9356  0.0678
  541MPD2    C2 8027   4.123   0.331  12.946  0.5184 -0.0796 -0.2127
  541MPD2    C3 8028   4.064   0.454  12.957  0.3675  0.2593 -0.1894
  541MPD2    C4 8029   3.966   0.480  13.053  0.0816  0.3380 -0.2236
  541MPD2    C5 8030   3.937   0.377  13.143 -0.1688  0.2195 -0.1009
  541MPD2     H 8031   4.204   0.323  12.875  1.5340 -0.9649  1.0333
  541MPD2    H1 8032   3.898   0.564  13.055  1.4837  1.4734 -0.1484
  541MPD2    H2 8033   3.968   0.174  13.193  0.8496  0.4483  0.4313
  541MPD2    H3 8034   3.864   0.393  13.222 -1.1933  0.9960 -1.2066
  541MPD2     N 8035   4.087   0.566  12.865  0.9413  0.3779 -0.2973
  541MPD2    H5 8036   4.034   0.651  12.883  1.9649  0.5415  1.9329
  541MPD2    N1 8037   4.140   0.099  13.033  0.3626  0.0910 -0.3401
  541MPD2    H7 8038   4.093   0.031  13.092  0.1235  0.7772  0.2549
  542TMC3    C1 8039   4.173   0.681  12.674 -1.1289 -0.4220 -0.3282
  542TMC3    C2 8040   4.279   0.679  12.578 -0.6119  0.2826  0.4822
  542TMC3    C3 8041   4.330   0.794  12.524  0.2739  0.0160  0.1518
  542TMC3    C4 8042   4.108   0.803  12.709  0.0802 -0.5568 -1.0756
  542TMC3    C5 8043   4.172   0.912  12.661  0.7163  0.1948  0.3464
  542TMC3    C6 8044   4.280   0.913  12.573  0.0951 -0.0410 -0.0082
  542TMC3     C 8045   4.180   0.569  12.765 -0.2763 -0.1005  0.3010
  542TMC3     O 8046   4.254   0.483  12.733  0.0620  0.2793 -0.2837
  542TMC3     H 8047   4.327   0.586  12.548  2.0975  1.8419  0.0355
  542TMC3    H1 8048   4.024   0.808  12.778 -1.6197 -1.9311 -3.0309
  542TMC3    H2 8049   4.319   1.008  12.541  2.4843 -0.5235  1.5189
  542TMC3    C7 8050   4.127   1.046  12.697 -0.0688 -0.2141 -0.2000
  542TMC3    C8 8051   4.470   0.778  12.488 -0.0122 -0.1485 -0.4285
  542TMC3    O1 8052   4.168   1.151  12.645 -0.0411  0.0389  0.5950
  542TMC3    O2 8053   4.539   0.862  12.536  0.2330 -0.0374  0.2171
  543TMC3    C1 8054   3.351   1.534  17.171  0.8397  0.3110  0.2016
  543TMC3    C2 8055   3.444   1.438  17.209  0.3940 -0.2943 -0.1781
  543TMC3    C3 8056   3.448   1.404  17.338 -0.6192 -0.4135  0.6063
  543TMC3    C4 8057   3.275   1.607  17.263 -0.3663 -0.2476 -0.0821
  543TMC3    C5 8058   3.286   1.562  17.395 -0.2109 -0.5342 -0.4411
  543TMC3    C6 8059   3.367   1.459  17.434 -0.3346 -0.3044 -0.0592
  543TMC3     C 8060   3.334   1.554  17.026  0.3010  0.7616  0.1380
  543TMC3     O 8061   3.242   1.633  16.988  0.0007 -0.2184 -0.6260
  543TMC3     H 8062   3.505   1.371  17.150 -0.3130  0.3193 -1.6064
  543TMC3    H1 8063   3.215   1.692  17.230  0.9573  0.7411  0.0561
  543TMC3    H2 8064   3.387   1.441  17.539  1.8311 -0.7009 -0.5322
  543TMC3    C7 8065   3.189   1.597  17.498  0.3844  0.0921  0.4370
  543TMC3    C8 8066   3.511   1.283  17.374  0.2405 -0.2632  0.2786
  543TMC3    O1 8067   3.194   1.537  17.606  0.3026 -0.3053 -0.0406
  543TMC3    O2 8068   3.613   1.253  17.322  0.0914  0.0114  0.0254
  544MPD2     C 8069   3.485   0.819  17.592  0.1682  0.1340 -0.2704
  544MPD2    C1 8070   3.559   0.867  17.490  0.4225 -0.2756 -0.1966
  544MPD2    C2 8071   3.550   1.000  17.449  1.0140 -0.7079 -0.1023
  544MPD2    C3 8072   3.452   1.081  17.505 -0.1491  0.4812  0.7047
  544MPD2    C4 8073   3.364   1.031  17.598 -0.6182  0.4008  0.4478
  544MPD2    C5 8074   3.382   0.896  17.643 -0.0204  0.0013 -0.0162
  544MPD2     H 8075   3.602   1.041  17.363 -0.7969  0.0856 -0.8057
  544MPD2    H1 8076   3.281   1.091  17.631 -2.4139 -2.0920  0.4361
  544MPD2    H2 8077   3.473   0.713  17.608  0.8524  0.3920  1.9915
  544MPD2    H3 8078   3.311   0.858   0.021 -0.7075 -0.5308 -0.9617
  544MPD2     N 8079   3.429   1.212  17.463 -0.4337  0.1797 -0.0737
  544MPD2    H5 8080   3.348   1.261  17.498 -1.3328 -1.3372 -0.0252
  544MPD2    N1 8081   3.634   0.774  17.428  0.4244 -0.0326 -0.3143
  544MPD2    H7 8082   3.608   0.682  17.461 -1.4838  0.8989  0.7392
  545TMC3    C1 8083   3.736   0.654  17.254  0.2439  0.3572 -0.0806
  545TMC3    C2 8084   3.712   0.628  17.126 -0.1804 -0.0790  0.0248
  545TMC3    C3 8085   3.762   0.509  17.075 -0.4044 -0.6312 -0.1375
  545TMC3    C4 8086   3.806   0.569  17.336  0.4265 -0.6689  0.5360
  545TMC3    C5 8087   3.852   0.449  17.293 -0.6946 -0.0441  0.3778
  545TMC3    C6 8088   3.836   0.427  17.157  0.7912  0.0910  0.0480
  545TMC3     C 8089   3.690   0.783  17.302 -0.3535  0.4177 -0.2978
  545TMC3     O 8090   3.688   0.873  17.219  0.2400 -0.1879 -0.6723
  545TMC3     H 8091   3.660   0.695  17.058 -0.8276  0.0529  0.6578
  545TMC3    H1 8092   3.831   0.604  17.436 -0.5539  1.5934 -0.0002
  545TMC3    H2 8093   3.882   0.336  17.122  1.4477  0.8622 -1.0694
  545TMC3    C7 8094   3.914   0.344  17.373 -0.0157  0.1013 -0.7705
  545TMC3    C8 8095   3.719   0.470  16.943 -0.1409  0.0085 -0.6712
  545TMC3    O1 8096   3.933   0.241  17.311  0.1262 -0.2394 -0.6017
  545TMC3    O2 8097   3.651   0.552  16.878  0.6109 -0.4238  0.0125
  546MPD2     C 8098   0.393   1.562  17.518 -0.4836 -0.3965  0.2058
  546MPD2    C1 8099   0.313   1.576  17.409  0.1229 -0.4152 -0.4126
  546MPD2    C2 8100   0.315   1.696  17.342  0.3907 -0.0140 -0.2014
  546MPD2    C3 8101   0.412   1.785  17.373  0.0781 -0.5574  0.3678
  546MPD2    C4 8102   0.501   1.761  17.477 -0.3852  0.3704 -0.3165
  546MPD2    C5 8103   0.490   1.647  17.552  0.8956 -0.5947 -0.6010
  546MPD2     H 8104   0.241   1.709  17.264 -0.9125 -0.5226  0.9407
  546MPD2    H1 8105   0.581   1.829  17.503 -1.2818  1.6114 -0.8252
  546MPD2    H2 8106   0.379   1.472  17.578  0.9573 -0.3219  0.6526
  546MPD2    H3 8107   0.548   1.631  17.642  1.8739 -2.1178 -1.5104
  546MPD2     N 8108   0.419   1.913  17.305 -0.4412  0.0787  0.3411
  546MPD2    H5 8109   0.500   1.972  17.320 -0.5836 -0.2217  2.2540
  546MPD2    N1 8110   0.212   1.475  17.391 -0.5646 -0.0370  0.3028
  546MPD2    H7 8111   0.208   1.398  17.456 -0.3706 -0.4815 -0.2131
  547TMC3    C1 8112   0.036   1.354  17.295  0.5691  0.1290 -0.4708
  547TMC3    C2 8113   4.702   1.322  17.177 -0.2773 -0.0903 -0.5172
  547TMC3    C3 8114   4.579   1.273  17.179 -0.7197 -0.3225 -0.0147
  547TMC3    C4 8115   4.705   1.315  17.417 -0.3862  0.0897 -0.3615
  547TMC3    C5 8116   4.580   1.259  17.403  0.0485 -0.3694  0.6701
  547TMC3    C6 8117   4.511   1.240  17.289  0.2587 -0.0732 -0.5364
  547TMC3     C 8118   0.118   1.473  17.293 -0.0657  0.3094 -0.2683
  547TMC3     O 8119   0.111   1.545  17.192  0.1325 -0.1187 -0.4052
  547TMC3     H 8120   0.031   1.353  17.086 -0.2141 -0.1535 -0.5025
  547TMC3    H1 8121   0.026   1.341  17.512 -1.3525  0.6693 -0.0717
  547TMC3    H2 8122   4.407   1.211  17.286  0.3541 -0.5013  0.4046
  547TMC3    C7 8123   4.506   1.235  17.530  0.3240  0.2329 -0.1389
  547TMC3    C8 8124   4.488   1.319  17.071 -0.1875  0.1153 -0.0877
  547TMC3    O1 8125   4.386   1.220  17.521 -0.2748 -0.6424  0.2891
  547TMC3    O2 8126   4.368   1.297  17.072  0.2570  0.3068 -0.1454
  548MPD2     C 8127   0.498   2.304  11.961  0.7273 -0.4932 -0.2051
  548MPD2    C1 8128   0.457   2.205  12.046  0.0027  0.1164  0.2729
  548MPD2    C2 8129   0.525   2.092  12.069 -0.4523  0.4570 -0.0116
  548MPD2    C3 8130   0.644   2.075  11.995 -0.3952  0.6880  0.8765
  548MPD2    C4 8131   0.683   2.170  11.902  0.5284  0.3022 -0.5091
  548MPD2    C5 8132   0.615   2.284  11.887  0.9777  0.7769 -0.2760
  548MPD2     H 8133   0.507   2.016  12.144  3.2382 -1.0983 -0.7107
  548MPD2    H1 8134   0.768   2.143  11.840  1.0643  1.5213 -0.3111
  548MPD2    H2 8135   0.436   2.392  11.946  2.2243  0.3597 -1.3019
  548MPD2    H3 8136   0.634   2.355  11.808 -0.7611  0.9544 -0.5197
  548MPD2     N 8137   0.724   1.962  12.027  0.2934  0.1111  0.1741
  548MPD2    H5 8138   0.671   1.893  12.080  0.8958 -0.0904  0.5143
  548MPD2    N1 8139   0.336   2.236  12.117 -0.2274  0.1196 -0.0293
  548MPD2    H7 8140   0.304   2.332  12.106  0.5536  0.3100 -0.6859
  549TMC3    C1 8141   0.155   2.241  12.265 -0.0032  0.3374 -0.7711
  549TMC3    C2 8142   0.138   2.374  12.230  0.2512  0.4501 -0.2978
  549TMC3    C3 8143   0.015   2.426  12.268  0.1245  0.0836 -0.4254
  549TMC3    C4 8144   0.067   2.172  12.344 -0.2914  0.0623  0.5256
  549TMC3    C5 8145   4.679   2.234  12.387 -0.0881  1.0239 -0.0975
  549TMC3    C6 8146   4.648   2.362  12.347 -0.0253  0.0732  0.4993
  549TMC3     C 8147   0.270   2.167  12.215 -0.2131  0.4272 -0.6720
  549TMC3     O 8148   0.307   2.072  12.282 -0.9196 -0.1847  0.2559
  549TMC3     H 8149   0.196   2.434  12.162  0.7658  0.6456  0.3079
  549TMC3    H1 8150   0.088   2.073  12.384  2.0604 -0.1951 -1.3891
  549TMC3    H2 8151   4.554   2.410  12.374 -0.1477 -0.1649  0.5044
  549TMC3    C7 8152   4.567   2.155  12.438 -0.0262 -0.8585 -0.3977
  549TMC3    C8 8153   4.679   2.529  12.191 -0.2039 -0.0358  0.4578
  549TMC3    O1 8154   4.461   2.215  12.450  0.2899 -0.5265  0.1686
  549TMC3    O2 8155   4.616   2.486  12.098 -0.1563 -0.2388  0.8491
  550TMC3    C1 8156   3.490   4.398  12.305  0.0960  0.8348  0.5304
  550TMC3    C2 8157   3.546   4.505  12.382  0.5798  0.2419  0.2872
  550TMC3    C3 8158   3.454   4.582  12.448 -0.5799 -1.1359 -0.4740
  550TMC3    C4 8159   3.356   4.370  12.313 -0.2878 -0.2404  0.7173
  550TMC3    C5 8160   3.272   4.445  12.388  0.7866  0.0678  0.2759
  550TMC3    C6 8161   3.318   4.550  12.464 -0.1194 -0.5682  0.6369
  550TMC3     C 8162   3.574   4.317  12.219  0.0671 -0.3936  0.1595
  550TMC3     O 8163   3.549   4.197  12.215 -0.3745 -0.3344  0.2285
  550TMC3     H 8164   3.651   4.528  12.372  0.9078 -1.0888  0.6755
  550TMC3    H1 8165   3.309   4.291  12.256  2.2754 -0.7668 -0.6565
  550TMC3    H2 8166   3.248   4.620  12.508  0.5654  0.1143  0.6568
  550TMC3    C7 8167   3.130   4.443  12.355 -0.0377 -0.1855  0.0034
  550TMC3    C8 8168   3.502   4.716  12.476 -0.3080  0.3146  0.2490
  550TMC3    O1 8169   3.047   4.477  12.441  0.5356  0.8951  0.1722
  550TMC3    O2 8170   3.551   0.046  12.378 -0.5288  0.4869  0.0094
  551TMC3    C1 8171   1.780   2.628  13.332  0.5528 -0.5323  0.5115
  551TMC3    C2 8172   1.907   2.679  13.313  0.0665  0.2439 -0.7317
  551TMC3    C3 8173   1.954   2.769  13.408 -0.1869 -0.3283 -0.1316
  551TMC3    C4 8174   1.713   2.640  13.451 -0.0698  0.0304 -0.8576
  551TMC3    C5 8175   1.769   2.725  13.553  0.3437 -0.0693 -0.0127
  551TMC3    C6 8176   1.879   2.792  13.526  0.4792 -0.4745  0.1428
  551TMC3     C 8177   1.738   2.528  13.235  1.1968  0.4746 -0.2362
  551TMC3     O 8178   1.812   2.438  13.200  0.0453 -0.0414 -0.2020
  551TMC3     H 8179   1.955   2.661  13.217  2.3634 -1.1194  0.6918
  551TMC3    H1 8180   1.626   2.579  13.475 -1.5799  2.8377  0.7769
  551TMC3    H2 8181   1.926   2.850  13.604 -0.4481  1.3728 -0.6715
  551TMC3    C7 8182   1.691   2.753  13.673 -0.3549  0.7849  0.5175
  551TMC3    C8 8183   2.036   2.875  13.359  0.3419  0.4564 -0.8654
  551TMC3    O1 8184   1.745   2.811  13.767 -0.2326  0.8969 -0.5817
  551TMC3    O2 8185   2.110   2.935  13.442  0.7276  0.3509 -0.7391
  552MPD2     C 8186   3.023   4.591  14.014 -0.4549  0.0472 -0.1539
  552MPD2    C1 8187   3.048   4.460  14.020  0.2064  0.8751 -0.1336
  552MPD2    C2 8188   3.181   4.417  14.023  0.8713  0.9272  0.9116
  552MPD2    C3 8189   3.285   4.503  14.024  0.8078  0.3880  0.2094
  552MPD2    C4 8190   3.260   4.637  14.007 -0.0011 -0.0706 -0.8619
  552MPD2    C5 8191   3.129   4.675  13.989  0.1066 -0.0417  0.0256
  552MPD2     H 8192   3.197   4.310  14.028  1.0873  0.8668 -1.4829
  552MPD2    H1 8193   3.341   4.709  14.003 -1.8883  2.0482 -0.8025
  552MPD2    H2 8194   2.925   4.638  14.020 -0.6089 -0.4098  0.9073
  552MPD2    H3 8195   3.109   0.057  13.972 -0.6158 -0.1282  0.3424
  552MPD2     N 8196   3.414   4.466  14.046  0.3404 -0.7936 -0.3610
  552MPD2    H5 8197   3.487   4.535  14.029  0.2683 -0.3504  1.0772
  552MPD2    N1 8198   2.948   4.356  14.017 -0.2242 -0.0729  0.4343
  552MPD2    H7 8199   2.979   4.261  14.029  0.6673  0.1602 -0.0175
  553TMC3    C1 8200   2.743   4.263  13.968 -0.0883 -0.1227  0.0789
  553TMC3    C2 8201   2.660   4.292  13.864 -0.2687  0.0225 -0.6949
  553TMC3    C3 8202   2.670   4.208  13.755  0.2292 -0.4358 -0.2549
  553TMC3    C4 8203   2.816   4.140  13.971  0.7854  0.8824  0.2971
  553TMC3    C5 8204   2.820   4.064  13.861  0.4071 -0.0945  0.4427
  553TMC3    C6 8205   2.755   4.097  13.752 -0.3573 -0.1379  0.1217
  553TMC3     C 8206   2.811   4.382  14.006  0.2125 -0.3105  0.1285
  553TMC3     O 8207   2.751   4.486  13.987 -0.8036 -0.2345  0.4811
  553TMC3     H 8208   2.596   4.380  13.864  0.5250  0.6075 -0.2043
  553TMC3    H1 8209   2.869   4.106  14.059  2.2423 -0.6061 -1.1776
  553TMC3    H2 8210   2.750   4.027  13.669 -1.3064  1.3115 -1.0297
  553TMC3    C7 8211   2.963   4.046  13.837  0.1758  0.3969 -0.6564
  553TMC3    C8 8212   2.682   4.276  13.628 -0.0621  0.3339  0.1634
  553TMC3    O1 8213   3.029   4.030  13.938 -0.1271 -0.1526  0.4939
  553TMC3    O2 8214   2.710   4.198  13.538  0.0711 -0.0113  0.3856
  554TMC3    C1 8215   0.351   3.235  11.533 -0.0694  0.1410 -0.3389
  554TMC3    C2 8216   0.279   3.237  11.417  0.0605 -0.5766 -0.5691
  554TMC3    C3 8217   0.308   3.334  11.325  0.6376 -0.2446 -0.5807
  554TMC3    C4 8218   0.456   3.319  11.552  0.5533 -0.4454 -0.0980
  554TMC3    C5 8219   0.481   3.411  11.453  0.1035 -0.3068  0.6747
  554TMC3    C6 8220   0.405   3.423  11.336 -0.8417 -0.2249  0.1641
  554TMC3     C 8221   0.343   3.110  11.610 -0.6013 -0.7159 -0.2889
  554TMC3     O 8222   0.242   3.046  11.622 -0.2458  0.7849  0.8583
  554TMC3     H 8223   0.216   3.154  11.387 -0.7526 -0.3761  0.5479
  554TMC3    H1 8224   0.511   3.325  11.645 -0.3844 -1.4470  0.5273
  554TMC3    H2 8225   0.410   3.512  11.274 -2.8961  0.9614  1.6904
  554TMC3    C7 8226   0.585   3.513  11.475  0.4171  0.4532 -0.3816
  554TMC3    C8 8227   0.231   3.333  11.201 -0.5062 -1.2965  0.4714
  554TMC3    O1 8228   0.615   3.526  11.595 -0.1228  0.2516  0.3579
  554TMC3    O2 8229   0.273   3.388  11.097  0.2436 -0.4296  0.5212
  555TMC3    C1 8230   4.055   3.538  15.280  0.0197  0.0778  0.3642
  555TMC3    C2 8231   4.125   3.588  15.387  0.1999  0.5942  0.6307
  555TMC3    C3 8232   4.176   3.509  15.490  0.0247  0.3697  0.7908
  555TMC3    C4 8233   4.044   3.402  15.254  0.1936  0.4467 -0.2771
  555TMC3    C5 8234   4.091   3.328  15.355 -0.3498 -0.9720 -0.6367
  555TMC3    C6 8235   4.152   3.372  15.470 -1.0180 -0.4020 -0.2235
  555TMC3     C 8236   4.032   3.626  15.173 -0.1934 -0.1950 -0.1084
  555TMC3     O 8237   4.105   3.720  15.157  0.0455 -0.5431 -0.8430
  555TMC3     H 8238   4.129   3.695  15.400 -1.1094  0.9544 -1.9548
  555TMC3    H1 8239   3.991   3.360  15.169 -0.7014  0.1852  0.4111
  555TMC3    H2 8240   4.194   3.305  15.545 -1.1980 -0.9593 -0.6202
  555TMC3    C7 8241   4.066   3.183  15.345  0.0408 -0.0874  0.4149
  555TMC3    C8 8242   4.285   3.567  15.568 -0.1033 -0.5536 -0.5414
  555TMC3    O1 8243   4.051   3.128  15.452 -0.5141 -0.2346  0.1198
  555TMC3    O2 8244   4.340   3.669  15.530  0.6377 -0.9523  0.3300
  556MPD2     C 8245   2.310   0.261  10.884 -0.4595  0.4504 -0.6944
  556MPD2    C1 8246   2.235   0.141  10.898 -0.4105  0.1086  0.0970
  556MPD2    C2 8247   2.182   0.079  10.786  0.5185 -0.7193 -0.8592
  556MPD2    C3 8248   2.194   0.136  10.660 -1.6499  0.0359 -0.4774
  556MPD2    C4 8249   2.266   0.255  10.645 -0.2170 -0.4313  0.5110
  556MPD2    C5 8250   2.312   0.320  10.760 -1.0102  0.3487  0.3473
  556MPD2     H 8251   2.137   4.704  10.794  0.5625 -0.6461  0.1913
  556MPD2    H1 8252   2.281   0.301  10.548 -0.1719 -0.3498  0.5564
  556MPD2    H2 8253   2.353   0.315  10.968  0.5342  1.5684 -1.9137
  556MPD2    H3 8254   2.347   0.422  10.756  0.7326 -0.2750 -0.1576
  556MPD2     N 8255   2.143   0.060  10.552  0.4989 -0.2337 -0.1242
  556MPD2    H5 8256   2.113   4.686  10.553  0.3159 -0.1898 -1.0116
  556MPD2    N1 8257   2.235   0.084  11.026 -0.0507 -0.4140  0.0580
  556MPD2    H7 8258   2.284   0.129  11.103  0.5855  1.0386 -1.1945
  557TMC3    C1 8259   2.095   0.008  10.335 -0.0011 -0.5901 -0.0922
  557TMC3    C2 8260   2.142   0.025  10.210  0.2553 -0.5448  0.8309
  557TMC3    C3 8261   2.143   4.644  10.125  0.0679  0.5613 -0.5073
  557TMC3    C4 8262   2.051   4.609  10.375  0.0760 -0.0579  0.4077
  557TMC3    C5 8263   2.060   4.503  10.291 -0.1615 -0.2345  0.0837
  557TMC3    C6 8264   2.108   4.515  10.158 -0.8875 -0.7788 -0.1493
  557TMC3     C 8265   2.133   0.106  10.428 -0.4693  0.5877 -0.6673
  557TMC3     O 8266   2.137   0.217  10.386  0.6384 -0.0491  0.3713
  557TMC3     H 8267   2.196   0.115  10.183 -0.5062 -0.1676  0.5410
  557TMC3    H1 8268   2.010   4.596  10.474 -0.1280 -2.0696  0.0527
  557TMC3    H2 8269   2.088   4.426  10.098  2.7007 -1.0506 -0.9295
  557TMC3    C7 8270   2.039   4.370  10.351  0.4165  0.3890  0.4871
  557TMC3    C8 8271   2.191   4.676   9.985 -0.9014  0.8953  1.2694
  557TMC3    O1 8272   1.975   4.347  10.448  0.0078 -0.0507 -0.3580
  557TMC3    O2 8273   2.194   0.071   9.946 -0.1464  0.2800  0.0109
  558TMC3    C1 8274   0.232   2.806  10.222 -0.3558 -0.0999  0.2210
  558TMC3    C2 8275   0.121   2.734  10.270 -0.0445  0.4328  0.7551
  558TMC3    C3 8276   0.003   2.761  10.209  0.2329  0.0242  0.7869
  558TMC3    C4 8277   0.225   2.868  10.101 -0.1131 -0.4621  0.2792
  558TMC3    C5 8278   0.104   2.898  10.052  0.8442  0.2443  0.1141
  558TMC3    C6 8279   4.715   2.845  10.105  0.7894  0.0706 -0.0656
  558TMC3     C 8280   0.360   2.754  10.276  0.0391  0.5731 -0.3146
  558TMC3     O 8281   0.359   2.648  10.336  0.3282  0.1834 -0.7177
  558TMC3     H 8282   0.135   2.656  10.344 -2.0640 -0.9848 -0.3442
  558TMC3    H1 8283   0.316   2.897  10.050  0.2404 -0.5061  0.8743
  558TMC3    H2 8284   4.615   2.875  10.075  0.8505 -2.4670 -2.8037
  558TMC3    C7 8285   0.084   2.952   9.920 -0.0242 -0.8338 -0.0795
  558TMC3    C8 8286   4.609   2.683  10.236 -0.1120  0.1334  0.4237
  558TMC3    O1 8287   0.168   3.032   9.891  0.3748  0.4185  0.2359
  558TMC3    O2 8288   4.512   2.686  10.164  0.1346 -0.1468 -0.4267
  559MPD2     C 8289   0.079   3.104  10.363 -0.3202  0.7689  0.0927
  559MPD2    C1 8290   0.048   3.002  10.453  0.1708  0.1195  0.1830
  559MPD2    C2 8291   0.144   2.959  10.540  0.6490  0.5465 -0.1043
  559MPD2    C3 8292   0.272   3.020  10.540 -0.2561  0.5021  0.1962
  559MPD2    C4 8293   0.292   3.126  10.456 -0.0049 -0.0758 -0.2831
  559MPD2    C5 8294   0.200   3.167  10.368 -0.5063  0.1674  0.0210
  559MPD2     H 8295   0.124   2.877  10.608 -1.8788  1.7709  0.6762
  559MPD2    H1 8296   0.386   3.179  10.450 -0.2301  0.3609  0.0111
  559MPD2    H2 8297   0.020   3.125  10.275 -0.1568  0.6587 -0.0434
  559MPD2    H3 8298   0.215   3.248  10.297  2.1437  1.1582  1.7182
  559MPD2     N 8299   0.369   2.965  10.629 -0.4288  0.3319  0.6977
  559MPD2    H5 8300   0.354   2.888  10.693  2.6876 -0.5524  0.3736
  559MPD2    N1 8301   4.636   2.965  10.445 -0.6065 -0.0623  0.5052
  559MPD2    H7 8302   4.581   3.007  10.371  1.1064  2.1449  0.4926
  560TMC3    C1 8303   0.562   2.929  10.758 -0.4095 -0.8875  0.1491
  560TMC3    C2 8304   0.541   2.800  10.732  0.4658  0.5555  0.8731
  560TMC3    C3 8305   0.613   2.725  10.818 -0.3495 -0.1426  0.0035
  560TMC3    C4 8306   0.675   2.982  10.820  0.1888 -0.2861  0.1158
  560TMC3    C5 8307   0.760   2.887  10.885  0.5515 -0.0341 -0.4278
  560TMC3    C6 8308   0.721   2.761  10.894  0.0723 -0.0376 -0.2281
  560TMC3     C 8309   0.483   3.020  10.675  0.5743  0.2996 -0.0503
  560TMC3     O 8310   0.529   3.134  10.647 -0.3109  0.0668  0.1300
  560TMC3     H 8311   0.459   2.755  10.677  1.3691 -0.4131  0.3058
  560TMC3    H1 8312   0.683   3.090  10.819 -0.5582 -0.2474 -2.2034
  560TMC3    H2 8313   0.783   2.695  10.952 -0.7343 -0.6419 -0.0481
  560TMC3    C7 8314   0.836   2.942  10.997 -0.1072 -0.6637 -0.5113
  560TMC3    C8 8315   0.545   2.605  10.872 -0.5179 -0.1500 -0.0092
  560TMC3    O1 8316   0.813   2.893  11.106  0.4526  0.0766  0.8628
  560TMC3    O2 8317   0.487   2.532  10.785 -0.3566 -0.3770 -0.9935
  561TMC3    C1 8318   2.985   1.752  11.404 -0.1153  0.1334 -0.6270
  561TMC3    C2 8319   2.934   1.733  11.532 -0.1065  0.3247  0.1904
  561TMC3    C3 8320   2.859   1.832  11.585  0.1204  0.2088  0.3649
  561TMC3    C4 8321   2.962   1.872  11.333 -0.4773 -0.4421 -0.3301
  561TMC3    C5 8322   2.885   1.967  11.390 -0.0582  0.0736  0.2070
  561TMC3    C6 8323   2.828   1.943  11.511  0.8731  0.2157  0.6871
  561TMC3     C 8324   2.999   1.626  11.334 -0.3140  0.3629  0.3742
  561TMC3     O 8325   2.967   1.522  11.395  0.5188 -0.1245  0.3794
  561TMC3     H 8326   2.952   1.643  11.590  0.2634 -0.3809 -1.0181
  561TMC3    H1 8327   3.010   1.899  11.240 -0.1352 -0.4884 -0.1672
  561TMC3    H2 8328   2.759   2.018  11.550 -0.0041 -0.6241  0.7451
  561TMC3    C7 8329   2.897   2.113  11.363 -0.0620 -0.1083 -0.3635
  561TMC3    C8 8330   2.812   1.821  11.720  0.0074  0.5091  0.9859
  561TMC3    O1 8331   2.856   2.180  11.453 -0.5737 -0.6186 -0.1922
  561TMC3    O2 8332   2.817   1.710  11.769 -0.0693 -0.5858  0.2048
  562TMC3    C1 8333   4.386   3.694  16.162 -0.1943  0.2145  0.1265
  562TMC3    C2 8334   4.394   3.793  16.065 -0.9189 -0.0517 -0.6313
  562TMC3    C3 8335   4.294   3.792  15.962  0.6023 -0.1327 -0.2344
  562TMC3    C4 8336   4.296   3.593  16.156  0.6863  0.3571 -0.4761
  562TMC3    C5 8337   4.207   3.595  16.055  0.0217 -1.0855  0.2600
  562TMC3    C6 8338   4.195   3.696  15.959  0.0040  0.6118  0.2585
  562TMC3     C 8339   4.487   3.683  16.263 -0.5296 -0.1683 -0.5903
  562TMC3     O 8340   4.458   3.623  16.366  0.2442  0.2296  0.1610
  562TMC3     H 8341   4.454   3.882  16.078 -0.9713  0.2928 -2.7257
  562TMC3    H1 8342   4.313   3.510  16.224 -0.1197 -0.1677 -0.9218
  562TMC3    H2 8343   4.124   3.686  15.877  1.7604  1.8098 -1.4076
  562TMC3    C7 8344   4.090   3.511  16.067  0.2315 -0.0155 -0.4711
  562TMC3    C8 8345   4.306   3.898  15.857 -0.4319  0.6671 -0.3253
  562TMC3    O1 8346   4.005   3.525  15.978  0.1778  0.0617  0.0883
  562TMC3    O2 8347   4.398   3.979  15.858 -0.1981 -0.2822 -0.4843
  563MPD2     C 8348   1.302   0.361  15.508 -0.3456 -0.4794 -0.3650
  563MPD2    C1 8349   1.350   0.378  15.634 -0.0052  0.0291 -0.1544
  563MPD2    C2 8350   1.488   0.371  15.659 -0.2070 -0.0625  0.0876
  563MPD2    C3 8351   1.575   0.350  15.556 -0.2474  0.3567  0.4158
  563MPD2    C4 8352   1.527   0.320  15.431 -0.6256  0.6015 -0.2653
  563MPD2    C5 8353   1.389   0.327  15.406  0.0039  0.7662  0.4201
  563MPD2     H 8354   1.522   0.385  15.761  0.7430 -0.2060 -0.2012
  563MPD2    H1 8355   1.590   0.321  15.343 -0.0257  0.9723  0.1661
  563MPD2    H2 8356   1.195   0.363  15.488 -0.1615 -0.8887 -1.3471
  563MPD2    H3 8357   1.344   0.322  15.308  2.4406  3.4819 -0.8258
  563MPD2     N 8358   1.713   0.355  15.596 -0.1018  0.2256 -0.0276
  563MPD2    H5 8359   1.737   0.383  15.691  1.0094 -0.2837 -0.1563
  563MPD2    N1 8360   1.252   0.401  15.734  0.2529 -0.2597 -0.0008
  563MPD2    H7 8361   1.156   0.394  15.701  0.5662  2.0533 -1.4015
  564TMC3    C1 8362   1.165   0.460  15.959  0.0898  0.9770  0.0334
  564TMC3    C2 8363   1.044   0.406  15.917  0.0590 -0.9175 -0.6184
  564TMC3    C3 8364   0.960   0.335  16.003 -0.2244 -0.0550  0.4506
  564TMC3    C4 8365   1.200   0.456  16.088  0.6150  0.5947 -0.3281
  564TMC3    C5 8366   1.117   0.388  16.173 -0.3456  0.2638 -0.6843
  564TMC3    C6 8367   0.995   0.339  16.140 -0.6705 -0.5984 -0.4599
  564TMC3     C 8368   1.279   0.453  15.860 -0.8149  0.6337  0.2867
  564TMC3     O 8369   1.381   0.491  15.907 -0.3467  0.0611  0.1326
  564TMC3     H 8370   1.014   0.417  15.813 -1.3448  1.6599  0.0412
  564TMC3    H1 8371   1.302   0.481  16.113 -0.5687  5.0363  0.0283
  564TMC3    H2 8372   0.918   0.309  16.210 -1.9201  1.2256 -1.0490
  564TMC3    C7 8373   1.193   0.290  16.251 -0.1254 -0.3066  0.0353
  564TMC3    C8 8374   0.917   0.197  15.976  0.5123 -0.7538 -0.9785
  564TMC3    O1 8375   1.308   0.315  16.281 -0.2972 -0.1605  0.2714
  564TMC3    O2 8376   0.896   0.125  16.075  0.8464  0.2253 -0.3564
  565TMC3    C1 8377   2.027   1.008  10.716 -0.3119 -0.2561  0.5133
  565TMC3    C2 8378   2.046   0.960  10.845 -0.2064  0.1105  1.0627
  565TMC3    C3 8379   1.940   0.887  10.896 -0.1162 -0.5934  0.5414
  565TMC3    C4 8380   1.921   0.982  10.637 -0.2268  0.0877 -0.0547
  565TMC3    C5 8381   1.826   0.900  10.695  0.1457 -0.7318  0.6014
  565TMC3    C6 8382   1.833   0.853  10.822  0.0370 -0.2604  0.1964
  565TMC3     C 8383   2.121   1.109  10.657  0.4739  0.0732 -0.5872
  565TMC3     O 8384   2.112   1.131  10.539  0.9940  0.4568 -0.4173
  565TMC3     H 8385   2.127   0.986  10.913  2.6156 -2.2717 -1.3907
  565TMC3    H1 8386   1.916   1.030  10.540  0.4527  0.3321  0.0341
  565TMC3    H2 8387   1.782   0.762  10.852 -1.2524  0.7927  1.1516
  565TMC3    C7 8388   1.703   0.881  10.618 -0.5517 -0.4956 -1.0444
  565TMC3    C8 8389   1.967   0.840  11.029  0.0370  0.2556 -0.0981
  565TMC3    O1 8390   1.688   0.961  10.523 -0.0681  0.2886 -0.2467
  565TMC3    O2 8391   2.082   0.855  11.070  0.1332 -0.4493  0.0538
  566MPD2     C 8392   3.754   2.550  14.393 -0.4898 -0.3506  0.6551
  566MPD2    C1 8393   3.816   2.629  14.299 -0.4347 -0.1125  0.1497
  566MPD2    C2 8394   3.738   2.680  14.200  0.3642  0.1014 -0.1112
  566MPD2    C3 8395   3.602   2.665  14.192 -0.5311  0.4647  0.4858
  566MPD2    C4 8396   3.546   2.592  14.292  0.3932 -0.4309  0.1468
  566MPD2    C5 8397   3.616   2.530  14.390  0.0299 -0.4542  0.1051
  566MPD2     H 8398   3.783   2.753  14.134 -0.5565  1.6316  0.9477
  566MPD2    H1 8399   3.439   2.585  14.306  0.2356  2.4613  0.4437
  566MPD2    H2 8400   3.809   2.500  14.472  1.4671  2.3327  0.9861
  566MPD2    H3 8401   3.565   2.488  14.476 -0.4143 -1.9571 -0.8921
  566MPD2     N 8402   3.529   2.743  14.096 -0.8005  0.1752 -0.1931
  566MPD2    H5 8403   3.585   2.808  14.042 -0.6984 -0.4933 -0.8855
  566MPD2    N1 8404   3.956   2.654  14.312 -0.3952 -0.4204  0.2257
  566MPD2    H7 8405   3.996   2.652  14.405  1.9211 -0.1697 -0.7625
  567TMC3    C1 8406   4.151   2.776  14.248  0.0005  0.1885 -0.8548
  567TMC3    C2 8407   4.226   2.818  14.142  0.8344 -0.5319 -0.6188
  567TMC3    C3 8408   4.281   2.941  14.142 -0.4796  0.5790 -0.1575
  567TMC3    C4 8409   4.133   2.863  14.360 -0.0673  0.3670  0.7167
  567TMC3    C5 8410   4.198   2.984  14.356 -0.6370 -0.4642 -0.2453
  567TMC3    C6 8411   4.272   3.027  14.252  0.3554  0.1125 -0.4308
  567TMC3     C 8412   4.030   2.702  14.207  0.6728 -0.4050  0.0224
  567TMC3     O 8413   4.011   2.710  14.088 -0.0575  0.3251  0.3109
  567TMC3     H 8414   4.250   2.753  14.059  0.4310  0.0893 -1.2164
  567TMC3    H1 8415   4.084   2.831  14.451  0.8140 -0.6675  0.8371
  567TMC3    H2 8416   4.305   3.130  14.252 -1.9912  0.8672 -0.0958
  567TMC3    C7 8417   4.168   3.085  14.460 -0.4929 -0.2671 -0.0453
  567TMC3    C8 8418   4.315   3.006  14.013  0.7530 -0.0605  0.1939
  567TMC3    O1 8419   4.259   3.166  14.482 -0.3113 -0.5142 -0.4793
  567TMC3    O2 8420   4.262   3.111  13.987 -0.4880  0.1247  0.0146
  568MPD2     C 8421   1.244   3.671  16.564 -0.8942 -0.1747  0.4829
  568MPD2    C1 8422   1.113   3.692  16.581 -0.3528  0.3471  0.2250
  568MPD2    C2 8423   1.056   3.786  16.500  0.0433  0.1940  0.0612
  568MPD2    C3 8424   1.124   3.853  16.405 -0.4749 -0.6420 -0.2062
  568MPD2    C4 8425   1.263   3.839  16.397  0.0168 -0.5205 -0.6220
  568MPD2    C5 8426   1.325   3.746  16.482  0.4491 -0.7657 -0.1965
  568MPD2     H 8427   0.949   3.799  16.514  0.4994  2.7947  1.0652
  568MPD2    H1 8428   1.324   3.891  16.325  0.5042 -0.0688  0.1209
  568MPD2    H2 8429   1.295   3.596  16.625  1.1684 -0.3382 -1.4412
  568MPD2    H3 8430   1.431   3.723  16.474  0.1644 -2.7066  1.8356
  568MPD2     N 8431   1.050   3.938  16.324 -0.4256 -0.3150 -0.1340
  568MPD2    H5 8432   0.952   3.952  16.344 -0.9685 -1.2667 -2.1183
  568MPD2    N1 8433   1.046   3.614  16.678 -0.2225  0.5630  0.5747
  568MPD2    H7 8434   1.099   3.536  16.715 -0.3615  0.0371 -0.3519
  569TMC3    C1 8435   0.991   4.085  16.155  0.0544  0.0234  0.4755
  569TMC3    C2 8436   0.903   4.159  16.230  0.3752  0.3126  0.1534
  569TMC3    C3 8437   0.811   4.235  16.159  0.9813  0.3262  0.1080
  569TMC3    C4 8438   1.005   4.095  16.022 -0.2140 -0.6257 -0.3317
  569TMC3    C5 8439   0.915   4.175  15.955 -0.3381 -0.5590 -0.1909
  569TMC3    C6 8440   0.816   4.239  16.024 -0.3412  0.4053 -0.4232
  569TMC3     C 8441   1.097   4.003  16.219 -0.2370  0.1941 -0.1268
  569TMC3     O 8442   1.208   4.019  16.170  0.3475  0.2463 -0.3767
  569TMC3     H 8443   0.891   4.133  16.334 -2.9542  0.9949 -0.0754
  569TMC3    H1 8444   1.073   4.027  15.973  1.8996  1.7280 -0.6903
  569TMC3    H2 8445   0.743   4.297  15.969  0.1594  1.0099 -0.4493
  569TMC3    C7 8446   0.969   4.264  15.854  0.1797  0.2597  0.0712
  569TMC3    C8 8447   0.783   4.366  16.210  0.4232  0.6348 -0.3606
  569TMC3    O1 8448   1.043   4.210  15.767 -0.3353 -0.9449  0.1488
  569TMC3    O2 8449   0.745   4.450  16.126 -0.1895  0.1359 -0.3872
  570TMC3    C1 8450   0.232   2.313  16.154 -0.4044 -0.0800 -0.1428
  570TMC3    C2 8451   0.335   2.302  16.063  0.5965 -0.3625 -0.2055
  570TMC3    C3 8452   0.358   2.418  15.994  0.0122  0.2823 -0.4657
  570TMC3    C4 8453   0.159   2.431  16.181  0.3770  0.8821 -0.5796
  570TMC3    C5 8454   0.188   2.541  16.102  0.1212  0.8665  0.1918
  570TMC3    C6 8455   0.290   2.535  16.011  0.1965  0.1103  0.0963
  570TMC3     C 8456   0.219   2.196  16.242 -1.3425  0.1550 -0.2935
  570TMC3     O 8457   0.264   2.090  16.205  0.4891 -0.5879 -0.1699
  570TMC3     H 8458   0.404   2.219  16.071 -0.1714 -0.9697  0.2288
  570TMC3    H1 8459   0.097   2.441  16.269 -2.8219  1.5717 -2.8966
  570TMC3    H2 8460   0.330   2.619  15.955  2.2727 -1.6054 -0.9955
  570TMC3    C7 8461   0.199   2.658  16.184 -0.6586 -0.6462 -0.6570
  570TMC3    C8 8462   0.492   2.426  15.929  0.5579 -0.6338 -0.0215
  570TMC3    O1 8463   0.217   2.639  16.300 -0.1910 -0.1437  0.1574
  570TMC3    O2 8464   0.548   2.532  15.936 -0.3105 -0.4695 -0.3145
  571MPD2     C 8465   2.880   4.294  16.915 -0.0800 -0.4728 -0.2265
  571MPD2    C1 8466   2.888   4.218  17.033  0.4177 -0.0189 -0.9848
  571MPD2    C2 8467   3.003   4.141  17.056  0.7614 -0.8587 -0.7213
  571MPD2    C3 8468   3.113   4.152  16.971 -1.1299  0.8395  0.1052
  571MPD2    C4 8469   3.108   4.233  16.867  0.2391  0.0669  0.7634
  571MPD2    C5 8470   2.996   4.305  16.834  0.7591  0.3050 -0.0503
  571MPD2     H 8471   3.020   4.092  17.152 -1.8488  1.5944  1.0166
  571MPD2    H1 8472   3.193   4.247  16.801 -2.2299  2.1132 -1.9542
  571MPD2    H2 8473   2.789   4.347  16.890  0.0393 -0.5200 -0.7700
  571MPD2    H3 8474   2.993   4.374  16.750  1.3577  1.5631  0.9775
  571MPD2     N 8475   3.223   4.068  16.983  0.3777  0.0232 -0.2237
  571MPD2    H5 8476   3.308   4.086  16.929  0.2160  1.9691  0.1896
  571MPD2    N1 8477   2.777   4.232  17.116  0.0126  0.3059  0.2758
  571MPD2    H7 8478   2.697   4.286  17.084  0.3188  0.4057 -0.3090
  572TMC3    C1 8479   3.373   3.918  17.080 -0.1316 -0.3693 -0.4910
  572TMC3    C2 8480   3.388   3.823  17.180 -0.1574 -0.3757  0.0001
  572TMC3    C3 8481   3.425   3.859  17.303 -0.6586  0.1598 -0.8201
  572TMC3    C4 8482   3.454   4.025  17.091 -0.0277 -1.1810 -0.3083
  572TMC3    C5 8483   3.517   4.048  17.216  0.0945  0.3128 -0.1586
  572TMC3    C6 8484   3.490   3.981  17.329 -0.5906 -0.1999 -0.2556
  572TMC3     C 8485   3.238   3.963  17.065  0.4111 -0.1619 -0.0230
  572TMC3     O 8486   3.157   3.907  17.138 -0.4027  0.1100 -0.4199
  572TMC3     H 8487   3.316   3.742  17.172  2.9825 -3.1736  0.4770
  572TMC3    H1 8488   3.457   4.103  17.016  0.8019 -1.0144 -0.0980
  572TMC3    H2 8489   3.532   3.998  17.427 -0.6568  2.0401 -0.6149
  572TMC3    C7 8490   3.549   4.184  17.237  0.6995 -0.9228  0.2327
  572TMC3    C8 8491   3.352   3.784  17.406 -0.2442  1.1636 -0.3033
  572TMC3    O1 8492   3.462   4.261  17.208  0.2587 -0.1005  0.3749
  572TMC3    O2 8493   3.327   3.663  17.393 -0.1786 -0.3862  0.3480
  573MPD2     C 8494   3.999   0.060   1.204 -0.5130 -0.6078  1.1456
  573MPD2    C1 8495   3.987   0.196   1.195  0.3775 -0.1736  0.1972
  573MPD2    C2 8496   4.006   0.261   1.072 -0.3996  0.6938 -0.6971
  573MPD2    C3 8497   4.042   0.194   0.955  0.1516 -0.2363  0.1627
  573MPD2    C4 8498   4.046   0.058   0.971  1.2037  0.0298 -0.2956
  573MPD2    C5 8499   4.027   4.716   1.089 -0.1213  0.3666  0.7061
  573MPD2     H 8500   4.004   0.369   1.068  2.6208  0.9038  2.8391
  573MPD2    H1 8501   4.056   4.713   0.887 -0.1963 -0.6870  0.1132
  573MPD2    H2 8502   3.982   0.005   1.296 -0.7383  0.8448  1.9744
  573MPD2    H3 8503   4.029   4.608   1.094 -1.2344  0.3407  0.6921
  573MPD2     N 8504   4.067   0.247   0.826 -0.0972 -0.6691 -0.6280
  573MPD2    H5 8505   4.080   0.181   0.750  0.5980  0.2333 -1.2954
  573MPD2    N1 8506   3.954   0.254   1.317 -0.3842  0.7151  0.8814
  573MPD2    H7 8507   3.947   0.196   1.401  2.3870  0.8452  1.1911
  574TMC3    C1 8508   4.125   0.412   0.671  0.7326  0.1600 -0.2918
  574TMC3    C2 8509   4.136   0.329   0.563  0.1081  0.1770  0.5416
  574TMC3    C3 8510   4.219   0.355   0.460  0.1078 -0.5122 -0.1781
  574TMC3    C4 8511   4.170   0.542   0.654  0.1313  0.0755  0.1679
  574TMC3    C5 8512   4.232   0.579   0.535  0.1227 -0.0975 -0.3605
  574TMC3    C6 8513   4.264   0.481   0.441 -0.0116 -0.3718 -0.1341
  574TMC3     C 8514   4.083   0.376   0.803 -0.3343 -0.3122  0.2458
  574TMC3     O 8515   4.047   0.465   0.880 -0.4758 -0.1842 -0.4669
  574TMC3     H 8516   4.103   0.226   0.569 -1.7947  0.6768 -1.6678
  574TMC3    H1 8517   4.167   0.613   0.736  0.0511 -0.4856  0.6517
  574TMC3    H2 8518   4.304   0.513   0.345 -1.3122  2.5137  0.2799
  574TMC3    C7 8519   4.313   0.700   0.532  0.3062  0.2999  0.5839
  574TMC3    C8 8520   4.199   0.270   0.348 -0.3048  0.0495  0.5261
  574TMC3    O1 8521   4.275   0.806   0.576 -0.2538 -0.1344 -0.0582
  574TMC3    O2 8522   4.176   0.154   0.377 -0.0009  0.0090  0.1600
  575TMC3    C1 8523   2.468   0.602  11.676  0.6010  1.0323  1.0238
  575TMC3    C2 8524   2.438   0.591  11.805  0.1681 -0.0949 -0.8287
  575TMC3    C3 8525   2.311   0.631  11.840 -0.6729  0.8363  0.2075
  575TMC3    C4 8526   2.382   0.646  11.578  0.2083 -0.7677  0.1440
  575TMC3    C5 8527   2.255   0.674  11.618 -0.2390 -0.7231  0.7448
  575TMC3    C6 8528   2.214   0.665  11.746 -0.0194  0.7894 -0.2661
  575TMC3     C 8529   2.574   0.510  11.628  0.6739  0.5735 -0.0610
  575TMC3     O 8530   2.606   0.408  11.697  0.2827  0.7196  0.7225
  575TMC3     H 8531   2.522   0.568  11.870 -0.2228  2.9108  0.7438
  575TMC3    H1 8532   2.398   0.630  11.472 -0.0461  1.8713 -0.2847
  575TMC3    H2 8533   2.128   0.717  11.787  0.0817 -0.1395  1.1479
  575TMC3    C7 8534   2.169   0.707  11.511  0.2464 -0.2837 -0.2883
  575TMC3    C8 8535   2.262   0.654  11.977  0.3998 -0.2197  0.1811
  575TMC3    O1 8536   2.221   0.749  11.410  0.1139 -0.9923  0.3367
  575TMC3    O2 8537   2.139   0.664  11.992  0.5142  0.5628  0.1886
  576MPD2     C 8538   1.962   2.407  12.481  0.3823  0.5253  0.9216
  576MPD2    C1 8539   2.002   2.527  12.428  0.7149  0.0083  0.1809
  576MPD2    C2 8540   1.928   2.640  12.461 -0.2282  0.0759  0.6273
  576MPD2    C3 8541   1.822   2.629  12.546 -0.4092  0.2551 -0.6144
  576MPD2    C4 8542   1.789   2.505  12.605 -0.7701 -1.0569  0.3099
  576MPD2    C5 8543   1.860   2.401  12.574 -0.3654  0.0821  0.0158
  576MPD2     H 8544   1.962   2.732  12.415 -0.1172  0.8789  2.3051
  576MPD2    H1 8545   1.705   2.491  12.672  1.2468  1.1091  3.2665
  576MPD2    H2 8546   2.006   2.310  12.460 -0.7035  0.0472  0.8755
  576MPD2    H3 8547   1.840   2.304  12.618 -2.4343  0.2873 -0.4939
  576MPD2     N 8548   1.736   2.734  12.556  0.6856 -0.2747  0.2114
  576MPD2    H5 8549   1.761   2.811  12.495  2.9440 -1.5674 -0.4885
  576MPD2    N1 8550   2.108   2.513  12.333 -0.0901 -0.1438 -0.0531
  576MPD2    H7 8551   2.126   2.417  12.305  5.3484  0.9311 -0.2329
  577TMC3    C1 8552   2.300   2.571  12.229 -0.4428 -0.1634 -0.0414
  577TMC3    C2 8553   2.356   2.456  12.269  0.4081  0.0644  0.4937
  577TMC3    C3 8554   2.470   2.410  12.205 -0.0825 -0.1387 -0.2312
  577TMC3    C4 8555   2.359   2.650  12.141  0.4797 -0.1036 -0.0340
  577TMC3    C5 8556   2.478   2.614  12.095  0.9205  0.8826  0.0097
  577TMC3    C6 8557   2.534   2.493  12.118 -0.1609 -0.1589  0.0506
  577TMC3     C 8558   2.170   2.609  12.268 -0.3341  0.6752  0.1157
  577TMC3     O 8559   2.164   2.726  12.303 -0.5237  0.2423  0.3413
  577TMC3     H 8560   2.307   2.389  12.339  0.5616 -1.6555 -1.0633
  577TMC3    H1 8561   2.311   2.746  12.121  1.7695  0.5528 -0.0067
  577TMC3    H2 8562   2.624   2.472  12.062  1.7680  0.8543  2.7970
  577TMC3    C7 8563   2.525   2.689  11.977 -0.3021 -0.2914  0.0422
  577TMC3    C8 8564   2.504   2.267  12.197  1.0215 -0.0213  0.2291
  577TMC3    O1 8565   2.631   2.757  11.983  0.0657 -0.5289 -0.3160
  577TMC3    O2 8566   2.477   2.193  12.291 -0.1434  0.5101  0.2189
  578MPD2     C 8567   4.376   2.931   1.279 -0.1314  0.3257 -0.6460
  578MPD2    C1 8568   4.449   2.815   1.253 -0.2913 -0.2463 -0.1591
  578MPD2    C2 8569   4.472   2.729   1.362 -0.2233 -0.8481 -0.0928
  578MPD2    C3 8570   4.424   2.773   1.491  0.8700 -0.0963  0.6251
  578MPD2    C4 8571   4.382   2.898   1.512  0.3972 -0.5196  0.1736
  578MPD2    C5 8572   4.349   2.972   1.407  0.9485  0.5656 -0.5767
  578MPD2     H 8573   4.515   2.630   1.346 -1.1501 -0.8587 -2.4379
  578MPD2    H1 8574   4.376   2.939   1.613 -1.7251  0.3047 -0.2852
  578MPD2    H2 8575   4.356   3.003   1.201  0.8896  0.2596 -0.9761
  578MPD2    H3 8576   4.313   3.072   1.430 -2.4957 -0.5197 -1.1173
  578MPD2     N 8577   4.452   2.682   1.591  0.6108 -0.1110  0.7981
  578MPD2    H5 8578   4.515   2.607   1.565 -0.3230 -0.0870 -1.5627
  578MPD2    N1 8579   4.475   2.779   1.115 -0.2947 -0.1935 -0.0636
  578MPD2    H7 8580   4.457   2.841   1.036 -0.0099 -2.9250 -2.2981
  579TMC3    C1 8581   4.467   2.571   1.794  0.2227 -0.2182 -0.3917
  579TMC3    C2 8582   4.488   2.590   1.927  0.4091  0.0497  0.1429
  579TMC3    C3 8583   4.556   2.491   1.990 -0.5526  0.0663  0.0455
  579TMC3    C4 8584   4.502   2.451   1.729 -0.1940 -0.5897 -0.0770
  579TMC3    C5 8585   4.564   2.349   1.800 -0.5397  0.1744  0.7806
  579TMC3    C6 8586   4.593   2.375   1.927  0.6141  0.2211 -0.1248
  579TMC3     C 8587   4.405   2.677   1.724 -0.5149  0.5023 -0.1901
  579TMC3     O 8588   4.321   2.745   1.776  0.0918 -0.3342  0.1615
  579TMC3     H 8589   4.451   2.679   1.977 -0.0426  0.6809 -1.3169
  579TMC3    H1 8590   4.467   2.437   1.628 -0.0656  0.1761 -0.2291
  579TMC3    H2 8591   4.628   2.295   1.992  0.8083  0.3927 -0.0164
  579TMC3    C7 8592   4.626   2.241   1.735  0.2199 -0.2998  0.6997
  579TMC3    C8 8593   4.649   2.546   2.090  0.5189  0.0921  0.4337
  579TMC3    O1 8594   4.696   2.181   1.816  0.2383 -0.0970 -0.4615
  579TMC3    O2 8595   4.613   2.645   2.154  0.1821 -0.4426 -0.6369
  580TMC3    C1 8596   4.154   1.854  11.971  0.3835 -0.5656 -0.0261
  580TMC3    C2 8597   4.090   1.831  11.851 -0.2752  0.7321  0.4213
  580TMC3    C3 8598   4.025   1.714  11.821 -0.3003 -0.1958  0.6008
  580TMC3    C4 8599   4.128   1.769  12.072  0.3104 -0.0700 -0.0443
  580TMC3    C5 8600   4.051   1.660  12.051 -0.3447  0.3340 -0.6175
  580TMC3    C6 8601   4.008   1.625  11.920  0.2937 -0.3255  0.4460
  580TMC3     C 8602   4.290   1.887  11.949  0.5829 -0.0430 -0.1875
  580TMC3     O 8603   4.325   1.922  11.838 -0.0907  0.1660 -0.0952
  580TMC3     H 8604   4.100   1.900  11.768 -1.5215  0.0782 -0.2906
  580TMC3    H1 8605   4.164   1.794  12.171 -0.1218  0.0471  0.0848
  580TMC3    H2 8606   3.951   1.537  11.895  0.0175 -0.8645  2.9182
  580TMC3    C7 8607   4.092   1.551  12.133  0.0006  0.1653  0.2053
  580TMC3    C8 8608   4.086   1.637  11.715  0.0942 -0.1982  0.4360
  580TMC3    O1 8609   4.150   1.587  12.232 -0.0617 -0.0523 -0.4044
  580TMC3    O2 8610   4.039   1.530  11.692 -0.2437 -0.0582 -0.1246
  581MPD2     C 8611   2.395   1.189  14.991  0.0704 -0.3774 -0.1666
  581MPD2    C1 8612   2.369   1.239  15.120 -0.1543  0.2293  0.0539
  581MPD2    C2 8613   2.245   1.292  15.152  0.3865 -0.2753 -0.0638
  581MPD2    C3 8614   2.141   1.289  15.064 -0.2979 -0.7759  0.3164
  581MPD2    C4 8615   2.161   1.228  14.943  0.5777  0.0784  0.4055
  581MPD2    C5 8616   2.284   1.175  14.912  0.7973  0.2835 -0.0749
  581MPD2     H 8617   2.222   1.330  15.251 -0.0932 -3.6695  1.1077
  581MPD2    H1 8618   2.077   1.195  14.883  0.8022 -0.9419  0.6535
  581MPD2    H2 8619   2.488   1.148  14.953  0.9319 -1.0142  2.6001
  581MPD2    H3 8620   2.297   1.127  14.816 -0.0575  0.3794 -0.2368
  581MPD2     N 8621   2.014   1.356  15.089 -0.0714  0.2181  0.6545
  581MPD2    H5 8622   2.011   1.412  15.174 -0.0169 -0.9650  1.4361
  581MPD2    N1 8623   2.481   1.239  15.205 -0.7184 -0.1828  0.0568
  581MPD2    H7 8624   2.564   1.193  15.167 -0.4818  0.3558 -0.0725
  582TMC3    C1 8625   2.568   1.221  15.421 -0.2708 -0.7371 -0.4602
  582TMC3    C2 8626   2.566   1.277  15.546  0.8225 -0.2934  0.0005
  582TMC3    C3 8627   2.533   1.198  15.651  0.3329  0.3697 -0.8254
  582TMC3    C4 8628   2.574   1.085  15.415 -0.5251  1.1620 -0.0398
  582TMC3    C5 8629   2.520   1.007  15.513  0.2461 -0.0300  0.0617
  582TMC3    C6 8630   2.492   1.064  15.636  0.1366  0.1690 -0.0484
  582TMC3     C 8631   2.480   1.294  15.331  0.7315 -0.3799  0.6808
  582TMC3     O 8632   2.413   1.378  15.385  0.1826 -0.0003 -0.7630
  582TMC3     H 8633   2.587   1.383  15.553 -0.5179  0.0033 -0.3714
  582TMC3    H1 8634   2.580   1.045  15.315  0.4288  0.8013  0.1627
  582TMC3    H2 8635   2.452   1.007  15.719 -0.4543 -1.5315 -1.5113
  582TMC3    C7 8636   2.396   0.939  15.470 -0.8477 -0.3305 -0.0083
  582TMC3    C8 8637   2.507   1.256  15.780 -0.3013  0.1868 -0.1486
  582TMC3    O1 8638   2.411   0.856  15.382  1.0750  0.2065 -0.0862
  582TMC3    O2 8639   2.401   1.223  15.828  0.6703  0.5343 -0.1430
  583MPD2     C 8640   2.061   3.163  16.423 -0.2811  0.2234 -0.0534
  583MPD2    C1 8641   2.161   3.255  16.431 -0.2736 -0.4240 -0.2329
  583MPD2    C2 8642   2.142   3.370  16.503  0.4960  0.1249 -0.2905
  583MPD2    C3 8643   2.022   3.400  16.557  0.0553  0.3701  0.9644
  583MPD2    C4 8644   1.920   3.311  16.542 -0.1336 -0.2470  0.3721
  583MPD2    C5 8645   1.942   3.195  16.482  0.3804  0.6030 -0.0303
  583MPD2     H 8646   2.211   3.454  16.512 -0.6398  0.9387  0.8172
  583MPD2    H1 8647   1.822   3.331  16.582 -0.1233 -1.0146  0.7770
  583MPD2    H2 8648   2.070   3.070  16.368 -0.1908 -0.3526  0.9341
  583MPD2    H3 8649   1.859   3.124  16.480  0.0166  1.0853 -1.4467
  583MPD2     N 8650   2.002   3.527  16.618 -0.3844 -0.8716 -0.6338
  583MPD2    H5 8651   2.070   3.602  16.616 -1.9737  0.5683 -1.1885
  583MPD2    N1 8652   2.286   3.244  16.371  0.0903  0.5538 -0.8591
  583MPD2    H7 8653   2.360   3.311  16.389  0.1244 -0.1000  1.3827
  584TMC3    C1 8654   1.910   3.693  16.764 -0.3465 -0.4365 -0.7201
  584TMC3    C2 8655   1.981   3.788  16.691  0.1927  0.7036  0.4319
  584TMC3    C3 8656   2.000   3.912  16.746 -0.7832  0.1391  0.2263
  584TMC3    C4 8657   1.891   3.713  16.894  0.9135 -0.4327 -0.6862
  584TMC3    C5 8658   1.918   3.830  16.955  0.3966  0.4701 -0.0267
  584TMC3    C6 8659   1.977   3.933  16.884  0.4807 -0.1933  0.3330
  584TMC3     C 8660   1.897   3.554  16.712 -0.1563  1.0881  0.1986
  584TMC3     O 8661   1.821   3.472  16.764 -0.9043 -0.3194 -0.4472
  584TMC3     H 8662   1.994   3.768  16.586 -1.0857 -0.7592  0.5485
  584TMC3    H1 8663   1.859   3.630  16.956 -1.7030  2.0242  1.2784
  584TMC3    H2 8664   1.970   4.037  16.917 -1.7782 -0.4388  0.6637
  584TMC3    C7 8665   1.864   3.840  17.095  0.3711 -0.4294  0.3501
  584TMC3    C8 8666   2.054   4.015  16.659 -0.3109  0.0848  0.1939
  584TMC3    O1 8667   1.819   3.736  17.140 -0.9365 -0.5461 -0.3932
  584TMC3    O2 8668   2.048   3.994  16.541 -0.6844 -0.4644 -0.1406
  585MPD2     C 8669   0.746   2.102   0.933  0.3418 -0.2234  0.4576
  585MPD2    C1 8670   0.762   2.147   0.803  0.0514  0.1234 -0.1873
  585MPD2    C2 8671   0.806   2.048   0.717  0.0542 -0.2516 -0.3467
  585MPD2    C3 8672   0.857   1.920   0.749  0.3967  0.4985 -0.4130
  585MPD2    C4 8673   0.852   1.887   0.883  0.0624  0.4037  0.3864
  585MPD2    C5 8674   0.803   1.982   0.969 -0.1022 -0.1743  0.2188
  585MPD2     H 8675   0.801   2.057   0.609  0.6044 -0.4559 -0.3873
  585MPD2    H1 8676   0.894   1.804   0.938 -0.7769 -0.8029 -0.7939
  585MPD2    H2 8677   0.693   2.158   1.009  0.2998 -0.0725  0.3183
  585MPD2    H3 8678   0.803   1.950   1.073  0.9994 -0.2403  0.1997
  585MPD2     N 8679   0.936   1.838   0.660 -0.6051 -0.4422 -0.2304
  585MPD2    H5 8680   0.954   1.873   0.567  3.5240  1.1782  1.1837
  585MPD2    N1 8681   0.723   2.278   0.777  0.1886 -0.1690  0.2533
  585MPD2    H7 8682   0.695   2.334   0.857 -0.8787 -0.7625  0.2890
  586TMC3    C1 8683   1.066   1.658   0.594 -1.1279  0.0587 -0.4614
  586TMC3    C2 8684   1.153   1.554   0.628  0.3084  1.1446  0.0372
  586TMC3    C3 8685   1.213   1.480   0.529  0.4292  0.6213  0.0311
  586TMC3    C4 8686   1.038   1.681   0.460  0.1449 -0.1133 -0.5138
  586TMC3    C5 8687   1.097   1.606   0.369  0.2496  0.6439 -0.1347
  586TMC3    C6 8688   1.193   1.506   0.393  0.7173  0.4021  0.5071
  586TMC3     C 8689   0.978   1.714   0.694  0.0867  0.9969  0.2775
  586TMC3     O 8690   0.962   1.635   0.787 -0.5387  0.0917 -0.6781
  586TMC3     H 8691   1.183   1.536   0.731  0.4345  1.1971  0.0100
  586TMC3    H1 8692   0.962   1.753   0.434  1.6213  1.8000  0.4662
  586TMC3    H2 8693   1.239   1.446   0.316 -2.1743 -1.2375  0.0678
  586TMC3    C7 8694   1.082   1.640   0.232  0.2394 -0.2939 -0.1900
  586TMC3    C8 8695   1.276   1.348   0.562 -0.2430  0.2235 -0.3238
  586TMC3    O1 8696   1.096   1.552   0.147 -0.4573 -0.0590 -0.7187
  586TMC3    O2 8697   1.326   1.291   0.466 -0.0531  0.0447  0.2194
  587TMC3    C1 8698   3.647   0.945  16.117  0.6835  0.4337 -0.4376
  587TMC3    C2 8699   3.639   0.962  16.255  0.3655  0.1174  0.4350
  587TMC3    C3 8700   3.727   0.891  16.333  0.2154  0.3666 -0.4565
  587TMC3    C4 8701   3.741   0.863  16.062  0.5124 -0.2487  0.4156
  587TMC3    C5 8702   3.840   0.806  16.140 -1.4369 -0.1324 -0.5855
  587TMC3    C6 8703   3.832   0.819  16.275  0.3336 -0.8958 -0.1527
  587TMC3     C 8704   3.542   0.993  16.034  0.5347 -0.5478  0.1298
  587TMC3     O 8705   3.567   0.995  15.911  0.5995 -0.0401  0.5076
  587TMC3     H 8706   3.562   1.025  16.298  0.0958 -0.3024  0.5715
  587TMC3    H1 8707   3.743   0.851  15.954 -1.8509 -0.0951  0.3544
  587TMC3    H2 8708   3.898   0.767  16.342  2.3541 -1.2853 -2.4400
  587TMC3    C7 8709   3.897   0.675  16.100  0.6096 -0.2682 -0.5950
  587TMC3    C8 8710   3.720   0.913  16.477  0.5289 -0.5873  0.0588
  587TMC3    O1 8711   3.842   0.618  16.007 -0.5803 -0.0011 -0.1017
  587TMC3    O2 8712   3.829   0.916  16.531  0.3115  0.9059 -0.2829
  588TMC3    C1 8713   1.991   3.306   9.798 -0.4578  0.4113  0.4125
  588TMC3    C2 8714   1.977   3.179   9.854  0.5364  0.1276 -0.0745
  588TMC3    C3 8715   1.924   3.184   9.985  0.3951 -0.3842  0.0702
  588TMC3    C4 8716   1.952   3.425   9.858  0.3266 -0.2194  0.3138
  588TMC3    C5 8717   1.891   3.412   9.979 -0.2906 -0.2714  0.4421
  588TMC3    C6 8718   1.872   3.301  10.044  0.1211 -0.0787  0.1435
  588TMC3     C 8719   2.055   3.305   9.669 -0.9912  0.6354  0.0644
  588TMC3     O 8720   2.020   3.230   9.579  0.3493  0.3638 -0.0423
  588TMC3     H 8721   2.025   3.092   9.813 -2.1417 -0.3262 -2.2199
  588TMC3    H1 8722   1.928   3.515   9.802  0.9482  0.2159  0.7519
  588TMC3    H2 8723   1.833   3.294  10.146  0.5886  0.0929  0.3336
  588TMC3    C7 8724   1.841   3.529  10.039 -1.0826 -0.0033 -0.0408
  588TMC3    C8 8725   1.958   3.082  10.081 -0.2617  0.4469  0.7481
  588TMC3    O1 8726   1.732   3.517  10.094 -0.3040 -0.2538  0.0103
  588TMC3    O2 8727   1.965   3.109  10.201 -0.0030  0.2952 -0.2994
  589TMC3    C1 8728   4.668   0.587   1.367 -0.3952  0.0029  0.3239
  589TMC3    C2 8729   0.031   0.610   1.472 -0.0379  0.2068 -0.7217
  589TMC3    C3 8730   0.114   0.509   1.513 -0.4044  0.6253 -0.2984
  589TMC3    C4 8731   4.684   0.475   1.292  0.3799 -0.0720 -0.4642
  589TMC3    C5 8732   0.058   0.380   1.324 -0.0780 -0.2554 -0.5864
  589TMC3    C6 8733   0.130   0.389   1.441  0.4007 -0.0323  0.0259
  589TMC3     C 8734   4.557   0.677   1.336 -0.2425 -0.0663  0.0375
  589TMC3     O 8735   4.497   0.667   1.231 -0.0455 -0.7550  0.1616
  589TMC3     H 8736   0.028   0.704   1.525  1.2567  0.4379 -1.0688
  589TMC3    H1 8737   4.618   0.466   1.207 -1.2764  1.9785  0.5958
  589TMC3    H2 8738   0.191   0.305   1.474  0.7763 -0.1390 -0.9512
  589TMC3    C7 8739   0.047   0.254   1.252 -0.1733  0.0919 -0.4442
  589TMC3    C8 8740   0.207   0.550   1.624 -0.1688  0.0504  0.2448
  589TMC3    O1 8741   0.089   0.157   1.315  0.1262  0.7273  0.4894
  589TMC3    O2 8742   0.163   0.618   1.715  0.3245  0.0165 -0.2427
  590MPD2     C 8743   0.214   4.010  16.764  0.1924 -0.3021  0.2849
  590MPD2    C1 8744   0.138   4.019  16.647 -0.1415  0.3068  0.5054
  590MPD2    C2 8745   0.180   4.097  16.540  0.3652 -0.3924  0.0464
  590MPD2    C3 8746   0.302   4.160  16.543  0.7511  0.2812 -0.3050
  590MPD2    C4 8747   0.382   4.153  16.655  0.4488  0.6393 -0.1604
  590MPD2    C5 8748   0.334   4.078  16.765  0.3509  0.0737 -0.0855
  590MPD2     H 8749   0.122   4.112  16.449  0.1125  0.0662  0.2830
  590MPD2    H1 8750   0.482   4.195  16.658  0.9231 -0.6049  1.4775
  590MPD2    H2 8751   0.183   3.961  16.856  2.8530 -1.7139  0.4134
  590MPD2    H3 8752   0.393   4.063  16.855  1.5889  2.4148 -0.5152
  590MPD2     N 8753   0.339   4.239  16.438  0.3881  0.8551 -0.1486
  590MPD2    H5 8754   0.291   4.212  16.352  0.9856  0.3129 -0.3059
  590MPD2    N1 8755   0.006   3.960  16.628  0.0208 -0.2449  0.0549
  590MPD2    H7 8756   4.690   3.971  16.535 -1.2934  2.3461  0.9304
  591TMC3    C1 8757   0.430   4.411  16.303 -0.4192  0.5724  0.3495
  591TMC3    C2 8758   0.424   4.334  16.193  0.1326 -0.4719  0.2139
  591TMC3    C3 8759   0.411   4.397  16.073 -0.3187 -0.4623 -0.3950
  591TMC3    C4 8760   0.400   4.544  16.306 -0.1164 -0.3316 -1.2555
  591TMC3    C5 8761   0.382   4.600  16.185  0.4745  0.5721  0.5615
  591TMC3    C6 8762   0.378   4.525  16.068 -0.7980  0.0734 -0.3054
  591TMC3     C 8763   0.425   4.348  16.435  0.2741  0.5404  1.1919
  591TMC3     O 8764   0.486   4.403  16.527 -0.3802  0.0307 -0.8779
  591TMC3     H 8765   0.450   4.228  16.194 -2.5494 -1.1470 -1.1456
  591TMC3    H1 8766   0.401   4.599  16.400  1.3228 -0.4963 -1.1774
  591TMC3    H2 8767   0.353   4.575  15.976 -1.6881  0.0678 -0.0607
  591TMC3    C7 8768   0.311   0.003  16.181  0.2511 -0.1952 -0.0562
  591TMC3    C8 8769   0.445   4.322  15.957 -0.0519 -0.2248  0.3764
  591TMC3    O1 8770   0.228   0.021  16.270  0.1196  0.1527  0.8338
  591TMC3    O2 8771   0.446   4.201  15.971  0.1016  0.1643  0.0066
  592MPD2     C 8772   0.816   1.306  11.499  0.3466 -0.4858  0.4005
  592MPD2    C1 8773   0.840   1.305  11.636  0.1528 -0.0151 -0.3953
  592MPD2    C2 8774   0.748   1.236  11.714  0.9819  0.3189  0.3981
  592MPD2    C3 8775   0.635   1.185  11.662 -0.1040 -0.1630 -0.3355
  592MPD2    C4 8776   0.611   1.176  11.521 -0.5093  0.7541 -0.7365
  592MPD2    C5 8777   0.706   1.243  11.446 -0.0611  0.2080 -0.4417
  592MPD2     H 8778   0.763   1.229  11.821  0.8401  2.0888  0.5201
  592MPD2    H1 8779   0.530   1.119  11.476 -0.1845 -1.0183  0.9441
  592MPD2    H2 8780   0.883   1.359  11.432 -0.6173 -0.1686 -0.3278
  592MPD2    H3 8781   0.691   1.247  11.338 -0.5701 -0.3377 -0.3882
  592MPD2     N 8782   0.537   1.132  11.754 -0.7283  0.7465 -0.0689
  592MPD2    H5 8783   0.557   1.136  11.853 -1.3543  0.4513  0.0698
  592MPD2    N1 8784   0.938   1.391  11.694 -0.2531 -0.0170 -0.0140
  592MPD2    H7 8785   0.980   1.458  11.631 -1.9796  1.1563  0.0738
  593TMC3    C1 8786   1.061   1.496  11.873  0.3316  0.0539  0.4528
  593TMC3    C2 8787   1.075   1.506  12.010 -0.3150  0.0536  0.3263
  593TMC3    C3 8788   1.176   1.594  12.062  0.7699 -0.7337  0.1725
  593TMC3    C4 8789   1.133   1.572  11.787  0.3497 -0.6068  0.5082
  593TMC3    C5 8790   1.228   1.654  11.848 -0.4289 -0.1057  0.1900
  593TMC3    C6 8791   1.263   1.663  11.983 -0.2044 -0.3565  0.2860
  593TMC3     C 8792   0.974   1.384  11.828  0.1388  0.0614  0.1426
  593TMC3     O 8793   0.967   1.286  11.902 -0.2869 -0.3432 -0.4304
  593TMC3     H 8794   1.004   1.449  12.070 -3.0396  0.0681 -2.8827
  593TMC3    H1 8795   1.110   1.568  11.681  0.5906  1.6823  0.3733
  593TMC3    H2 8796   1.349   1.714  12.024  0.1541  0.3369 -1.3238
  593TMC3    C7 8797   1.330   1.695  11.753 -0.4337  0.4137 -0.3138
  593TMC3    C8 8798   1.186   1.609  12.210  0.3618  0.3525 -0.7489
  593TMC3    O1 8799   1.297   1.728  11.637 -0.2546  0.3062 -0.0454
  593TMC3    O2 8800   1.084   1.582  12.273  0.0192 -0.1224 -0.0983
  594MPD2     C 8801   4.106   4.622  13.868 -0.1038  0.4564  0.5634
  594MPD2    C1 8802   3.979   4.654  13.913 -0.5324  0.2982  0.3124
  594MPD2    C2 8803   3.950   0.062  13.936 -0.6291  0.1762  0.3285
  594MPD2    C3 8804   4.047   0.164  13.927 -0.5844 -0.3435  0.4026
  594MPD2    C4 8805   4.170   0.131  13.875 -0.2537 -0.6230  0.0654
  594MPD2    C5 8806   4.196   0.004  13.848 -0.4293  0.1279  0.4273
  594MPD2     H 8807   3.850   0.090  13.969 -0.2931  0.6004  0.9954
  594MPD2    H1 8808   4.257   0.193  13.857 -0.2194 -0.8906 -0.7370
  594MPD2    H2 8809   4.137   4.528  13.824 -0.5535  0.4272  0.3116
  594MPD2    H3 8810   4.301   4.712  13.825 -0.1064  3.4617 -0.2213
  594MPD2     N 8811   4.010   0.296  13.974 -0.0526 -0.1944  0.1105
  594MPD2    H5 8812   3.927   0.310  14.030 -0.4755 -1.4978 -0.1910
  594MPD2    N1 8813   3.887   4.550  13.952  0.4169  0.2603  0.2204
  594MPD2    H7 8814   3.790   4.577  13.967  0.0498  0.2056 -1.9944
  595TMC3    C1 8815   4.217   0.703  14.052 -0.0342  0.6992 -0.5922
  595TMC3    C2 8816   4.153   0.622  13.961  0.0658 -0.0625 -0.0084
  595TMC3    C3 8817   4.051   0.533  13.997 -0.1277 -0.1461 -0.1575
  595TMC3    C4 8818   4.176   0.709  14.177  0.3289  0.2699  0.5658
  595TMC3    C5 8819   4.066   0.637  14.206  0.6749  0.2011  1.0541
  595TMC3    C6 8820   4.017   0.534  14.128  0.4722 -0.2739 -0.5897
  595TMC3     C 8821   4.359   0.683  14.050  0.2557  0.1391 -0.2754
  595TMC3     O 8822   4.435   0.749  14.117  0.3299  0.3590  0.6281
  595TMC3     H 8823   4.183   0.638  13.858 -1.4849 -0.2380 -0.4858
  595TMC3    H1 8824   4.225   0.785  14.236  2.0962 -1.2438  1.0095
  595TMC3    H2 8825   3.930   0.482  14.168  0.9112 -1.2275 -0.8884
  595TMC3    C7 8826   4.016   0.675  14.336  0.0165 -0.3610  0.4542
  595TMC3    C8 8827   4.086   0.402  13.945  0.0622  0.3566 -0.2559
  595TMC3    O1 8828   3.909   0.738  14.337  0.0247 -0.0065 -0.2216
  595TMC3    O2 8829   4.175   0.409  13.863  0.1509 -0.3759  0.3364
  596MPD2     C 8830   3.362   3.454  16.934 -0.6218  0.3250 -0.2680
  596MPD2    C1 8831   3.285   3.499  16.829  0.0572  0.3239 -0.3350
  596MPD2    C2 8832   3.316   3.464  16.700 -0.1629 -0.4856  0.0047
  596MPD2    C3 8833   3.414   3.369  16.668  0.1963  0.0364 -0.5662
  596MPD2    C4 8834   3.498   3.337  16.776  0.2107 -0.2524  0.1173
  596MPD2    C5 8835   3.471   3.384  16.902 -0.0205  1.0029  0.7894
  596MPD2     H 8836   3.257   3.499  16.616  0.7370  1.9756  0.3892
  596MPD2    H1 8837   3.585   3.272  16.777  0.0197 -0.4987  0.3842
  596MPD2    H2 8838   3.334   3.474  17.037  0.0934  0.4144 -0.0915
  596MPD2    H3 8839   3.537   3.352  16.983  1.9591  1.5149 -0.6385
  596MPD2     N 8840   3.434   3.309  16.544 -0.9446  0.0302 -0.2478
  596MPD2    H5 8841   3.497   3.230  16.538 -0.5690  0.1325  2.3053
  596MPD2    N1 8842   3.172   3.587  16.842  0.1140  0.1137  0.1324
  596MPD2    H7 8843   3.125   3.611  16.755 -0.0287  0.8413  0.4058
  597TMC3    C1 8844   3.011   3.727  16.934  1.0190 -0.0625 -0.6935
  597TMC3    C2 8845   3.026   3.814  16.826 -0.1157 -0.0221 -0.7219
  597TMC3    C3 8846   2.931   3.910  16.802 -0.4988 -0.2251  0.3367
  597TMC3    C4 8847   2.903   3.732  17.016 -0.8196 -0.3861  0.0383
  597TMC3    C5 8848   2.805   3.822  16.977 -0.4822 -0.2770 -0.2903
  597TMC3    C6 8849   2.818   3.906  16.869 -0.0909 -0.0018 -0.2446
  597TMC3     C 8850   3.117   3.634  16.960  0.4597  0.4052 -0.4840
  597TMC3     O 8851   3.129   3.599  17.074  0.5862 -0.0374  0.5665
  597TMC3     H 8852   3.119   3.811  16.771  1.3355  0.2029  1.7129
  597TMC3    H1 8853   2.886   3.663  17.097 -1.0007  1.0048  1.1825
  597TMC3    H2 8854   2.738   3.969  16.832 -0.1153  0.5651  0.7834
  597TMC3    C7 8855   2.681   3.805  17.059 -0.2026 -0.3528 -0.1548
  597TMC3    C8 8856   2.945   3.997  16.686 -0.6957 -0.0955 -0.5562
  597TMC3    O1 8857   2.679   3.719  17.148  1.1085  0.4041  0.5597
  597TMC3    O2 8858   2.838   4.050  16.649  0.0114 -0.4631 -0.7799
  598TMC3    C1 8859   1.278   4.525  15.102 -0.4369  0.9311 -0.2728
  598TMC3    C2 8860   1.162   4.462  15.088  0.1405 -0.2866 -0.0502
  598TMC3    C3 8861   1.087   4.485  14.980 -0.0718 -0.2310  0.7257
  598TMC3    C4 8862   1.320   4.616  15.010 -0.4775 -0.4407  0.8285
  598TMC3    C5 8863   1.242   4.647  14.904 -0.3087 -0.0022  0.2573
  598TMC3    C6 8864   1.126   4.571  14.880  0.6975  0.1028  0.3539
  598TMC3     C 8865   1.332   4.521  15.235  0.4346 -0.3699 -0.1064
  598TMC3     O 8866   1.260   4.486  15.329  0.0127 -0.4388  0.3083
  598TMC3     H 8867   1.138   4.382  15.158  2.9375  0.8572  2.1910
  598TMC3    H1 8868   1.418   4.662  15.015 -0.5485 -0.2840  0.7665
  598TMC3    H2 8869   1.068   4.579  14.789  0.4985 -0.5286  0.4304
  598TMC3    C7 8870   1.285   0.019  14.797  0.6510 -0.1661  0.1447
  598TMC3    C8 8871   0.975   4.398  14.958 -0.1600  0.2008  0.1502
  598TMC3    O1 8872   1.210   0.021  14.700 -0.0435  0.4511  0.1296
  598TMC3    O2 8873   0.957   4.373  14.842  0.3388 -0.9608 -0.2123
  599MPD2     C 8874   1.428   2.351  16.147  0.3775 -0.8316 -0.7988
  599MPD2    C1 8875   1.382   2.222  16.129 -0.1544 -0.0263 -0.4962
  599MPD2    C2 8876   1.248   2.196  16.129 -0.0560  0.3449  0.0868
  599MPD2    C3 8877   1.161   2.304  16.152  0.4250  0.0801  0.3227
  599MPD2    C4 8878   1.207   2.438  16.164 -0.4769 -0.1117 -0.3859
  599MPD2    C5 8879   1.342   2.457  16.160  0.3182 -0.2587  0.0935
  599MPD2     H 8880   1.208   2.095  16.118  0.0146  0.1383  1.7052
  599MPD2    H1 8881   1.143   2.520  16.194  1.2402  1.1803 -0.2301
  599MPD2    H2 8882   1.536   2.360  16.154  0.1608 -2.2389  4.6497
  599MPD2    H3 8883   1.379   2.558  16.175 -0.6245  0.1265 -0.1617
  599MPD2     N 8884   1.016   2.282  16.158 -0.6497 -0.5524 -0.3486
  599MPD2    H5 8885   0.964   2.367  16.179  2.0472  1.2038 -0.7731
  599MPD2    N1 8886   1.484   2.125  16.115 -0.1045 -0.0119 -0.3876
  599MPD2    H7 8887   1.576   2.167  16.109  1.1001 -2.7027 -0.8843
  600TMC3    C1 8888   0.810   2.157  16.162 -0.6573  0.5865  0.4403
  600TMC3    C2 8889   0.764   2.029  16.149 -0.1878 -0.3263  0.2099
  600TMC3    C3 8890   0.644   1.996  16.211  0.0586 -0.4155 -0.0746
  600TMC3    C4 8891   0.742   2.249  16.234 -0.1781 -0.4880  0.0348
  600TMC3    C5 8892   0.624   2.211  16.295 -0.0746 -0.8870 -0.3023
  600TMC3    C6 8893   0.577   2.084  16.297 -0.4459 -0.1877 -0.1624
  600TMC3     C 8894   0.953   2.162  16.149  0.3216  0.0857  0.4097
  600TMC3     O 8895   1.003   2.051  16.148 -0.1899 -0.0455  0.1566
  600TMC3     H 8896   0.802   1.962  16.072  2.8001  0.9470  0.5523
  600TMC3    H1 8897   0.764   2.355  16.243 -3.0634 -0.0735  1.8809
  600TMC3    H2 8898   0.495   2.050  16.359  0.2168 -1.4402  0.0281
  600TMC3    C7 8899   0.573   2.314  16.393  0.6366  0.2485 -0.3198
  600TMC3    C8 8900   0.598   1.867  16.196  0.9399 -0.6055 -0.6315
  600TMC3    O1 8901   0.606   2.429  16.376  0.5773  0.0878 -0.3178
  600TMC3    O2 8902   0.684   1.780  16.192  0.2959  0.5552 -0.7659
  601MPD2     C 8903   3.788   4.577  17.450 -0.0173  0.0185  0.2077
  601MPD2    C1 8904   3.654   4.555  17.431 -0.1887  0.2701  0.5887
  601MPD2    C2 8905   3.612   4.435  17.374  0.0440  0.6175 -0.6137
  601MPD2    C3 8906   3.706   4.333  17.352  0.7364  0.1388 -0.1605
  601MPD2    C4 8907   3.834   4.350  17.388 -0.8335 -0.3320 -0.8283
  601MPD2    C5 8908   3.871   4.472  17.436 -0.5137  0.4501  0.2053
  601MPD2     H 8909   3.505   4.428  17.363  0.1328  0.0333 -1.0956
  601MPD2    H1 8910   3.904   4.267  17.393 -2.2571 -1.5306 -0.5383
  601MPD2    H2 8911   3.833   4.675  17.463  0.7862 -0.4799  1.1848
  601MPD2    H3 8912   3.975   4.482  17.466 -1.3577  2.5781  2.4160
  601MPD2     N 8913   3.670   4.203  17.297 -0.1959  0.1079 -0.2394
  601MPD2    H5 8914   3.730   4.122  17.305  0.9100  0.9632  0.1365
  601MPD2    N1 8915   3.554   4.653  17.446  0.5630 -0.0747 -0.1908
  601MPD2    H7 8916   3.460   4.631  17.414  0.3565 -0.1793  0.4897
  602TMC3    C1 8917   3.444   0.128  17.503 -0.6719 -0.7712  0.3743
  602TMC3    C2 8918   3.461   0.264  17.506  0.8064  0.2307 -0.0064
  602TMC3    C3 8919   3.353   0.344  17.526  0.3390  0.0236 -0.2340
  602TMC3    C4 8920   3.326   0.068  17.526  0.1851 -0.7140 -0.4256
  602TMC3    C5 8921   3.220   0.152  17.554  0.3263 -0.2452  0.2404
  602TMC3    C6 8922   3.225   0.290  17.545 -0.1233  0.0655 -0.4269
  602TMC3     C 8923   3.567   0.051  17.504  0.0794 -0.0473 -0.6407
  602TMC3     O 8924   3.661   0.098  17.564  0.1009  0.0551  0.4529
  602TMC3     H 8925   3.560   0.305  17.489  0.6307  0.6823  0.0781
  602TMC3    H1 8926   3.320   4.683  17.528 -0.6012 -0.7026 -2.1676
  602TMC3    H2 8927   3.136   0.348  17.564  0.2796  0.9654 -1.2955
  602TMC3    C7 8928   3.091   0.094  17.578 -0.2759 -0.5538  0.3926
  602TMC3    C8 8929   3.372   0.486  17.487  0.1028  0.4836  0.1367
  602TMC3    O1 8930   3.094   4.708  17.627 -0.4834 -0.1756  0.3983
  602TMC3    O2 8931   3.486   0.514  17.444  0.6596  0.1539  0.3604
  603TMC3    C1 8932   1.307   0.923  11.250  0.1318 -0.2956 -0.0378
  603TMC3    C2 8933   1.330   0.857  11.368 -0.4736  0.1788 -0.1001
  603TMC3    C3 8934   1.456   0.888  11.420 -0.8227  0.2007 -0.0581
  603TMC3    C4 8935   1.396   0.981  11.170 -0.3463 -0.4168  0.4724
  603TMC3    C5 8936   1.522   0.988  11.225 -0.4905  0.0735 -0.9983
  603TMC3    C6 8937   1.552   0.953  11.355 -1.0964  0.0087  0.5344
  603TMC3     C 8938   1.183   0.888  11.188 -0.8891  0.4501  0.3479
  603TMC3     O 8939   1.177   0.872  11.064 -0.2884  0.2528  0.4610
  603TMC3     H 8940   1.257   0.810  11.433 -1.3215  1.2784 -0.2600
  603TMC3    H1 8941   1.360   1.030  11.080 -2.8312  0.0763  1.7444
  603TMC3    H2 8942   1.657   0.954  11.384 -1.0045 -4.1721  0.3600
  603TMC3    C7 8943   1.629   1.068  11.158  0.0293 -0.5433 -0.6754
  603TMC3    C8 8944   1.480   0.827  11.555  0.0313 -1.0900  0.2979
  603TMC3    O1 8945   1.721   1.107  11.230  0.0692 -0.4922 -0.5484
  603TMC3    O2 8946   1.401   0.741  11.597 -0.1412  0.1642  0.0864
  604MPD2     C 8947   1.789   4.419  15.733 -1.3953 -0.1860 -0.3997
  604MPD2    C1 8948   1.859   4.373  15.846 -0.1424 -0.8757  0.4112
  604MPD2    C2 8949   1.930   4.251  15.830  0.4034 -0.4907 -0.4875
  604MPD2    C3 8950   1.936   4.182  15.714 -0.2355  0.3762  0.3264
  604MPD2    C4 8951   1.863   4.230  15.608 -0.2318 -0.3326  0.3024
  604MPD2    C5 8952   1.790   4.343  15.619 -0.2191  0.1286 -0.5736
  604MPD2     H 8953   1.974   4.212  15.921 -0.0353  0.8667  0.3132
  604MPD2    H1 8954   1.859   4.175  15.515  0.9707 -0.0888  0.0990
  604MPD2    H2 8955   1.726   4.506  15.728  1.2700  1.7854  0.4998
  604MPD2    H3 8956   1.724   4.377  15.541  0.4039  1.5542 -0.4774
  604MPD2     N 8957   1.999   4.055  15.718  0.7622  0.7719 -0.0532
  604MPD2    H5 8958   2.037   4.031  15.809 -0.0962  0.0425  0.1190
  604MPD2    N1 8959   1.855   4.448  15.967 -0.5970  0.3582  0.1079
  604MPD2    H7 8960   1.815   4.541  15.954 -0.5132  0.0739 -2.1912
  605TMC3    C1 8961   1.884   4.508  16.191  0.6425  0.8046 -0.4388
  605TMC3    C2 8962   1.988   4.540  16.272  1.0150  0.1035  0.4337
  605TMC3    C3 8963   1.976   4.626  16.376  0.3187 -0.1771 -1.3155
  605TMC3    C4 8964   1.764   4.564  16.199  0.1582  0.1516 -1.0237
  605TMC3    C5 8965   1.756   4.648  16.311  0.0809  0.0238  0.8246
  605TMC3    C6 8966   1.855   4.692  16.396  0.1346 -0.0727  0.0450
  605TMC3     C 8967   1.910   4.413  16.085  0.8758  0.0522 -0.0340
  605TMC3     O 8968   1.966   4.312  16.122  0.3443  0.4991  0.2346
  605TMC3     H 8969   2.085   4.505  16.238 -0.6194  0.2467 -4.3145
  605TMC3    H1 8970   1.683   4.540  16.131 -1.5572  0.7403  0.8051
  605TMC3    H2 8971   1.830   0.034  16.479  1.1454  1.5591 -0.9443
  605TMC3    C7 8972   1.620   4.694  16.336 -0.2156  0.4262 -0.4266
  605TMC3    C8 8973   2.097   4.649  16.455  0.0395  0.1378  0.4323
  605TMC3    O1 8974   1.606   0.085  16.375 -0.0561 -0.1396  0.1444
  605TMC3    O2 8975   2.196   4.600  16.407 -0.3465  0.5399 -0.5305
  606TMC3    C1 8976   3.274   2.047  17.493  0.2451  0.0129 -0.4614
  606TMC3    C2 8977   3.410   2.018  17.488  0.0295  0.4251  0.3520
  606TMC3    C3 8978   3.488   2.059  17.589  0.1121 -0.7463  0.7948
  606TMC3    C4 8979   3.210   2.112  17.595  0.8299 -0.4777 -0.7976
  606TMC3    C5 8980   3.292   2.145  17.689 -0.1792  0.0413  0.7346
  606TMC3    C6 8981   3.428   2.124  17.691  0.2182 -0.3515 -0.0041
  606TMC3     C 8982   3.208   2.026  17.363 -0.1257  0.2808  0.2059
  606TMC3     O 8983   3.253   1.938  17.290  0.4277  0.3886 -0.1515
  606TMC3     H 8984   3.446   1.964  17.401 -1.5604  0.7268 -0.4913
  606TMC3    H1 8985   3.102   2.098  17.600  0.6588  1.5864  1.3530
  606TMC3    H2 8986   3.482   2.165   0.081 -1.2385 -1.7641  1.5966
  606TMC3    C7 8987   3.227   2.210   0.112 -0.7783  0.8270 -0.1874
  606TMC3    C8 8988   3.634   2.085  17.573 -0.5159 -0.7488  0.0342
  606TMC3    O1 8989   3.289   2.212   0.215  0.2814 -0.1041  0.4501
  606TMC3    O2 8990   3.688   2.140  17.667  0.3504  0.2064 -0.3628
  607MPD2     C 8991   0.828   0.850  11.699  0.1948  0.1469  0.2109
  607MPD2    C1 8992   0.869   0.948  11.786 -0.3734  0.7148 -0.3968
  607MPD2    C2 8993   0.800   0.963  11.906  0.5042 -0.1813 -0.6236
  607MPD2    C3 8994   0.689   0.889  11.936  0.5654  0.0028 -0.0423
  607MPD2    C4 8995   0.646   0.787  11.851 -0.3352  0.3552  0.3488
  607MPD2    C5 8996   0.716   0.767  11.736  0.5697  0.1538 -0.0014
  607MPD2     H 8997   0.835   1.039  11.974 -0.6988 -0.3387  0.1769
  607MPD2    H1 8998   0.561   0.723  11.873  0.0020  0.4497  1.9189
  607MPD2    H2 8999   0.876   0.821  11.606  1.0363 -0.9028  0.9650
  607MPD2    H3 9000   0.698   0.675  11.682  1.1808  0.7617 -1.2427
  607MPD2     N 9001   0.641   0.912  12.068  0.1322 -0.3775 -0.0950
  607MPD2    H5 9002   0.684   0.982  12.127 -2.3268  0.5038  0.6389
  607MPD2    N1 9003   0.973   1.039  11.757 -0.0371 -0.9615 -0.3452
  607MPD2    H7 9004   0.978   1.119  11.819  1.8500  0.2816 -2.0956
  608TMC3    C1 9005   1.182   1.111  11.675 -0.2777 -0.9182  0.6310
  608TMC3    C2 9006   1.220   1.131  11.803  0.0794 -0.1514  0.4038
  608TMC3    C3 9007   1.307   1.236  11.833 -0.0446 -0.6325 -0.0620
  608TMC3    C4 9008   1.217   1.198  11.574 -1.2759 -0.0988  0.1632
  608TMC3    C5 9009   1.324   1.276  11.607  0.6561  0.3669  0.6281
  608TMC3    C6 9010   1.363   1.308  11.735 -0.1989  0.4853 -0.6164
  608TMC3     C 9011   1.064   1.023  11.658 -0.5388  0.1162  0.3748
  608TMC3     O 9012   1.047   0.987  11.541 -0.8571 -0.0824  0.4607
  608TMC3     H 9013   1.183   1.069  11.884 -0.9758  1.8796  1.4853
  608TMC3    H1 9014   1.188   1.181  11.471 -0.2318  2.2393 -0.5068
  608TMC3    H2 9015   1.432   1.387  11.762  3.2123 -2.7321  0.1948
  608TMC3    C7 9016   1.394   1.325  11.492  0.2448  0.0532 -0.4473
  608TMC3    C8 9017   1.319   1.285  11.971  0.0708  0.5443 -1.0810
  608TMC3    O1 9018   1.342   1.296  11.385  0.3494  0.1306  0.0664
  608TMC3    O2 9019   1.408   1.365  11.997 -0.3868 -0.2254 -0.0464
  609TMC3    C1 9020   4.718   4.714   8.803  0.0428 -0.1020  1.0716
  609TMC3    C2 9021   4.659   0.006   8.680  0.3806 -0.3184 -0.7278
  609TMC3    C3 9022   0.023   4.694   8.575 -0.1088 -0.3560  0.2675
  609TMC3    C4 9023   0.116   4.668   8.833  0.2317 -1.1024  0.1800
  609TMC3    C5 9024   0.187   4.612   8.735 -0.5503  0.0349 -0.2093
  609TMC3    C6 9025   0.149   4.639   8.602 -0.0988 -0.3019 -0.1017
  609TMC3     C 9026   4.651   0.068   8.905 -0.2300 -0.7108 -0.0780
  609TMC3     O 9027   4.540   0.109   8.881 -0.8888  0.7233  0.3168
  609TMC3     H 9028   4.571   0.066   8.661  0.6747  0.6253  0.8392
  609TMC3    H1 9029   0.152   4.644   8.932 -0.5533 -0.6470  0.5779
  609TMC3    H2 9030   0.226   4.633   8.526 -1.4966 -0.2792 -1.5095
  609TMC3    C7 9031   0.323   4.557   8.762  0.0415  0.2254 -0.4669
  609TMC3    C8 9032   4.687   4.690   8.446 -0.8052  0.0643  0.7090
  609TMC3    O1 9033   0.360   4.586   8.874  0.1389  0.1592 -0.3729
  609TMC3    O2 9034   4.575   0.012   8.424  1.0339  0.7478 -0.5758
  610TMC3    C1 9035   0.656   0.726  13.430  0.4237 -0.5753 -0.1726
  610TMC3    C2 9036   0.659   0.728  13.290 -0.0728 -0.1189  0.0818
  610TMC3    C3 9037   0.779   0.724  13.223 -0.3624 -0.0706 -0.1691
  610TMC3    C4 9038   0.770   0.712  13.502 -0.2682  0.1272  0.0544
  610TMC3    C5 9039   0.888   0.727  13.435  0.8775  0.4618  0.3960
  610TMC3    C6 9040   0.893   0.729  13.295 -0.4282 -0.0669  0.3949
  610TMC3     C 9041   0.531   0.746  13.507 -0.0485 -0.3789  0.2480
  610TMC3     O 9042   0.526   0.721  13.624  0.4333 -0.1549 -0.2072
  610TMC3     H 9043   0.570   0.713  13.230  1.3153  2.4679 -2.5840
  610TMC3    H1 9044   0.768   0.693  13.609 -1.7947  1.2732  0.2369
  610TMC3    H2 9045   0.990   0.751  13.252 -0.0314  0.9808  1.8447
  610TMC3    C7 9046   1.017   0.743  13.499 -0.5466  0.6006  0.0152
  610TMC3    C8 9047   0.788   0.784  13.091  0.2571 -0.3408 -0.1835
  610TMC3    O1 9048   1.120   0.713  13.445 -0.0078  0.1898  0.0895
  610TMC3    O2 9049   0.692   0.843  13.050  0.1890  0.2391  1.0341
  611MPD2     C 9050   1.049   0.940   9.826 -0.4724 -0.3853 -0.4365
  611MPD2    C1 9051   1.087   0.877   9.947  0.3350 -0.2936  0.2485
  611MPD2    C2 9052   1.179   0.935  10.028  1.0188  0.4515  0.8500
  611MPD2    C3 9053   1.251   1.045   9.981  0.5697 -1.1104  0.3371
  611MPD2    C4 9054   1.228   1.097   9.854 -0.0853  0.0992  0.2756
  611MPD2    C5 9055   1.120   1.043   9.781  0.1675 -0.0853  0.0950
  611MPD2     H 9056   1.211   0.881  10.116  0.2540  0.8912  1.4031
  611MPD2    H1 9057   1.288   1.176   9.811 -2.3729  1.8175  0.1972
  611MPD2    H2 9058   0.963   0.904   9.772 -1.1578  2.0527 -0.9462
  611MPD2    H3 9059   1.099   1.092   9.687 -1.1560 -1.7790 -0.4887
  611MPD2     N 9060   1.367   1.106  10.044 -0.1158  0.5328  0.2640
  611MPD2    H5 9061   1.420   1.174   9.990 -0.5924  1.1930  0.6377
  611MPD2    N1 9062   1.004   0.769   9.984 -0.2583 -0.6034 -0.3728
  611MPD2    H7 9063   0.945   0.746   9.905  1.2436 -0.8571 -1.4219
  612TMC3    C1 9064   1.534   1.135  10.199 -0.0863 -0.0303 -0.1885
  612TMC3    C2 9065   1.563   1.176  10.327  0.4815 -0.4163 -0.4705
  612TMC3    C3 9066   1.674   1.256  10.339 -0.0956  0.0051 -0.7308
  612TMC3    C4 9067   1.610   1.182  10.092  0.3347 -0.6447 -0.2910
  612TMC3    C5 9068   1.724   1.259  10.111 -0.6716 -0.0496 -0.5048
  612TMC3    C6 9069   1.760   1.293  10.240 -0.2534  0.7193  0.9057
  612TMC3     C 9070   1.403   1.079  10.172  0.3497 -0.3092 -0.0367
  612TMC3     O 9071   1.349   1.012  10.258 -0.1131 -0.2627  0.3335
  612TMC3     H 9072   1.488   1.157  10.402 -0.0754  1.9887 -0.4288
  612TMC3    H1 9073   1.592   1.154   9.989  2.4815 -0.4163 -0.7257
  612TMC3    H2 9074   1.854   1.344  10.257 -0.3582  1.0332  0.5401
  612TMC3    C7 9075   1.796   1.314   9.997  0.5866 -0.0096  0.1415
  612TMC3    C8 9076   1.720   1.308  10.469 -0.0038  0.3270  0.0421
  612TMC3    O1 9077   1.739   1.332   9.891  0.9141  0.0596  0.1433
  612TMC3    O2 9078   1.788   1.408  10.472 -0.2144  0.8594  0.1029
  613MPD2     C 9079   4.534   3.245  16.778  0.2929 -0.1010 -0.0172
  613MPD2    C1 9080   4.498   3.138  16.708 -0.0403  0.3358  0.0922
  613MPD2    C2 9081   4.380   3.078  16.742 -0.1889  0.3963 -0.3545
  613MPD2    C3 9082   4.304   3.131  16.842 -0.4663 -0.0935  0.0312
  613MPD2    C4 9083   4.347   3.237  16.921 -0.1983 -0.4181 -0.4229
  613MPD2    C5 9084   4.458   3.296  16.879 -0.1186  0.0425  0.2257
  613MPD2     H 9085   4.338   3.000  16.680  0.1259  0.8412 -1.1185
  613MPD2    H1 9086   4.295   3.286  17.002  1.4624  0.1951  0.2652
  613MPD2    H2 9087   4.632   3.287  16.758  0.7413 -1.7260 -1.2175
  613MPD2    H3 9088   4.492   3.377  16.944  0.3630 -0.1825  0.2550
  613MPD2     N 9089   4.174   3.084  16.880 -0.3691  0.4706 -0.5853
  613MPD2    H5 9090   4.110   3.149  16.925 -0.8040 -0.0279 -0.4860
  613MPD2    N1 9091   4.580   3.107  16.592  0.0584  0.0654  0.0229
  613MPD2    H7 9092   4.656   3.172  16.578 -1.6046  1.4987 -2.1758
  614TMC3    C1 9093   4.639   2.989  16.391  0.1711 -0.6627  0.1665
  614TMC3    C2 9094   4.601   2.876  16.324  0.3206  0.4764  0.2713
  614TMC3    C3 9095   4.551   2.888  16.198  0.1233 -0.5236  0.2528
  614TMC3    C4 9096   4.637   3.111  16.334  0.1448  0.1232 -0.4499
  614TMC3    C5 9097   4.600   3.116  16.200 -0.5018  0.6074 -0.7519
  614TMC3    C6 9098   4.549   3.006  16.130  0.4750 -0.0999 -0.1940
  614TMC3     C 9099   4.565   2.990  16.520 -0.1028  0.2574 -0.4293
  614TMC3     O 9100   4.480   2.906  16.528 -0.2298 -0.1361  0.3415
  614TMC3     H 9101   4.618   2.781  16.374  0.3701  0.2613 -0.1432
  614TMC3    H1 9102   4.663   3.205  16.381  2.4610  0.3886 -2.2091
  614TMC3    H2 9103   4.514   3.012  16.027  0.3014 -0.7236 -0.1676
  614TMC3    C7 9104   4.608   3.245  16.147 -1.1405  0.0641  0.2093
  614TMC3    C8 9105   4.443   2.800  16.174 -0.2733  0.4304  0.3946
  614TMC3    O1 9106   4.701   3.312  16.178  0.3339  0.7486  0.0778
  614TMC3    O2 9107   4.408   2.785  16.059  0.0633 -0.0249 -0.0469
  615MPD2     C 9108   3.855   4.413  16.290 -0.8706 -0.4551 -0.1606
  615MPD2    C1 9109   3.771   4.491  16.207  0.7413 -0.0442 -0.6393
  615MPD2    C2 9110   3.681   4.416  16.139  0.1518 -0.1777  0.1762
  615MPD2    C3 9111   3.680   4.280  16.144 -0.2301  0.7010 -0.0526
  615MPD2    C4 9112   3.766   4.212  16.233 -0.8931  0.5831 -0.4114
  615MPD2    C5 9113   3.861   4.285  16.296  0.4401 -0.0513  0.3275
  615MPD2     H 9114   3.607   4.469  16.080 -0.8501  0.0279  1.5882
  615MPD2    H1 9115   3.769   4.105  16.251  2.9823  0.2805 -2.7808
  615MPD2    H2 9116   3.918   4.470  16.358  1.2393 -0.5009 -2.0771
  615MPD2    H3 9117   3.929   4.236  16.365  1.7363  2.2532  0.6785
  615MPD2     N 9118   3.586   4.193  16.075  0.5437  0.1239  0.0895
  615MPD2    H5 9119   3.602   4.093  16.069  0.8806  0.1835  0.0221
  615MPD2    N1 9120   3.772   4.632  16.192  0.2263 -0.2520  0.1606
  615MPD2    H7 9121   3.692   4.679  16.151  1.9203  0.8850 -1.8675
  616TMC3    C1 9122   3.833   0.139  16.214  0.3202 -0.6234  0.1856
  616TMC3    C2 9123   3.869   0.227  16.309  0.0934  0.1620 -0.3482
  616TMC3    C3 9124   3.809   0.348  16.297  0.6264 -0.5288 -0.3703
  616TMC3    C4 9125   3.763   0.177  16.102  0.2752 -0.2814  0.1957
  616TMC3    C5 9126   3.709   0.303  16.094 -0.1544 -0.2575 -0.2147
  616TMC3    C6 9127   3.720   0.386  16.203  0.2689 -0.8472  0.0426
  616TMC3     C 9128   3.865   4.721  16.241 -0.8278  0.1768  0.2827
  616TMC3     O 9129   3.958   4.698  16.318  0.3027  0.7837  0.0099
  616TMC3     H 9130   3.930   0.198  16.394 -0.1275  3.8494  1.0739
  616TMC3    H1 9131   3.749   0.101  16.026 -1.1602 -0.3071  0.4830
  616TMC3    H2 9132   3.678   0.486  16.207  1.2997 -0.3547 -1.5402
  616TMC3    C7 9133   3.601   0.326  15.997  0.1060  0.9443 -0.1262
  616TMC3    C8 9134   3.852   0.454  16.386 -1.0045 -0.0119  0.0825
  616TMC3    O1 9135   3.545   0.225  15.953 -0.4332 -0.1187 -0.5941
  616TMC3    O2 9136   3.768   0.540  16.406  0.0641 -0.2525  0.2153
  617MPD2     C 9137   1.927   2.410  13.767 -0.4057  0.2329  0.2791
  617MPD2    C1 9138   1.953   2.366  13.896 -0.2864 -1.1960 -0.0584
  617MPD2    C2 9139   1.847   2.349  13.981  0.5050 -0.3975 -0.9620
  617MPD2    C3 9140   1.720   2.385  13.941 -0.0913  0.6415  0.4010
  617MPD2    C4 9141   1.694   2.418  13.810 -0.7519 -0.1894  0.7060
  617MPD2    C5 9142   1.798   2.423  13.718  0.5930  0.4723 -0.5024
  617MPD2     H 9143   1.870   2.331  14.085  1.7373  2.4716 -0.7329
  617MPD2    H1 9144   1.593   2.429  13.772 -0.2877  1.0831 -0.1842
  617MPD2    H2 9145   2.003   2.433  13.693 -0.5293 -1.5931 -0.4311
  617MPD2    H3 9146   1.789   2.444  13.612  0.7585  1.5225 -0.3074
  617MPD2     N 9147   1.612   2.398  14.029  0.1462 -0.0556  0.7887
  617MPD2    H5 9148   1.519   2.426  13.998 -1.0420 -1.2620  3.2573
  617MPD2    N1 9149   2.092   2.350  13.928 -0.1288 -0.4565 -0.2302
  617MPD2    H7 9150   2.155   2.373  13.852 -0.6536 -0.6629 -0.7283
  618TMC3    C1 9151   2.284   2.327  14.034  0.0061  0.7151 -0.4141
  618TMC3    C2 9152   2.370   2.225  14.042  0.9487 -0.3936  0.4846
  618TMC3    C3 9153   2.502   2.253  14.006 -0.2691  0.4160  0.7464
  618TMC3    C4 9154   2.319   2.456  13.989 -0.2582 -0.4496 -0.1118
  618TMC3    C5 9155   2.457   2.480  13.961 -0.5368 -0.4760  0.4643
  618TMC3    C6 9156   2.542   2.372  13.959  0.4469 -0.2976 -0.3100
  618TMC3     C 9157   2.148   2.299  14.039  0.5832  0.3793  0.3628
  618TMC3     O 9158   2.101   2.210  14.110 -0.3973 -0.1363 -0.3784
  618TMC3     H 9159   2.335   2.127  14.071 -1.6170  1.1174  2.4424
  618TMC3    H1 9160   2.253   2.539  13.969 -0.4653 -0.5675  0.0824
  618TMC3    H2 9161   2.647   2.394  13.942  0.7095 -0.1981  1.4896
  618TMC3    C7 9162   2.511   2.609  13.916  0.8913  0.4435 -0.5390
  618TMC3    C8 9163   2.603   2.154  13.995  0.8487 -0.9612  0.1900
  618TMC3    O1 9164   2.475   2.704  13.979 -0.2816  0.4924 -0.0614
  618TMC3    O2 9165   2.649   2.102  14.098 -0.2747  0.1203 -0.2065
  619MPD2     C 9166   3.479   3.895  13.504  0.6509 -0.9982  0.6391
  619MPD2    C1 9167   3.350   3.912  13.467 -0.6861 -0.0782  0.5566
  619MPD2    C2 9168   3.254   3.842  13.534 -0.1951 -1.0340 -0.7030
  619MPD2    C3 9169   3.284   3.748  13.629  0.1256 -0.0621  0.2037
  619MPD2    C4 9170   3.421   3.727  13.660 -0.0128 -0.2598  0.4874
  619MPD2    C5 9171   3.513   3.807  13.601  0.4682 -0.1709 -0.0655
  619MPD2     H 9172   3.151   3.868  13.512 -0.4030 -2.5335 -1.4417
  619MPD2    H1 9173   3.460   3.657  13.734 -2.5941  0.5929  2.6752
  619MPD2    H2 9174   3.562   3.955  13.468  0.1950 -0.9506 -0.3322
  619MPD2    H3 9175   3.614   3.800  13.641  0.4197 -0.4146  0.0103
  619MPD2     N 9176   3.184   3.673  13.689 -0.1830 -0.6333  0.1902
  619MPD2    H5 9177   3.091   3.701  13.659 -0.6023 -2.6595 -0.4197
  619MPD2    N1 9178   3.314   4.010  13.374  0.9157  0.1044  0.3940
  619MPD2    H7 9179   3.214   4.025  13.364  0.6507 -0.6483  1.9088
  620TMC3    C1 9180   3.343   4.175  13.198 -0.0665 -0.4218  0.3206
  620TMC3    C2 9181   3.206   4.179  13.180 -0.4049  0.2203 -0.2938
  620TMC3    C3 9182   3.154   4.302  13.144  0.2325  0.4198 -0.2733
  620TMC3    C4 9183   3.426   4.283  13.176 -0.3423 -0.2194 -0.5024
  620TMC3    C5 9184   3.364   4.405  13.151 -0.7028 -0.0197  0.1898
  620TMC3    C6 9185   3.232   4.416  13.122  0.0531 -0.3881 -0.0872
  620TMC3     C 9186   3.402   4.084  13.292  0.2086  0.4709  0.3127
  620TMC3     O 9187   3.523   4.085  13.286  0.6041  0.7181  0.3412
  620TMC3     H 9188   3.142   4.094  13.200  0.9041 -0.5936  0.4280
  620TMC3    H1 9189   3.533   4.274  13.165 -0.2783 -1.3531  1.1218
  620TMC3    H2 9190   3.184   4.507  13.089 -3.2102 -0.8597  3.4025
  620TMC3    C7 9191   3.393   4.506  13.253 -1.0923  0.1689  0.7421
  620TMC3    C8 9192   3.042   4.336  13.227 -0.1933  0.5610 -0.2031
  620TMC3    O1 9193   3.311   4.589  13.271  0.4331  0.0156  0.3227
  620TMC3    O2 9194   2.961   4.246  13.254 -0.1480 -0.4619 -0.2815
  621MPD2     C 9195   3.942   3.698  10.109  0.0179  0.4466  0.4701
  621MPD2    C1 9196   4.014   3.682   9.987  0.0636  0.7944  0.8039
  621MPD2    C2 9197   4.099   3.793   9.955 -0.5859 -0.3187 -0.1335
  621MPD2    C3 9198   4.103   3.910  10.032 -0.2596 -0.8253 -0.0406
  621MPD2    C4 9199   4.035   3.916  10.154 -0.6478  0.3088 -0.4782
  621MPD2    C5 9200   3.959   3.802  10.189  0.2696  0.1303  0.1577
  621MPD2     H 9201   4.147   3.796   9.858 -1.0717  1.3805 -0.3297
  621MPD2    H1 9202   4.048   3.997  10.225 -1.3070  0.4979 -0.5754
  621MPD2    H2 9203   3.874   3.623  10.148 -0.9045 -0.6505 -3.2063
  621MPD2    H3 9204   3.915   3.802  10.288 -0.4360  2.1071 -0.1630
  621MPD2     N 9205   4.172   4.022   9.974 -0.1128  0.0815  0.4085
  621MPD2    H5 9206   4.231   4.006   9.893 -0.3955  0.2703  0.1666
  621MPD2    N1 9207   4.003   3.570   9.903  0.3758 -0.1654 -0.3788
  621MPD2    H7 9208   4.037   3.586   9.809 -1.2207 -0.6214 -1.0251
  622TMC3    C1 9209   3.910   3.369   9.820 -0.1646  0.7739 -0.1988
  622TMC3    C2 9210   3.828   3.261   9.855  0.2763  0.3122 -0.3905
  622TMC3    C3 9211   3.748   3.199   9.755  0.0295  0.4655 -0.6890
  622TMC3    C4 9212   3.901   3.420   9.698 -0.4842  0.1576  0.4855
  622TMC3    C5 9213   3.823   3.355   9.606 -1.3243 -0.1570  0.8498
  622TMC3    C6 9214   3.744   3.247   9.629  0.6208  0.0044  0.2590
  622TMC3     C 9215   3.949   3.447   9.934 -0.1395 -0.5882  0.0217
  622TMC3     O 9216   3.911   3.399  10.039  0.2690  0.4592  0.3104
  622TMC3     H 9217   3.840   3.206   9.948  1.6258  1.1009 -0.0931
  622TMC3    H1 9218   3.967   3.503   9.676 -0.3397 -0.2530 -0.6645
  622TMC3    H2 9219   3.676   3.214   9.551  0.0121 -0.3700  0.9500
  622TMC3    C7 9220   3.833   3.386   9.464  0.5554  0.4548 -0.1638
  622TMC3    C8 9221   3.621   3.170   9.804 -0.4655 -0.2858  0.0424
  622TMC3    O1 9222   3.806   3.305   9.377  0.4035  0.3943 -0.6615
  622TMC3    O2 9223   3.537   3.102   9.743 -0.0253 -0.1820  0.8888
  623MPD2     C 9224   2.553   0.314  15.619  0.0673 -0.4898  0.0110
  623MPD2    C1 9225   2.475   0.240  15.703 -0.5500 -0.4509  0.0459
  623MPD2    C2 9226   2.510   0.197  15.825  0.2391  0.6195 -0.2982
  623MPD2    C3 9227   2.639   0.221  15.869 -0.0989 -0.2264 -0.1190
  623MPD2    C4 9228   2.728   0.288  15.780 -0.7936  0.0388 -0.2717
  623MPD2    C5 9229   2.681   0.335  15.656  0.2881  0.4675 -0.6572
  623MPD2     H 9230   2.442   0.144  15.891  2.0070  0.9936  1.7779
  623MPD2    H1 9231   2.835   0.296  15.790 -0.5894 -1.7547 -1.0051
  623MPD2    H2 9232   2.521   0.363  15.528 -0.8147 -1.5608 -0.2616
  623MPD2    H3 9233   2.754   0.379  15.590  1.8505  1.0174  1.4264
  623MPD2     N 9234   2.665   0.191  15.998 -0.1992  0.1375 -0.1192
  623MPD2    H5 9235   2.587   0.172  16.061  0.9048 -0.5485  1.0458
  623MPD2    N1 9236   2.343   0.202  15.665  0.2817 -0.9449  0.3734
  623MPD2    H7 9237   2.285   0.155  15.734 -2.2815 -0.4140 -1.3776
  624TMC3    C1 9238   2.863   0.077  16.393 -0.4526 -0.2967  0.2390
  624TMC3    C2 9239   2.764   0.132  16.464 -0.4781  0.2963  0.2926
  624TMC3    C3 9240   2.668   0.202  16.399 -0.3617  0.2554 -0.5901
  624TMC3    C4 9241   2.876   0.099  16.261 -0.0272  0.0609  0.1983
  624TMC3    C5 9242   2.776   0.170  16.194 -0.0634  0.4168  0.6485
  624TMC3    C6 9243   2.675   0.230  16.264 -0.0539  0.8942 -0.3335
  624TMC3     C 9244   2.962   0.007  16.470 -0.0302 -0.1924 -0.1998
  624TMC3     O 9245   2.951   4.720  16.590  0.6320  0.2658  0.5866
  624TMC3     H 9246   2.756   0.108  16.569 -1.7178 -1.1964 -0.1475
  624TMC3    H1 9247   2.969   0.072  16.212 -1.4459  0.0875 -2.5216
  624TMC3    H2 9248   2.591   0.286  16.224  0.6148  3.3795  1.7938
  624TMC3    C7 9249   2.788   0.203  16.060 -0.0351 -0.1849  1.3184
  624TMC3    C8 9250   2.531   0.201  16.456  0.5974  0.3058 -0.1897
  624TMC3    O1 9251   2.898   0.217  16.009 -0.4622 -0.3876 -0.2542
  624TMC3    O2 9252   2.443   0.209  16.367  0.1007 -0.1440  0.8033
  625MPD2     C 9253   2.538   0.574   0.445  0.4900 -0.4633  0.5609
  625MPD2    C1 9254   2.602   0.684   0.496 -0.6264 -0.0419 -0.5238
  625MPD2    C2 9255   2.736   0.673   0.542 -0.5580  0.1580  0.2255
  625MPD2    C3 9256   2.812   0.557   0.524 -0.4126 -0.4447 -0.3395
  625MPD2    C4 9257   2.745   0.444   0.470  0.3073  0.1860 -0.4421
  625MPD2    C5 9258   2.608   0.459   0.445 -0.8522  0.0354  0.6434
  625MPD2     H 9259   2.785   0.751   0.600 -0.1110 -0.0313  0.1068
  625MPD2    H1 9260   2.789   0.348   0.447  0.5004  0.4440 -1.1624
  625MPD2    H2 9261   2.434   0.574   0.416  0.9273 -0.3556 -1.0039
  625MPD2    H3 9262   2.547   0.370   0.433 -2.1501  1.3622 -2.5447
  625MPD2     N 9263   2.949   0.556   0.565 -0.4710 -0.1385 -0.2983
  625MPD2    H5 9264   2.988   0.646   0.590  0.8285 -0.7566 -0.0494
  625MPD2    N1 9265   2.538   0.815   0.509 -0.0177 -0.1237 -0.6169
  625MPD2    H7 9266   2.598   0.888   0.547  1.0499 -0.9958 -0.6011
  626TMC3    C1 9267   2.355   0.963   0.497 -0.0625  0.7006  0.0544
  626TMC3    C2 9268   2.266   1.012   0.409  0.3516  0.9605  0.0356
  626TMC3    C3 9269   2.184   1.115   0.465  1.0630 -0.2985 -0.2647
  626TMC3    C4 9270   2.389   1.014   0.617  0.4506  0.3817  0.6867
  626TMC3    C5 9271   2.318   1.124   0.663 -0.1478 -0.5019 -0.4140
  626TMC3    C6 9272   2.221   1.178   0.587 -0.7698 -0.6437  0.2890
  626TMC3     C 9273   2.417   0.839   0.457 -0.2622 -0.0790  0.2112
  626TMC3     O 9274   2.354   0.780   0.372  0.6088  0.2698  0.3428
  626TMC3     H 9275   2.257   0.975   0.307 -2.6392 -0.7224  0.9107
  626TMC3    H1 9276   2.454   0.963   0.688  0.8280  0.2873  0.2775
  626TMC3    H2 9277   2.160   1.254   0.635 -0.8030 -0.6150  0.2013
  626TMC3    C7 9278   2.316   1.143   0.807  0.8404  0.9114 -0.5728
  626TMC3    C8 9279   2.108   1.183   0.369  0.4813  0.5287  0.1704
  626TMC3    O1 9280   2.386   1.070   0.877  0.7269 -0.4927  0.4079
  626TMC3    O2 9281   2.122   1.150   0.253  0.5971  0.6502 -0.1063
  627MPD2     C 9282   1.205   1.419  14.810  0.4587 -0.2683  0.0237
  627MPD2    C1 9283   1.282   1.337  14.893  0.4770 -0.5812 -0.0723
  627MPD2    C2 9284   1.231   1.208  14.910 -0.1564  0.3878  0.5024
  627MPD2    C3 9285   1.127   1.154  14.835  0.2738 -0.2606  0.0551
  627MPD2    C4 9286   1.054   1.240  14.754  0.1586 -0.5422 -0.6731
  627MPD2    C5 9287   1.098   1.370  14.737 -0.3023  0.2760  0.1772
  627MPD2     H 9288   1.298   1.143  14.965 -1.8932 -1.2957  0.6138
  627MPD2    H1 9289   0.975   1.203  14.689 -0.0294  0.2269 -0.8832
  627MPD2    H2 9290   1.227   1.525  14.805  0.2171 -0.1849  0.8339
  627MPD2    H3 9291   1.039   1.436  14.675  1.4685 -0.5765 -2.3798
  627MPD2     N 9292   1.100   1.016  14.854  0.0642  0.3110  0.3786
  627MPD2    H5 9293   1.150   0.965  14.928 -1.9808  0.3885  1.8090
  627MPD2    N1 9294   1.404   1.383  14.951  0.1731  0.7096 -0.5713
  627MPD2    H7 9295   1.441   1.336  15.033 -1.3483  0.6529  0.0908
  628TMC3    C1 9296   1.597   1.510  14.976  0.3475 -0.1897 -0.0211
  628TMC3    C2 9297   1.674   1.407  15.020  0.2099 -0.5951 -0.2242
  628TMC3    C3 9298   1.801   1.440  15.064  0.2699  0.1398 -0.2795
  628TMC3    C4 9299   1.644   1.641  14.964 -0.0500  0.1362  0.4399
  628TMC3    C5 9300   1.767   1.671  15.020 -0.0261  0.4231 -0.3561
  628TMC3    C6 9301   1.846   1.572  15.079  0.2371 -0.2438  0.7791
  628TMC3     C 9302   1.484   1.481  14.892 -0.0597 -0.0312 -0.6559
  628TMC3     O 9303   1.467   1.550  14.792 -0.1014  0.5391 -0.7356
  628TMC3     H 9304   1.646   1.303  15.006 -0.7628 -0.6119  1.9332
  628TMC3    H1 9305   1.591   1.719  14.910 -1.6904 -0.0540  1.8042
  628TMC3    H2 9306   1.950   1.597  15.099 -0.4701  0.9559  2.9105
  628TMC3    C7 9307   1.839   1.786  14.968  0.1520 -0.2103 -0.1114
  628TMC3    C8 9308   1.898   1.350  15.019  0.0821  0.1795 -0.3000
  628TMC3    O1 9309   1.958   1.790  14.986 -0.1014 -0.1361  0.3290
  628TMC3    O2 9310   1.876   1.306  14.909 -0.2880  0.7185  0.4200
  629MPD2     C 9311   4.130   0.669  16.763  0.4134  0.4403  0.0575
  629MPD2    C1 9312   4.218   0.617  16.665 -0.5435  0.2415 -0.2298
  629MPD2    C2 9313   4.167   0.545  16.558  0.4500 -0.0288  0.0183
  629MPD2    C3 9314   4.028   0.524  16.545  0.0008  0.0070 -0.0050
  629MPD2    C4 9315   3.946   0.575  16.641 -0.1576  0.2229 -0.4708
  629MPD2    C5 9316   3.994   0.647  16.748  0.3490 -0.1027 -0.5295
  629MPD2     H 9317   4.231   0.493  16.488 -0.9119 -0.5520 -0.8372
  629MPD2    H1 9318   3.839   0.559  16.633 -0.2069  0.2060  0.2871
  629MPD2    H2 9319   4.170   0.722  16.848 -0.1278 -0.0547  0.6158
  629MPD2    H3 9320   3.930   0.684  16.827  1.5518  0.3662  0.2317
  629MPD2     N 9321   3.982   0.448  16.438 -0.0511  0.1331 -0.2075
  629MPD2    H5 9322   4.054   0.410  16.378 -1.0660 -0.2627 -1.1678
  629MPD2    N1 9323   4.356   0.650  16.678 -0.0742 -0.4439 -0.4476
  629MPD2    H7 9324   4.387   0.697  16.762 -1.4285 -2.5851  1.2346
  630TMC3    C1 9325   4.564   0.735  16.594  0.1549 -0.0123 -0.0483
  630TMC3    C2 9326   4.649   0.746  16.491  0.0883 -0.0355 -0.1712
  630TMC3    C3 9327   0.042   0.811  16.523  0.3616 -0.5674 -0.0438
  630TMC3    C4 9328   4.585   0.779  16.722 -0.0065  0.3378  0.4421
  630TMC3    C5 9329   4.705   0.831  16.750 -0.0563 -0.0821 -0.5598
  630TMC3    C6 9330   0.069   0.860  16.649  0.5648 -0.0684 -0.0679
  630TMC3     C 9331   4.445   0.653  16.572  0.1853  0.2843  0.5804
  630TMC3     O 9332   4.441   0.606  16.460  0.5297  0.7167  0.0292
  630TMC3     H 9333   4.630   0.720  16.387  2.7319  1.8393 -1.1325
  630TMC3    H1 9334   4.529   0.738  16.805 -2.2594  0.0259 -1.2160
  630TMC3    H2 9335   0.162   0.911  16.671  1.1003 -1.2468  0.3776
  630TMC3    C7 9336   4.700   0.906  16.875 -0.3490  0.3832  0.0066
  630TMC3    C8 9337   0.126   0.860  16.421  0.3528 -0.6021  0.4343
  630TMC3    O1 9338   4.590   0.942  16.913 -0.1615  0.5970  0.5189
  630TMC3    O2 9339   0.181   0.968  16.436  0.1946  0.1461  0.5110
  631MPD2     C 9340   2.722   4.235  15.456 -0.6166 -0.7134 -0.9477
  631MPD2    C1 9341   2.839   4.269  15.392 -0.2242 -0.2308  0.1724
  631MPD2    C2 9342   2.959   4.222  15.435  0.0565  0.1754 -0.3702
  631MPD2    C3 9343   2.963   4.141  15.544  0.6920  0.0034 -0.0846
  631MPD2    C4 9344   2.845   4.102  15.597  0.1618  1.1119 -0.1565
  631MPD2    C5 9345   2.721   4.148  15.560 -0.6655  0.2543 -0.4729
  631MPD2     H 9346   3.060   4.241  15.399 -1.1327  3.7299 -1.8666
  631MPD2    H1 9347   2.836   4.031  15.679 -0.9750  0.9700 -0.4087
  631MPD2    H2 9348   2.628   4.282  15.427 -1.1938 -0.3176  1.6068
  631MPD2    H3 9349   2.632   4.119  15.615  0.4866 -1.3037  0.5783
  631MPD2     N 9350   3.087   4.114  15.605  0.0794 -0.0762  0.9488
  631MPD2    H5 9351   3.167   4.144  15.550  0.3076 -2.5967 -0.1037
  631MPD2    N1 9352   2.831   4.368  15.294 -0.2749 -0.3439  0.1624
  631MPD2    H7 9353   2.740   4.404  15.267 -1.0800 -2.8609 -0.4939
  632TMC3    C1 9354   2.912   4.539  15.163 -0.2733  0.1388  0.6261
  632TMC3    C2 9355   2.847   4.637  15.233  0.0343  0.5186 -0.4866
  632TMC3    C3 9356   2.892   0.040  15.220  0.0978  0.5808  0.0909
  632TMC3    C4 9357   3.012   4.572  15.075 -0.4910  0.2134  0.3403
  632TMC3    C5 9358   3.054   4.699  15.064  0.5602 -0.1423 -0.1022
  632TMC3    C6 9359   2.989   0.074  15.127  0.1691 -0.6482 -0.1099
  632TMC3     C 9360   2.942   4.420  15.237  0.1580  0.0019  0.1004
  632TMC3     O 9361   3.061   4.383  15.228  0.1746  0.0954 -0.2759
  632TMC3     H 9362   2.762   4.601  15.292 -0.1080  1.0481 -0.3733
  632TMC3    H1 9363   3.064   4.487  15.034  0.3366  0.7145  0.3549
  632TMC3    H2 9364   3.014   0.175  15.097 -1.3019 -0.1354  0.4069
  632TMC3    C7 9365   3.168   0.023  14.982  0.4950 -0.4179 -0.1098
  632TMC3    C8 9366   2.807   0.139  15.262  0.0891 -0.6654  0.0497
  632TMC3    O1 9367   3.177   0.146  14.957  0.2862 -0.2149  0.0205
  632TMC3    O2 9368   2.689   0.105  15.252 -0.0572  0.3561  0.0301
  633MPD2     C 9369   2.474   3.250  17.460  0.3218  0.2971 -0.3214
  633MPD2    C1 9370   2.455   3.135  17.392  0.1712  0.6586  0.4862
  633MPD2    C2 9371   2.407   3.023  17.463 -0.2549  0.6310  0.2507
  633MPD2    C3 9372   2.413   3.027  17.602 -0.6023  0.0690  0.3901
  633MPD2    C4 9373   2.444   3.141  17.671 -0.2125  0.0926 -0.4053
  633MPD2    C5 9374   2.469   3.255  17.600  0.1734 -0.4995  0.5473
  633MPD2     H 9375   2.388   2.926  17.419  1.1879  0.6455 -0.3987
  633MPD2    H1 9376   2.441   3.156   0.084  1.1147 -2.1896 -0.0696
  633MPD2    H2 9377   2.514   3.342  17.418  2.7452 -0.4124  0.4610
  633MPD2    H3 9378   2.501   3.337  17.664  2.1052 -1.4466  0.8053
  633MPD2     N 9379   2.366   2.924  17.686 -0.5484  0.4253 -0.2455
  633MPD2    H5 9380   2.376   2.943   0.090  0.6063 -1.1171 -0.0619
  633MPD2    N1 9381   2.476   3.120  17.253 -0.3569 -0.2215 -0.5486
  633MPD2    H7 9382   2.458   3.031  17.207  0.8358 -0.2758 -0.9271
  634TMC3    C1 9383   2.523   3.189  17.035  0.6224 -1.0596 -0.2139
  634TMC3    C2 9384   2.604   3.093  16.985  0.5785 -0.7728 -1.3900
  634TMC3    C3 9385   2.631   3.082  16.852 -0.8920  0.1128  0.7916
  634TMC3    C4 9386   2.455   3.274  16.956  0.0866  0.4822  0.7755
  634TMC3    C5 9387   2.466   3.252  16.821  0.2737 -0.9889  0.4091
  634TMC3    C6 9388   2.554   3.160  16.770  0.0255 -0.0043 -0.3545
  634TMC3     C 9389   2.524   3.219  17.172  0.3392 -0.1137  0.0878
  634TMC3     O 9390   2.556   3.338  17.202 -0.2176 -0.0619 -0.1134
  634TMC3     H 9391   2.651   3.026  17.056 -0.4852 -0.9941 -0.8838
  634TMC3    H1 9392   2.371   3.331  16.994  1.5576  3.0227  0.2031
  634TMC3    H2 9393   2.552   3.138  16.664  0.7808 -1.4435 -0.0562
  634TMC3    C7 9394   2.452   3.369  16.728 -0.5828 -0.5291  0.2874
  634TMC3    C8 9395   2.650   2.945  16.814  0.3820 -0.0439  0.0291
  634TMC3    O1 9396   2.493   3.351  16.613  0.5182  0.1528  0.4136
  634TMC3    O2 9397   2.668   2.863  16.905 -0.6290 -0.9775  0.1390
  635TMC3    C1 9398   2.623   4.191  17.287 -0.3065 -0.7970  0.4520
  635TMC3    C2 9399   2.598   4.117  17.397  1.1850  0.6387  0.0810
  635TMC3    C3 9400   2.475   4.130  17.458  0.3854 -0.2058  0.2510
  635TMC3    C4 9401   2.528   4.271  17.229  0.1240 -0.5188  0.1429
  635TMC3    C5 9402   2.403   4.291  17.291  0.0784 -0.7224  0.3093
  635TMC3    C6 9403   2.375   4.208  17.400 -0.3366  0.0511 -0.0621
  635TMC3     C 9404   2.762   4.173  17.240  0.6522  0.7766 -0.2545
  635TMC3     O 9405   2.842   4.108  17.302 -0.3970 -0.0017 -0.1407
  635TMC3     H 9406   2.678   4.055  17.436  0.7661 -1.3493 -2.2253
  635TMC3    H1 9407   2.558   4.344  17.154  2.1113 -0.2817  1.1615
  635TMC3    H2 9408   2.273   4.214  17.436 -0.7286  0.6116 -1.2743
  635TMC3    C7 9409   2.297   4.357  17.211  0.8956 -0.0775 -0.1238
  635TMC3    C8 9410   2.450   4.075  17.593  0.4141  0.0875 -0.1550
  635TMC3    O1 9411   2.313   4.370  17.089 -0.2326  0.3038 -0.5735
  635TMC3    O2 9412   2.340   4.104  17.642  0.5025 -0.4438 -0.3647
  636MPD2     C 9413   3.877   3.332  16.137 -0.5007  0.2025  0.1721
  636MPD2    C1 9414   3.976   3.359  16.220  0.0837 -0.4271 -0.0822
  636MPD2    C2 9415   3.973   3.316  16.351  0.4372  0.6851  0.2739
  636MPD2    C3 9416   3.866   3.240  16.403  0.8634 -0.1495  0.2659
  636MPD2    C4 9417   3.759   3.214  16.315 -0.4646 -0.1631  0.0281
  636MPD2    C5 9418   3.766   3.260  16.187  0.9596  0.0227  0.2917
  636MPD2     H 9419   4.048   3.348  16.423  3.8215 -0.7632 -2.5684
  636MPD2    H1 9420   3.666   3.167  16.346 -1.8864 -0.0418 -3.9711
  636MPD2    H2 9421   3.870   3.352  16.031  0.4043 -1.5556 -0.2184
  636MPD2    H3 9422   3.691   3.238  16.112  0.0548 -0.3254  1.3224
  636MPD2     N 9423   3.866   3.195  16.537  0.0319  0.2962  0.2512
  636MPD2    H5 9424   3.952   3.214  16.586  0.1516  2.2923 -0.7130
  636MPD2    N1 9425   4.077   3.451  16.189 -0.6073  0.4241  0.2034
  636MPD2    H7 9426   4.154   3.453  16.254 -1.7127 -0.7675  1.5472
  637TMC3    C1 9427   3.806   3.022  16.700 -0.3052 -0.1315 -0.5086
  637TMC3    C2 9428   3.912   3.045  16.785  0.5845  0.3974  0.4014
  637TMC3    C3 9429   3.982   2.937  16.828  0.3713  0.1162 -0.5708
  637TMC3    C4 9430   3.761   2.894  16.665  0.3791 -0.0103  0.1236
  637TMC3    C5 9431   3.839   2.791  16.705 -0.6700  0.1072  0.7704
  637TMC3    C6 9432   3.947   2.811  16.787 -0.2752 -0.1273 -0.3416
  637TMC3     C 9433   3.770   3.119  16.597  0.2249  0.0542  0.5373
  637TMC3     O 9434   3.653   3.104  16.571  0.0103 -0.5024 -0.3197
  637TMC3     H 9435   3.950   3.146  16.799  0.4686  0.4843  0.0880
  637TMC3    H1 9436   3.679   2.867  16.599  1.7144 -2.6058 -0.4793
  637TMC3    H2 9437   4.009   2.728  16.817 -0.9612 -0.3324  0.5141
  637TMC3    C7 9438   3.868   2.695  16.597  0.4162  0.4126 -0.2691
  637TMC3    C8 9439   4.129   2.954  16.850  0.2232 -0.1674 -0.4694
  637TMC3    O1 9440   3.776   2.652  16.527 -0.4666  0.5276 -0.1767
  637TMC3    O2 9441   4.200   2.863  16.818 -0.3287  0.2882  0.6453
  638MPD2     C 9442   3.813   2.098  14.916  0.7725  0.1650  0.4355
  638MPD2    C1 9443   3.757   1.999  14.839 -0.1139  0.5304  0.6687
  638MPD2    C2 9444   3.677   1.904  14.906 -0.0446 -0.2314 -0.4212
  638MPD2    C3 9445   3.663   1.906  15.042  0.6206 -0.6572  0.0158
  638MPD2    C4 9446   3.726   2.005  15.118  0.6731  0.7995  0.0936
  638MPD2    C5 9447   3.800   2.098  15.057 -0.3935  0.5386  0.0854
  638MPD2     H 9448   3.621   1.824  14.859 -1.7353 -0.4096  1.9030
  638MPD2    H1 9449   3.717   2.008  15.226  0.8335  1.8500  0.0735
  638MPD2    H2 9450   3.886   2.161  14.865 -1.6042  0.9897 -1.9291
  638MPD2    H3 9451   3.857   2.170  15.115 -0.5794  0.6103  0.1776
  638MPD2     N 9452   3.595   1.794  15.089  0.4049  0.3836 -0.0466
  638MPD2    H5 9453   3.581   1.728  15.014  2.7404  2.2898 -2.1498
  638MPD2    N1 9454   3.788   1.992  14.700 -0.1501 -0.5836 -0.4170
  638MPD2    H7 9455   3.857   2.059  14.667 -1.3089  0.9111  0.1980
  639TMC3    C1 9456   3.530   1.616  15.227  0.0617  0.1163 -0.4395
  639TMC3    C2 9457   3.454   1.572  15.122 -0.5223 -0.4014  0.0420
  639TMC3    C3 9458   3.497   1.456  15.058 -0.1189 -0.5376  0.1395
  639TMC3    C4 9459   3.631   1.538  15.279 -0.1414  0.0168  0.7022
  639TMC3    C5 9460   3.672   1.430  15.203 -0.1868  0.7844  0.6176
  639TMC3    C6 9461   3.597   1.382  15.095  0.1587 -0.5680  0.4915
  639TMC3     C 9462   3.568   1.757  15.216 -0.4653 -0.6528 -0.2354
  639TMC3     O 9463   3.579   1.817  15.326  0.0477  0.1213 -0.6880
  639TMC3     H 9464   3.380   1.635  15.074  0.1567  0.5979  0.3074
  639TMC3    H1 9465   3.711   1.585  15.336  1.2077 -3.0888  1.3463
  639TMC3    H2 9466   3.620   1.286  15.052 -1.7823 -0.5372 -0.5771
  639TMC3    C7 9467   3.795   1.372  15.227 -0.3727 -0.2831  0.4517
  639TMC3    C8 9468   3.410   1.396  14.962 -0.5277  0.3786 -0.3902
  639TMC3    O1 9469   3.829   1.368  15.344 -0.4381 -0.4792  0.0292
  639TMC3    O2 9470   3.459   1.312  14.883  0.1718  0.4066  1.0251
  640MPD2     C 9471   0.164   0.410  10.065 -0.0566  0.1021  0.2937
  640MPD2    C1 9472   0.179   0.502   9.959 -0.1927  0.1914 -0.9809
  640MPD2    C2 9473   0.079   0.599   9.935 -0.3309  0.1333  0.1497
  640MPD2    C3 9474   4.693   0.611  10.022 -0.5162 -0.0464 -0.8683
  640MPD2    C4 9475   4.685   0.520  10.126  0.4822  0.5060 -0.8614
  640MPD2    C5 9476   0.055   0.422  10.152  0.1969 -0.1518 -0.2772
  640MPD2     H 9477   0.090   0.660   9.846  1.9414 -2.1039 -1.0830
  640MPD2    H1 9478   4.613   0.528  10.207  1.1215 -0.5978 -0.1881
  640MPD2    H2 9479   0.234   0.329  10.077 -0.5451 -0.4585 -0.6124
  640MPD2    H3 9480   0.051   0.359  10.240  2.6277 -0.2426 -0.2237
  640MPD2     N 9481   4.588   0.701  10.001  0.0979 -0.1173  0.0573
  640MPD2    H5 9482   4.506   0.673  10.055  0.9132 -0.9801  0.8404
  640MPD2    N1 9483   0.301   0.491   9.880 -0.6247  0.0528  0.2117
  640MPD2    H7 9484   0.372   0.430   9.918 -0.3794  1.2997  1.7760
  641TMC3    C1 9485   0.427   0.509   9.680 -0.1763  0.1999 -0.5963
  641TMC3    C2 9486   0.443   0.368   9.685 -0.1063  0.0270 -0.5049
  641TMC3    C3 9487   0.482   0.304   9.571 -0.0699 -0.1562 -0.8718
  641TMC3    C4 9488   0.455   0.585   9.572 -0.0681  0.6037  0.3644
  641TMC3    C5 9489   0.512   0.519   9.473  0.6033  0.2742 -0.0202
  641TMC3    C6 9490   0.525   0.381   9.467 -0.4048  0.3026 -0.4786
  641TMC3     C 9491   0.318   0.565   9.761 -0.0774 -0.2424 -0.2170
  641TMC3     O 9492   0.253   0.656   9.707 -0.1389  0.0727  0.2602
  641TMC3     H 9493   0.407   0.312   9.771  1.5692 -0.5293 -0.1619
  641TMC3    H1 9494   0.437   0.692   9.579 -0.5448  0.5750 -0.3744
  641TMC3    H2 9495   0.579   0.339   9.382 -0.3846  0.8008 -0.7137
  641TMC3    C7 9496   0.584   0.589   9.366 -0.6746 -0.4903  1.0488
  641TMC3    C8 9497   0.534   0.165   9.583 -0.5337 -0.4976 -0.4710
  641TMC3    O1 9498   0.682   0.534   9.314 -0.1131  0.0148 -0.7111
  641TMC3    O2 9499   0.524   0.099   9.479 -0.3986 -0.0508  0.4390
  642TMC3    C1 9500   0.904   1.862  12.117 -0.0532  0.5853  0.2716
  642TMC3    C2 9501   0.925   1.925  12.235  0.5132 -0.0054 -0.7068
  642TMC3    C3 9502   0.884   1.864  12.348 -0.3746 -0.2845  0.6057
  642TMC3    C4 9503   0.850   1.739  12.109 -0.0059 -0.3194 -0.0838
  642TMC3    C5 9504   0.807   1.676  12.224 -0.1321  0.3335 -0.8133
  642TMC3    C6 9505   0.827   1.734  12.346  0.0472  0.3028 -0.5393
  642TMC3     C 9506   0.859   1.954  12.016 -0.1898 -0.0416 -0.2613
  642TMC3     O 9507   0.941   2.040  11.983  0.4020  0.2736  1.3172
  642TMC3     H 9508   0.963   2.025  12.225 -0.0578  0.2338 -0.4910
  642TMC3    H1 9509   0.829   1.696  12.012 -0.9433  1.3557 -0.6229
  642TMC3    H2 9510   0.796   1.688  12.439  1.0546 -1.9258 -1.3086
  642TMC3    C7 9511   0.736   1.556  12.214  0.2208  0.2716  0.2987
  642TMC3    C8 9512   0.907   1.932  12.478  0.4013  0.0538  0.4038
  642TMC3    O1 9513   0.703   1.520  12.101  1.0454 -0.2888 -0.3499
  642TMC3    O2 9514   0.885   1.858  12.578  0.0002  0.4285  0.1943
  643TMC3    C1 9515   3.966   1.106   0.550  0.3224 -0.4841  0.9918
  643TMC3    C2 9516   3.858   1.182   0.503 -0.6494 -0.3442 -0.3051
  643TMC3    C3 9517   3.843   1.234   0.377 -0.1139  0.4206  0.1256
  643TMC3    C4 9518   4.068   1.083   0.465 -0.8342  0.2110  0.7701
  643TMC3    C5 9519   4.049   1.127   0.336 -0.3398  0.2161  0.1221
  643TMC3    C6 9520   3.946   1.210   0.291 -0.3467  0.2429  0.0554
  643TMC3     C 9521   3.958   1.052   0.677  0.1646  0.3951  0.2960
  643TMC3     O 9522   3.844   1.029   0.718  0.4239  0.7092  0.2895
  643TMC3     H 9523   3.782   1.213   0.574 -1.6003 -1.5509 -0.8093
  643TMC3    H1 9524   4.147   1.012   0.489 -0.8846 -0.5784 -1.4839
  643TMC3    H2 9525   3.943   1.249   0.190 -0.4599  0.3651  0.1069
  643TMC3    C7 9526   4.167   1.117   0.251 -0.8341 -0.4523  0.0372
  643TMC3    C8 9527   3.783   1.367   0.377 -0.7499  0.4857 -0.1685
  643TMC3    O1 9528   4.145   1.118   0.131  0.3573 -0.0861 -0.0072
  643TMC3    O2 9529   3.685   1.385   0.447  0.6864 -0.1533 -0.2012
  644MPD2     C 9530   0.789   1.356   9.615  0.5464 -0.4686  0.4120
  644MPD2    C1 9531   0.697   1.264   9.580 -0.9171  0.2655  0.5432
  644MPD2    C2 9532   0.562   1.285   9.588 -0.2487 -0.0425 -0.0288
  644MPD2    C3 9533   0.525   1.409   9.627  0.5032  0.1282 -0.4622
  644MPD2    C4 9534   0.613   1.507   9.651  0.0494  0.0649 -0.1729
  644MPD2    C5 9535   0.742   1.480   9.649 -0.1284 -1.3717  0.4047
  644MPD2     H 9536   0.485   1.216   9.556  0.5859 -1.4503  1.0377
  644MPD2    H1 9537   0.587   1.605   9.690  0.8205  0.6595 -1.1479
  644MPD2    H2 9538   0.895   1.338   9.628  1.2092  1.6711 -2.0984
  644MPD2    H3 9539   0.810   1.562   9.669  0.1051 -1.5283  0.2481
  644MPD2     N 9540   0.383   1.439   9.644 -0.5973 -0.6080  0.4249
  644MPD2    H5 9541   0.313   1.366   9.641 -0.4403 -0.7554  0.3383
  644MPD2    N1 9542   0.742   1.133   9.537  0.4782  0.2885  0.2499
  644MPD2    H7 9543   0.671   1.062   9.527  0.5313  0.4672 -1.3641
  645TMC3    C1 9544   0.188   1.568   9.656 -0.2579 -0.4096 -0.0783
  645TMC3    C2 9545   0.117   1.468   9.600  0.1047  0.3265 -0.9694
  645TMC3    C3 9546   4.706   1.494   9.569 -0.1679  0.3117  0.2542
  645TMC3    C4 9547   0.131   1.691   9.683 -0.2035 -0.7622 -0.0444
  645TMC3    C5 9548   0.008   1.721   9.630  0.3871  0.5049 -0.7259
  645TMC3    C6 9549   4.653   1.623   9.573  0.8804  0.0208 -0.2339
  645TMC3     C 9550   0.332   1.566   9.656  0.6774 -0.7119  0.6611
  645TMC3     O 9551   0.388   1.670   9.656  0.4863  0.0556 -0.6150
  645TMC3     H 9552   0.165   1.373   9.580  2.1264  0.6457  2.2961
  645TMC3    H1 9553   0.164   1.769   9.751 -0.0202  0.5915 -1.6788
  645TMC3    H2 9554   4.558   1.653   9.531 -0.1280  1.2862  2.9679
  645TMC3    C7 9555   4.675   1.859   9.640  0.4290 -0.8791 -0.3237
  645TMC3    C8 9556   4.646   1.402   9.481 -0.3951 -0.1399  0.6772
  645TMC3    O1 9557   4.565   1.885   9.603  0.1095 -0.0335  0.0295
  645TMC3    O2 9558   4.718   1.315   9.442  0.4313 -0.3292  0.2495
  646MPD2     C 9559   3.699   0.549  14.526  0.6831 -0.5421  0.2255
  646MPD2    C1 9560   3.637   0.613  14.631 -0.3670  0.6182  0.4940
  646MPD2    C2 9561   3.534   0.707  14.604  0.4048 -0.1507  0.4152
  646MPD2    C3 9562   3.503   0.733  14.469  0.3371 -0.1229 -0.4777
  646MPD2    C4 9563   3.583   0.682  14.366  0.6047 -0.1511 -0.0090
  646MPD2    C5 9564   3.677   0.583  14.398 -0.3145 -0.3442  0.2402
  646MPD2     H 9565   3.472   0.741  14.686  0.7953 -1.5717  1.3131
  646MPD2    H1 9566   3.579   0.710  14.262  0.7134  1.1677  0.3391
  646MPD2    H2 9567   3.770   0.470  14.546  0.3275 -0.7062  0.8429
  646MPD2    H3 9568   3.740   0.552  14.316 -1.1554  0.6044 -0.7617
  646MPD2     N 9569   3.403   0.829  14.440  0.4107  0.1844  0.1395
  646MPD2    H5 9570   3.357   0.880  14.515  1.1287  0.3010  0.4979
  646MPD2    N1 9571   3.672   0.563  14.755 -0.1747 -0.1534  0.0045
  646MPD2    H7 9572   3.755   0.504  14.763  0.6269  0.9421 -0.2754
  647TMC3    C1 9573   3.698   0.538  14.974 -0.0884  0.6118 -0.1107
  647TMC3    C2 9574   3.638   0.496  15.092 -0.2191  0.1806 -0.0093
  647TMC3    C3 9575   3.721   0.440  15.187  0.0367  0.0572 -0.2483
  647TMC3    C4 9576   3.836   0.520  14.950  0.0215  0.1296 -0.1854
  647TMC3    C5 9577   3.916   0.469  15.049  0.3682 -0.2161 -0.5129
  647TMC3    C6 9578   3.856   0.422  15.165 -0.5363 -0.5233 -0.1620
  647TMC3     C 9579   3.608   0.586  14.868 -0.4065  0.3187  0.0661
  647TMC3     O 9580   3.496   0.625  14.896  0.0327  0.6630 -0.2338
  647TMC3     H 9581   3.539   0.524  15.125  0.0599 -0.0211  0.9941
  647TMC3    H1 9582   3.893   0.559  14.866  0.2844  1.0179  0.3992
  647TMC3    H2 9583   3.911   0.378  15.247 -0.4972  0.9025  0.5689
  647TMC3    C7 9584   4.061   0.452  15.028 -0.5719 -0.3936  0.3857
  647TMC3    C8 9585   3.660   0.381  15.309  0.3856  0.3422  0.0779
  647TMC3    O1 9586   4.125   0.455  15.130  0.0767  0.2954 -0.1951
  647TMC3    O2 9587   3.536   0.378  15.310 -0.0008  0.3781 -0.2193
  648TMC3    C1 9588   3.364   3.235  16.330  0.0668  0.4920 -0.4348
  648TMC3    C2 9589   3.410   3.106  16.346  0.7624 -0.4359 -0.5162
  648TMC3    C3 9590   3.411   3.020  16.231  0.2629  0.0200 -0.1575
  648TMC3    C4 9591   3.322   3.279  16.209 -0.7575  0.5633  0.0675
  648TMC3    C5 9592   3.321   3.190  16.103 -0.2370 -0.4161  0.5244
  648TMC3    C6 9593   3.368   3.058  16.113  0.1597 -0.4886 -0.6245
  648TMC3     C 9594   3.345   3.331  16.437 -0.1213  0.4488 -0.3783
  648TMC3     O 9595   3.252   3.406  16.422  0.0185 -0.8507  0.0511
  648TMC3     H 9596   3.433   3.071  16.446  1.2531 -0.3085 -0.5841
  648TMC3    H1 9597   3.300   3.385  16.197  0.6352  0.9029  0.5413
  648TMC3    H2 9598   3.365   2.998  16.023 -1.0984 -0.9050 -0.3041
  648TMC3    C7 9599   3.228   3.202  15.991  0.0568 -0.3347 -0.1327
  648TMC3    C8 9600   3.468   2.886  16.252 -0.0499 -0.3000  0.0543
  648TMC3    O1 9601   3.237   3.117  15.905 -0.0893 -0.9012  0.3687
  648TMC3    O2 9602   3.487   2.850  16.369 -0.3714 -0.4753 -0.9225
  649TMC3    C1 9603   1.927   3.701  12.964 -0.0306  0.0162 -0.3193
  649TMC3    C2 9604   2.049   3.713  13.030 -0.6591  0.2672  0.7097
  649TMC3    C3 9605   2.104   3.609  13.097 -0.1981  0.3504  0.2665
  649TMC3    C4 9606   1.867   3.579  12.965  0.1480 -0.3536  0.2365
  649TMC3    C5 9607   1.913   3.481  13.045  0.2287  0.2884  0.3827
  649TMC3    C6 9608   2.030   3.490  13.112  0.3770  0.5289  0.0720
  649TMC3     C 9609   1.879   3.811  12.877 -0.1797 -0.3073  0.0956
  649TMC3     O 9610   1.941   3.911  12.893  0.3219 -0.0489 -0.1109
  649TMC3     H 9611   2.101   3.808  13.022 -0.8235  0.3808  1.0060
  649TMC3    H1 9612   1.774   3.560  12.912  1.4498 -1.0252 -1.8194
  649TMC3    H2 9613   2.072   3.409  13.169 -1.1130 -0.2300  0.0699
  649TMC3    C7 9614   1.813   3.393  13.103  0.1977  0.4427  0.0643
  649TMC3    C8 9615   2.237   3.611  13.167  0.2787 -0.6555 -0.3314
  649TMC3    O1 9616   1.706   3.386  13.045 -0.7697 -0.0014  0.1564
  649TMC3    O2 9617   2.275   3.505  13.211 -0.3890 -0.2395  0.0506
  650TMC3    C1 9618   0.077   1.209  12.604  0.4282  0.8665 -0.6991
  650TMC3    C2 9619   0.057   1.340  12.631  0.2515  0.3804 -0.1265
  650TMC3    C3 9620   4.674   1.398  12.583 -0.1930  0.5827 -0.9655
  650TMC3    C4 9621   4.718   1.139  12.511  0.5489  0.1967 -0.3036
  650TMC3    C5 9622   4.619   1.212  12.456 -0.7230  0.2604  0.8541
  650TMC3    C6 9623   4.597   1.344  12.482 -0.2849  0.0794  0.0284
  650TMC3     C 9624   0.179   1.139  12.676  0.1551 -0.2455  0.0849
  650TMC3     O 9625   0.232   1.192  12.774  0.2612  0.1538 -0.4676
  650TMC3     H 9626   0.106   1.382  12.718  3.3442 -0.8218 -1.3065
  650TMC3    H1 9627   0.005   1.037  12.476 -0.0791  0.3205 -0.8270
  650TMC3    H2 9628   4.553   1.403  12.402  0.0902 -0.1562 -0.3516
  650TMC3    C7 9629   4.551   1.146  12.348 -0.4799  0.3340  0.0631
  650TMC3    C8 9630   4.665   1.540  12.601  0.2782  0.1394  0.9987
  650TMC3    O1 9631   4.612   1.081  12.271  0.0766 -0.0158  0.1449
  650TMC3    O2 9632   0.040   1.604  12.638  0.1650 -0.2739  0.4377
  651MPD2     C 9633   3.796   2.288  10.627  0.0906  0.4582 -0.2881
  651MPD2    C1 9634   3.752   2.407  10.572 -0.2056 -0.7901  0.0133
  651MPD2    C2 9635   3.837   2.509  10.541 -0.2117  0.0249 -0.3194
  651MPD2    C3 9636   3.968   2.507  10.574  0.1288 -0.4856  0.8640
  651MPD2    C4 9637   4.016   2.384  10.625 -0.5892 -0.4204 -0.2476
  651MPD2    C5 9638   3.928   2.280  10.646 -0.4329 -0.2930  0.0875
  651MPD2     H 9639   3.790   2.598  10.501  1.7122  1.4225  0.5309
  651MPD2    H1 9640   4.122   2.370  10.645 -0.7566 -0.1416  0.8123
  651MPD2    H2 9641   3.733   2.209  10.664  0.7889 -0.4328 -1.0100
  651MPD2    H3 9642   3.964   2.188  10.692 -0.7675 -1.1718 -1.3902
  651MPD2     N 9643   4.052   2.620  10.558 -0.7256 -0.4612  0.4703
  651MPD2    H5 9644   4.012   2.699  10.510 -0.4255 -0.0840  0.8412
  651MPD2    N1 9645   3.615   2.435  10.552 -0.5548  0.1458  0.1719
  651MPD2    H7 9646   3.590   2.529  10.522  1.2640 -0.4730 -3.2745
  652TMC3    C1 9647   4.428   2.869  10.517  0.1734 -0.3051  0.3281
  652TMC3    C2 9648   4.367   2.755  10.566  0.2162 -0.2646  1.2981
  652TMC3    C3 9649   4.231   2.753  10.577 -0.1197 -0.7741  0.2656
  652TMC3    C4 9650   4.361   2.981  10.484  0.1479  0.1596  0.0199
  652TMC3    C5 9651   4.225   2.980  10.501 -0.3553  0.3801  0.3643
  652TMC3    C6 9652   4.156   2.869  10.541 -0.2512  0.0103 -0.2804
  652TMC3     C 9653   4.579   2.873  10.530  0.2379 -0.2046  0.0752
  652TMC3     O 9654   4.636   2.788  10.597 -0.0534 -0.4164  0.1535
  652TMC3     H 9655   4.430   2.668  10.580 -0.9475 -1.3026  0.1837
  652TMC3    H1 9656   4.404   3.077  10.460 -0.7178  0.4460 -0.3931
  652TMC3    H2 9657   4.050   2.869  10.563 -0.6589 -2.2036 -2.1793
  652TMC3    C7 9658   4.149   3.109  10.505 -0.0344  0.8163  0.3941
  652TMC3    C8 9659   4.178   2.630  10.607  0.9871  0.4851 -0.2466
  652TMC3    O1 9660   4.031   3.097  10.486 -0.5466  0.2444 -0.3605
  652TMC3    O2 9661   4.251   2.557  10.669 -0.1172  0.0063 -0.0221
  653MPD2     C 9662   2.050   3.061   0.081 -0.1511 -0.5927 -0.5445
  653MPD2    C1 9663   2.036   3.124  17.653 -0.3506  0.2192 -0.0978
  653MPD2    C2 9664   1.981   3.050  17.545 -1.2464 -0.1764  0.0589
  653MPD2    C3 9665   1.936   2.918  17.560  0.4674 -0.5330 -0.0074
  653MPD2    C4 9666   1.959   2.853  17.676 -0.1325 -0.7656  0.5849
  653MPD2    C5 9667   2.017   2.919   0.086 -0.0435  0.1274 -0.2120
  653MPD2     H 9668   1.958   3.098  17.450  0.2889  0.2867 -0.0914
  653MPD2    H1 9669   1.935   2.748  17.681  3.3529 -1.4516  2.1979
  653MPD2    H2 9670   2.090   3.121   0.161 -1.8723  0.3348 -0.3903
  653MPD2    H3 9671   2.042   2.860   0.174  2.5378  2.8678  0.8860
  653MPD2     N 9672   1.863   2.867  17.446 -0.5415 -0.0414 -0.0038
  653MPD2    H5 9673   1.855   2.923  17.362 -4.1591  0.8906  0.9619
  653MPD2    N1 9674   2.073   3.261  17.635 -0.2927  0.2228  0.7684
  653MPD2    H7 9675   2.068   3.305  17.543  2.6855  0.9022  0.9297
  654TMC3    C1 9676   1.721   2.720  17.320  0.4867  0.0750 -0.2097
  654TMC3    C2 9677   1.659   2.829  17.265 -0.4612 -1.5004 -0.3908
  654TMC3    C3 9678   1.619   2.808  17.134  0.7740 -0.0676 -0.4930
  654TMC3    C4 9679   1.747   2.599  17.257 -0.3175 -0.2999  0.0302
  654TMC3    C5 9680   1.690   2.585  17.131 -0.1060 -0.0785 -0.2716
  654TMC3    C6 9681   1.633   2.691  17.069 -0.2473 -0.2018  0.4240
  654TMC3     C 9682   1.801   2.739  17.438  0.4102 -0.1126 -0.8782
  654TMC3     O 9683   1.833   2.638  17.500  0.1974 -0.4260  0.6783
  654TMC3     H 9684   1.657   2.921  17.322 -0.4188 -1.1429 -0.9778
  654TMC3    H1 9685   1.814   2.526  17.302  1.3130  2.4624  2.0268
  654TMC3    H2 9686   1.599   2.676  16.967  0.0130 -0.5416  0.3895
  654TMC3    C7 9687   1.729   2.469  17.050 -0.7519  0.2341 -0.1666
  654TMC3    C8 9688   1.521   2.902  17.077  0.1537 -0.0429  0.4288
  654TMC3    O1 9689   1.748   2.485  16.929 -0.1489 -0.1820  0.3302
  654TMC3    O2 9690   1.463   2.971  17.154  0.3575 -0.0286 -0.1936
  655MPD2     C 9691   3.663   3.256  15.783  0.1175 -0.2345  0.2466
  655MPD2    C1 9692   3.571   3.310  15.692  0.6856  0.1945 -0.0685
  655MPD2    C2 9693   3.556   3.262  15.563  0.1681  0.4858 -0.4378
  655MPD2    C3 9694   3.638   3.168  15.514 -0.8158  0.1955  0.3763
  655MPD2    C4 9695   3.742   3.129  15.595  0.0728 -0.1639 -0.3220
  655MPD2    C5 9696   3.750   3.170  15.726  0.6520  0.1365 -0.1631
  655MPD2     H 9697   3.477   3.306  15.503 -0.1870  1.3813  0.6795
  655MPD2    H1 9698   3.803   3.045  15.564 -1.6561 -2.0127  1.2557
  655MPD2    H2 9699   3.677   3.287  15.886 -2.3837  0.6573  0.3144
  655MPD2    H3 9700   3.832   3.130  15.785 -0.1221  1.9672  2.1313
  655MPD2     N 9701   3.608   3.100  15.397 -0.0070 -0.7602 -0.1396
  655MPD2    H5 9702   3.671   3.022  15.377  1.4101  0.7017 -1.4404
  655MPD2    N1 9703   3.487   3.421  15.729 -0.1113  0.2599  0.3959
  655MPD2    H7 9704   3.427   3.444  15.650  2.0878 -0.0161 -1.3415
  656TMC3    C1 9705   3.371   3.592  15.851  0.1187 -0.0042  0.8136
  656TMC3    C2 9706   3.339   3.635  15.978  0.7024  0.6286 -0.2556
  656TMC3    C3 9707   3.222   3.713  15.999 -0.6096 -0.1644 -0.1295
  656TMC3    C4 9708   3.299   3.627  15.738 -0.3202  0.5062  0.2837
  656TMC3    C5 9709   3.189   3.704  15.763 -0.1201 -0.3868 -0.0333
  656TMC3    C6 9710   3.154   3.751  15.888 -0.2434  0.0289 -1.1605
  656TMC3     C 9711   3.473   3.487  15.846  0.1578  0.3919 -0.6018
  656TMC3     O 9712   3.545   3.470  15.946  0.0440 -0.0886 -0.2190
  656TMC3     H 9713   3.384   3.581  16.060  0.2684  2.1209  0.9666
  656TMC3    H1 9714   3.340   3.604  15.641 -0.3615 -0.7955  0.5784
  656TMC3    H2 9715   3.064   3.810  15.900 -0.7353 -1.0411  0.3944
  656TMC3    C7 9716   3.117   3.740  15.644  0.1333 -0.7128 -0.2243
  656TMC3    C8 9717   3.152   3.660  16.117 -0.6467 -0.1196  0.0608
  656TMC3    O1 9718   3.169   3.747  15.533 -0.1820  0.5159 -0.6912
  656TMC3    O2 9719   3.161   3.540  16.133 -0.0641  0.8182  0.0103
  657TMC3    C1 9720   2.515   2.619  14.892  0.3522  0.3110  0.1411
  657TMC3    C2 9721   2.546   2.684  15.013  0.0187 -0.8828 -0.4650
  657TMC3    C3 9722   2.462   2.771  15.070 -0.2747 -0.3598 -0.3442
  657TMC3    C4 9723   2.402   2.664  14.830  0.7741  0.5513  0.1392
  657TMC3    C5 9724   2.323   2.761  14.887  0.2882 -0.2526  0.3768
  657TMC3    C6 9725   2.346   2.810  15.012  0.1701  0.0065  0.0787
  657TMC3     C 9726   2.626   2.575  14.808  0.5044  0.3220  0.0510
  657TMC3     O 9727   2.629   2.608  14.692 -0.6971 -0.1716  0.3668
  657TMC3     H 9728   2.643   2.661  15.055 -0.1571 -0.1526  0.3614
  657TMC3    H1 9729   2.391   2.631  14.727  2.1705 -1.6385  0.7067
  657TMC3    H2 9730   2.281   2.876  15.070  0.0234 -1.0003  1.0448
  657TMC3    C7 9731   2.213   2.810  14.808  0.6876  0.5480  0.6783
  657TMC3    C8 9732   2.489   2.821  15.198 -0.2842 -0.1648 -0.7475
  657TMC3    O1 9733   2.210   2.766  14.687  0.4504 -0.0373  0.0209
  657TMC3    O2 9734   2.435   2.918  15.242  0.4386  0.2308  0.9924
  658MPD2     C 9735   3.891   3.283  14.848 -0.1246 -0.2310  1.2975
  658MPD2    C1 9736   3.867   3.149  14.837  0.3105 -0.3210  0.4519
  658MPD2    C2 9737   3.918   3.076  14.735  0.4179  0.3284  0.7454
  658MPD2    C3 9738   4.006   3.143  14.650 -0.0640 -0.2170 -0.6484
  658MPD2    C4 9739   4.052   3.268  14.668 -0.5134 -0.3882 -0.1552
  658MPD2    C5 9740   3.992   3.337  14.770 -0.0243 -1.1122 -0.1787
  658MPD2     H 9741   3.910   2.969  14.726  0.5631  0.2258  1.8229
  658MPD2    H1 9742   4.126   3.310  14.600 -0.1672 -0.5378  0.1285
  658MPD2    H2 9743   3.833   3.350  14.910  1.2795  2.0661  0.1350
  658MPD2    H3 9744   4.005   3.444  14.782 -0.7790 -0.8734 -1.4387
  658MPD2     N 9745   4.053   3.060  14.539 -0.1672  0.1547 -0.0030
  658MPD2    H5 9746   4.000   2.975  14.521 -1.5204  1.1111 -0.5407
  658MPD2    N1 9747   3.781   3.106  14.937 -0.5713  0.5041 -0.1753
  658MPD2    H7 9748   3.742   3.168  15.008 -0.7800  0.5363 -0.3181
  659TMC3    C1 9749   3.609   2.969  15.012  0.5130  0.1447 -0.0863
  659TMC3    C2 9750   3.617   3.001  15.146  0.1038 -0.5611  0.3314
  659TMC3    C3 9751   3.496   3.028  15.202 -0.2594  0.2902  0.0552
  659TMC3    C4 9752   3.488   2.944  14.949  0.3127  0.5059  0.2152
  659TMC3    C5 9753   3.370   2.965  15.014  0.0844 -0.1180 -0.2506
  659TMC3    C6 9754   3.373   3.011  15.138  0.1343 -0.0742  0.0023
  659TMC3     C 9755   3.723   2.981  14.929 -0.4761  0.1322  1.2379
  659TMC3     O 9756   3.744   2.895  14.848 -0.0660  0.0754  0.5355
  659TMC3     H 9757   3.716   3.022  15.184  0.0812  2.2293 -1.1224
  659TMC3    H1 9758   3.493   2.924  14.843  0.4810  0.5992  0.2051
  659TMC3    H2 9759   3.282   3.036  15.191  0.2741 -0.7195  0.5555
  659TMC3    C7 9760   3.240   2.974  14.945 -0.9613 -0.2501 -0.1820
  659TMC3    C8 9761   3.495   3.115  15.319  0.3509  0.6639 -0.5359
  659TMC3    O1 9762   3.149   3.023  15.010  0.3019 -0.4309  0.1023
  659TMC3    O2 9763   3.393   3.177  15.321 -0.3833 -0.4963 -0.3885
  660MPD2     C 9764   2.269   1.512  13.276  0.6465  0.0401  0.5667
  660MPD2    C1 9765   2.161   1.461  13.211  0.0999  0.1341  0.1186
  660MPD2    C2 9766   2.069   1.389  13.284  0.3034 -0.0582  0.0683
  660MPD2    C3 9767   2.078   1.387  13.423  0.3110 -0.0651 -0.5490
  660MPD2    C4 9768   2.187   1.431  13.484  0.4283  0.0514  0.4904
  660MPD2    C5 9769   2.286   1.499  13.415  0.2176  0.1116  0.0273
  660MPD2     H 9770   1.985   1.340  13.236 -0.2589  0.8892  0.0943
  660MPD2    H1 9771   2.197   1.421  13.592 -2.1937  0.4957  0.7797
  660MPD2    H2 9772   2.332   1.584  13.224  0.1404  1.8252  2.3989
  660MPD2    H3 9773   2.358   1.555  13.474  0.2455 -0.1637  0.2555
  660MPD2     N 9774   1.969   1.336  13.509 -0.6947 -0.4058 -0.5281
  660MPD2    H5 9775   1.992   1.309  13.604  0.4833 -2.3883 -1.3816
  660MPD2    N1 9776   2.156   1.475  13.069  0.3678  0.4024  0.5522
  660MPD2    H7 9777   2.224   1.543  13.033  2.2292 -0.8998  1.6254
  661TMC3    C1 9778   2.036   1.474  12.860  0.5653 -0.1985 -0.2386
  661TMC3    C2 9779   2.120   1.547  12.785  0.9611 -0.8465  0.2340
  661TMC3    C3 9780   2.075   1.600  12.670  0.1149  0.6197 -0.0248
  661TMC3    C4 9781   1.905   1.469  12.819  0.4297  0.3762  0.5944
  661TMC3    C5 9782   1.863   1.531  12.705  1.0178  0.0189  0.2269
  661TMC3    C6 9783   1.950   1.600  12.619  0.0624 -0.6105 -0.2392
  661TMC3     C 9784   2.070   1.410  12.987 -0.4383 -0.5024  1.2789
  661TMC3     O 9785   1.999   1.320  13.023 -0.2648  0.8118 -0.5583
  661TMC3     H 9786   2.221   1.573  12.815  0.6127 -1.1268  1.6429
  661TMC3    H1 9787   1.843   1.400  12.875 -1.4940  3.1992  1.9131
  661TMC3    H2 9788   1.910   1.665  12.543  3.0576 -0.7562 -1.9350
  661TMC3    C7 9789   1.718   1.547  12.700  0.3165 -0.2011 -0.4258
  661TMC3    C8 9790   2.176   1.647  12.591  0.3281 -0.1455  0.4612
  661TMC3    O1 9791   1.649   1.503  12.791  0.5683 -0.4054 -0.1277
  661TMC3    O2 9792   2.280   1.585  12.590  0.4233 -0.1116  0.0231
  662MPD2     C 9793   1.430   0.950   0.841  0.2908 -0.0289 -0.1307
  662MPD2    C1 9794   1.455   0.973   0.707  0.0011  0.0165  0.2331
  662MPD2    C2 9795   1.419   1.098   0.659 -0.3693  0.0498  0.4826
  662MPD2    C3 9796   1.342   1.184   0.742 -0.2350 -0.2664 -0.1124
  662MPD2    C4 9797   1.316   1.156   0.869 -0.1376  0.0511  0.1699
  662MPD2    C5 9798   1.371   1.042   0.922 -0.2931 -0.2394 -0.2631
  662MPD2     H 9799   1.452   1.117   0.558  0.6084 -2.7551  0.2789
  662MPD2    H1 9800   1.255   1.220   0.932  0.0907  0.7342 -0.2893
  662MPD2    H2 9801   1.447   0.853   0.887 -0.4244 -0.2594 -0.3535
  662MPD2    H3 9802   1.345   1.007   1.021  0.6676  0.1364  0.1283
  662MPD2     N 9803   1.280   1.305   0.693 -0.3046  0.5659 -0.1537
  662MPD2    H5 9804   1.213   1.345   0.758 -1.2805 -1.4850  0.0899
  662MPD2    N1 9805   1.507   0.878   0.611 -0.0590 -0.7347  0.4459
  662MPD2    H7 9806   1.524   0.923   0.521  1.5358  0.0792  1.1378
  663TMC3    C1 9807   1.626   0.697   0.527 -0.4413 -0.0175 -0.0052
  663TMC3    C2 9808   1.701   0.594   0.558 -0.3202  0.9168  0.0443
  663TMC3    C3 9809   1.797   0.552   0.470 -0.2008  0.2441 -0.1961
  663TMC3    C4 9810   1.635   0.767   0.412 -0.0848 -0.4380 -0.4081
  663TMC3    C5 9811   1.721   0.708   0.318 -0.0468 -0.1331  0.6571
  663TMC3    C6 9812   1.801   0.595   0.345  0.4972 -0.0211 -0.0028
  663TMC3     C 9813   1.548   0.751   0.641 -0.4614  0.1994  0.3353
  663TMC3     O 9814   1.535   0.692   0.746  0.3546 -0.1573 -0.1845
  663TMC3     H 9815   1.711   0.565   0.662 -1.1642 -0.0186 -0.1352
  663TMC3    H1 9816   1.556   0.839   0.390  0.9135  0.9637  0.6349
  663TMC3    H2 9817   1.891   0.588   0.285  1.7387  1.2727  1.6719
  663TMC3    C7 9818   1.646   0.708   0.194  0.1663  0.8183 -0.0102
  663TMC3    C8 9819   1.927   0.553   0.529  0.1712 -0.6315  0.4853
  663TMC3    O1 9820   1.612   0.819   0.146 -0.1109 -0.1026  0.4251
  663TMC3    O2 9821   2.016   0.499   0.460 -0.2058  0.4738  0.0765
  664MPD2     C 9822   4.368   0.177  17.512 -0.9920  0.7179  0.1320
  664MPD2    C1 9823   4.398   0.265  17.617 -0.5022 -0.2026  0.5050
  664MPD2    C2 9824   4.411   0.211   0.050  0.5288  0.3852 -0.0160
  664MPD2    C3 9825   4.406   0.078   0.067 -0.0067 -0.0061 -0.3848
  664MPD2    C4 9826   4.374   4.721  17.652  0.6479  0.3304 -0.1550
  664MPD2    C5 9827   4.346   0.043  17.529 -0.0456 -0.2800 -0.3331
  664MPD2     H 9828   4.442   0.256   0.143 -0.9157  1.8503 -0.2507
  664MPD2    H1 9829   4.364   4.614  17.659  0.0714  0.4084  0.2098
  664MPD2    H2 9830   4.343   0.214  17.413  2.8661  0.4217 -0.9395
  664MPD2    H3 9831   4.312   4.700  17.451 -0.1428 -0.1027 -0.4428
  664MPD2     N 9832   4.423   0.020   0.196 -0.4142  0.0905  0.0835
  664MPD2    H5 9833   4.456   0.078   0.273 -4.3443  0.1945  1.6695
  664MPD2    N1 9834   4.401   0.407  17.601  0.5376 -0.2655 -0.2938
  664MPD2    H7 9835   4.409   0.459  17.688 -2.9440 -0.4198  0.1223
  665TMC3    C1 9836   4.359   4.599   0.373 -0.1041  0.1204  0.5811
  665TMC3    C2 9837   4.233   4.553   0.418 -0.2388 -0.1104 -0.4609
  665TMC3    C3 9838   4.206   4.567   0.553 -0.3368  0.2008 -0.0377
  665TMC3    C4 9839   4.444   4.663   0.454 -0.2770 -0.5482  0.2462
  665TMC3    C5 9840   4.407   4.692   0.579  0.4566  0.9358 -0.8294
  665TMC3    C6 9841   4.287   4.647   0.625 -0.3720 -0.3204  0.2769
  665TMC3     C 9842   4.374   4.619   0.229 -0.1188 -0.3851  0.0731
  665TMC3     O 9843   4.318   4.529   0.168 -1.0412 -0.2730  0.5273
  665TMC3     H 9844   4.165   4.501   0.352  1.6441 -0.6408 -1.9703
  665TMC3    H1 9845   4.533   4.706   0.410  0.7386 -1.0166  1.8441
  665TMC3    H2 9846   4.251   4.657   0.727  1.6489 -3.2440  1.2902
  665TMC3    C7 9847   4.437   0.098   0.617  0.5222  0.2439  0.4954
  665TMC3    C8 9848   4.073   4.567   0.603 -0.1370  0.3266  0.4505
  665TMC3    O1 9849   4.497   0.164   0.532  0.0030 -0.3061  0.0912
  665TMC3    O2 9850   4.050   4.520   0.712 -0.9324  0.0367  0.0762
  666TMC3    C1 9851   4.259   4.231   9.948 -0.1176 -0.2333  0.4531
  666TMC3    C2 9852   4.387   4.184   9.931 -0.5306 -0.3906 -0.5366
  666TMC3    C3 9853   4.484   4.267   9.904 -0.4644 -0.4955  0.5299
  666TMC3    C4 9854   4.228   4.367   9.937  0.4224 -1.0089  0.3948
  666TMC3    C5 9855   4.334   4.441   9.905 -0.1639  0.6991 -0.1304
  666TMC3    C6 9856   4.460   4.398   9.877 -0.0245  0.5719 -0.7873
  666TMC3     C 9857   4.158   4.148  10.016  0.5232  0.0911  0.0408
  666TMC3     O 9858   4.070   4.201  10.080 -0.3429 -0.3095 -0.1254
  666TMC3     H 9859   4.406   4.080   9.955 -1.8762 -0.1040  1.7466
  666TMC3    H1 9860   4.133   4.409   9.968  0.3691 -1.4211  0.7832
  666TMC3    H2 9861   4.541   4.471   9.873 -1.1565  1.9067  0.5916
  666TMC3    C7 9862   4.322   4.580   9.953 -0.0795  0.1426 -0.0771
  666TMC3    C8 9863   4.602   4.223   9.984  0.2688 -0.4955 -0.0686
  666TMC3    O1 9864   4.222   4.610  10.020  0.2529  0.0521  0.1114
  666TMC3    O2 9865   4.622   4.104   9.991  0.5049  0.5304 -0.0342
  667MPD2     C 9866   0.380   4.240  14.762 -0.2743 -1.0213 -0.7167
  667MPD2    C1 9867   0.277   4.266  14.839 -0.2213 -0.2552  0.2759
  667MPD2    C2 9868   0.156   4.204  14.809  0.0143 -0.4148  0.1404
  667MPD2    C3 9869   0.144   4.138  14.689 -0.0183  0.1751  0.2861
  667MPD2    C4 9870   0.255   4.114  14.609  0.4628  0.1598 -0.4246
  667MPD2    C5 9871   0.376   4.161  14.649  0.1695  0.1730 -0.5374
  667MPD2     H 9872   0.071   4.219  14.874  0.4361 -0.5229  0.7161
  667MPD2    H1 9873   0.243   4.048  14.524  2.7201  0.5693 -1.0799
  667MPD2    H2 9874   0.477   4.273  14.796 -0.8765  1.1840 -1.1135
  667MPD2    H3 9875   0.467   4.135  14.595  0.6078  3.0698 -1.1711
  667MPD2     N 9876   0.023   4.085  14.644 -0.2691  0.2039  0.1251
  667MPD2    H5 9877   0.033   4.023  14.563 -0.7984 -0.8941  0.8979
  667MPD2    N1 9878   0.296   4.329  14.965 -0.1189 -0.8499 -0.7315
  667MPD2    H7 9879   0.225   4.323  15.036  0.4966 -2.8760 -0.2785
  668TMC3    C1 9880   0.404   4.475  15.102  0.5321 -0.9910 -0.3774
  668TMC3    C2 9881   0.499   4.571  15.121 -0.1177  0.7067  0.2475
  668TMC3    C3 9882   0.533   4.598  15.249 -0.5138  0.4312  1.1103
  668TMC3    C4 9883   0.350   4.412  15.212  0.3845  0.8020 -0.3370
  668TMC3    C5 9884   0.385   4.450  15.339 -0.0364 -0.3284 -0.0945
  668TMC3    C6 9885   0.473   4.551  15.364  0.1538 -0.5520  0.0091
  668TMC3     C 9886   0.385   4.430  14.968  0.2426 -0.1333 -0.0174
  668TMC3     O 9887   0.439   4.491  14.878  0.0462 -0.4229 -0.2192
  668TMC3     H 9888   0.547   4.612  15.033  0.6096 -0.5516  0.0720
  668TMC3    H1 9889   0.290   4.322  15.211 -0.9252  1.6287  1.9813
  668TMC3    H2 9890   0.502   4.590  15.461  0.4688  0.5167 -0.5158
  668TMC3    C7 9891   0.308   4.412  15.457 -0.1279  0.8022  0.0605
  668TMC3    C8 9892   0.657   4.668  15.276  0.0051 -0.7424 -0.4703
  668TMC3    O1 9893   0.330   4.477  15.560  0.6846 -0.1110  0.0968
  668TMC3    O2 9894   0.696   4.658  15.387 -0.1503  0.0626 -0.7473
  669TMC3    C1 9895   3.771   4.212  14.210  0.7674  0.0590  0.7873
  669TMC3    C2 9896   3.641   4.255  14.196  0.1577 -0.5864  0.4797
  669TMC3    C3 9897   3.602   4.335  14.091  1.0030 -0.2607  0.0186
  669TMC3    C4 9898   3.858   4.244  14.108  0.2084 -0.3208 -0.0570
  669TMC3    C5 9899   3.818   4.337  14.018  0.0351  0.4742 -0.0329
  669TMC3    C6 9900   3.691   4.382  14.003  0.5343  0.1311 -0.4365
  669TMC3     C 9901   3.805   4.199  14.352 -0.7422  0.1091 -0.7726
  669TMC3     O 9902   3.734   4.236  14.441  0.3539  0.0694  0.0633
  669TMC3     H 9903   3.578   4.252  14.284 -0.4461  0.3493  0.0872
  669TMC3    H1 9904   3.964   4.231  14.128  0.3277  0.7707  0.0094
  669TMC3    H2 9905   3.657   4.442  13.919 -0.3290 -1.8463 -1.4982
  669TMC3    C7 9906   3.926   4.423  13.971  1.2157  0.6590  0.0864
  669TMC3    C8 9907   3.457   4.343  14.084 -0.4290  0.6584  0.1924
  669TMC3    O1 9908   4.041   4.372  13.963 -0.2704 -0.2558 -0.0785
  669TMC3    O2 9909   3.396   4.242  14.122  0.3325  0.3666 -0.0002
  670MPD2     C 9910   1.592   1.982  13.829  0.1971  0.2567  0.0439
  670MPD2    C1 9911   1.720   2.012  13.871 -0.1301 -0.4541 -0.4721
  670MPD2    C2 9912   1.755   1.999  14.002 -0.0733 -0.5530  0.0573
  670MPD2    C3 9913   1.656   1.955  14.093  0.4467 -0.3928 -0.2006
  670MPD2    C4 9914   1.535   1.923  14.046 -0.3721 -0.3900  0.2541
  670MPD2    C5 9915   1.504   1.936  13.916  0.6380 -0.4302 -0.7817
  670MPD2     H 9916   1.854   2.027  14.039 -0.1961 -0.1577  0.0860
  670MPD2    H1 9917   1.458   1.886  14.113 -0.5014  0.5815  0.6367
  670MPD2    H2 9918   1.564   1.981  13.724  1.7659 -0.1210 -0.3575
  670MPD2    H3 9919   1.406   1.903  13.883  0.1206 -0.6470  0.9622
  670MPD2     N 9920   1.691   1.937  14.237  0.2904 -0.6535 -0.3036
  670MPD2    H5 9921   1.787   1.958  14.265 -0.0040 -1.1076  1.0424
  670MPD2    N1 9922   1.821   2.046  13.780  0.2186  0.5452  0.1468
  670MPD2    H7 9923   1.914   2.063  13.816  0.2269 -0.8975  0.8083
  671TMC3    C1 9924   1.680   1.846  14.447 -0.1357  0.0570 -0.2692
  671TMC3    C2 9925   1.813   1.866  14.451  1.1666 -0.1405 -0.3848
  671TMC3    C3 9926   1.895   1.780  14.517 -0.0502  0.2070  0.5707
  671TMC3    C4 9927   1.621   1.737  14.502 -0.3821  1.2919 -0.1051
  671TMC3    C5 9928   1.712   1.640  14.552  0.1771 -0.8727 -0.0802
  671TMC3    C6 9929   1.846   1.661  14.564 -0.6690 -0.2220 -0.3430
  671TMC3     C 9930   1.604   1.892  14.337 -0.9124  0.4027 -0.1344
  671TMC3     O 9931   1.479   1.879  14.341  0.0205  0.4310 -0.1096
  671TMC3     H 9932   1.851   1.967  14.462 -1.5159  0.8699 -0.4450
  671TMC3    H1 9933   1.513   1.721  14.507 -0.2803  0.2776 -1.1862
  671TMC3    H2 9934   1.917   1.582  14.585 -0.2256  0.3267  0.2028
  671TMC3    C7 9935   1.684   1.506  14.504  0.5661 -0.1390  0.3264
  671TMC3    C8 9936   2.024   1.790  14.459 -0.0671  0.8590  0.9325
  671TMC3    O1 9937   1.761   1.454  14.426 -0.9456 -0.6376  0.3986
  671TMC3    O2 9938   2.041   1.868  14.361  0.0843 -0.4288 -0.2416
  672MPD2     C 9939   1.482   2.754   0.914  0.2391  0.0122 -0.1420
  672MPD2    C1 9940   1.615   2.723   0.890  0.2728  0.0295 -0.0852
  672MPD2    C2 9941   1.710   2.756   0.987  0.7740 -0.4086  0.5996
  672MPD2    C3 9942   1.670   2.827   1.105 -0.7199 -0.1939  0.4542
  672MPD2    C4 9943   1.535   2.842   1.130 -0.2601 -0.2082  0.0462
  672MPD2    C5 9944   1.440   2.802   1.040 -0.1560 -0.6485  0.2573
  672MPD2     H 9945   1.816   2.741   0.968  0.4027 -0.4778 -1.4151
  672MPD2    H1 9946   1.507   2.883   1.227  0.4584  0.2344  0.0639
  672MPD2    H2 9947   1.408   2.740   0.835  0.2311  1.1192 -0.3324
  672MPD2    H3 9948   1.339   2.838   1.050 -0.4913 -1.1279 -1.4321
  672MPD2     N 9949   1.770   2.876   1.190 -0.3257  0.1525 -0.1493
  672MPD2    H5 9950   1.866   2.869   1.157  0.7123  0.3593  2.7778
  672MPD2    N1 9951   1.665   2.675   0.767  0.6485  1.1089 -0.3600
  672MPD2    H7 9952   1.759   2.637   0.767  0.0420 -0.3802 -1.3940
  673TMC3    C1 9953   1.650   2.613   0.541 -0.3610 -0.8273  0.4386
  673TMC3    C2 9954   1.728   2.502   0.563  0.6507 -0.8390 -0.3844
  673TMC3    C3 9955   1.754   2.417   0.456 -0.1403 -0.5405  0.0946
  673TMC3    C4 9956   1.607   2.648   0.417 -0.2348  0.2528  0.3699
  673TMC3    C5 9957   1.646   2.564   0.314  0.7584  0.0920  0.3556
  673TMC3    C6 9958   1.715   2.458   0.332 -0.4080 -0.1214 -0.1211
  673TMC3     C 9959   1.594   2.686   0.652  0.0505 -0.7849  0.3478
  673TMC3     O 9960   1.506   2.761   0.623  0.6505 -0.6307 -0.1149
  673TMC3     H 9961   1.764   2.474   0.662  1.7311  0.8368 -0.3056
  673TMC3    H1 9962   1.544   2.733   0.396  0.2098  0.5957  0.4166
  673TMC3    H2 9963   1.732   2.399   0.242 -1.0607 -0.5625  0.0459
  673TMC3    C7 9964   1.626   2.604   0.176 -0.1276  0.3885 -0.6442
  673TMC3    C8 9965   1.781   2.275   0.465 -0.4660 -0.2381  0.4050
  673TMC3    O1 9966   1.608   2.523   0.082  0.5858  0.0271 -0.0908
  673TMC3    O2 9967   1.722   2.203   0.385 -0.0118 -0.4257 -0.5578
  674MPD2     C 9968   1.302   2.633   0.192  0.7147  0.1066 -0.8658
  674MPD2    C1 9969   1.280   2.527   0.275 -0.1090 -0.7060 -0.8715
  674MPD2    C2 9970   1.185   2.541   0.371  0.0161  0.3135  0.0439
  674MPD2    C3 9971   1.110   2.659   0.375  0.0865  0.3814 -0.1116
  674MPD2    C4 9972   1.134   2.769   0.295  0.2351  0.8712 -0.5686
  674MPD2    C5 9973   1.242   2.758   0.209 -0.4881 -0.2231  0.0508
  674MPD2     H 9974   1.163   2.461   0.442 -1.2742  1.3891  0.8653
  674MPD2    H1 9975   1.090   2.868   0.302 -2.1897 -0.4328  2.3676
  674MPD2    H2 9976   1.374   2.616   0.113  0.4848  1.4765 -1.3792
  674MPD2    H3 9977   1.275   2.844   0.152  0.9447 -0.1539  1.0111
  674MPD2     N 9978   1.006   2.653   0.469 -0.1437  0.0567 -0.3323
  674MPD2    H5 9979   1.000   2.563   0.516 -3.4084 -0.0683 -0.9709
  674MPD2    N1 9980   1.347   2.409   0.247  0.6603  0.1073  0.2479
  674MPD2    H7 9981   1.411   2.413   0.169 -0.9481 -1.4134 -1.1645
  675TMC3    C1 9982   1.399   2.177   0.235  0.4990 -1.1325  0.9328
  675TMC3    C2 9983   1.401   2.061   0.303 -0.5111 -0.0528 -0.9635
  675TMC3    C3 9984   1.473   1.960   0.235  0.3643 -0.2419 -0.4444
  675TMC3    C4 9985   1.466   2.207   0.117  0.0407  0.3668 -0.2076
  675TMC3    C5 9986   1.547   2.106   0.066  0.5750 -0.4007 -0.3861
  675TMC3    C6 9987   1.552   1.979   0.122 -0.0855 -0.2634  0.9039
  675TMC3     C 9988   1.320   2.281   0.299  0.3712  0.5426  0.5774
  675TMC3     O 9989   1.264   2.254   0.402  0.5300 -0.1381  0.0695
  675TMC3     H 9990   1.337   2.034   0.386  2.6481 -1.1892  1.1204
  675TMC3    H1 9991   1.445   2.295   0.058 -0.9928  0.1529 -0.1589
  675TMC3    H2 9992   1.609   1.894   0.086  1.4012  0.8285  0.6978
  675TMC3    C7 9993   1.638   2.136  17.654  0.0711 -0.0335 -0.6273
  675TMC3    C8 9994   1.494   1.833   0.304  0.5652  0.4784  0.1947
  675TMC3    O1 9995   1.595   2.200  17.559  0.1891  0.2949 -0.4923
  675TMC3    O2 9996   1.506   1.744   0.222 -0.1377 -0.3078  0.0370
  676MPD2     C 9997   0.214   0.819  11.170  1.0847 -0.2524  0.0534
  676MPD2    C1 9998   0.132   0.725  11.234 -0.0206 -0.1095 -0.0355
  676MPD2    C2 9999   0.153   0.589  11.205  0.7043  0.0181 -0.1706
  676MPD2    C310000   0.246   0.548  11.115 -0.8205  0.0595 -0.0465
  676MPD2    C410001   0.316   0.641  11.044 -0.1593 -0.7610 -0.3378
  676MPD2    C510002   0.299   0.776  11.066 -0.0793  0.3387  0.0854
  676MPD2     H10003   0.095   0.515  11.258  0.1892  1.5961  1.4891
  676MPD2    H110004   0.378   0.604  10.962 -1.0122 -2.0314 -0.4259
  676MPD2    H210005   0.209   0.927  11.174  0.0474 -0.3433  1.1978
  676MPD2    H310006   0.343   0.856  11.008 -0.2682 -0.7301 -1.5124
  676MPD2     N10007   0.264   0.408  11.091  0.4391 -0.2492  0.0252
  676MPD2    H510008   0.322   0.391  11.010 -1.8558 -0.2738 -1.6198
  676MPD2    N110009   0.034   0.767  11.329  0.0793 -0.0486  0.0852
  676MPD2    H710010   4.691   0.696  11.356  0.6889 -0.9529 -0.7828
  677TMC3    C110011   4.609   0.915  11.429  0.1052  0.2733  0.0657
  677TMC3    C210012   4.521   0.805  11.447 -0.7744 -0.1257 -0.3671
  677TMC3    C310013   4.430   0.815  11.540 -1.1913 -0.3697 -0.1199
  677TMC3    C410014   4.588   1.026  11.494 -0.2993  0.5960  0.1566
  677TMC3    C510015   4.490   1.033  11.589  0.9764 -0.2886  0.1662
  677TMC3    C610016   4.413   0.930  11.616 -0.2058 -0.6956 -0.2306
  677TMC3     C10017   0.011   0.900  11.368 -0.7779 -0.0516  0.2968
  677TMC3     O10018   0.088   0.998  11.364 -0.4600  0.3606 -0.0401
  677TMC3     H10019   4.540   0.707  11.404 -0.3610 -0.3813  0.4033
  677TMC3    H110020   4.651   1.109  11.466  0.9285 -0.1437  0.7705
  677TMC3    H210021   4.329   0.933  11.685  0.2678  0.8910  0.2805
  677TMC3    C710022   4.471   1.157  11.664  0.0274  0.1404  0.1911
  677TMC3    C810023   4.354   0.688  11.557  0.5958 -0.1702 -0.3364
  677TMC3    O110024   4.359   1.177  11.709 -0.2115 -0.2079 -0.5295
  677TMC3    O210025   4.325   0.625  11.457  0.3066 -0.0938 -0.3030
  678MPD2     C10026   0.694   0.632   1.754  0.3173  0.0329 -0.0539
  678MPD2    C110027   0.693   0.539   1.647  0.0200 -0.1359 -0.2104
  678MPD2    C210028   0.567   0.502   1.593 -0.0583  0.2512  0.3204
  678MPD2    C310029   0.450   0.557   1.653 -0.1433  0.5468 -0.1665
  678MPD2    C410030   0.453   0.654   1.753 -0.6103 -0.4563  0.0748
  678MPD2    C510031   0.575   0.687   1.801 -0.3467 -0.3432 -0.1741
  678MPD2     H10032   0.561   0.435   1.507  0.1014 -2.0213  2.0815
  678MPD2    H110033   0.359   0.699   1.783 -0.2036  0.2099  0.3426
  678MPD2    H210034   0.782   0.672   1.802  1.1332 -1.6014 -0.1840
  678MPD2    H310035   0.591   0.762   1.879 -1.5675 -1.2735  0.9777
  678MPD2     N10036   0.332   0.517   1.592  0.5107 -0.5365 -0.0989
  678MPD2    H510037   0.338   0.457   1.511 -0.0906  0.6015 -0.9830
  678MPD2    N110038   0.805   0.476   1.596 -0.2647  0.9020  0.0250
  678MPD2    H710039   0.784   0.395   1.539 -0.3066 -1.5624  3.5089
  679TMC3    C110040   1.150   0.235   1.516  0.4362 -0.0420 -1.1404
  679TMC3    C210041   1.037   0.300   1.563  0.8417 -0.7648  0.0046
  679TMC3    C310042   1.032   0.432   1.551  0.1937  0.6074  0.1588
  679TMC3    C410043   1.268   0.303   1.485  0.3584 -0.1503  0.6249
  679TMC3    C510044   1.251   0.435   1.480  0.8278 -0.4669  0.5244
  679TMC3    C610045   1.135   0.505   1.501 -0.0910 -0.3775  0.1536
  679TMC3     C10046   1.141   0.095   1.521  0.9103 -0.5851  0.1073
  679TMC3     O10047   1.038   0.036   1.548 -0.0184 -0.3106  0.2290
  679TMC3     H10048   0.956   0.252   1.618 -0.4238 -0.7730 -1.8459
  679TMC3    H110049   1.366   0.261   1.468  1.0194 -0.2544  4.5827
  679TMC3    H210050   1.124   0.612   1.490  2.1943  0.0000  1.6139
  679TMC3    C710051   1.363   0.516   1.447  0.3765 -0.4217  0.0524
  679TMC3    C810052   0.935   0.519   1.611  0.2099  0.3238 -0.3927
  679TMC3    O110053   1.351   0.612   1.370 -0.1639 -0.2392 -0.1099
  679TMC3    O210054   0.977   0.626   1.655  0.7531  0.3423  0.4749
  680MPD2     C10055   1.240   3.864  13.277  0.1129  0.3404 -0.5715
  680MPD2    C110056   1.251   3.838  13.415  0.1650 -0.0007  0.2436
  680MPD2    C210057   1.285   3.934  13.504 -0.6190 -0.0587  1.1780
  680MPD2    C310058   1.290   4.068  13.461 -0.3164 -0.2737 -0.0551
  680MPD2    C410059   1.282   4.092  13.330  1.0151 -0.1338 -0.8433
  680MPD2    C510060   1.248   3.993  13.245 -0.2898 -0.2693  0.6521
  680MPD2     H10061   1.309   3.894  13.602  2.6262 -0.5360  0.1920
  680MPD2    H110062   1.309   4.188  13.286  0.5689  0.7639  0.8307
  680MPD2    H210063   1.219   3.783  13.209  0.1599  2.1299 -2.6890
  680MPD2    H310064   1.234   4.027  13.143  0.4796  0.2463  0.7186
  680MPD2     N10065   1.336   4.173  13.544  0.5143  0.1218 -0.2239
  680MPD2    H510066   1.347   4.269  13.510 -1.5658  0.8906  1.2874
  680MPD2    N110067   1.241   3.708  13.472  0.3865 -0.4095  0.5704
  680MPD2    H710068   1.254   3.708  13.572 -0.5324  2.8321  0.6593
  681TMC3    C110069   1.189   3.482  13.475 -0.2382 -0.1778 -0.2794
  681TMC3    C210070   1.156   3.486  13.603  0.3917 -0.5569  0.0196
  681TMC3    C310071   1.143   3.374  13.672  0.3414  0.0309  0.2475
  681TMC3    C410072   1.212   3.358  13.417 -0.0590 -0.0200  0.2176
  681TMC3    C510073   1.208   3.241  13.488 -0.3974 -0.1485 -0.7359
  681TMC3    C610074   1.161   3.243  13.617  0.2223  0.1428  0.1114
  681TMC3     C10075   1.197   3.599  13.402  0.2573 -0.6498 -0.3949
  681TMC3     O10076   1.199   3.584  13.282  0.9653 -0.3432 -0.0221
  681TMC3     H10077   1.116   3.574  13.651 -0.6427 -0.2109 -1.4812
  681TMC3    H110078   1.247   3.347  13.315 -1.9218  3.6965 -0.8453
  681TMC3    H210079   1.165   3.164  13.691 -0.5182 -0.7671 -0.8360
  681TMC3    C710080   1.335   3.172  13.486 -0.3150 -0.3809 -0.6631
  681TMC3    C810081   1.112   3.384  13.808 -0.1031  0.1258  0.3662
  681TMC3    O110082   1.344   3.081  13.573  0.0637  0.1545 -0.0573
  681TMC3    O210083   1.052   3.292  13.863 -0.4043 -0.0734 -0.1831
  682MPD2     C10084   4.235   1.063  10.662  0.1723 -0.4714  0.3398
  682MPD2    C110085   4.155   0.957  10.698  1.1560 -0.2560 -0.2195
  682MPD2    C210086   4.067   0.973  10.800  0.3605 -0.1207  0.3602
  682MPD2    C310087   4.062   1.088  10.874 -0.6688 -0.1868  0.5131
  682MPD2    C410088   4.142   1.191  10.842 -0.1500 -0.0682  0.6896
  682MPD2    C510089   4.226   1.178  10.739  0.3216 -0.4839 -0.3434
  682MPD2     H10090   3.989   0.898  10.812  0.2030  0.0481  0.3948
  682MPD2    H110091   4.133   1.284  10.898 -0.5578  0.5493 -0.3972
  682MPD2    H210092   4.313   1.056  10.587  0.2488  0.4702  0.3289
  682MPD2    H310093   4.299   1.256  10.719 -1.2565  0.9023 -0.7067
  682MPD2     N10094   3.976   1.105  10.981  0.3460 -0.5007 -0.4904
  682MPD2    H510095   3.985   1.193  11.030 -2.6148  0.4876 -1.7352
  682MPD2    N110096   4.155   0.829  10.635 -0.0212 -0.2567  0.0590
  682MPD2    H710097   4.100   0.758  10.681  0.0347 -1.3573 -1.5569
  683TMC3    C110098   3.796   1.165  11.324  0.0871  0.4902  0.8463
  683TMC3    C210099   3.766   1.044  11.387  0.2827  0.0604  0.7698
  683TMC3    C310100   3.733   0.933  11.325 -0.0256  0.3038 -0.4341
  683TMC3    C410101   3.817   1.169  11.191 -0.5317  0.3572  0.2891
  683TMC3    C510102   3.796   1.044  11.127  0.1506  0.1066  0.3300
  683TMC3    C610103   3.751   0.928  11.191 -0.3441  0.0166 -0.1750
  683TMC3     C10104   3.764   1.283  11.392 -0.3842  0.5507 -0.6519
  683TMC3     O10105   3.695   1.273  11.492  0.5254  0.6468  0.3921
  683TMC3     H10106   3.759   1.045  11.496 -1.0888  2.5940  0.6489
  683TMC3    H110107   3.838   1.257  11.131 -0.1323  0.5391  0.6955
  683TMC3    H210108   3.709   0.845  11.135 -1.2537 -0.6310  1.4567
  683TMC3    C710109   3.869   1.019  11.006 -0.0333 -0.2248 -0.3145
  683TMC3    C810110   3.661   0.838  11.404  0.3084  0.9356  0.7100
  683TMC3    O110111   3.823   0.918  10.947  0.7693  0.0741  0.0325
  683TMC3    O210112   3.605   0.888  11.500 -0.0519  0.1215 -0.6115
  684MPD2     C10113   2.107   0.161  16.161 -0.1430 -0.4516 -0.0808
  684MPD2    C110114   2.020   0.242  16.088  0.0606 -0.4931  0.6137
  684MPD2    C210115   1.984   0.365  16.151  0.4729 -0.7325  0.2513
  684MPD2    C310116   2.029   0.401  16.278 -0.5844 -0.4347  0.2482
  684MPD2    C410117   2.105   0.308  16.351  0.1128  0.1718 -0.2052
  684MPD2    C510118   2.145   0.196  16.284 -0.6474 -0.1216 -0.2355
  684MPD2     H10119   1.928   0.436  16.091  0.5696 -0.6263  0.2871
  684MPD2    H110120   2.141   0.332  16.450 -0.5605 -0.2346  0.1359
  684MPD2    H210121   2.128   0.061  16.125 -1.1918 -0.2242 -1.3358
  684MPD2    H310122   2.214   0.124  16.326 -0.7606 -1.1120 -1.7498
  684MPD2     N10123   2.007   0.525  16.346  0.3233  0.0011  1.0809
  684MPD2    H510124   2.070   0.529  16.425  0.6146 -1.2109  0.9096
  684MPD2    N110125   1.990   0.220  15.955  0.1706  0.8935  0.3587
  684MPD2    H710126   1.929   0.292  15.917 -0.7139  0.1759  0.4154
  685TMC3    C110127   2.005   0.123  15.743 -0.3301 -0.2898 -1.2042
  685TMC3    C210128   1.914   0.228  15.710 -0.0330  0.0024  0.4812
  685TMC3    C310129   1.929   0.278  15.582 -0.3613  0.0396  0.7871
  685TMC3    C410130   2.109   0.089  15.660  0.1885  0.0615  0.1573
  685TMC3    C510131   2.139   0.174  15.557  0.7053  0.7695 -0.0835
  685TMC3    C610132   2.045   0.264  15.511 -0.3094 -0.0804 -0.7418
  685TMC3     C10133   2.024   0.108  15.884 -0.1190  0.7687 -0.5181
  685TMC3     O10134   2.102   0.018  15.918 -0.6995  0.3005 -0.2448
  685TMC3     H10135   1.822   0.244  15.764 -0.6544 -1.2207 -0.2172
  685TMC3    H110136   2.174   0.011  15.698  0.0433 -0.0019  0.2744
  685TMC3    H210137   2.065   0.316  15.418  0.3640  1.4673  0.2698
  685TMC3    C710138   2.273   0.227  15.548 -0.0942  0.0449  0.8836
  685TMC3    C810139   1.819   0.321  15.514  0.3447  0.5521 -0.1618
  685TMC3    O110140   2.308   0.296  15.452 -0.4316 -0.6089 -0.8686
  685TMC3    O210141   1.834   0.307  15.398 -0.3562  0.9722 -0.0437
  686MPD2     C10142   3.697   4.412  15.486  0.0836 -0.7204  0.1256
  686MPD2    C110143   3.578   4.348  15.491  0.0835 -0.4028  0.5497
  686MPD2    C210144   3.575   4.211  15.521  0.1610 -0.3556 -0.1553
  686MPD2    C310145   3.687   4.145  15.558  0.1354  0.6099  0.4309
  686MPD2    C410146   3.810   4.209  15.545  0.1487  0.2316  0.0906
  686MPD2    C510147   3.814   4.346  15.514  0.5998  0.5539  1.1223
  686MPD2     H10148   3.484   4.151  15.517  0.3677 -0.5650 -1.7190
  686MPD2    H110149   3.904   4.160  15.566  0.5579  0.8997 -0.2009
  686MPD2    H210150   3.714   4.518  15.468 -2.6491 -0.1790  0.7532
  686MPD2    H310151   3.907   4.402  15.516  0.5117  0.7024  1.0424
  686MPD2     N10152   3.676   4.008  15.588  0.7386  0.5952  0.1850
  686MPD2    H510153   3.757   3.947  15.591  2.1695  2.4735 -0.5721
  686MPD2    N110154   3.459   4.425  15.471  0.2035 -0.6072  0.0337
  686MPD2    H710155   3.474   4.525  15.464 -1.5730 -0.2526  1.2948
  687TMC3    C110156   3.470   4.010  15.708 -0.1167  0.7253  0.1872
  687TMC3    C210157   3.333   3.997  15.679  0.5287 -0.4550 -0.0327
  687TMC3    C310158   3.247   4.061  15.767 -0.2113 -0.0925 -0.1654
  687TMC3    C410159   3.520   4.084  15.815  0.1003 -0.4565  0.6445
  687TMC3    C510160   3.432   4.134  15.904  0.4539 -0.0531  0.0499
  687TMC3    C610161   3.296   4.130  15.876 -0.0683 -0.5069 -0.2842
  687TMC3     C10162   3.564   3.935  15.626 -0.3038 -0.3417  0.5619
  687TMC3     O10163   3.550   3.816  15.618  0.1648 -0.1108 -0.2819
  687TMC3     H10164   3.296   3.936  15.597  0.1711  2.5788 -2.1303
  687TMC3    H110165   3.626   4.088  15.841  0.4016 -1.5511 -0.3929
  687TMC3    H210166   3.224   4.181  15.940  0.6209  1.3528 -1.0062
  687TMC3    C710167   3.476   4.230  16.012 -0.3517  0.0150  0.6306
  687TMC3    C810168   3.106   4.074  15.737 -0.1946  0.3729  0.1813
  687TMC3    O110169   3.415   4.333  16.031  0.2226 -0.3508 -0.2798
  687TMC3    O210170   3.026   4.065  15.824  0.0009  0.7189 -0.4109
  688MPD2     C10171   2.222   3.975  17.232  0.1422 -0.0394 -0.6115
  688MPD2    C110172   2.308   3.884  17.279  0.2370  0.2110  0.1961
  688MPD2    C210173   2.427   3.847  17.212 -0.3657  0.4648 -0.6427
  688MPD2    C310174   2.465   3.927  17.104 -0.0419  0.1229  0.4366
  688MPD2    C410175   2.375   4.020  17.062  0.5189 -0.4989  0.3070
  688MPD2    C510176   2.257   4.048  17.119 -0.2819 -0.0710 -0.9465
  688MPD2     H10177   2.501   3.783  17.258 -0.5077 -0.5697 -1.8563
  688MPD2    H110178   2.395   4.080  16.974  2.9095 -2.7884 -0.7232
  688MPD2    H210179   2.128   3.996  17.283  1.2305 -0.3211  1.5056
  688MPD2    H310180   2.190   4.120  17.072  1.3931  3.1402  1.6139
  688MPD2     N10181   2.584   3.902  17.035  0.3109 -1.1228  0.1317
  688MPD2    H510182   2.598   3.962  16.954  0.3114 -0.2374  0.7822
  688MPD2    N110183   2.265   3.822  17.393  0.1198 -0.2141  0.3902
  688MPD2    H710184   2.188   3.872  17.435  0.0480 -0.5475  0.6613
  689TMC3    C110185   2.224   3.655  17.556  0.0483 -0.3895 -0.6719
  689TMC3    C210186   2.208   3.738  17.660  0.4308 -0.4875 -0.7202
  689TMC3    C310187   2.159   3.694   0.084  0.2369 -1.0871  0.0956
  689TMC3    C410188   2.186   3.527  17.570  0.3595 -1.2013  0.6154
  689TMC3    C510189   2.119   3.489  17.689 -0.1505 -0.7096 -1.0115
  689TMC3    C610190   2.110   3.570   0.099  0.3915 -0.1307  0.1260
  689TMC3     C10191   2.299   3.694  17.432  0.0799 -0.0831  0.2690
  689TMC3     O10192   2.354   3.611  17.368  0.6198 -0.0655  0.3058
  689TMC3     H10193   2.223   3.845  17.649  0.6216 -0.4143  0.2424
  689TMC3    H110194   2.202   3.455  17.490 -1.4033  1.6463 -2.2912
  689TMC3    H210195   2.048   3.544   0.183 -0.8835  2.3224 -0.0712
  689TMC3    C710196   2.117   3.350   0.041  0.2041 -0.1004  0.3325
  689TMC3    C810197   2.114   3.773   0.194  0.4972 -0.3150 -0.2366
  689TMC3    O110198   2.129   3.339   0.162  0.0812 -0.2372  0.1666
  689TMC3    O210199   2.093   3.719   0.301 -0.4467 -0.1218  0.2718
  690MPD2     C10200   0.040   0.861  15.711 -0.0466  0.2604 -0.0855
  690MPD2    C110201   0.044   0.829  15.576  0.4073  0.1839  0.5486
  690MPD2    C210202   0.163   0.847  15.512  0.1129  0.2382 -0.3365
  690MPD2    C310203   0.276   0.897  15.583 -0.0920  0.5631  0.7587
  690MPD2    C410204   0.268   0.931  15.717  0.7834  0.4624 -0.1763
  690MPD2    C510205   0.151   0.903  15.782  0.0446  0.0235 -0.2051
  690MPD2     H10206   0.157   0.831  15.405 -2.0900 -0.4535 -0.1222
  690MPD2    H110207   0.343   0.976  15.781  2.6521 -1.7179 -0.8670
  690MPD2    H210208   4.680   0.857  15.780  0.7927 -1.1670  0.8456
  690MPD2    H310209   0.136   0.926  15.887 -0.9220  0.1382 -0.3649
  690MPD2     N10210   0.389   0.928  15.505 -0.1446  0.0260 -0.4783
  690MPD2    H510211   0.387   0.909  15.406  0.1626 -2.0795 -0.0694
  690MPD2    N110212   4.657   0.771  15.502  0.8587  0.0932 -0.3025
  690MPD2    H710213   4.668   0.747  15.404  0.9615  1.6541 -0.6742
  691TMC3    C110214   4.449   0.673  15.451 -0.3214 -0.1890 -0.0354
  691TMC3    C210215   4.319   0.668  15.489 -0.1593  0.1715 -0.2110
  691TMC3    C310216   4.243   0.562  15.445  0.2810 -0.3063  0.4340
  691TMC3    C410217   4.520   0.567  15.400 -0.4929  0.3783 -0.4501
  691TMC3    C510218   4.443   0.460  15.361 -0.6180  0.0228 -0.1154
  691TMC3    C610219   4.300   0.458  15.382  0.7417  0.2730 -0.7026
  691TMC3     C10220   4.528   0.749  15.544 -0.4295 -0.4023 -1.1861
  691TMC3     O10221   4.470   0.804  15.637  0.0303 -0.0338  0.6389
  691TMC3     H10222   4.277   0.744  15.554 -0.0764  1.2917 -1.4596
  691TMC3    H110223   4.626   0.557  15.382 -0.6674  1.7350 -2.1841
  691TMC3    H210224   4.238   0.383  15.335 -0.4668 -0.7577  2.4932
  691TMC3    C710225   4.505   0.330  15.356  0.3375 -0.4246  0.0541
  691TMC3    C810226   4.099   0.545  15.469  0.4433 -0.0230 -0.1989
  691TMC3    O110227   4.624   0.328  15.326  0.7708 -0.4449  0.1692
  691TMC3    O210228   4.047   0.432  15.464 -0.1502 -0.2182  0.0845
  692TMC3    C110229   1.605   1.937  16.083  0.5714 -0.7649  0.7848
  692TMC3    C210230   1.699   1.972  16.171  0.4311  0.7174  0.0451
  692TMC3    C310231   1.810   1.889  16.184  0.3485  0.2807 -0.1665
  692TMC3    C410232   1.613   1.826  15.995 -0.0308  0.7786 -0.7961
  692TMC3    C510233   1.726   1.759  16.002  0.0649 -0.4871  0.2445
  692TMC3    C610234   1.818   1.776  16.103  0.1839  0.3645  0.2387
  692TMC3     C10235   1.474   1.989  16.095  0.4786 -1.3110  0.2105
  692TMC3     O10236   1.370   1.923  16.078 -0.4733  0.2363 -0.3211
  692TMC3     H10237   1.674   2.044  16.249 -2.9976  0.3886 -0.7688
  692TMC3    H110238   1.525   1.796  15.939 -1.5982  0.2799  1.9708
  692TMC3    H210239   1.913   1.726  16.089  0.4101  0.4858  1.3355
  692TMC3    C710240   1.712   1.627  15.949 -0.4530  0.7207  0.3506
  692TMC3    C810241   1.844   1.845  16.317  0.5304  0.1953  0.1927
  692TMC3    O110242   1.664   1.632  15.837  0.0343 -0.1393  0.3963
  692TMC3    O210243   1.866   1.725  16.332 -0.4914  0.3095 -0.2604
  693MPD2     C10244   1.063   4.054  10.271 -0.4249 -0.5624  0.0056
  693MPD2    C110245   1.061   4.016  10.401  0.6633  0.1838 -0.2307
  693MPD2    C210246   1.173   3.944  10.447  0.5902  0.2963 -0.3833
  693MPD2    C310247   1.288   3.922  10.367  0.0571 -0.6926 -0.4816
  693MPD2    C410248   1.286   3.979  10.240  0.2243  0.5590 -0.0867
  693MPD2    C510249   1.179   4.054  10.198 -0.0931  0.5739  0.3826
  693MPD2     H10250   1.184   3.931  10.554  1.6955  1.2799 -0.3804
  693MPD2    H110251   1.370   3.981  10.171 -1.2929 -0.7517 -1.9621
  693MPD2    H210252   0.984   4.122  10.241 -0.1925 -0.5579 -0.5857
  693MPD2    H310253   1.187   4.101  10.100 -1.6133 -1.1586 -0.5660
  693MPD2     N10254   1.411   3.872  10.419  0.5828  0.0703 -1.0114
  693MPD2    H510255   1.490   3.883  10.356  1.4489  1.5305  0.3307
  693MPD2    N110256   0.951   4.037  10.484 -0.1671 -0.0390 -1.3962
  693MPD2    H710257   0.860   4.060  10.444 -0.3949 -1.8062 -1.9056
  694TMC3    C110258   0.825   4.054  10.679 -0.3653  0.0935  0.0215
  694TMC3    C210259   0.714   4.024  10.604  0.6851  0.0282 -1.1305
  694TMC3    C310260   0.596   4.027  10.674  0.0026  0.0736  0.1010
  694TMC3    C410261   0.827   4.096  10.813 -0.1619  0.0013  0.6034
  694TMC3    C510262   0.707   4.069  10.877 -0.2472  0.4776  0.6649
  694TMC3    C610263   0.589   4.041  10.811 -0.8193 -0.3020  0.7486
  694TMC3     C10264   0.954   4.043  10.622  0.1108  0.1362 -1.0670
  694TMC3     O10265   1.052   4.038  10.696  0.2560 -0.1498 -0.0337
  694TMC3     H10266   0.723   3.964  10.514  3.1687  0.1888 -0.9922
  694TMC3    H110267   0.921   4.097  10.867  1.4327  0.3168 -2.1872
  694TMC3    H210268   0.491   4.042  10.857 -1.0209 -1.2897  0.3437
  694TMC3    C710269   0.718   4.062  11.022 -0.1191  0.5331 -0.4819
  694TMC3    C810270   0.470   3.992  10.607 -0.3345  0.1289  0.2707
  694TMC3    O110271   0.808   4.130  11.066 -0.0937  0.5046 -0.5050
  694TMC3    O210272   0.370   3.967  10.676 -0.5808  0.3521 -0.0879
  695MPD2     C10273   2.153   1.788  13.486  0.1696  0.4806  0.8034
  695MPD2    C110274   2.135   1.774  13.628 -0.1588 -0.1434 -0.4926
  695MPD2    C210275   2.008   1.733  13.674  0.9375 -0.3170  0.4272
  695MPD2    C310276   1.900   1.711  13.590  0.5379  0.2815  0.0391
  695MPD2    C410277   1.919   1.736  13.456 -0.0222 -0.2570 -0.7678
  695MPD2    C510278   2.042   1.768  13.403  0.0460  0.1808 -0.5611
  695MPD2     H10279   2.001   1.706  13.779  1.0694  0.2743  0.5900
  695MPD2    H110280   1.836   1.724  13.389  1.7749 -1.4713 -2.7666
  695MPD2    H210281   2.249   1.807  13.440 -1.3638  1.7978 -1.8380
  695MPD2    H310282   2.056   1.792  13.299  2.7740 -1.7826 -0.6384
  695MPD2     N10283   1.775   1.676  13.650  0.3521 -0.5278  0.4628
  695MPD2    H510284   1.770   1.668  13.751 -2.8571 -0.9550  0.2576
  695MPD2    N110285   2.238   1.794  13.718 -0.4423 -0.8143 -0.2171
  695MPD2    H710286   2.220   1.789  13.818  1.6661 -0.1726  0.1851
  696TMC3    C110287   1.561   1.601  13.675 -0.7829  0.1429  0.5625
  696TMC3    C210288   1.592   1.544  13.795  0.5993 -0.6956 -0.1483
  696TMC3    C310289   1.490   1.508  13.875 -0.6294  0.1149  0.2873
  696TMC3    C410290   1.433   1.621  13.628 -0.2395  0.7251  0.1574
  696TMC3    C510291   1.328   1.588  13.713 -0.2466  0.3262  0.1073
  696TMC3    C610292   1.359   1.524  13.835  0.5639 -0.4601 -0.2009
  696TMC3     C10293   1.662   1.638  13.581  0.1411 -1.2130  0.1492
  696TMC3     O10294   1.633   1.672  13.466  0.6539  0.4555 -0.3305
  696TMC3     H10295   1.694   1.515  13.817  0.8094  0.6398  0.6654
  696TMC3    H110296   1.421   1.680  13.538  0.4489  1.5405  0.5903
  696TMC3    H210297   1.273   1.508  13.899  0.5170 -0.7393 -0.3354
  696TMC3    C710298   1.217   1.674  13.718  0.1310  0.2739 -1.0625
  696TMC3    C810299   1.509   1.447  13.999  0.2235 -0.3902 -0.0885
  696TMC3    O110300   1.166   1.698  13.610 -0.2567 -0.5473  0.1206
  696TMC3    O210301   1.625   1.458  14.041 -0.1981  0.7957  1.1207
  697MPD2     C10302   1.077   3.214  15.900  0.1253  0.1414  0.0608
  697MPD2    C110303   1.161   3.168  15.809 -0.8032 -0.8087  0.0456
  697MPD2    C210304   1.198   3.252  15.712  0.1541  0.4566  0.0658
  697MPD2    C310305   1.153   3.384  15.715  0.4180  0.1992  0.3343
  697MPD2    C410306   1.070   3.427  15.814 -0.1817  0.0935  0.5458
  697MPD2    C510307   1.032   3.334  15.905  0.0352  0.4588 -0.1389
  697MPD2     H10308   1.268   3.216  15.637 -0.0505  1.7127 -0.7249
  697MPD2    H110309   1.036   3.527  15.839 -0.8062 -0.0651  0.3346
  697MPD2    H210310   1.045   3.158  15.987  0.7827  0.5532  0.5724
  697MPD2    H310311   0.970   3.363  15.990 -1.0889 -1.2367 -0.3631
  697MPD2     N10312   1.200   3.472  15.617 -0.1069  0.2660  0.4326
  697MPD2    H510313   1.249   3.429  15.539  0.4173  3.1007 -0.7776
  697MPD2    N110314   1.212   3.042  15.806  0.7428 -0.0913  0.1284
  697MPD2    H710315   1.251   3.016  15.716 -0.9969  1.8697 -1.1862
  698TMC3    C110316   1.247   3.661  15.496 -0.5484  0.2666  0.2483
  698TMC3    C210317   1.207   3.784  15.461 -0.2671  0.2824 -0.2893
  698TMC3    C310318   1.282   3.851  15.364  0.7502 -0.5696 -0.0904
  698TMC3    C410319   1.366   3.607  15.446  0.0644  0.2687  0.6589
  698TMC3    C510320   1.430   3.671  15.339 -0.4656 -0.2499 -0.0293
  698TMC3    C610321   1.393   3.800  15.305 -0.1364 -1.0679  0.4612
  698TMC3     C10322   1.174   3.600  15.602  0.0155 -0.3368 -0.2811
  698TMC3     O10323   1.096   3.670  15.669 -0.0242  0.6370 -0.1105
  698TMC3     H10324   1.114   3.833  15.489 -0.9169 -0.2342 -1.5549
  698TMC3    H110325   1.407   3.511  15.478 -1.7239 -0.5926  0.3561
  698TMC3    H210326   1.434   3.840  15.213 -0.1630 -1.1560  0.4113
  698TMC3    C710327   1.461   3.588  15.229  0.3671 -0.4179  0.0464
  698TMC3    C810328   1.202   3.930  15.273 -0.0553  0.2247  0.0827
  698TMC3    O110329   1.407   3.477  15.215  0.1590 -1.0776 -0.3911
  698TMC3    O210330   1.091   3.893  15.237  0.0563  0.0804  0.2035
  699TMC3    C110331   1.748   1.252  13.553 -0.2893 -0.3171  0.1403
  699TMC3    C210332   1.786   1.209  13.682 -0.1634 -0.0350 -0.2398
  699TMC3    C310333   1.689   1.182  13.771  0.0928 -0.2618  0.2145
  699TMC3    C410334   1.613   1.251  13.521 -1.3009 -1.0409  0.4018
  699TMC3    C510335   1.518   1.217  13.616 -0.3245 -0.0127 -0.4373
  699TMC3    C610336   1.558   1.194  13.745  0.6956  0.4198 -0.3332
  699TMC3     C10337   1.843   1.316  13.459  0.1607  0.2249  0.1581
  699TMC3     O10338   1.789   1.355  13.361 -0.4323 -0.2234  0.7688
  699TMC3     H10339   1.891   1.187  13.701 -0.1527  0.2678  0.0396
  699TMC3    H110340   1.579   1.279  13.422  0.5586 -0.4645 -0.0730
  699TMC3    H210341   1.480   1.172  13.818 -0.9156 -1.1149 -2.5110
  699TMC3    C710342   1.382   1.195  13.579  0.2751 -0.5781 -0.3136
  699TMC3    C810343   1.710   1.083  13.875  0.8025 -0.2028 -0.8275
  699TMC3    O110344   1.302   1.222  13.664  0.3402  0.1417  0.3157
  699TMC3    O210345   1.615   1.067  13.953  0.2949  0.4018 -0.0417
  700TMC3    C110346   4.678   4.083  17.173  0.5885  0.0075 -0.3164
  700TMC3    C210347   4.720   3.957  17.176  0.6019 -0.2286  0.0509
  700TMC3    C310348   0.095   3.920  17.263 -0.1998  0.4262 -0.4940
  700TMC3    C410349   4.719   4.172  17.260  0.1757  0.1190 -0.2561
  700TMC3    C510350   0.103   4.142  17.342 -0.2231 -0.0350 -0.3741
  700TMC3    C610351   0.153   4.016  17.341 -0.0542 -0.6122  0.2008
  700TMC3     C10352   4.636   4.150  17.049 -0.6235 -0.6187  0.5396
  700TMC3     O10353   4.568   4.088  16.970  0.6184 -0.0893  0.3401
  700TMC3     H10354   4.695   3.890  17.094 -1.5277 -0.2271  0.6997
  700TMC3    H110355   4.688   4.275  17.253 -2.2796 -0.3641  3.4296
  700TMC3    H210356   0.244   3.994  17.396  1.1851  2.1549 -0.7337
  700TMC3    C710357   0.189   4.248  17.398 -0.1570  0.2096  0.0550
  700TMC3    C810358   0.179   3.805  17.236  0.4628 -0.2483 -0.5218
  700TMC3    O110359   0.307   4.224  17.400  0.2314  0.4008  0.0265
  700TMC3    O210360   0.300   3.816  17.255  0.6720  0.4525  0.0410
  701TMC3    C110361   0.033   2.881  15.385  0.9316  0.2200  0.0820
  701TMC3    C210362   4.718   2.900  15.255  0.2551  0.9224 -0.6251
  701TMC3    C310363   0.041   3.011  15.194  0.8652  0.0436 -0.2542
  701TMC3    C410364   0.078   2.978  15.464 -0.3319 -0.2927  0.7344
  701TMC3    C510365   0.111   3.100  15.401  0.3343 -0.5728  0.2461
  701TMC3    C610366   0.097   3.118  15.264  0.0286  0.4882  0.1882
  701TMC3     C10367   4.691   2.775  15.461  0.5428 -0.2077  0.2913
  701TMC3     O10368   4.636   2.796  15.566 -0.5728 -0.0725 -0.0997
  701TMC3     H10369   4.673   2.821  15.197  2.0177 -0.0987 -0.5886
  701TMC3    H110370   0.113   2.941  15.560 -1.0386 -0.6218  0.8637
  701TMC3    H210371   0.134   3.212  15.226 -0.5360  0.9117  0.6848
  701TMC3    C710372   0.212   3.183  15.461 -0.0198  0.3761  0.3596
  701TMC3    C810373   0.037   3.026  15.044  0.2807  0.4419  0.3062
  701TMC3    O110374   0.250   3.276  15.392  0.2187 -0.4821  0.7428
  701TMC3    O210375   0.076   3.136  15.006 -0.3415 -0.2084  0.2378
  702MPD2     C10376   0.669   0.019  10.721  0.2489  0.0723 -0.5613
  702MPD2    C110377   0.574   0.125  10.723 -0.4356  0.0149 -0.1681
  702MPD2    C210378   0.589   0.233  10.632 -0.1430  0.3357  0.8944
  702MPD2    C310379   0.693   0.243  10.546 -0.0642 -0.1990 -0.2080
  702MPD2    C410380   0.775   0.143  10.540 -0.1074 -0.7230 -0.4160
  702MPD2    C510381   0.763   0.031  10.618  0.5830 -0.8143  0.7115
  702MPD2     H10382   0.508   0.305  10.634  1.5640  2.2570  0.9374
  702MPD2    H110383   0.862   0.148  10.476 -0.1207 -0.0403 -0.3770
  702MPD2    H210384   0.669   4.656  10.785  0.6742  1.2317  0.9980
  702MPD2    H310385   0.841   4.681  10.601  1.6226  0.5776 -0.5802
  702MPD2     N10386   0.710   0.363  10.467  0.1182  0.3578  0.5955
  702MPD2    H510387   0.644   0.438  10.486 -1.0358 -1.1822  2.7062
  702MPD2    N110388   0.464   0.120  10.813  0.3870 -0.0688 -0.4460
  702MPD2    H710389   0.412   0.208  10.815 -0.4198 -0.4989 -2.2766
  703TMC3    C110390   0.792   0.488  10.285  0.0237  0.4015 -0.5012
  703TMC3    C210391   0.663   0.531  10.250  0.0866  0.1460 -0.0171
  703TMC3    C310392   0.656   0.610  10.141 -0.0124 -0.2897  0.5890
  703TMC3    C410393   0.902   0.523  10.213  0.0781  0.2191 -0.3276
  703TMC3    C510394   0.883   0.613  10.120  0.3026 -0.1963  0.3034
  703TMC3    C610395   0.763   0.662  10.074  0.3060  0.1998  0.6348
  703TMC3     C10396   0.816   0.383  10.381 -0.2332 -0.3386 -0.0189
  703TMC3     O10397   0.917   0.320  10.356  0.0611 -0.5189  0.0936
  703TMC3     H10398   0.575   0.489  10.298 -0.5854  0.1096 -1.2836
  703TMC3    H110399   1.002   0.491  10.242 -0.2136 -0.7010 -0.3566
  703TMC3    H210400   0.757   0.735   9.994 -0.2679 -0.5937 -0.0527
  703TMC3    C710401   0.994   0.706  10.104 -0.6606 -0.8056 -0.1023
  703TMC3    C810402   0.531   0.674  10.093 -1.3361  0.5721  0.9030
  703TMC3    O110403   1.075   0.708  10.198 -0.3346  0.7166  0.2372
  703TMC3    O210404   0.532   0.728   9.981  0.5182 -0.2719 -0.5633
  704TMC3    C110405   2.531   3.241  12.314  0.0891 -0.0642 -0.1051
  704TMC3    C210406   2.657   3.303  12.307 -0.1563 -0.3282  0.2291
  704TMC3    C310407   2.765   3.253  12.366 -0.7093  0.6835  0.2547
  704TMC3    C410408   2.517   3.133  12.394  0.0699  0.0093  0.1342
  704TMC3    C510409   2.629   3.088  12.458  0.8669 -0.6430  0.1498
  704TMC3    C610410   2.755   3.146  12.446  0.2376 -0.1345 -0.2775
  704TMC3     C10411   2.459   3.228  12.192  0.3697  0.0428 -0.8083
  704TMC3     O10412   2.348   3.184  12.201  0.3810  0.0370  0.9830
  704TMC3     H10413   2.671   3.391  12.245  0.6459 -0.9928 -0.5312
  704TMC3    H110414   2.422   3.089  12.423  0.1635  1.6382  2.9560
  704TMC3    H210415   2.847   3.115  12.495 -0.2403  0.1948  0.8053
  704TMC3    C710416   2.635   2.961  12.521  0.3540 -0.4933  0.2424
  704TMC3    C810417   2.865   3.247  12.265 -0.3320 -0.0445 -0.0958
  704TMC3    O110418   2.734   2.927  12.588  0.4740 -0.0644 -1.0288
  704TMC3    O210419   2.823   3.267  12.152  0.2621  0.2159  0.6091
  705MPD2     C10420   1.991   1.417  17.035  0.3327 -0.1666  0.7190
  705MPD2    C110421   1.965   1.441  16.898  0.9189  0.6536  0.2124
  705MPD2    C210422   1.834   1.460  16.859 -0.1697  0.0808 -0.0727
  705MPD2    C310423   1.725   1.463  16.947  0.2027  0.0255 -0.4244
  705MPD2    C410424   1.756   1.442  17.081 -0.0195  0.8791 -0.1251
  705MPD2    C510425   1.888   1.417  17.119  0.0043  0.3453  1.2897
  705MPD2     H10426   1.815   1.476  16.754  0.4055 -2.3333 -0.5322
  705MPD2    H110427   1.678   1.451  17.155  0.2258  0.7714  0.1427
  705MPD2    H210428   2.091   1.395  17.071 -0.5430 -1.8850  2.0795
  705MPD2    H310429   1.917   1.415  17.223 -0.3510 -0.1240  1.3820
  705MPD2     N10430   1.588   1.494  16.912 -0.4053  0.5672  0.4185
  705MPD2    H510431   1.514   1.517  16.978 -1.3397 -1.0689 -0.0609
  705MPD2    N110432   2.061   1.435  16.794  0.1057  0.9364  0.7032
  705MPD2    H710433   2.034   1.461  16.699  1.2815  1.5221  0.5292
  706TMC3    C110434   2.397   1.445  16.494  0.5733 -0.5354  0.2165
  706TMC3    C210435   2.346   1.558  16.437 -0.3212 -0.1488  0.0320
  706TMC3    C310436   2.241   1.619  16.496  0.0113  0.2241 -0.0002
  706TMC3    C410437   2.363   1.411  16.624 -0.1646 -0.3759  0.1269
  706TMC3    C510438   2.259   1.474  16.688  0.5766  0.2754  0.2968
  706TMC3    C610439   2.196   1.577  16.618  0.3179  0.0422 -0.0822
  706TMC3     C10440   2.506   1.380  16.425  0.1284 -0.5219  0.7298
  706TMC3     O10441   2.590   1.340  16.499 -0.3674 -0.1610 -0.2235
  706TMC3     H10442   2.379   1.597  16.341 -0.5590 -0.0936 -0.0287
  706TMC3    H110443   2.399   1.315  16.658  1.0968 -0.2913 -0.9824
  706TMC3    H210444   2.115   1.633  16.664 -0.4756  0.3588 -1.8732
  706TMC3    C710445   2.198   1.429  16.814 -0.1128  0.3556 -0.2857
  706TMC3    C810446   2.199   1.747  16.443 -0.3573 -0.0337 -0.2344
  706TMC3    O110447   2.263   1.390  16.913  0.0455  0.1284 -0.3542
  706TMC3    O210448   2.228   1.773  16.330  0.2210 -0.2546 -0.1711
  707TMC3    C110449   3.213   1.015   1.414 -0.2040  0.0245  0.0612
  707TMC3    C210450   3.176   0.919   1.319  0.2187  0.6801 -0.2796
  707TMC3    C310451   3.048   0.933   1.267  0.5343 -0.0940  0.4555
  707TMC3    C410452   3.120   1.115   1.454 -0.6625  0.1103  0.0558
  707TMC3    C510453   2.999   1.120   1.390 -0.7263 -0.0756 -0.2986
  707TMC3    C610454   2.952   1.031   1.293 -0.2918  1.1107 -0.3222
  707TMC3     C10455   3.337   0.990   1.489 -0.2761 -0.1317  1.0711
  707TMC3     O10456   3.418   0.932   1.423 -0.6203  0.8878  0.4950
  707TMC3     H10457   3.242   0.834   1.305 -2.0724 -0.9333 -1.2518
  707TMC3    H110458   3.156   1.178   1.535  3.9937 -2.2462 -0.1542
  707TMC3    H210459   2.859   1.048   1.240 -1.5021 -0.8000  1.1898
  707TMC3    C710460   2.910   1.226   1.418  0.6361  0.0216 -0.2121
  707TMC3    C810461   2.991   0.828   1.183  0.5110 -0.6912 -0.5517
  707TMC3    O110462   2.791   1.203   1.386  0.6303 -0.3178 -0.1601
  707TMC3    O210463   2.910   0.855   1.098 -0.1844  0.0105 -0.0447
  708MPD2     C10464   0.958   4.265  13.647  0.0736  0.0446  0.2900
  708MPD2    C110465   0.825   4.227  13.635  0.0175 -0.1986  0.3087
  708MPD2    C210466   0.761   4.179  13.751  0.0095  0.0062 -0.1208
  708MPD2    C310467   0.828   4.179  13.875 -0.0460 -0.3332 -0.1788
  708MPD2    C410468   0.957   4.220  13.885  0.1784  0.4895 -0.2815
  708MPD2    C510469   1.018   4.261  13.770  0.0845  0.3236 -0.3053
  708MPD2     H10470   0.656   4.152  13.751  0.5929 -2.1841 -1.8087
  708MPD2    H110471   1.013   4.223  13.977  1.7401 -0.4904 -1.2123
  708MPD2    H210472   1.022   4.289  13.563 -1.6472  3.1826 -0.1200
  708MPD2    H310473   1.120   4.295  13.780  0.2417 -0.1022 -0.4326
  708MPD2     N10474   0.754   4.135  13.986  0.6374  0.1533  0.3397
  708MPD2    H510475   0.658   4.107  13.971  1.0881 -1.5839  0.7158
  708MPD2    N110476   0.770   4.247  13.506 -0.2614  0.2593 -0.3407
  708MPD2    H710477   0.827   4.286  13.432  1.7480 -3.1930 -0.6048
  709TMC3    C110478   0.580   4.259  13.357 -0.4533  0.3797 -0.2985
  709TMC3    C210479   0.613   4.388  13.318  0.3080  0.2577 -0.3995
  709TMC3    C310480   0.511   4.459  13.264 -0.3096 -0.1461  0.6631
  709TMC3    C410481   0.452   4.214  13.356  0.1888  0.1263 -1.0880
  709TMC3    C510482   0.347   4.295  13.311  0.6603  0.5206 -0.8499
  709TMC3    C610483   0.378   4.420  13.260  0.5635  0.3407 -0.0709
  709TMC3     C10484   0.635   4.224  13.484 -0.4746 -0.1200 -0.0215
  709TMC3     O10485   0.551   4.174  13.555  0.3630 -0.2720 -0.2118
  709TMC3     H10486   0.715   4.426  13.321 -0.3671  2.1231 -1.4624
  709TMC3    H110487   0.430   4.112  13.387 -1.0846  1.1076  1.2156
  709TMC3    H210488   0.314   4.501  13.225 -0.3162 -1.2057 -2.0665
  709TMC3    C710489   0.245   4.303  13.407  0.4407 -0.7195  0.4951
  709TMC3    C810490   0.539   4.517  13.132 -0.4926 -0.5839 -0.2235
  709TMC3    O110491   0.135   4.342  13.369  0.1966  0.0571  0.0524
  709TMC3    O210492   0.476   4.622  13.106  0.3425  0.3061 -0.2749
  710TMC3    C110493   1.716   1.223   1.141  0.4002  0.1453 -0.3969
  710TMC3    C210494   1.831   1.213   1.063 -0.6382 -0.7983  0.0837
  710TMC3    C310495   1.919   1.110   1.095  0.0409 -0.8922 -0.1711
  710TMC3    C410496   1.698   1.141   1.247 -0.5940  0.2675  0.0167
  710TMC3    C510497   1.781   1.038   1.274 -0.0223 -0.2729  0.3951
  710TMC3    C610498   1.890   1.017   1.194  0.3247  0.1664  0.4976
  710TMC3     C10499   1.623   1.327   1.100  0.5368  0.3597 -0.1674
  710TMC3     O10500   1.657   1.409   1.013 -0.1707 -0.0902 -0.2492
  710TMC3     H10501   1.844   1.275   0.975  1.1259  0.0630  0.9498
  710TMC3    H110502   1.613   1.153   1.313 -0.7282  1.0588 -0.3001
  710TMC3    H210503   1.965   0.943   1.217  1.0157  0.3718 -1.0608
  710TMC3    C710504   1.721   0.919   1.325 -0.7204  0.3090  0.0645
  710TMC3    C810505   1.948   1.033   0.973  0.0037 -0.3568  0.3055
  710TMC3    O110506   1.598   0.923   1.337 -0.3013 -0.6954 -0.0761
  710TMC3    O210507   1.885   1.070   0.875  0.1667  0.0725  0.2987
  711TMC3    C110508   1.222   2.336  14.968 -1.0977  0.5602 -0.1187
  711TMC3    C210509   1.218   2.392  15.094  0.2237 -0.0894  0.0467
  711TMC3    C310510   1.325   2.368  15.168 -0.1261 -0.0506  0.4017
  711TMC3    C410511   1.338   2.286  14.915 -0.4792 -0.4430 -0.4860
  711TMC3    C510512   1.448   2.269  14.992  0.2463  0.0564  0.1866
  711TMC3    C610513   1.445   2.311  15.120  0.2424  0.2901 -0.1919
  711TMC3     C10514   1.100   2.282  14.909  0.3651 -0.3907 -0.7834
  711TMC3     O10515   1.120   2.186  14.837  0.0382 -0.0369 -0.0020
  711TMC3     H10516   1.124   2.423  15.139 -0.3654 -1.6959 -0.0436
  711TMC3    H110517   1.339   2.248  14.814 -0.3362  0.6724 -0.9081
  711TMC3    H210518   1.525   2.290  15.191  1.2521  0.9275 -1.1486
  711TMC3    C710519   1.498   2.140  14.981 -0.7957 -0.1328 -0.1542
  711TMC3    C810520   1.305   2.393  15.309 -0.4219  0.6159 -0.1732
  711TMC3    O110521   1.605   2.125  15.040 -0.2341  0.3362 -0.1396
  711TMC3    O210522   1.189   2.394  15.349  0.4728  0.2360 -0.6484
  712MPD2     C10523   3.040   2.843  13.300  0.1733  0.2032 -0.0649
  712MPD2    C110524   2.917   2.867  13.355  0.5759 -0.3830  0.1135
  712MPD2    C210525   2.907   2.949  13.465  0.0688  0.7820 -0.7683
  712MPD2    C310526   3.022   3.026  13.501  0.1179 -0.4590 -0.0376
  712MPD2    C410527   3.149   2.991  13.458  0.5049  0.5976 -0.0921
  712MPD2    C510528   3.155   2.895  13.359 -0.4979  0.3499  0.5465
  712MPD2     H10529   2.811   2.983  13.503  0.1757 -0.3475  0.5449
  712MPD2    H110530   3.242   3.026  13.502  1.2118 -1.0642 -0.2945
  712MPD2    H210531   3.045   2.774  13.216  0.2657  1.0072 -0.7285
  712MPD2    H310532   3.255   2.882  13.318  0.5610  1.4792  2.8023
  712MPD2     N10533   3.026   3.129  13.607  0.1543  1.3644  0.2959
  712MPD2    H510534   3.115   3.176  13.609  0.5053  0.7589 -1.1464
  712MPD2    N110535   2.804   2.810  13.296  0.2456 -0.1472 -0.0075
  712MPD2    H710536   2.809   2.781  13.199  2.9966  0.3808 -0.0186
  713TMC3    C110537   2.935   3.301  13.742  0.4485 -0.3029 -0.6987
  713TMC3    C210538   3.055   3.359  13.770  0.4478 -0.0468 -0.0952
  713TMC3    C310539   3.061   3.497  13.781 -0.2318 -0.3886 -0.0198
  713TMC3    C410540   2.822   3.378  13.737 -0.2787 -0.0380  0.5877
  713TMC3    C510541   2.836   3.509  13.761 -0.3230 -0.4774 -0.4211
  713TMC3    C610542   2.951   3.576  13.778 -0.3192  0.6897 -0.2956
  713TMC3     C10543   2.919   3.169  13.677 -0.0950  0.5430  0.5508
  713TMC3     O10544   2.803   3.116  13.694 -0.0217  0.2778  0.7440
  713TMC3     H10545   3.143   3.296  13.776 -0.4065 -1.2944 -0.5810
  713TMC3    H110546   2.728   3.327  13.715  0.5131 -0.1614 -2.6033
  713TMC3    H210547   2.962   3.682  13.797 -0.5435  0.7469 -0.4886
  713TMC3    C710548   2.718   3.590  13.759 -0.0210 -0.0421 -0.4204
  713TMC3    C810549   3.194   3.550  13.751 -0.3683 -0.0604 -0.2377
  713TMC3    O110550   2.631   3.553  13.678 -1.1072 -0.4093  0.2856
  713TMC3    O210551   3.298   3.489  13.784 -0.5156  0.3409 -0.1843
  714MPD2     C10552   4.240   2.217   1.759  0.0502 -0.3787  0.1976
  714MPD2    C110553   4.284   2.123   1.674  0.0863  0.1843  0.8235
  714MPD2    C210554   4.276   2.142   1.530  0.3386 -0.6531 -0.2390
  714MPD2    C310555   4.221   2.263   1.488  0.8256  0.0089 -0.1018
  714MPD2    C410556   4.179   2.359   1.575  0.4820  1.1272  0.0350
  714MPD2    C510557   4.179   2.335   1.712 -0.0784 -0.2003 -0.3280
  714MPD2     H10558   4.310   2.067   1.460  1.0085  0.1800 -0.8112
  714MPD2    H110559   4.153   2.457   1.539  0.9362  0.7668 -1.2753
  714MPD2    H210560   4.246   2.189   1.864 -2.0185 -1.5742  0.0084
  714MPD2    H310561   4.136   2.410   1.777  0.2289 -1.5575  1.4421
  714MPD2     N10562   4.224   2.277   1.351  0.4447  0.5640 -0.0994
  714MPD2    H510563   4.238   2.191   1.299 -0.6589  0.0866  0.3974
  714MPD2    N110564   4.348   2.007   1.729  0.1330 -0.3640  0.2033
  714MPD2    H710565   4.355   1.999   1.830  0.2752 -0.4271  0.1886
  715TMC3    C110566   4.466   1.801   1.739 -0.4742  0.0700  0.1436
  715TMC3    C210567   4.484   1.675   1.696  0.2498  0.6963 -0.8257
  715TMC3    C310568   4.591   1.604   1.742  0.1068  0.1298 -0.4708
  715TMC3    C410569   4.546   1.858   1.832  0.1416 -0.3225  0.0721
  715TMC3    C510570   4.645   1.780   1.879 -0.7204 -0.1110 -0.6499
  715TMC3    C610571   4.666   1.652   1.837 -0.4364 -0.0944 -0.1601
  715TMC3     C10572   4.372   1.885   1.665  0.2117  0.5237 -0.0504
  715TMC3     O10573   4.346   1.845   1.552 -0.3690  0.2439  0.4065
  715TMC3     H10574   4.427   1.630   1.616 -1.3624  0.1282  0.6309
  715TMC3    H110575   4.545   1.963   1.861  0.4171 -0.4644  0.5924
  715TMC3    H210576   0.025   1.597   1.879  0.3792  0.4882 -0.9961
  715TMC3    C710577   0.029   1.846   1.955  0.1216 -0.3062 -0.0042
  715TMC3    C810578   4.628   1.478   1.669 -0.4214 -0.5326  0.2028
  715TMC3    O110579   0.143   1.814   1.920 -0.6599  0.1987 -0.1717
  715TMC3    O210580   4.571   1.459   1.560 -0.4326 -0.1745 -0.0474
  716MPD2     C10581   0.597   4.668   9.866 -0.2495  0.1197 -0.1774
  716MPD2    C110582   0.611   4.712   9.742 -0.3988 -0.3297 -0.0071
  716MPD2    C210583   0.658   4.621   9.645  0.7830 -0.2339  0.1348
  716MPD2    C310584   0.712   4.496   9.666  0.1079 -0.6691 -0.6750
  716MPD2    C410585   0.706   4.455   9.795  0.4754 -0.3821  0.5080
  716MPD2    C510586   0.650   4.538   9.893  0.2772  0.2365  0.3011
  716MPD2     H10587   0.676   4.665   9.548  0.5627  0.8101  0.5700
  716MPD2    H110588   0.745   4.359   9.828  2.5764  0.0935 -0.5971
  716MPD2    H210589   0.558   0.010   9.943  2.0017  0.5768  0.5915
  716MPD2    H310590   0.641   4.509   9.997  1.1853 -2.6057 -0.4040
  716MPD2     N10591   0.768   4.427   9.561  0.4117  0.0036 -0.3090
  716MPD2    H510592   0.749   4.477   9.474 -1.7829 -1.7834 -0.8436
  716MPD2    N110593   0.579   0.124   9.706 -0.2545  0.5004 -0.1840
  716MPD2    H710594   0.566   0.188   9.783  0.0969 -0.3777  0.6011
  717TMC3    C110595   0.845   4.266   9.415 -0.1807 -0.2574  0.3958
  717TMC3    C210596   0.769   4.308   9.312  0.3103 -0.5989 -0.2344
  717TMC3    C310597   0.780   4.249   9.188 -0.4707  0.2373 -0.2252
  717TMC3    C410598   0.932   4.160   9.399  0.4492  0.0296  0.3001
  717TMC3    C510599   0.941   4.098   9.273  0.3918  0.4788  0.5495
  717TMC3    C610600   0.857   4.135   9.171 -1.0915 -0.1567  0.0103
  717TMC3     C10601   0.822   4.303   9.556  0.4008  0.0369  0.4490
  717TMC3     O10602   0.888   4.252   9.645  0.6321  0.2217 -0.3903
  717TMC3     H10603   0.700   4.386   9.340 -0.9510 -1.2142 -1.6155
  717TMC3    H110604   1.000   4.138   9.480  1.2339  0.7077 -0.1719
  717TMC3    H210605   0.845   4.075   9.081 -3.7607 -1.1512  1.0482
  717TMC3    C710606   1.008   3.974   9.264 -0.0615  0.3564  0.2966
  717TMC3    C810607   0.702   4.307   9.081  0.3905  0.3383  1.0026
  717TMC3    O110608   1.025   3.931   9.152  0.0555 -0.0852  0.0348
  717TMC3    O210609   0.621   4.393   9.120 -0.3102 -0.2006  0.4323
  718MPD2     C10610   3.919   4.025  12.379  0.8706 -0.2507  0.1790
  718MPD2    C110611   3.964   3.917  12.441 -0.4050  0.1648  0.6993
  718MPD2    C210612   3.915   3.897  12.567 -0.4273  0.1456  0.2570
  718MPD2    C310613   3.823   3.969  12.637 -0.4203 -0.3917  0.4411
  718MPD2    C410614   3.774   4.081  12.569 -0.6908 -0.0619 -0.0851
  718MPD2    C510615   3.827   4.107  12.447  0.0526  0.8395  0.6545
  718MPD2     H10616   3.948   3.813  12.627 -0.9012 -1.5442 -1.8596
  718MPD2    H110617   3.695   4.140  12.615  0.5540 -0.9953  3.2185
  718MPD2    H210618   3.949   4.039  12.276 -1.0028 -2.0921 -0.6087
  718MPD2    H310619   3.787   4.189  12.388  1.4346  0.6007 -0.6125
  718MPD2     N10620   3.784   3.927  12.768 -0.0559 -0.1086 -0.3588
  718MPD2    H510621   3.831   3.843  12.800 -1.9054 -0.0798  2.3901
  718MPD2    N110622   4.049   3.830  12.369 -0.2720  0.2764 -0.2225
  718MPD2    H710623   4.087   3.863  12.281  0.6081  1.7835  0.7250
  719TMC3    C110624   4.166   3.624  12.340  0.6005  0.6627  0.3032
  719TMC3    C210625   4.174   3.495  12.380 -0.1169 -0.9495  0.8257
  719TMC3    C310626   4.293   3.442  12.425  0.3222 -0.1690 -0.3446
  719TMC3    C410627   4.280   3.692  12.310  0.4851 -0.1522  0.4795
  719TMC3    C510628   4.399   3.643  12.358 -0.0246  0.4987 -0.2082
  719TMC3    C610629   4.408   3.521  12.423 -0.1788 -0.4639 -0.2720
  719TMC3     C10630   4.056   3.695  12.401 -0.4260  0.4538 -0.4254
  719TMC3     O10631   4.004   3.628  12.488  0.3126  0.3785  0.0926
  719TMC3     H10632   4.080   3.442  12.391 -0.7995  0.5630  2.4422
  719TMC3    H110633   4.281   3.793  12.269  0.9505 -0.5023 -0.3709
  719TMC3    H210634   4.501   3.481  12.462 -0.3968  0.8359  1.6341
  719TMC3    C710635   4.532   3.713  12.353  0.9143 -0.1351 -0.2015
  719TMC3    C810636   4.280   3.370  12.549  0.3592 -0.1601  0.5590
  719TMC3    O110637   4.633   3.642  12.354 -0.4875  0.4864  0.0525
  719TMC3    O210638   4.381   3.313  12.593 -0.2156 -0.5177 -0.2764
  720MPD2     C10639   2.712   0.509  14.330 -0.3832 -0.0825  0.3130
  720MPD2    C110640   2.757   0.496  14.202 -0.1518 -0.2384 -0.1210
  720MPD2    C210641   2.894   0.478  14.191 -0.3607  0.3509 -0.9881
  720MPD2    C310642   2.985   0.465  14.294  0.4225 -0.6490  1.1146
  720MPD2    C410643   2.936   0.473  14.421  0.8110  0.1536 -0.3036
  720MPD2    C510644   2.803   0.493  14.431 -0.0602  0.0943 -0.3757
  720MPD2     H10645   2.936   0.464  14.092  0.2309  1.8209 -0.9353
  720MPD2    H110646   2.997   0.449  14.507  1.0491 -0.4277 -0.6354
  720MPD2    H210647   2.612   0.533  14.365 -1.0520 -1.4347 -0.6501
  720MPD2    H310648   2.757   0.495  14.529 -1.1334  2.8049 -0.9432
  720MPD2     N10649   3.123   0.450  14.268  0.2727 -0.3516  0.5311
  720MPD2    H510650   3.152   0.423  14.175  1.0284 -0.1991  0.7220
  720MPD2    N110651   2.676   0.499  14.090  0.1222  0.2116 -0.5827
  720MPD2    H710652   2.712   0.459  14.004  0.4804 -2.2244  0.7101
  721TMC3    C110653   3.347   0.392  14.336  0.9311  0.8138  0.1619
  721TMC3    C210654   3.428   0.345  14.437 -0.3992 -1.4179  0.2312
  721TMC3    C310655   3.550   0.285  14.420  0.5629  0.1518 -0.3616
  721TMC3    C410656   3.400   0.406  14.214  0.4987 -0.1801 -0.0881
  721TMC3    C510657   3.529   0.353  14.193 -0.1465 -0.4282  0.3247
  721TMC3    C610658   3.596   0.283  14.295 -0.2865  0.2703 -0.0240
  721TMC3     C10659   3.221   0.444  14.372 -0.3206 -0.3056 -0.2581
  721TMC3     O10660   3.219   0.500  14.479 -0.3102  0.2149  0.1089
  721TMC3     H10661   3.376   0.329  14.531 -1.5942 -2.4875 -0.6120
  721TMC3    H110662   3.340   0.454  14.138  0.4985 -2.7599 -1.7130
  721TMC3    H210663   3.700   0.252  14.286  0.0706  1.6348 -0.5951
  721TMC3    C710664   3.612   0.410  14.084 -0.4405  0.7498 -0.4822
  721TMC3    C810665   3.576   0.163  14.490 -0.6226 -0.0166 -0.2804
  721TMC3    O110666   3.720   0.358  14.054  0.6911  0.1314 -0.2220
  721TMC3    O210667   3.634   0.076  14.425  0.3896  0.1472 -0.5440
  722MPD2     C10668   1.740   3.663  13.330 -0.2607 -0.5879 -0.6635
  722MPD2    C110669   1.762   3.782  13.264  0.4057  0.3790 -0.3148
  722MPD2    C210670   1.673   3.815  13.167  0.5120  0.2323  0.9284
  722MPD2    C310671   1.568   3.734  13.127 -0.3555 -0.1603 -0.4251
  722MPD2    C410672   1.551   3.616  13.182  0.0747  0.2033  0.3988
  722MPD2    C510673   1.635   3.589  13.291 -0.3575  0.3487  0.0129
  722MPD2     H10674   1.690   3.906  13.111  0.4087  0.2267  0.8895
  722MPD2    H110675   1.476   3.543  13.157  1.1128 -0.9139  0.5444
  722MPD2    H210676   1.805   3.636  13.413  0.3107 -0.7622 -1.1698
  722MPD2    H310677   1.615   3.500  13.349  0.3612  1.1954  1.5618
  722MPD2     N10678   1.489   3.787  13.029  0.5923  0.0096 -0.6578
  722MPD2    H510679   1.498   3.887  13.017 -2.2096  0.5361  1.5158
  722MPD2    N110680   1.868   3.868  13.292 -0.2464 -0.4603  0.0991
  722MPD2    H710681   1.871   3.955  13.239 -1.4457 -0.2048  0.4739
  723TMC3    C110682   1.344   3.800  12.847  0.7202  0.1718  0.0163
  723TMC3    C210683   1.292   3.740  12.734 -0.0071 -0.2522 -0.8255
  723TMC3    C310684   1.257   3.814  12.619 -0.4586 -0.2478  0.1115
  723TMC3    C410685   1.355   3.937  12.859 -0.1974 -0.1490  1.0952
  723TMC3    C510686   1.325   4.007  12.742  0.0724  0.5042 -0.2974
  723TMC3    C610687   1.256   3.951  12.632 -0.3209 -0.5472 -0.6128
  723TMC3     C10688   1.405   3.714  12.945  0.0724  0.2581  0.1643
  723TMC3     O10689   1.382   3.598  12.938 -0.2132  0.0753 -0.3179
  723TMC3     H10690   1.284   3.632  12.726  2.0986 -0.5005  0.4324
  723TMC3    H110691   1.388   3.994  12.945  0.4948  0.9262  0.1255
  723TMC3    H210692   1.191   4.016  12.574 -0.6840 -1.0481 -0.7586
  723TMC3    C710693   1.297   4.148  12.775 -0.4843  0.2462 -0.3757
  723TMC3    C810694   1.165   3.753  12.530  0.1005  0.2272  0.2706
  723TMC3    O110695   1.251   4.158  12.890 -0.2920 -0.7575  0.0081
  723TMC3    O210696   1.102   3.824  12.456  0.0804  0.1973  0.7265
  724TMC3    C110697   1.712   2.758   9.657 -0.1972  0.1364  0.4622
  724TMC3    C210698   1.833   2.762   9.591  0.1749  0.0437  0.7624
  724TMC3    C310699   1.869   2.654   9.519 -0.2834 -0.0455 -0.6310
  724TMC3    C410700   1.621   2.656   9.661  0.2914  0.0347  0.1742
  724TMC3    C510701   1.660   2.548   9.580 -0.0571  0.5546 -0.3053
  724TMC3    C610702   1.785   2.546   9.516 -0.3971 -0.2658  0.1158
  724TMC3     C10703   1.702   2.872   9.751 -0.2072 -0.0124 -0.2078
  724TMC3     O10704   1.805   2.924   9.787  0.2110  0.0428 -0.6500
  724TMC3     H10705   1.908   2.838   9.607 -0.4186  0.1223  3.1838
  724TMC3    H110706   1.539   2.647   9.731  0.6566  0.8911  0.7155
  724TMC3    H210707   1.818   2.453   9.470 -3.4212 -0.0123 -2.6144
  724TMC3    C710708   1.587   2.427   9.579 -0.2665 -0.0037 -0.3600
  724TMC3    C810709   1.974   2.649   9.425  0.7692 -0.6198 -0.5287
  724TMC3    O110710   1.640   2.325   9.538 -0.3671 -0.3269 -0.4432
  724TMC3    O210711   1.941   2.604   9.314  0.9547  0.3090 -0.1960
  725TMC3    C110712   3.464   0.899  12.346  0.5317 -0.2597 -0.3445
  725TMC3    C210713   3.411   0.891  12.223 -0.8985 -0.3119  0.1222
  725TMC3    C310714   3.385   0.768  12.160  0.3304  0.1100  0.3021
  725TMC3    C410715   3.508   0.781  12.408  0.6462 -0.0381 -0.3214
  725TMC3    C510716   3.462   0.659  12.349 -1.1298  0.1788 -0.5004
  725TMC3    C610717   3.412   0.649  12.226 -0.5681  0.4035  0.1218
  725TMC3     C10718   3.504   1.026  12.405 -0.2049 -0.4064  0.8325
  725TMC3     O10719   3.487   1.033  12.525  0.0902 -0.0929 -0.6972
  725TMC3     H10720   3.390   0.981  12.167  0.3988  0.1273  0.3443
  725TMC3    H110721   3.561   0.774  12.502 -0.3996  3.0834  0.4714
  725TMC3    H210722   3.377   0.552  12.194 -0.5359  0.5490 -0.3515
  725TMC3    C710723   3.501   0.534  12.412  0.6224 -0.1641 -0.5710
  725TMC3    C810724   3.336   0.747  12.024 -0.5567  0.2912  0.5185
  725TMC3    O110725   3.532   0.447  12.324 -0.3303  0.1443  0.6036
  725TMC3    O210726   3.301   0.634  11.988 -0.2761  0.3103  0.2266
  726MPD2     C10727   1.778   1.958  11.009 -0.1812  0.9092  0.7070
  726MPD2    C110728   1.712   2.006  10.900  0.3743  0.5527  0.0291
  726MPD2    C210729   1.572   1.986  10.888 -0.6666  0.0424 -0.2539
  726MPD2    C310730   1.494   1.927  10.988  0.2906 -0.1034  0.1868
  726MPD2    C410731   1.565   1.894  11.102 -0.5547 -0.2121 -0.6030
  726MPD2    C510732   1.699   1.912  11.114  0.4297  0.1954  0.1501
  726MPD2     H10733   1.527   2.022  10.796 -2.1541  1.7117  1.1418
  726MPD2    H110734   1.525   1.853  11.194  0.3428  4.7606  1.9614
  726MPD2    H210735   1.882   1.984  11.022 -0.1344  0.4066  1.3301
  726MPD2    H310736   1.756   1.887  11.202  0.2830 -1.1092 -0.1338
  726MPD2     N10737   1.348   1.908  10.990 -0.7250 -0.0985 -0.3630
  726MPD2    H510738   1.304   1.867  11.072 -0.8059 -0.5737 -0.6426
  726MPD2    N110739   1.773   2.073  10.790 -0.5499  0.5411  0.8999
  726MPD2    H710740   1.709   2.098  10.715  0.8488  3.7062  0.7561
  727TMC3    C110741   1.927   2.173  10.645 -0.1835  0.2070 -0.2015
  727TMC3    C210742   2.039   2.249  10.627 -0.3697 -0.1418  0.2112
  727TMC3    C310743   2.055   2.301  10.501  1.1214 -0.2965 -0.0067
  727TMC3    C410744   1.820   2.164  10.559  0.3378 -0.3718  0.1891
  727TMC3    C510745   1.840   2.234  10.444  0.6405 -0.0800  0.3336
  727TMC3    C610746   1.953   2.304  10.409  0.6313  1.1285 -0.8240
  727TMC3     C10747   1.906   2.101  10.777  0.2606 -0.0164 -0.1861
  727TMC3     O10748   2.004   2.090  10.853  0.3256  0.2529 -0.4172
  727TMC3     H10749   2.123   2.244  10.696  0.6381 -0.5648 -1.0332
  727TMC3    H110750   1.724   2.113  10.565  0.5518 -1.1033 -2.5605
  727TMC3    H210751   1.975   2.326  10.305 -2.5343 -0.8043 -1.9218
  727TMC3    C710752   1.721   2.240  10.358  0.3612 -0.0889 -0.2724
  727TMC3    C810753   2.187   2.334  10.454  0.1102  0.4363 -0.3517
  727TMC3    O110754   1.626   2.162  10.379 -0.1095  0.1664 -0.2846
  727TMC3    O210755   2.209   2.298  10.337 -0.0718 -0.4022  0.3197
  728TMC3    C110756   0.619   0.950  15.455 -0.0229  0.1340 -0.9371
  728TMC3    C210757   0.740   1.016  15.484 -0.0409  0.6388  0.0187
  728TMC3    C310758   0.823   1.029  15.377 -0.5865 -0.1406  0.3101
  728TMC3    C410759   0.599   0.881  15.341 -0.5684  0.0265 -0.2059
  728TMC3    C510760   0.687   0.887  15.235 -0.0339 -0.4111  0.0730
  728TMC3    C610761   0.795   0.966  15.252 -0.0365  0.2837  0.4561
  728TMC3     C10762   0.518   0.956  15.554  0.0803  0.3476  0.8094
  728TMC3     O10763   0.553   0.976  15.671 -0.6767  0.1727  0.5248
  728TMC3     H10764   0.768   1.071  15.573  2.9571 -0.6256 -0.1268
  728TMC3    H110765   0.508   0.826  15.316 -0.8217 -0.2193  1.2477
  728TMC3    H210766   0.862   0.984  15.168 -0.1522  1.5510  0.6243
  728TMC3    C710767   0.635   0.878  15.104 -1.0525 -0.8954 -1.1865
  728TMC3    C810768   0.961   1.075  15.392  0.5779 -0.0238  0.6336
  728TMC3    O110769   0.541   0.799  15.093  0.1561 -0.2522 -0.3940
  728TMC3    O210770   0.984   1.156  15.483  0.1844  0.1410 -0.1697
  729MPD2     C10771   2.154   2.497  17.013 -0.6260  0.5527 -0.5176
  729MPD2    C110772   2.235   2.398  17.066  0.6609 -0.0100  0.2926
  729MPD2    C210773   2.251   2.391  17.208 -0.4378  0.7780  0.2626
  729MPD2    C310774   2.195   2.490  17.291  0.3725 -0.3345  0.6504
  729MPD2    C410775   2.112   2.583  17.235 -0.1163  0.6580 -0.2679
  729MPD2    C510776   2.096   2.590  17.102  0.4172  0.8998 -0.2991
  729MPD2     H10777   2.327   2.329  17.254  1.8234  4.3688  1.3337
  729MPD2    H110778   2.073   2.660  17.301 -1.0694 -0.0081 -0.0646
  729MPD2    H210779   2.138   2.490  16.906 -1.3577 -1.3892 -0.2976
  729MPD2    H310780   2.024   2.662  17.065  1.5916  2.5609  0.6645
  729MPD2     N10781   2.213   2.494  17.433  0.1328 -0.3224  0.1009
  729MPD2    H510782   2.183   2.581  17.475  0.8116 -0.8608  1.6853
  729MPD2    N110783   2.309   2.320  16.972  0.2715  0.5969  0.4271
  729MPD2    H710784   2.302   2.344  16.874  2.3761 -0.4529  0.0352
  730TMC3    C110785   2.313   2.491  17.642  0.7091  0.6378 -0.6029
  730TMC3    C210786   2.432   2.470   0.010 -0.1001 -0.3426 -0.4110
  730TMC3    C310787   2.468   2.566   0.096  0.0711  0.2182 -0.7206
  730TMC3    C410788   2.236   2.606  17.658  0.1361 -0.0003  0.4809
  730TMC3    C510789   2.283   2.707   0.041  0.0763  0.3354  0.0922
  730TMC3    C610790   2.397   2.684   0.113  0.3684 -0.0838  0.5926
  730TMC3     C10791   2.295   2.419  17.513 -1.2440  0.2731 -0.0902
  730TMC3     O10792   2.370   2.324  17.482 -0.3305  0.0441  0.5655
  730TMC3     H10793   2.491   2.380   0.000 -0.3568 -0.5170 -0.3492
  730TMC3    H110794   2.137   2.624  17.615  0.5576  0.4826 -0.2845
  730TMC3    H210795   2.451   2.766   0.160 -1.5782  1.2603  0.4902
  730TMC3    C710796   2.298   2.819  17.640  0.4484  0.5125 -0.1098
  730TMC3    C810797   2.583   2.554   0.183 -0.1466  0.0647 -0.0061
  730TMC3    O110798   2.255   2.794  17.526 -0.1300  0.2991  0.1848
  730TMC3    O210799   2.576   2.599   0.298  0.0807 -0.3101 -0.5108
  731MPD2     C10800   2.223   4.162  12.983 -0.3747  0.3912 -0.3363
  731MPD2    C110801   2.307   4.246  12.921  0.0122 -0.1888  0.0414
  731MPD2    C210802   2.386   4.334  12.993 -0.5082  0.0156 -0.2102
  731MPD2    C310803   2.373   4.337  13.131 -0.1426  0.6174  0.4758
  731MPD2    C410804   2.273   4.264  13.181  0.3856  0.5656  0.2496
  731MPD2    C510805   2.201   4.171  13.114  0.4717  0.5982 -0.2255
  731MPD2     H10806   2.454   4.405  12.947  1.1605 -2.0627 -1.0021
  731MPD2    H110807   2.238   4.270  13.284 -0.3522 -3.0408  0.1963
  731MPD2    H210808   2.170   4.083  12.930 -1.3216  0.2673  0.8054
  731MPD2    H310809   2.117   4.123  13.163  1.8294  0.0359  1.5410
  731MPD2     N10810   2.451   4.431  13.203 -0.1111  0.2069 -0.5343
  731MPD2    H510811   2.505   4.501  13.154 -2.8732  1.6011 -1.5792
  731MPD2    N110812   2.310   4.238  12.779  0.2665 -0.1391 -0.2298
  731MPD2    H710813   2.240   4.182  12.732 -0.4520  0.2486  0.3821
  732TMC3    C110814   2.364   4.277  12.551 -0.1023 -0.0958  0.4304
  732TMC3    C210815   2.231   4.286  12.512 -0.2996 -0.1145  0.8952
  732TMC3    C310816   2.207   4.291  12.383 -0.1586  0.4002  0.3362
  732TMC3    C410817   2.465   4.257  12.459 -0.4253 -0.4845 -0.0079
  732TMC3    C510818   2.433   4.242  12.330  0.3401 -0.4423 -0.4865
  732TMC3    C610819   2.301   4.272  12.288  0.3504 -0.6088  0.3798
  732TMC3     C10820   2.398   4.302  12.696 -0.2614 -0.0957 -0.3710
  732TMC3     O10821   2.504   4.360  12.720  0.2521 -0.1836 -0.3007
  732TMC3     H10822   2.152   4.314  12.580 -0.0354 -1.5421  1.8029
  732TMC3    H110823   2.564   4.249  12.501 -1.0009 -0.1223  1.4200
  732TMC3    H210824   2.271   4.296  12.186 -1.3889 -0.3861  0.9367
  732TMC3    C710825   2.525   4.264  12.218  0.1577  0.0453 -0.0719
  732TMC3    C810826   2.080   4.344  12.331 -1.1284  0.6972 -0.6498
  732TMC3    O110827   2.488   4.271  12.099  0.1076  0.3309 -0.5213
  732TMC3    O210828   2.039   4.310  12.218  0.1908 -0.0433 -0.4311
  733TMC3    C110829   3.508   3.779  13.075  0.1597  0.0925  0.1529
  733TMC3    C210830   3.547   3.890  13.006  0.5910  0.3538 -0.7308
  733TMC3    C310831   3.678   3.903  12.963 -0.1508  0.2272  0.0265
  733TMC3    C410832   3.601   3.683  13.115  0.1340  0.6374  0.5908
  733TMC3    C510833   3.732   3.701  13.074  0.8304 -0.6372 -0.8533
  733TMC3    C610834   3.766   3.808  12.990  0.2049  0.2926 -0.1766
  733TMC3     C10835   3.374   3.774  13.130  0.1013 -0.6360  0.1317
  733TMC3     O10836   3.294   3.855  13.093  0.3234  0.2516  0.2336
  733TMC3     H10837   3.472   3.963  12.981  2.3317  2.4553  0.2009
  733TMC3    H110838   3.577   3.591  13.168  0.5448  0.9683  1.3470
  733TMC3    H210839   3.871   3.822  12.970  0.2870 -1.1639 -0.7317
  733TMC3    C710840   3.826   3.591  13.081 -0.1571 -0.4327 -0.1319
  733TMC3    C810841   3.688   3.981  12.839 -0.1921  0.2749 -0.0819
  733TMC3    O110842   3.847   3.533  13.187 -0.2646 -0.4877 -0.1764
  733TMC3    O210843   3.605   4.067  12.807  0.3850  0.3532  0.1070
  734MPD2     C10844   1.140   1.223  12.444  0.2561 -0.1592 -0.1422
  734MPD2    C110845   1.050   1.158  12.357  0.6585  0.7873  0.0623
  734MPD2    C210846   1.072   1.168  12.216 -0.0459  0.4404 -0.2500
  734MPD2    C310847   1.192   1.228  12.171  0.5116  0.3725 -0.0077
  734MPD2    C410848   1.285   1.280  12.260  0.7984  0.2362 -0.8542
  734MPD2    C510849   1.251   1.283  12.391  0.2541  0.0884 -0.2360
  734MPD2     H10850   1.001   1.137  12.141  0.4998  0.3503 -0.7348
  734MPD2    H110851   1.382   1.322  12.234  0.8426  0.2982 -0.5898
  734MPD2    H210852   1.129   1.233  12.551 -1.7000 -1.7582 -0.1940
  734MPD2    H310853   1.318   1.342  12.453  1.2014 -0.4251 -0.7625
  734MPD2     N10854   1.211   1.232  12.037  0.1899 -0.1111 -0.1682
  734MPD2    H510855   1.144   1.182  11.979  1.3829  0.9145 -2.4329
  734MPD2    N110856   0.925   1.100  12.401 -0.6853 -0.3218 -0.8033
  734MPD2    H710857   0.918   1.089  12.502  0.4536  0.1298 -0.6809
  735TMC3    C110858   0.719   0.980  12.382 -0.5392 -0.6506  0.3921
  735TMC3    C210859   0.601   0.983  12.316 -0.3215 -0.4567  0.0691
  735TMC3    C310860   0.538   0.868  12.280  0.3107  0.1022  0.1514
  735TMC3    C410861   0.770   0.858  12.422  0.2005 -0.4376  0.1290
  735TMC3    C510862   0.687   0.747  12.400  0.0292 -0.4549 -0.2404
  735TMC3    C610863   0.570   0.753  12.337 -0.3882  0.3875  0.2127
  735TMC3     C10864   0.816   1.066  12.319  0.1238 -0.5460 -0.1759
  735TMC3     O10865   0.797   1.073  12.200  0.0939  0.5946  0.3228
  735TMC3     H10866   0.563   1.074  12.271  1.3412  0.7379  1.0899
  735TMC3    H110867   0.875   0.845  12.447  0.1117  1.6125  1.5095
  735TMC3    H210868   0.515   0.667  12.301 -0.5088  0.7251 -0.4040
  735TMC3    C710869   0.731   0.609  12.423 -0.0781  0.1594  0.4972
  735TMC3    C810870   0.543   0.833  12.133  0.0083  0.2205  0.7708
  735TMC3    O110871   0.646   0.517  12.430 -0.1864 -0.5991 -1.0431
  735TMC3    O210872   0.477   0.742  12.088 -0.1531 -0.2792  0.4907
  736MPD2     C10873   0.872   0.362  12.503 -0.5809 -0.3872  0.4811
  736MPD2    C110874   0.922   0.458  12.415  0.3687  0.5075 -0.4693
  736MPD2    C210875   1.043   0.435  12.367  0.4321  0.0034  0.0510
  736MPD2    C310876   1.110   0.312  12.388 -0.1640  0.9964 -0.0452
  736MPD2    C410877   1.053   0.206  12.464 -0.1314 -0.3540 -0.3843
  736MPD2    C510878   0.939   0.239  12.526 -0.2488  0.9963  0.6544
  736MPD2     H10879   1.083   0.517  12.308 -0.0465 -1.3144 -2.1380
  736MPD2    H110880   1.105   0.113  12.481  2.4960  1.2526  0.3034
  736MPD2    H210881   0.780   0.375  12.558 -0.6222  0.2268  0.2700
  736MPD2    H310882   0.896   0.165  12.592  0.3106 -1.3222 -1.5833
  736MPD2     N10883   1.237   0.279  12.334  0.4804  0.0962 -0.0289
  736MPD2    H510884   1.257   0.179  12.331  0.7870  0.0697  3.5740
  736MPD2    N110885   0.866   0.590  12.401 -0.3856 -0.1409 -0.2099
  736MPD2    H710886   0.921   0.664  12.359 -0.2441  0.1668  0.5223
  737TMC3    C110887   1.423   0.292  12.207 -0.2438 -0.7989 -0.6487
  737TMC3    C210888   1.542   0.368  12.192  0.1967  0.5086 -1.0278
  737TMC3    C310889   1.618   0.341  12.088 -0.6138 -0.3137  0.2217
  737TMC3    C410890   1.383   0.205  12.114 -0.0698 -0.5231 -0.4107
  737TMC3    C510891   1.464   0.184  12.006 -0.0585 -0.2238 -0.5287
  737TMC3    C610892   1.578   0.256  11.991 -0.5499 -0.4664  0.5210
  737TMC3     C10893   1.316   0.363  12.266  0.3514 -0.1784 -0.1999
  737TMC3     O10894   1.327   0.484  12.257 -0.2975 -0.2609 -0.5779
  737TMC3     H10895   1.577   0.444  12.262 -1.3357  1.1825 -0.9991
  737TMC3    H110896   1.283   0.165  12.117 -0.2205 -0.0142  1.0309
  737TMC3    H210897   1.631   0.268  11.897  0.9297  0.8856  1.5319
  737TMC3    C710898   1.434   0.074  11.907  0.8335  0.0821  0.5440
  737TMC3    C810899   1.699   0.449  12.040  0.1039  0.4193  0.7206
  737TMC3    O110900   1.319   0.028  11.903  0.0330 -0.8072 -0.1007
  737TMC3    O210901   1.788   0.484  12.116  0.0318 -0.2937 -0.1776
  738MPD2     C10902   1.154   4.082  15.023  0.2790 -0.5537 -0.4429
  738MPD2    C110903   1.265   4.089  15.099  0.2585  0.1925  0.2606
  738MPD2    C210904   1.374   4.158  15.059 -0.5921 -0.1376 -0.4034
  738MPD2    C310905   1.376   4.219  14.936  0.1886  0.0733  0.0311
  738MPD2    C410906   1.266   4.197  14.855 -0.5035 -0.2449  0.1103
  738MPD2    C510907   1.153   4.134  14.900 -0.7667 -0.0925 -0.1078
  738MPD2     H10908   1.456   4.166  15.129 -0.2308 -0.8937 -0.7346
  738MPD2    H110909   1.259   4.255  14.763 -0.2148 -0.8038 -0.2578
  738MPD2    H210910   1.065   4.032  15.059 -0.3058  1.2090  0.5235
  738MPD2    H310911   1.061   4.119  14.843 -0.1079 -1.8151 -0.7132
  738MPD2     N10912   1.483   4.287  14.885 -0.1063 -0.0080 -0.0127
  738MPD2    H510913   1.475   4.316  14.788 -0.6794  2.2147  0.6865
  738MPD2    N110914   1.285   4.017  15.219 -0.4766  0.5206 -0.8569
  738MPD2    H710915   1.379   4.016  15.257 -0.4160 -0.6436 -1.0179
  739TMC3    C110916   1.717   4.309  14.875 -0.0896  0.0422 -0.3216
  739TMC3    C210917   1.717   4.282  14.738 -0.3322  0.1175 -0.7268
  739TMC3    C310918   1.838   4.267  14.667  0.7622 -0.3379  0.5261
  739TMC3    C410919   1.837   4.305  14.941  0.6122 -0.5025  0.5424
  739TMC3    C510920   1.958   4.290  14.870  0.5406 -0.0652  0.7820
  739TMC3    C610921   1.959   4.268  14.732 -0.1905  0.3934 -0.0019
  739TMC3     C10922   1.601   4.323  14.955 -0.2214  0.2606  0.1850
  739TMC3     O10923   1.623   4.312  15.078  0.1049  0.8435 -0.8258
  739TMC3     H10924   1.626   4.263  14.682 -1.6702  2.9731  0.4888
  739TMC3    H110925   1.830   4.324  15.047 -1.6674  0.7611  0.1541
  739TMC3    H210926   2.056   4.253  14.688  0.3939 -1.2460  1.8541
  739TMC3    C710927   2.085   4.259  14.936  0.1406 -0.1236  0.2861
  739TMC3    C810928   1.823   4.281  14.525 -0.0183 -0.4630  0.0801
  739TMC3    O110929   2.185   4.237  14.867 -0.3483 -0.2296 -0.3396
  739TMC3    O210930   1.720   4.251  14.474 -0.1979 -0.1042 -0.5321
  740TMC3    C110931   2.614   1.001  14.257  0.7413 -0.8297 -0.6101
  740TMC3    C210932   2.652   0.970  14.384  0.1073 -0.1463 -0.0021
  740TMC3    C310933   2.766   0.882  14.376 -0.4794 -0.5918  0.3906
  740TMC3    C410934   2.675   0.963  14.137  0.5099  0.2835  0.0574
  740TMC3    C510935   2.797   0.899  14.149 -0.2174  0.7312 -0.3843
  740TMC3    C610936   2.842   0.856  14.269 -0.3449 -0.4995 -0.1192
  740TMC3     C10937   2.489   1.076  14.237 -0.3474 -0.1272 -0.0366
  740TMC3     O10938   2.470   1.151  14.142 -0.1685 -0.7804  0.9756
  740TMC3     H10939   2.606   1.008  14.475 -0.4626  3.3431 -1.7211
  740TMC3    H110940   2.631   0.973  14.039  1.3744 -0.3040 -0.3888
  740TMC3    H210941   2.915   0.776  14.269 -0.4002 -0.5495 -0.6690
  740TMC3    C710942   2.853   0.840  14.027 -0.6594  0.2439  0.8716
  740TMC3    C810943   2.809   0.814  14.497 -0.5013 -1.2610  0.3059
  740TMC3    O110944   2.942   0.761  14.039  0.2552  0.0242 -0.6845
  740TMC3    O210945   2.931   0.798  14.511 -0.3146 -0.0283  0.7081
  741TMC3    C110946   2.183   0.029  14.867  0.2615  0.5924  0.2695
  741TMC3    C210947   2.058   0.029  14.821  0.2180  0.4788  0.0284
  741TMC3    C310948   1.958   4.680  14.885  0.0000 -0.2824  0.5133
  741TMC3    C410949   2.207   4.704  14.998  0.4407  0.3603  0.0439
  741TMC3    C510950   2.102   4.648  15.071  0.9376 -0.7533 -0.4958
  741TMC3    C610951   1.974   4.636  15.012 -0.2690  0.3418  0.6903
  741TMC3     C10952   2.284   0.085  14.785  0.3054  0.6126  0.1056
  741TMC3     O10953   2.257   0.102  14.667 -0.4039 -0.5653  0.2962
  741TMC3     H10954   2.037   0.088  14.732  2.1667  3.6898  1.7017
  741TMC3    H110955   2.308   4.705  15.039 -0.1069  0.4825  1.3794
  741TMC3    H210956   1.897   4.572  15.054  0.3623 -1.0781 -0.2879
  741TMC3    C710957   2.122   4.581  15.190 -0.2455 -0.9859 -0.0693
  741TMC3    C810958   1.835   4.648  14.809  0.2013 -0.2024  0.0338
  741TMC3    O110959   2.035   4.502  15.226 -0.1197 -0.9514 -0.2535
  741TMC3    O210960   1.732   4.638  14.868  0.2977  0.0943  0.0277
  742TMC3    C110961   1.739   3.371  15.409  0.6988  0.3388 -0.4548
  742TMC3    C210962   1.654   3.309  15.324  0.5763  0.5412  0.2448
  742TMC3    C310963   1.708   3.277  15.204  0.0533  0.5538  0.6929
  742TMC3    C410964   1.868   3.406  15.386  0.0534 -0.0529  0.2198
  742TMC3    C510965   1.917   3.352  15.271  0.2337  0.4502  0.7450
  742TMC3    C610966   1.840   3.289  15.174 -0.4477 -0.1942  1.0230
  742TMC3     C10967   1.668   3.419  15.525 -0.2522 -0.6464 -0.6666
  742TMC3     O10968   1.571   3.355  15.564 -0.3615  0.1007 -0.0288
  742TMC3     H10969   1.549   3.304  15.351  0.4727  1.5755  0.0321
  742TMC3    H110970   1.921   3.463  15.462  0.2793  0.0219  0.0045
  742TMC3    H210971   1.891   3.229  15.100  1.2254  0.4324  1.6798
  742TMC3    C710972   2.057   3.332  15.266 -0.2744  0.0149 -0.5399
  742TMC3    C810973   1.633   3.188  15.116  0.1871  0.4192 -0.1959
  742TMC3    O110974   2.102   3.268  15.172 -0.3807  0.1705  0.3639
  742TMC3    O210975   1.701   3.105  15.058 -0.4124 -0.3563 -0.3473
  743MPD2     C10976   3.635   0.294   1.702  0.1528  0.0176 -0.6115
  743MPD2    C110977   3.677   0.177   1.639  0.1381 -0.2465  0.1341
  743MPD2    C210978   3.775   0.097   1.703 -0.0781 -0.2147 -0.1524
  743MPD2    C310979   3.821   0.132   1.834 -0.0425  0.5246  1.2029
  743MPD2    C410980   3.764   0.241   1.894  0.6246 -0.4201 -0.2715
  743MPD2    C510981   3.681   0.322   1.822  0.1366 -0.0443 -0.7514
  743MPD2     H10982   3.811   0.002   1.666 -1.9292 -1.1747  0.5511
  743MPD2    H110983   3.784   0.286   1.990  0.9817 -1.4310  0.1240
  743MPD2    H210984   3.569   0.369   1.658 -1.7040 -0.9033  0.5942
  743MPD2    H310985   3.647   0.418   1.859  0.9863 -0.4294  1.0370
  743MPD2     N10986   3.922   0.047   1.889 -0.1956  0.5443 -0.2969
  743MPD2    H510987   3.957   4.700   1.824 -1.7447 -0.2622 -0.2466
  743MPD2    N110988   3.622   0.144   1.520  0.0426 -0.1644 -0.1054
  743MPD2    H710989   3.548   0.203   1.482 -0.4303  0.8516  2.4275
  744TMC3    C110990   3.593   0.033   1.311  0.3011  0.0615 -0.0488
  744TMC3    C210991   3.486   0.121   1.306 -0.2686  0.5437 -0.0124
  744TMC3    C310992   3.455   0.168   1.178 -0.6104  0.5993  0.2660
  744TMC3    C410993   3.653   4.716   1.198  0.1247 -0.0828 -0.7722
  744TMC3    C510994   3.614   0.044   1.082  0.4123 -0.5393 -0.0106
  744TMC3    C610995   3.523   0.138   1.068  0.0006 -0.1822  0.6035
  744TMC3     C10996   3.669   0.044   1.435 -0.1408  0.3720  0.5566
  744TMC3     O10997   3.775   4.707   1.447 -0.0591  0.3083 -0.2873
  744TMC3     H10998   3.416   0.138   1.387 -1.7177  1.8290 -1.5471
  744TMC3    H110999   3.749   4.667   1.208 -0.7778 -1.3716  1.7678
  744TMC3    H211000   3.493   0.182   0.973 -0.4505 -2.2422 -0.2224
  744TMC3    C711001   3.672   4.716   0.955 -0.3321 -0.3176  0.1804
  744TMC3    C811002   3.354   0.279   1.177 -0.0701  0.1078  0.6797
  744TMC3    O111003   3.721   4.603   0.947 -0.2913 -0.0888 -0.8249
  744TMC3    O211004   3.319   0.318   1.289 -0.0116 -0.3613 -0.0639
  745TMC3    C111005   2.584   2.739  13.278 -0.2174  0.2610  0.0379
  745TMC3    C211006   2.492   2.666  13.348 -0.0522 -0.1245 -0.1309
  745TMC3    C311007   2.366   2.643  13.303 -0.0858 -0.7015  0.4447
  745TMC3    C411008   2.542   2.816  13.175 -0.6702  0.2187 -0.8880
  745TMC3    C511009   2.416   2.790  13.134  0.2166  0.2934  0.8496
  745TMC3    C611010   2.330   2.708  13.191  0.4478 -0.4206  0.3155
  745TMC3     C11011   2.688   2.796  13.363 -1.0410  0.4703 -0.7448
  745TMC3     O11012   2.656   2.807  13.483  0.1764  0.0669  0.3237
  745TMC3     H11013   2.538   2.603  13.424 -2.5643 -1.5617  0.1754
  745TMC3    H111014   2.611   2.885  13.128  1.5900 -0.4109  1.4876
  745TMC3    H211015   2.225   2.715  13.165 -0.4320  1.8096  4.5277
  745TMC3    C711016   2.370   2.845  13.007 -0.1342  0.3334  0.0981
  745TMC3    C811017   2.271   2.617  13.408 -0.0739 -0.0527 -0.8672
  745TMC3    O111018   2.295   2.790  12.930  0.6616 -0.5338  0.6893
  745TMC3    O211019   2.164   2.557  13.385  0.4534  0.7190 -0.3338
  746TMC3    C111020   0.311   0.182  11.170 -0.3608  0.5785 -0.1519
  746TMC3    C211021   0.379   0.167  11.055  0.4198 -0.1330 -0.5287
  746TMC3    C311022   0.368   0.041  11.007  0.4043  0.2541  0.0786
  746TMC3    C411023   0.234   0.083  11.236 -0.4460  0.9322 -0.0926
  746TMC3    C511024   0.226   4.678  11.180 -0.1822 -0.0178  0.4233
  746TMC3    C611025   0.296   4.662  11.071  0.6571  0.3661 -0.4869
  746TMC3     C11026   0.252   0.316  11.191 -0.8592 -0.5814  0.3037
  746TMC3     O11027   0.228   0.330  11.312 -0.2454 -0.1897 -0.1132
  746TMC3     H11028   0.432   0.253  11.015  0.5646  0.5424  1.1142
  746TMC3    H111029   0.174   0.104  11.323 -1.0998 -2.0571  0.1885
  746TMC3    H211030   0.282   4.565  11.026  0.2813 -0.4480  1.4005
  746TMC3    C711031   0.109   4.590  11.207 -0.6126  0.2599  0.1319
  746TMC3    C811032   0.438   0.007  10.882  0.2679  0.4441 -0.1324
  746TMC3    O111033   0.060   4.535  11.110  0.0922  0.3298 -0.2408
  746TMC3    O211034   0.444   4.616  10.842 -0.2975  0.0032 -0.0091
  747TMC3    C111035   2.167   4.690  11.208  0.1358 -0.1644  0.0615
  747TMC3    C211036   2.059   4.691  11.288  0.6612 -0.1024 -0.3186
  747TMC3    C311037   2.071   4.687  11.425  0.7386  0.1153  0.2418
  747TMC3    C411038   2.297   4.690  11.264  0.1709 -0.0139  0.2109
  747TMC3    C511039   2.306   4.682  11.407  1.0226 -0.1007 -0.1183
  747TMC3    C611040   2.192   4.690  11.484 -0.1999  0.2914 -0.2137
  747TMC3     C11041   2.156   4.709  11.067  0.3762 -0.2923 -0.4317
  747TMC3     O11042   2.075   4.644  11.005 -0.6245  0.2224  0.3200
  747TMC3     H11043   1.965   4.670  11.239 -0.8784  1.3838  2.0037
  747TMC3    H111044   2.389   4.685  11.207 -0.8946 -1.9134 -1.3634
  747TMC3    H211045   2.201   4.690  11.592 -3.6003  0.6931  0.0903
  747TMC3    C711046   2.436   4.689  11.484  0.2287  0.2831  0.6834
  747TMC3    C811047   1.962   4.685  11.511 -0.4337  0.7122  0.6326
  747TMC3    O111048   2.427   0.015  11.597 -0.1626  0.2202 -0.1533
  747TMC3    O211049   1.980   4.670  11.632 -0.3159  0.2379  0.8400
  748MPD2     C11050   3.078   1.563   1.862 -0.1984 -0.5951 -0.0100
  748MPD2    C111051   3.108   1.429   1.834  0.1361 -0.1903  0.3207
  748MPD2    C211052   3.238   1.402   1.784  0.3152  0.1585 -0.2323
  748MPD2    C311053   3.328   1.503   1.763 -0.2441  0.1295  0.2992
  748MPD2    C411054   3.294   1.635   1.785 -0.4360 -0.7072  0.0727
  748MPD2    C511055   3.176   1.662   1.840 -0.0089  0.0228 -0.0469
  748MPD2     H11056   3.269   1.303   1.753  0.8007  0.0636  0.5640
  748MPD2    H111057   3.371   1.710   1.767 -3.2052  2.1753  0.2931
  748MPD2    H211058   2.988   1.596   1.912 -0.2110  2.0886 -1.7861
  748MPD2    H311059   3.161   1.765   1.871 -0.7483 -0.0643 -0.1161
  748MPD2     N11060   3.447   1.463   1.702  0.3366 -0.2462  0.4494
  748MPD2    H511061   3.473   1.365   1.693  0.0735 -0.0856 -2.0704
  748MPD2    N111062   3.003   1.334   1.842 -0.2569  0.3007  0.2998
  748MPD2    H711063   2.913   1.366   1.877 -0.4872  0.2088 -0.2112
  749TMC3    C111064   3.659   1.483   1.610  0.1309 -0.1379  0.0671
  749TMC3    C211065   3.695   1.375   1.682 -0.2796  0.7456 -0.2290
  749TMC3    C311066   3.800   1.300   1.633  0.3941  0.2907 -0.4315
  749TMC3    C411067   3.737   1.537   1.503 -1.0134  1.0070 -0.0911
  749TMC3    C511068   3.830   1.454   1.457 -0.0243  0.3397 -0.0566
  749TMC3    C611069   3.871   1.334   1.516 -0.7126  0.3556  0.2384
  749TMC3     C11070   3.536   1.549   1.642  0.2324 -0.4923 -0.0852
  749TMC3     O11071   3.518   1.668   1.609  0.1109  0.0134 -0.2482
  749TMC3     H11072   3.637   1.358   1.772  1.6887  1.0177  1.0892
  749TMC3    H111073   3.720   1.640   1.472  0.6323  0.7327 -1.8538
  749TMC3    H211074   3.965   1.287   1.488 -0.6855  1.2439 -1.2105
  749TMC3    C711075   3.915   1.515   1.354 -1.0381  0.2350 -0.7465
  749TMC3    C811076   3.865   1.219   1.736  0.0813  0.3971  0.7548
  749TMC3    O111077   3.919   1.637   1.347  0.0118  0.6673  0.0087
  749TMC3    O211078   3.820   1.237   1.848  0.0405 -0.2671 -0.3375
  750MPD2     C11079   0.597   2.082  11.191 -0.5567  0.6400 -0.8905
  750MPD2    C111080   0.547   1.988  11.273 -0.1183  0.3972  0.2823
  750MPD2    C211081   0.500   1.874  11.214  0.5440 -0.6645  0.1853
  750MPD2    C311082   0.477   1.875  11.077  0.9767 -0.1716  0.4041
  750MPD2    C411083   0.515   1.978  10.996  0.4342  1.0988 -0.0924
  750MPD2    C511084   0.571   2.089  11.058  0.0105  0.6922 -0.1584
  750MPD2     H11085   0.471   1.783  11.265 -0.9846  0.2026  0.8748
  750MPD2    H111086   0.482   1.974  10.893 -0.0985 -2.1396  0.2187
  750MPD2    H211087   0.642   2.164  11.246  0.6775  0.8185 -2.1909
  750MPD2    H311088   0.593   2.178  11.001 -0.5971  2.2466  2.0499
  750MPD2     N11089   0.426   1.751  11.021 -1.0031 -0.0741 -0.1223
  750MPD2    H511090   0.413   1.674  11.086  0.5850  0.8902  1.3195
  750MPD2    N111091   0.552   2.012  11.407  0.1062 -0.2329 -0.4973
  750MPD2    H711092   0.612   2.087  11.439  0.4941 -0.3073 -1.0528
  751TMC3    C111093   0.430   1.570  10.872 -0.3631 -0.2461  0.4097
  751TMC3    C211094   0.364   1.486  10.960  0.5842  0.4586  0.1209
  751TMC3    C311095   0.370   1.347  10.935 -0.0632 -0.0895 -0.6233
  751TMC3    C411096   0.506   1.527  10.769 -0.1430 -0.0581  0.0006
  751TMC3    C511097   0.523   1.389  10.758  0.2369  0.6694  0.4811
  751TMC3    C611098   0.458   1.300  10.838 -0.5267  0.0949 -0.3557
  751TMC3     C11099   0.420   1.715  10.890  0.2772  0.2008 -0.2865
  751TMC3     O11100   0.438   1.779  10.788  0.0345 -0.3237  0.1440
  751TMC3     H11101   0.297   1.517  11.039  1.0365 -0.4792  0.8680
  751TMC3    H111102   0.551   1.601  10.704 -1.8839  0.7351 -0.3109
  751TMC3    H211103   0.461   1.193  10.820 -2.9738  0.2445 -1.6081
  751TMC3    C711104   0.547   1.347  10.624  0.5326  0.3843  0.5895
  751TMC3    C811105   0.270   1.252  10.972  0.5493 -0.3469 -0.3589
  751TMC3    O111106   0.539   1.440  10.544 -0.4261 -0.2472  0.1317
  751TMC3    O211107   0.271   1.149  10.913 -0.0408 -0.0096 -0.3920
  752TMC3    C111108   2.759   1.512  17.611  0.1270 -0.3151  0.0885
  752TMC3    C211109   2.834   1.452   0.013 -0.2095  0.0817 -0.0578
  752TMC3    C311110   2.782   1.453   0.137  0.3529 -0.2966  0.0355
  752TMC3    C411111   2.637   1.569  17.629  0.7157 -0.0013 -0.0202
  752TMC3    C511112   2.590   1.567   0.056  0.7842  0.4352  0.6209
  752TMC3    C611113   2.671   1.522   0.160 -0.3859  0.0240  0.3808
  752TMC3     C11114   2.817   1.501  17.474 -0.7474 -0.4343 -0.3357
  752TMC3     O11115   2.894   1.409  17.454 -0.6102  0.0118 -0.1166
  752TMC3     H11116   2.935   1.421  17.684  0.9628  3.6686  0.1959
  752TMC3    H111117   2.568   1.589  17.548  0.2206  0.9568  0.6360
  752TMC3    H211118   2.632   1.523   0.261 -1.0896  0.4987  0.1101
  752TMC3    C711119   2.475   1.655   0.085 -0.3445  0.1928  0.3302
  752TMC3    C811120   2.872   1.437   0.237  0.2744  0.6780  0.2001
  752TMC3    O111121   2.397   1.679  17.687 -0.0936  0.0223 -0.7194
  752TMC3    O211122   2.870   1.517   0.331 -0.0283 -0.3022  0.5738
  753TMC3    C111123   0.798   3.231  13.549 -0.3705  0.6024  0.2235
  753TMC3    C211124   0.821   3.180  13.673 -0.2884 -0.3947  0.5745
  753TMC3    C311125   0.843   3.043  13.676  0.0328 -0.6217  0.0669
  753TMC3    C411126   0.806   3.159  13.434 -0.8648  0.8397 -0.7623
  753TMC3    C511127   0.820   3.023  13.445  0.0124  0.4912  0.4668
  753TMC3    C611128   0.835   2.963  13.566 -0.0987  0.2804 -0.0821
  753TMC3     C11129   0.811   3.373  13.528 -0.2712 -0.4748  0.0186
  753TMC3     O11130   0.842   3.409  13.415  0.4946 -0.1253 -0.1137
  753TMC3     H11131   0.829   3.235  13.766 -1.8573  0.9828 -0.1284
  753TMC3    H111132   0.789   3.206  13.338  0.6703  2.4461 -0.2513
  753TMC3    H211133   0.841   2.855  13.566 -2.0108  0.1771 -1.3788
  753TMC3    C711134   0.820   2.954  13.316  0.1585 -0.4840  0.0006
  753TMC3    C811135   0.878   2.967  13.793  0.2352 -0.3083  0.5721
  753TMC3    O111136   0.886   3.017  13.232 -0.3286 -0.2930 -0.3144
  753TMC3    O211137   0.851   2.848  13.784 -0.0834 -0.2587  0.1893
  754MPD2     C11138   4.490   2.043  12.890  0.0024 -0.0995 -0.0528
  754MPD2    C111139   4.477   1.906  12.904  0.3918 -0.4176  0.3805
  754MPD2    C211140   4.351   1.849  12.871  0.2634  0.0760  0.5975
  754MPD2    C311141   4.247   1.932  12.834  0.0574  0.5393 -0.3768
  754MPD2    C411142   4.257   2.070  12.837 -0.1971 -0.6620 -0.6798
  754MPD2    C511143   4.381   2.120  12.857 -0.4175  0.6104  0.2419
  754MPD2     H11144   4.337   1.742  12.859  1.1665  0.0230  0.0613
  754MPD2    H111145   4.174   2.127  12.796  0.9471 -0.6946 -3.0654
  754MPD2    H211146   4.586   2.091  12.906  0.3441 -0.5823 -0.6614
  754MPD2    H311147   4.390   2.226  12.836  0.3529  0.4550 -0.1992
  754MPD2     N11148   4.122   1.874  12.804 -0.0900  0.8084  0.1132
  754MPD2    H511149   4.055   1.950  12.796 -1.2297 -0.0495  1.4658
  754MPD2    N111150   4.593   1.833  12.938 -0.2615 -0.1134 -1.0466
  754MPD2    H711151   4.680   1.884  12.933 -0.4859  0.4753  0.9830
  755MPD2     C11152   3.435   2.341  12.873  0.1677  0.4582 -0.0449
  755MPD2    C111153   3.397   2.247  12.966  0.2951  0.0951  0.7591
  755MPD2    C211154   3.481   2.135  12.978  0.2593 -0.1022  0.0543
  755MPD2    C311155   3.594   2.131  12.899  0.5099 -0.1644 -0.5278
  755MPD2    C411156   3.636   2.236  12.821 -0.7375  0.2683  0.2350
  755MPD2    C511157   3.559   2.345  12.815 -0.1321 -0.6068 -0.5320
  755MPD2     H11158   3.445   2.060  13.046 -1.3057 -0.3569 -1.0608
  755MPD2    H111159   3.730   2.240  12.766 -1.5668  0.1724 -1.1780
  755MPD2    H211160   3.382   2.434  12.854  0.0007  0.5437  0.8517
  755MPD2    H311161   3.594   2.432  12.761 -1.0951  0.3925  0.4475
  755MPD2     N11162   3.673   2.009  12.885  0.2217 -0.4646 -0.2479
  755MPD2    H511163   3.756   2.014  12.827 -0.5820  1.7517 -1.1981
  755MPD2    N111164   3.269   2.264  13.029  0.3016  0.4445  0.1685
  755MPD2    H711165   3.211   2.344  13.008 -0.1494  0.0806  0.0461
  756MPD2     C11166   0.104   2.934   9.632 -0.4573  0.1070 -0.0878
  756MPD2    C111167   0.032   2.841   9.705  0.1175  0.4301  0.1880
  756MPD2    C211168   4.679   2.747   9.646  0.6074  0.5489  0.4739
  756MPD2    C311169   4.695   2.719   9.513  1.0773  0.4603 -0.1537
  756MPD2    C411170   0.059   2.803   9.442 -0.1427 -0.4742 -0.7550
  756MPD2    C511171   0.113   2.919   9.495 -0.4227  0.7585  0.3217
  756MPD2     H11172   4.628   2.675   9.710  0.4264  0.7143  0.5173
  756MPD2    H111173   0.063   2.781   9.335 -0.2259 -0.0289 -0.8476
  756MPD2    H211174   0.157   3.021   9.670 -4.2821  1.7158  1.6700
  756MPD2    H311175   0.170   2.985   9.431  0.8100 -1.0036 -0.4157
  756MPD2     N11176   4.634   2.600   9.466  0.0375  0.4888  0.3093
  756MPD2    H511177   4.571   2.545   9.524 -0.9592  0.1839 -1.0437
  756MPD2    N111178   0.020   2.856   9.845  0.4611  0.0859 -0.8476
  756MPD2    H711179   4.679   2.790   9.887 -0.0102  2.0010  1.4392
  757MPD2     C11180   4.024   1.886   9.731  0.0447 -0.7952 -0.0177
  757MPD2    C111181   4.136   1.825   9.683 -0.2647  0.3530  0.5791
  757MPD2    C211182   4.232   1.900   9.619  0.0124  0.1301  0.0042
  757MPD2    C311183   4.221   2.039   9.606 -0.3179 -0.4682  0.5799
  757MPD2    C411184   4.115   2.108   9.667  0.3129  0.8117  0.4511
  757MPD2    C511185   4.010   2.027   9.716  0.2700 -0.3300 -0.0613
  757MPD2     H11186   4.319   1.855   9.574  0.8822  0.4555  1.3887
  757MPD2    H111187   4.103   2.216   9.658 -0.2864  0.6373 -0.8818
  757MPD2    H211188   3.936   1.830   9.763  0.1858  0.2282  2.1589
  757MPD2    H311189   3.913   2.063   9.747  0.0599  0.1288 -1.2411
  757MPD2     N11190   4.336   2.104   9.547 -0.3729  0.0199  0.0191
  757MPD2    H511191   4.417   2.045   9.532  0.2241  0.9021 -0.1965
  757MPD2    N111192   4.139   1.687   9.706 -0.4323  0.5514 -0.0584
  757MPD2    H711193   4.056   1.653   9.754  1.2276 -3.4493 -0.0205
  758MPD2     C11194   4.457   0.873  15.970  0.3168 -0.2074  0.0707
  758MPD2    C111195   4.355   0.957  15.929  1.0658  0.7687  0.4573
  758MPD2    C211196   4.261   1.014  16.016 -0.5870 -0.1133 -0.2138
  758MPD2    C311197   4.265   0.978  16.149  0.0957  0.2770 -0.0960
  758MPD2    C411198   4.356   0.877  16.185  0.0153  0.3792 -0.3958
  758MPD2    C511199   4.452   0.831  16.101 -0.4918  0.1888 -0.2870
  758MPD2     H11200   4.201   1.096  15.980 -0.6091  0.6258  1.4840
  758MPD2    H111201   4.352   0.841  16.286  2.6539 -0.1767 -0.5110
  758MPD2    H211202   4.536   0.836  15.905 -0.0952  1.6877 -1.4972
  758MPD2    H311203   4.533   0.765  16.130 -0.7123  0.1433  0.2223
  758MPD2     N11204   4.181   1.029  16.252 -0.1399  0.1641 -0.1968
  758MPD2    H511205   4.205   1.005  16.348  2.9236  2.7082 -0.3190
  758MPD2    N111206   4.361   0.995  15.792 -0.2561 -0.9692  0.0780
  758MPD2    H711207   4.428   0.961  15.724  0.0443 -3.4121  1.6322
  759MPD2     C11208   3.971   4.095   9.679  0.3154  0.5658 -0.1300
  759MPD2    C111209   3.893   4.189   9.750 -0.4675  0.2975  0.6632
  759MPD2    C211210   3.935   4.317   9.748  0.3941 -0.3640 -0.5725
  759MPD2    C311211   4.042   4.354   9.666  0.9376  0.1916  0.1529
  759MPD2    C411212   4.120   4.258   9.594  0.4484 -0.1731  0.4502
  759MPD2    C511213   4.072   4.125   9.599 -0.1267 -0.1492  0.7033
  759MPD2     H11214   3.893   4.393   9.812 -1.9971 -1.5479 -0.7346
  759MPD2    H111215   4.214   4.278   9.543  1.6971  0.6961  3.0805
  759MPD2    H211216   3.945   3.990   9.680 -1.4199  1.0076  1.1232
  759MPD2    H311217   4.126   4.044   9.552 -0.8716  1.0648 -2.2440
  759MPD2     N11218   4.077   4.488   9.659 -0.1889  0.4106  0.6097
  759MPD2    H511219   4.016   4.548   9.713 -0.0969 -0.2674  1.4806
  759MPD2    N111220   3.798   4.154   9.845 -0.4803 -0.3123 -0.2537
  759MPD2    H711221   3.765   4.222   9.912 -2.2281 -0.9521 -0.4467
  760MPD2     C11222   3.143   1.893  11.782 -0.6201  0.0988  0.4227
  760MPD2    C111223   3.196   1.933  11.666 -0.4143 -0.5772 -0.7107
  760MPD2    C211224   3.278   1.837  11.598  0.5288 -0.8335  0.1435
  760MPD2    C311225   3.283   1.708  11.647 -1.0001  0.9641 -0.2228
  760MPD2    C411226   3.230   1.680  11.775 -0.4427  0.1217  0.3080
  760MPD2    C511227   3.153   1.768  11.841 -0.4380 -0.2337 -0.0829
  760MPD2     H11228   3.330   1.860  11.506 -1.3712 -0.7821 -0.9040
  760MPD2    H111229   3.250   1.587  11.828 -2.1263  0.0063  0.7262
  760MPD2    H211230   3.100   1.966  11.851 -0.9211 -0.1940  0.5477
  760MPD2    H311231   3.113   1.739  11.938  1.5677 -3.6041 -0.2686
  760MPD2     N11232   3.327   1.598  11.572 -0.0907 -0.1828 -0.8336
  760MPD2    H511233   3.311   1.509  11.619  1.3272 -0.7792 -1.4872
  760MPD2    N111234   3.193   2.062  11.615  0.7466 -0.8437  0.6781
  760MPD2    H711235   3.250   2.066  11.531  0.6931 -0.6384  0.6517
  761MPD2     C11236   4.532   1.110  11.125  0.2890  0.1403  0.0128
  761MPD2    C111237   4.599   1.068  11.016 -1.2641  1.1175 -0.3771
  761MPD2    C211238   4.720   1.131  10.993  0.0651  0.6372 -0.2719
  761MPD2    C311239   0.042   1.240  11.071  0.2628 -0.5941  0.4623
  761MPD2    C411240   4.694   1.273  11.180  0.1303 -0.3998  0.3739
  761MPD2    C511241   4.571   1.211  11.212  0.1508 -0.0388 -0.2841
  761MPD2     H11242   0.051   1.113  10.900  0.4614 -1.4288  0.3394
  761MPD2    H111243   0.016   1.339  11.253 -0.4224 -0.1737  0.5098
  761MPD2    H211244   4.444   1.050  11.147  0.5963 -0.1258  0.5305
  761MPD2    H311245   4.512   1.253  11.293  1.6479  0.1575  0.7112
  761MPD2     N11246   0.171   1.305  11.056 -0.0958  0.0101  0.3436
  761MPD2    H511247   0.201   1.383  11.114  1.2367  0.3305 -0.7631
  761MPD2    N111248   4.545   0.962  10.933  0.0018 -0.4287  0.1146
  761MPD2    H711249   4.460   0.912  10.957 -0.4456  0.7228  0.9130
  762MPD2     C11250   0.103   0.930  10.213 -0.0827  0.1068 -0.5804
  762MPD2    C111251   0.117   0.829  10.304 -0.5879  0.1539  0.1628
  762MPD2    C211252   0.227   0.747  10.297 -0.0382  0.2495  0.0976
  762MPD2    C311253   0.321   0.756  10.192 -0.0321 -0.5696  0.5255
  762MPD2    C411254   0.305   0.859  10.102 -0.2092 -1.1823 -0.1425
  762MPD2    C511255   0.196   0.943  10.113 -0.1560  0.0819  0.1895
  762MPD2     H11256   0.245   0.676  10.377 -1.3348 -0.2411 -0.0521
  762MPD2    H111257   0.370   0.890  10.021  0.9003 -1.4565  0.6412
  762MPD2    H211258   0.027   1.007  10.210 -2.3099 -1.9792  2.0011
  762MPD2    H311259   0.180   1.025  10.044 -0.0792 -0.3382 -0.3291
  762MPD2     N11260   0.437   0.676  10.194 -0.0437  0.3197 -0.7115
  762MPD2    H511261   0.464   0.630  10.280 -0.4598 -0.8692 -1.2099
  762MPD2    N111262   0.007   0.813  10.394  0.1915 -0.0314  0.4234
  762MPD2    H711263   4.650   0.869  10.370  0.1659 -1.1481 -2.1260
  763MPD2     C11264   1.549   1.451  16.295 -0.3747  0.3574 -0.0077
  763MPD2    C111265   1.442   1.509  16.237 -0.9633  0.4532 -0.6409
  763MPD2    C211266   1.388   1.631  16.283 -0.3568  0.1367 -0.2315
  763MPD2    C311267   1.450   1.679  16.398 -0.0545 -0.2564  0.0132
  763MPD2    C411268   1.566   1.627  16.444  0.0009  0.0159 -0.5340
  763MPD2    C511269   1.627   1.521  16.388 -0.5736 -0.2324  0.6442
  763MPD2     H11270   1.292   1.664  16.246 -0.5241  0.9677  0.9355
  763MPD2    H111271   1.621   1.686  16.517  0.4121 -3.2204  1.7524
  763MPD2    H211272   1.587   1.353  16.269  1.1196  0.4503  1.7751
  763MPD2    H311273   1.722   1.488  16.427 -0.8258 -1.3134  0.3492
  763MPD2     N11274   1.405   1.794  16.466  0.3615 -0.3594  0.3717
  763MPD2    H511275   1.458   1.818  16.549 -0.4429  0.0115  0.7814
  763MPD2    N111276   1.396   1.459  16.113  0.0555 -0.2593 -0.3577
  763MPD2    H711277   1.324   1.514  16.066  2.0978  1.0537 -1.9324
  764MPD2     C11278   3.927   3.080  17.155  0.6889  0.2196  1.2179
  764MPD2    C111279   3.872   2.954  17.166  0.0908 -0.5130  0.0376
  764MPD2    C211280   3.939   2.867  17.253  0.1517  0.0007  0.6322
  764MPD2    C311281   4.051   2.896  17.326 -0.3236 -0.3976  0.2213
  764MPD2    C411282   4.097   3.021  17.302  0.1363 -0.1921 -0.2229
  764MPD2    C511283   4.043   3.110  17.214 -0.3607  0.2090  0.2628
  764MPD2     H11284   3.902   2.765  17.265  1.1980 -0.6532 -1.6955
  764MPD2    H111285   4.188   3.050  17.353 -0.1079 -1.7029  1.0633
  764MPD2    H211286   3.897   3.158  17.086 -0.0296 -1.3363 -0.2298
  764MPD2    H311287   4.072   3.214  17.202 -0.8541  0.3555  0.3074
  764MPD2     N11288   4.104   2.803  17.412  0.2090 -0.0513  0.7086
  764MPD2    H511289   4.050   2.718  17.426  1.4515 -1.1466 -1.3301
  764MPD2    N111290   3.765   2.903  17.088  0.2297  0.1966  0.3266
  764MPD2    H711291   3.740   2.804  17.090  2.3407 -0.3767 -0.7267
  765MPD2     C11292   3.691   0.748  15.694 -0.1775 -0.2527  0.4674
  765MPD2    C111293   3.778   0.849  15.662  0.3618 -0.1716 -1.1184
  765MPD2    C211294   3.883   0.813  15.587  0.2138  0.1602 -0.0724
  765MPD2    C311295   3.921   0.684  15.568  0.0040  0.2950  0.1711
  765MPD2    C411296   3.842   0.581  15.617  0.3709  0.2628  0.5104
  765MPD2    C511297   3.724   0.616  15.681  0.2520 -0.4480 -0.4543
  765MPD2     H11298   3.951   0.894  15.564  1.9420 -0.8799  1.3994
  765MPD2    H111299   3.874   0.477  15.610 -0.3220  0.2265 -2.1191
  765MPD2    H211300   3.602   0.769  15.752 -0.2553  0.4916  0.0857
  765MPD2    H311301   3.651   0.542  15.710  2.2989 -2.2531  0.1246
  765MPD2     N11302   4.049   0.665  15.507 -0.5912  0.1032  0.5688
  765MPD2    H511303   4.100   0.750  15.487 -1.0253  0.4919  1.1013
  765MPD2    N111304   3.733   0.982  15.676 -0.2388  0.4330 -0.1101
  765MPD2    H711305   3.647   0.994  15.729  0.4274 -0.5935  1.1809
  766MPD2     C11306   3.206   1.293  15.409 -0.5087  0.3231  0.2079
  766MPD2    C111307   3.326   1.227  15.409 -0.2222  0.8356  0.0984
  766MPD2    C211308   3.362   1.136  15.308 -0.7878  0.4772 -0.9404
  766MPD2    C311309   3.266   1.108  15.209  0.0885  0.0480 -0.3447
  766MPD2    C411310   3.134   1.158  15.223  0.1584 -0.8355 -1.1740
  766MPD2    C511311   3.107   1.255  15.317 -0.5285 -0.2110 -1.0486
  766MPD2     H11312   3.459   1.088  15.314 -0.0040  2.1368  0.0169
  766MPD2    H111313   3.046   1.134  15.165  0.0340  0.8073 -1.6596
  766MPD2    H211314   3.178   1.374  15.475  1.5764  0.5063  0.8395
  766MPD2    H311315   3.007   1.293  15.335 -0.8455 -0.9783 -1.1469
  766MPD2     N11316   3.294   1.023  15.098 -0.1158  0.0612  0.1798
  766MPD2    H511317   3.239   1.019  15.012 -0.2112 -0.8591  0.2845
  766MPD2    N111318   3.430   1.253  15.501 -0.4073 -0.3168  0.0535
  766MPD2    H711319   3.509   1.190  15.492  1.2067  1.7213  0.0387
  767MPD2     C11320   3.041   1.385  14.966  0.4952  0.3889 -0.4931
  767MPD2    C111321   3.170   1.372  14.920 -0.4291  0.3126  0.0834
  767MPD2    C211322   3.191   1.316  14.794  0.1840 -0.0572  0.1518
  767MPD2    C311323   3.091   1.252  14.719  0.1793  0.4908  0.1883
  767MPD2    C411324   2.960   1.263  14.770  0.4668  0.0333  0.6151
  767MPD2    C511325   2.941   1.331  14.885 -0.1900 -0.0424  0.3523
  767MPD2     H11326   3.290   1.306  14.753  0.1440  3.1652 -0.7271
  767MPD2    H111327   2.875   1.230  14.711  0.4641 -1.0406  1.2304
  767MPD2    H211328   3.013   1.432  15.059  2.8307  1.2919 -0.2522
  767MPD2    H311329   2.840   1.342  14.923 -0.3408 -0.1042 -0.0257
  767MPD2     N11330   3.124   1.194  14.597  0.7125  0.6185  0.0824
  767MPD2    H511331   3.217   1.160  14.575  0.7742  0.9453 -0.1678
  767MPD2    N111332   3.283   1.422  14.995  0.3203  0.1218 -0.1918
  767MPD2    H711333   3.259   1.487  15.070 -0.4168 -0.9337  0.4720
  768MPD2     C11334   0.049   4.305  10.723 -0.1498  0.5488  0.2932
  768MPD2    C111335   4.723   4.254  10.849 -0.1357  0.0999 -0.7920
  768MPD2    C211336   0.090   4.228  10.955 -0.2093 -0.1220  0.2661
  768MPD2    C311337   0.222   4.259  10.946 -0.1421  0.5566 -0.5947
  768MPD2    C411338   0.265   4.310  10.823  0.9372  0.4238 -0.6121
  768MPD2    C511339   0.182   4.336  10.716 -0.3625 -0.0515  0.5837
  768MPD2     H11340   0.046   4.186  11.044 -0.5477 -1.1662 -0.3928
  768MPD2    H111341   0.370   4.337  10.811  1.4355 -1.0013  0.4442
  768MPD2    H211342   4.713   4.331  10.636  3.0092  0.6067 -1.8532
  768MPD2    H311343   0.217   4.403  10.638 -1.9475  2.5488  2.1038
  768MPD2     N11344   0.316   4.240  11.054 -0.5828 -0.3514 -0.0644
  768MPD2    H511345   0.403   4.292  11.052 -1.0218  0.3781  0.0680
  768MPD2    N111346   4.587   4.218  10.873 -0.1880 -0.3628 -0.0807
  768MPD2    H711347   4.557   4.216  10.970 -0.4066 -1.3399 -0.1646
  769MPD2     C11348   0.108   2.801  14.601 -0.4239  0.3346  0.0230
  769MPD2    C111349   0.060   2.709  14.683 -0.2795 -0.9154  0.5393
  769MPD2    C211350   0.005   2.762  14.793  0.1672  0.1392  0.1458
  769MPD2    C311351   0.026   2.890  14.842  0.5876  0.2627  0.4960
  769MPD2    C411352   0.082   2.980  14.755 -0.0200 -0.3014 -0.2292
  769MPD2    C511353   0.109   2.936  14.622 -0.2215  0.4943 -0.1151
  769MPD2     H11354   4.661   2.699  14.850  0.1992  0.3190  0.3798
  769MPD2    H111355   0.090   3.081  14.794  1.9400 -2.1284  4.0401
  769MPD2    H211356   0.141   2.773  14.502  0.2755 -0.1342  0.3898
  769MPD2    H311357   0.118   3.000  14.536 -0.0901  1.4282  0.5967
  769MPD2     N11358   4.722   2.916  14.975  0.0910  0.0941 -0.1662
  769MPD2    H511359   4.675   2.848  15.035 -1.8051  0.3018 -1.3981
  769MPD2    N111360   0.067   2.569  14.655 -0.3947  0.7948 -0.1556
  769MPD2    H711361   0.122   2.539  14.575 -1.3274  0.6733 -0.7496
  770MPD2     C11362   0.105   1.499  14.774  0.3544 -0.9951  0.3098
  770MPD2    C111363   4.717   1.518  14.695  0.8672 -0.1378  0.2375
  770MPD2    C211364   4.674   1.647  14.679 -0.4458 -0.3931 -0.9651
  770MPD2    C311365   0.017   1.750  14.734  0.5773  0.1586 -0.0765
  770MPD2    C411366   0.132   1.726  14.813  0.8196 -0.8321  0.7633
  770MPD2    C511367   0.177   1.600  14.833 -0.1077  0.2650 -0.4130
  770MPD2     H11368   4.584   1.667  14.622  0.7203 -1.1533 -3.0378
  770MPD2    H111369   0.191   1.804  14.860  0.4015  1.1172 -1.9228
  770MPD2    H211370   0.148   1.400  14.784  1.9727 -0.1109  2.2156
  770MPD2    H311371   0.271   1.580  14.882 -0.0051 -0.5800 -0.9438
  770MPD2     N11372   4.704   1.877  14.691  0.0189 -0.0101 -0.1001
  770MPD2    H511373   4.617   1.889  14.640 -1.0887 -1.0777  1.5306
  770MPD2    N111374   4.657   1.402  14.645 -0.3260 -0.9203 -0.6730
  770MPD2    H711375   4.698   1.317  14.682 -1.6677 -1.7044 -0.9887
  771MPD2     C11376   1.351   0.033  13.805  0.3787 -0.1604 -0.3565
  771MPD2    C111377   1.346   0.162  13.776  0.4050 -0.2881  0.2916
  771MPD2    C211378   1.279   0.200  13.658 -0.0908  0.2972  0.2053
  771MPD2    C311379   1.230   0.106  13.566  0.1588  0.3383  0.0686
  771MPD2    C411380   1.234   4.693  13.602  0.2172  0.5306 -0.1662
  771MPD2    C511381   1.291   4.660  13.728 -0.4188  0.1851 -0.1631
  771MPD2     H11382   1.255   0.305  13.649 -0.7829  0.0508 -0.8540
  771MPD2    H111383   1.187   4.617  13.541  1.8543  1.1533 -2.2094
  771MPD2    H211384   1.384   4.716  13.901 -0.5055 -0.7734 -0.3041
  771MPD2    H311385   1.285   4.555  13.753 -0.5854 -0.0583 -1.2589
  771MPD2     N11386   1.183   0.145  13.437 -0.2350  0.1291 -0.0349
  771MPD2    H511387   1.164   0.244  13.424 -3.1807 -0.0765  2.7995
  771MPD2    N111388   1.392   0.264  13.864 -0.1992  0.2475 -0.1221
  771MPD2    H711389   1.373   0.361  13.838  1.0952  0.5491  0.0794
  772MPD2     C11390   1.058   0.793  14.279 -0.1543 -0.7481 -0.3251
  772MPD2    C111391   1.047   0.698  14.176 -0.4360 -0.3739  0.4350
  772MPD2    C211392   0.924   0.662  14.124 -0.3806 -0.4441 -0.7438
  772MPD2    C311393   0.808   0.721  14.169  0.2338 -0.0075  0.5151
  772MPD2    C411394   0.816   0.818  14.269  0.8316 -0.1434  0.0654
  772MPD2    C511395   0.942   0.851  14.325 -0.1482 -0.4913 -0.1186
  772MPD2     H11396   0.921   0.592  14.041 -3.5245 -1.3508  0.1223
  772MPD2    H111397   0.729   0.874  14.301 -0.5912 -1.7000 -1.0860
  772MPD2    H211398   1.150   0.821  14.329  0.3653 -0.4271 -1.4506
  772MPD2    H311399   0.954   0.933  14.395  2.8670 -0.8680 -0.2211
  772MPD2     N11400   0.681   0.693  14.121 -0.0014 -0.0872  0.5943
  772MPD2    H511401   0.607   0.745  14.167  0.2398 -0.8489  1.8219
  772MPD2    N111402   1.166   0.639  14.123  0.1895 -0.0073 -0.0360
  772MPD2    H711403   1.158   0.558  14.063  2.6844  0.5296 -1.0564
  773MPD2     C11404   4.651   2.054   0.362  0.0948  0.3824 -0.3180
  773MPD2    C111405   4.632   1.961   0.261  0.2465 -0.0360 -0.0821
  773MPD2    C211406   4.694   1.834   0.277 -0.5510  0.3032 -0.0421
  773MPD2    C311407   0.035   1.802   0.391  0.5062 -0.0050 -0.7032
  773MPD2    C411408   0.038   1.900   0.497  0.3635  0.9070  0.2050
  773MPD2    C511409   4.703   2.020   0.486 -0.3208 -0.1801 -0.5262
  773MPD2     H11410   4.693   1.764   0.194  0.7353 -2.0824  1.9832
  773MPD2    H111411   0.093   1.886   0.589 -2.1130 -0.2387  1.5080
  773MPD2    H211412   4.617   2.157   0.359  0.8907  0.6513 -0.1172
  773MPD2    H311413   4.708   2.093   0.566  3.1904  0.6947 -1.5341
  773MPD2     N11414   0.099   1.675   0.394 -0.2260 -0.1103 -0.0534
  773MPD2    H511415   0.108   1.628   0.305 -0.7615  4.5330 -2.5627
  773MPD2    N111416   4.536   1.980   0.159  0.0210 -0.6164 -0.1706
  773MPD2    H711417   4.530   1.897   0.101  1.2060 -0.6209 -0.2919
  774MPD2     C11418   4.438   0.747  12.953 -0.0949 -0.2571 -0.6263
  774MPD2    C111419   4.346   0.799  13.040 -0.5420  0.5200 -0.5326
  774MPD2    C211420   4.326   0.935  13.057  0.4897 -0.0794  0.0636
  774MPD2    C311421   4.403   1.022  12.977  0.4984 -0.2872  0.4440
  774MPD2    C411422   4.491   0.970  12.886 -0.9008  0.1393 -0.5926
  774MPD2    C511423   4.504   0.836  12.878  0.2877  0.3068  0.5885
  774MPD2     H11424   4.254   0.982  13.123 -0.4222 -0.5772 -0.5634
  774MPD2    H111425   4.551   1.031  12.819 -0.4508  1.5781  1.1219
  774MPD2    H211426   4.455   0.640  12.948  0.3484 -0.2987  1.4791
  774MPD2    H311427   4.578   0.792  12.813  1.3558  0.3412  1.7730
  774MPD2     N11428   4.394   1.163  12.993 -1.0376 -0.2399 -0.8982
  774MPD2    H511429   4.326   1.197  13.060 -0.6927  1.4556 -1.4010
  774MPD2    N111430   4.290   0.701  13.126 -0.8633 -0.4607  0.2559
  774MPD2    H711431   4.306   0.603  13.106  2.0192  0.1336 -0.4112
  775MPD2     C11432   0.693   2.147  15.778 -0.7806 -0.3503  0.3037
  775MPD2    C111433   0.668   2.278  15.822  0.3009 -0.4476 -0.0256
  775MPD2    C211434   0.773   2.366  15.806  0.4513 -0.4232 -1.0863
  775MPD2    C311435   0.901   2.341  15.756  0.9641  0.2455  0.1225
  775MPD2    C411436   0.916   2.205  15.717  0.0912  0.2378  0.1452
  775MPD2    C511437   0.812   2.109  15.730  0.0006 -0.5590 -0.3514
  775MPD2     H11438   0.754   2.469  15.834  1.0884 -0.9124  1.1238
  775MPD2    H111439   1.006   2.174  15.665  0.3926  0.4534  0.5354
  775MPD2    H211440   0.620   2.070  15.801 -1.6564  0.3887  0.0103
  775MPD2    H311441   0.825   2.006  15.699  0.7407 -0.9580  1.2809
  775MPD2     N11442   1.006   2.435  15.742 -0.1280  0.6617 -0.4375
  775MPD2    H511443   1.090   2.394  15.704 -2.1489 -1.5478 -2.5263
  775MPD2    N111444   0.541   2.306  15.881  0.0641  0.5687 -0.3541
  775MPD2    H711445   0.472   2.231  15.880 -0.7007  1.2548  0.2513
  776MPD2     C11446   0.010   2.435  11.460  0.2499 -0.5020  0.4027
  776MPD2    C111447   0.134   2.453  11.526  0.0150 -0.2100  0.1535
  776MPD2    C211448   0.208   2.566  11.492  0.3320  0.2519  0.3635
  776MPD2    C311449   0.157   2.654  11.390  1.0723  0.0016 -0.2872
  776MPD2    C411450   0.032   2.636  11.338  0.9117 -0.1557 -0.1912
  776MPD2    C511451   4.684   2.523  11.373  0.3465 -0.2900 -0.1829
  776MPD2     H11452   0.312   2.568  11.520  0.9488  1.1505 -1.9836
  776MPD2    H111453   4.706   2.714  11.280 -0.0418 -1.8442 -1.6365
  776MPD2    H211454   4.671   2.349  11.483 -1.0385  0.0564 -1.0200
  776MPD2    H311455   4.579   2.514  11.346  0.2252  1.5734 -0.3572
  776MPD2     N11456   0.238   2.749  11.320 -0.1074  0.3557  0.4520
  776MPD2    H511457   0.186   2.814  11.262  1.8253 -0.3490 -2.0933
  776MPD2    N111458   0.182   2.353  11.613 -0.4480  0.6945 -0.1812
  776MPD2    H711459   0.119   2.273  11.622 -0.8630  1.1949  1.2907
  777MPD2     C11460   4.428   0.501   0.937  0.2191 -0.4289  0.2581
  777MPD2    C111461   4.391   0.391   1.012 -0.5614  0.2941  0.3027
  777MPD2    C211462   4.381   0.268   0.943  0.5969  0.6035  0.9400
  777MPD2    C311463   4.417   0.252   0.809  0.8556 -0.0391 -0.8459
  777MPD2    C411464   4.467   0.366   0.741 -0.3318 -0.6592 -0.0454
  777MPD2    C511465   4.469   0.490   0.807 -1.0186 -0.2008 -0.0487
  777MPD2     H11466   4.335   0.181   0.987 -0.5410  1.2494  1.0358
  777MPD2    H111467   4.515   0.354   0.645  0.4892  0.5540  0.2223
  777MPD2    H211468   4.441   0.599   0.980 -1.8345 -0.9074  1.9694
  777MPD2    H311469   4.506   0.579   0.758  1.3942 -0.9976  0.3308
  777MPD2     N11470   4.406   0.127   0.745  0.5018  0.3179 -0.2478
  777MPD2    H511471   4.370   0.049   0.799 -3.3538  2.5027  0.3495
  777MPD2    N111472   4.358   0.410   1.148  0.5856 -0.4379 -0.1511
  777MPD2    H711473   4.378   0.505   1.179 -2.6507 -0.7377  2.8386
  778MPD2     C11474   0.940   0.017  15.263  0.1112 -0.0207  0.1034
  778MPD2    C111475   0.857   0.041  15.157  0.1470  0.1179 -0.3601
  778MPD2    C211476   0.892   0.120  15.053  0.1742 -0.1891  0.2461
  778MPD2    C311477   1.020   0.170  15.046  0.1361 -0.4837  0.0676
  778MPD2    C411478   1.108   0.134  15.146 -1.0180  0.2012 -0.3137
  778MPD2    C511479   1.067   0.061  15.252 -0.5038  0.0690 -0.1024
  778MPD2     H11480   0.820   0.137  14.974  0.5437  0.8317  0.1327
  778MPD2    H111481   1.209   0.171  15.153  0.5322 -3.1953 -4.2822
  778MPD2    H211482   0.916   4.692  15.357 -0.7026  4.3241  2.1409
  778MPD2    H311483   1.141   0.050  15.330  0.8975 -0.1522 -1.4823
  778MPD2     N11484   1.063   0.251  14.943 -0.3672 -0.1676 -0.4599
  778MPD2    H511485   0.993   0.278  14.874 -0.3571 -1.8996 -1.1657
  778MPD2    N111486   0.723   4.714  15.162  0.0696 -0.2625  0.1915
  778MPD2    H711487   0.665   4.719  15.079  0.7955 -2.5773 -0.4725
  779MPD2     C11488   0.852   3.725  14.627 -0.0820  0.0330 -0.5991
  779MPD2    C111489   0.989   3.741  14.603 -0.2994 -0.3489 -0.2872
  779MPD2    C211490   1.034   3.871  14.592 -0.3716 -0.4951  0.0011
  779MPD2    C311491   0.950   3.977  14.589  0.6891  0.1890  0.2639
  779MPD2    C411492   0.817   3.967  14.633  0.2921  0.2328 -0.0105
  779MPD2    C511493   0.773   3.835  14.644 -0.3664 -0.6537 -0.0017
  779MPD2     H11494   1.142   3.881  14.583 -0.4127 -1.2452 -1.3046
  779MPD2    H111495   0.751   4.053  14.637  2.0317  1.5022  1.5472
  779MPD2    H211496   0.799   3.637  14.660 -0.6660 -0.0294 -1.6808
  779MPD2    H311497   0.669   3.804  14.642  0.2624 -2.7569 -0.0222
  779MPD2     N11498   0.999   4.103  14.558 -0.3922  0.9550  0.6656
  779MPD2    H511499   1.093   4.108  14.520 -1.0363  1.0918 -0.9056
  779MPD2    N111500   1.077   3.629  14.598 -0.9529 -0.6936  0.3495
  779MPD2    H711501   1.171   3.653  14.567 -1.3931  1.0515  0.3296
  780MPD2     C11502   4.381   4.185   0.710 -0.3126  0.7347 -0.4913
  780MPD2    C111503   4.362   4.099   0.607  0.3178 -0.6627 -0.5447
  780MPD2    C211504   4.416   4.141   0.488  0.1718 -0.3496 -0.0097
  780MPD2    C311505   4.494   4.256   0.472  0.0315 -0.6957  0.1934
  780MPD2    C411506   4.500   4.343   0.580  0.2542 -0.0929 -0.5800
  780MPD2    C511507   4.434   4.311   0.693 -0.1796  0.0441 -0.6133
  780MPD2     H11508   4.408   4.074   0.403 -1.3243 -2.3817  1.7320
  780MPD2    H111509   4.557   4.436   0.578  1.9924 -1.1559  0.2493
  780MPD2    H211510   4.342   4.173   0.811  1.3732 -0.0115  0.0674
  780MPD2    H311511   4.448   4.378   0.777 -0.1330  0.0294 -0.6091
  780MPD2     N11512   4.559   4.271   0.342  0.2164 -0.0268 -0.0852
  780MPD2    H511513   4.551   4.195   0.276 -1.2025  0.4051 -0.4033
  780MPD2    N111514   4.309   3.971   0.639 -0.2261 -0.2349 -0.2973
  780MPD2    H711515   4.273   3.955   0.732 -1.4636  3.4503 -0.1440
  781MPD2     C11516   2.765   0.836  11.755  0.3966  0.0355 -0.3916
  781MPD2    C111517   2.733   0.780  11.874 -0.6322 -0.1924  0.0295
  781MPD2    C211518   2.802   0.674  11.920  0.7719  0.9272 -0.0706
  781MPD2    C311519   2.879   0.593  11.830  0.1283 -0.3051 -0.5504
  781MPD2    C411520   2.888   0.637  11.696  0.7328 -0.0777  0.1970
  781MPD2    C511521   2.841   0.762  11.667  0.0437 -0.2474 -0.0220
  781MPD2     H11522   2.777   0.637  12.018 -2.1298 -0.4619 -1.3264
  781MPD2    H111523   2.945   0.587  11.617  0.9561  0.9161 -0.2653
  781MPD2    H211524   2.735   0.935  11.724  3.5032  0.8381 -0.8355
  781MPD2    H311525   2.846   0.799  11.566 -2.3220 -0.2699 -0.1600
  781MPD2     N11526   2.933   0.472  11.872  0.0495 -0.0451  0.9452
  781MPD2    H511527   2.981   0.421  11.798  1.1390  2.8988 -0.3843
  781MPD2    N111528   2.657   0.864  11.960 -0.1639 -0.1668 -0.0753
  781MPD2    H711529   2.668   0.857  12.061  1.4987 -1.1122 -0.3242
  782MPD2     C11530   0.680   1.895  10.217 -0.1862 -0.5970  0.0010
  782MPD2    C111531   0.752   1.784  10.263 -0.4926  0.2285  0.0645
  782MPD2    C211532   0.805   1.788  10.385  0.4113 -0.0760  0.1258
  782MPD2    C311533   0.786   1.897  10.472  0.4032 -0.6430  0.2323
  782MPD2    C411534   0.712   2.008  10.430  0.5405 -0.5389 -0.0316
  782MPD2    C511535   0.664   2.003  10.301  0.3873  0.0766  0.4105
  782MPD2     H11536   0.858   1.700  10.421  2.7233  1.9449  1.6585
  782MPD2    H111537   0.688   2.094  10.491 -1.1471 -0.2496 -1.1155
  782MPD2    H211538   0.643   1.900  10.115  0.7067 -2.0911 -0.4003
  782MPD2    H311539   0.597   2.082  10.272  1.9483  1.3850  0.3840
  782MPD2     N11540   0.848   1.889  10.597 -0.3705  0.1318  0.3625
  782MPD2    H511541   0.920   1.818  10.607 -0.3365  0.0140 -0.6715
  782MPD2    N111542   0.777   1.670  10.183  0.0513  0.7631  0.1708
  782MPD2    H711543   0.841   1.600  10.221  0.1613  1.5892  1.5098
  783MPD2     C11544   0.568   1.022  10.461  0.3320  0.5821 -0.9432
  783MPD2    C111545   0.594   1.154  10.481 -0.4573  0.7139 -0.8134
  783MPD2    C211546   0.639   1.228  10.371 -0.5632  0.4156  0.7616
  783MPD2    C311547   0.656   1.166  10.243  0.6351  1.3882  0.2643
  783MPD2    C411548   0.620   1.036  10.225 -0.3895  0.5350 -0.7982
  783MPD2    C511549   0.562   0.973  10.333 -0.2268  0.7262  0.3437
  783MPD2     H11550   0.668   1.331  10.383  0.6055  0.1482  0.2461
  783MPD2    H111551   0.630   0.990  10.128 -2.2619 -0.7946 -0.3504
  783MPD2    H211552   0.530   0.965  10.545  0.2145  0.6790 -0.9305
  783MPD2    H311553   0.525   0.874  10.310 -1.8526  0.9511  1.9326
  783MPD2     N11554   0.716   1.243  10.144  0.0668  0.7193 -0.0966
  783MPD2    H511555   0.739   1.337  10.176 -1.2909  0.8321  0.5670
  783MPD2    N111556   0.567   1.210  10.608 -0.7333  0.2645 -0.0952
  783MPD2    H711557   0.535   1.152  10.684 -3.7470  0.8424 -0.9304
  784MPD2     C11558   1.965   1.873   0.753 -0.0766  0.6106  0.2002
  784MPD2    C111559   2.003   1.998   0.807  0.3321  0.3047 -1.1280
  784MPD2    C211560   1.967   2.113   0.749 -0.1522 -0.4386  0.5454
  784MPD2    C311561   1.895   2.121   0.631  0.6089 -0.1455  0.4060
  784MPD2    C411562   1.854   2.000   0.579  0.1036 -0.8334  0.2966
  784MPD2    C511563   1.884   1.881   0.645  0.5071  0.3927  0.3540
  784MPD2     H11564   1.996   2.201   0.805  0.5416 -0.0446 -0.4243
  784MPD2    H111565   1.780   2.001   0.500 -1.6697 -0.0658  1.9833
  784MPD2    H211566   1.972   1.780   0.808 -1.0479  1.3079  1.5156
  784MPD2    H311567   1.842   1.786   0.615  2.4210 -0.9804  2.0544
  784MPD2     N11568   1.867   2.249   0.571 -0.2345  0.2564  0.0561
  784MPD2    H511569   1.906   2.323   0.629  0.6165 -0.6299  0.6228
  784MPD2    N111570   2.064   2.012   0.930  0.0593  0.4474  0.2666
  784MPD2    H711571   2.089   2.105   0.963  3.2443  0.0235 -1.0023
  785MPD2     C11572   3.188   0.160  11.115  0.4866  0.1630  0.6961
  785MPD2    C111573   3.164   0.290  11.081 -0.3274 -0.8079 -0.0567
  785MPD2    C211574   3.038   0.327  11.035 -0.0156 -0.2523  0.3348
  785MPD2    C311575   2.943   0.230  11.007 -0.2870  0.2418 -0.9005
  785MPD2    C411576   2.969   0.096  11.033 -0.4726 -0.1913  0.5066
  785MPD2    C511577   3.088   0.069  11.088  0.1984 -0.0789  0.1638
  785MPD2     H11578   3.017   0.431  11.012 -0.0170 -0.0232  1.3559
  785MPD2    H111579   2.898   0.022  10.997  2.6270 -3.2419  0.6632
  785MPD2    H211580   3.277   0.130  11.169 -1.0231 -2.9807  1.4394
  785MPD2    H311581   3.107   4.687  11.106 -1.0638 -0.3195  0.0645
  785MPD2     N11582   2.831   0.279  10.932 -0.7402 -0.5809  0.8977
  785MPD2    H511583   2.823   0.380  10.927 -1.4831 -0.7208 -0.7546
  785MPD2    N111584   3.271   0.376  11.106  0.1787  0.4087 -0.3919
  785MPD2    H711585   3.364   0.340  11.127 -0.2047 -1.5933 -2.1570
  786MPD2     C11586   1.242   3.075  14.818  0.2489  0.0816  0.1658
  786MPD2    C111587   1.365   3.021  14.832  0.2063  0.0743 -0.0477
  786MPD2    C211588   1.447   3.064  14.930  0.2018  0.7203 -0.0134
  786MPD2    C311589   1.414   3.167  15.016 -0.0524 -0.7762 -1.0615
  786MPD2    C411590   1.284   3.222  15.005 -0.3824  0.0786 -0.4145
  786MPD2    C511591   1.197   3.170  14.910 -0.2664 -0.1938 -0.2564
  786MPD2     H11592   1.526   2.992  14.945 -1.1232 -0.4413  1.4812
  786MPD2    H111593   1.257   3.309  15.063 -1.2764  0.4957 -1.4688
  786MPD2    H211594   1.169   3.044  14.745 -0.3236  0.8507  0.4141
  786MPD2    H311595   1.096   3.207  14.897  0.6974  2.4858 -0.1877
  786MPD2     N11596   1.499   3.228  15.104  0.3426 -0.5178  0.2547
  786MPD2    H511597   1.478   3.313  15.155  0.6059  0.8242 -1.8571
  786MPD2    N111598   1.423   2.931  14.740  0.0645  0.4760 -0.6637
  786MPD2    H711599   1.519   2.911  14.766  0.4302  3.3736  0.2357
  787MPD2     C11600   1.922   2.659  14.946  1.0183 -0.2380 -0.5563
  787MPD2    C111601   1.924   2.612  14.819 -0.0953  0.4697 -0.3990
  787MPD2    C211602   2.023   2.520  14.791  0.4997  0.6303  0.1032
  787MPD2    C311603   2.108   2.474  14.892 -0.2045  0.7508 -0.2380
  787MPD2    C411604   2.101   2.528  15.019  0.5984  0.3309  0.2335
  787MPD2    C511605   2.010   2.624  15.040  0.1048  0.1166 -0.5543
  787MPD2     H11606   2.030   2.487  14.688  2.1724 -1.2814  0.8132
  787MPD2    H111607   2.168   2.513  15.103 -0.6955 -0.8505  1.0514
  787MPD2    H211608   1.850   2.727  14.989  0.4739 -1.5236  0.5855
  787MPD2    H311609   2.002   2.668  15.139 -0.4767  1.0968 -1.0448
  787MPD2     N11610   2.210   2.379  14.861 -0.1390  0.1123 -0.1799
  787MPD2    H511611   2.219   2.355  14.763 -2.2618  1.5022 -0.6939
  787MPD2    N111612   1.819   2.652  14.733  0.7867  0.0316 -0.1036
  787MPD2    H711613   1.762   2.727  14.772  1.1132  0.8113 -1.1384
  788MPD2     C11614   3.410   0.934   0.963  0.1470  0.3707  0.0700
  788MPD2    C111615   3.301   0.926   0.879  0.1187  0.4467  0.7672
  788MPD2    C211616   3.226   1.036   0.846 -0.0790 -0.1364  0.1526
  788MPD2    C311617   3.254   1.162   0.905 -0.1282  0.4999  0.4906
  788MPD2    C411618   3.357   1.170   0.999 -0.2780 -0.0451 -0.0378
  788MPD2    C511619   3.437   1.055   1.027  0.4998 -0.4293 -0.8881
  788MPD2     H11620   3.143   1.020   0.778 -1.7492 -1.3296  2.4550
  788MPD2    H111621   3.383   1.268   1.038  4.0112 -1.0820 -0.2788
  788MPD2    H211622   3.481   0.858   0.995 -0.6163 -0.6097 -0.5778
  788MPD2    H311623   3.518   1.054   1.099  0.3135 -1.8514 -0.7120
  788MPD2     N11624   3.180   1.277   0.874 -0.5467  0.3864  0.4450
  788MPD2    H511625   3.207   1.361   0.924  0.5496  0.5858 -0.4777
  788MPD2    N111626   3.265   0.802   0.819 -0.0207  0.6216 -0.8791
  788MPD2    H711627   3.195   0.802   0.746 -0.3591 -2.2659 -0.5580
  789MPD2     C11628   3.657   0.929  16.771  0.3263 -0.0207 -0.2435
  789MPD2    C111629   3.566   0.959  16.670 -0.3833 -0.5928  0.2480
  789MPD2    C211630   3.443   1.007  16.699 -0.2245  1.0284  0.2001
  789MPD2    C311631   3.417   1.045  16.835  0.1722 -0.2983  0.4868
  789MPD2    C411632   3.511   1.023  16.934  0.6312  0.5946  0.6379
  789MPD2    C511633   3.634   0.964  16.903 -0.0460  0.0322  0.6690
  789MPD2     H11634   3.378   1.019  16.614 -1.1261 -0.5418  0.6682
  789MPD2    H111635   3.493   1.052  17.037 -1.1995 -0.7451  0.6851
  789MPD2    H211636   3.755   0.892  16.745 -0.2412 -0.5761 -1.5819
  789MPD2    H311637   3.709   0.954  16.981  0.7149  1.8169  0.1715
  789MPD2     N11638   3.294   1.094  16.878  0.0389  1.0317  0.2378
  789MPD2    H511639   3.275   1.106  16.976 -0.7746 -0.5714  0.2871
  789MPD2    N111640   3.596   0.936  16.532  0.1450  0.2603  0.1678
  789MPD2    H711641   3.517   0.921  16.470  0.1952 -1.6679  0.5821
  790MPD2     C11642   0.216   2.697  13.536  0.4260  0.1767 -0.1712
  790MPD2    C111643   0.286   2.587  13.493 -0.2774  0.3248  0.4860
  790MPD2    C211644   0.287   2.575  13.355  0.4316  0.3104  0.2387
  790MPD2    C311645   0.222   2.656  13.267 -0.6975 -0.2913  0.0052
  790MPD2    C411646   0.152   2.758  13.314 -0.4474  0.7093  0.0884
  790MPD2    C511647   0.149   2.774  13.447  0.4591  0.6242  0.1420
  790MPD2     H11648   0.346   2.492  13.317  0.5498 -0.0751  1.2510
  790MPD2    H111649   0.092   2.825  13.255 -0.0231 -0.0912 -1.2487
  790MPD2    H211650   0.195   2.721  13.639 -0.0840 -0.2214 -0.1834
  790MPD2    H311651   0.086   2.855  13.483 -0.4178  0.2026 -0.4616
  790MPD2     N11652   0.210   2.640  13.132 -0.2701 -0.1889  0.1628
  790MPD2    H511653   0.162   2.716  13.084 -0.4225  0.4183  1.2632
  790MPD2    N111654   0.353   2.499  13.586 -0.7239 -0.0535  0.8228
  790MPD2    H711655   0.329   2.518  13.682 -0.6300  1.1370  0.6084
  791MPD2     C11656   4.553   2.967  12.758 -0.2978 -0.1121  0.8117
  791MPD2    C111657   4.574   2.841  12.700 -0.7086  0.3496 -0.7793
  791MPD2    C211658   4.478   2.805  12.604  0.2259 -0.3363  0.2737
  791MPD2    C311659   4.372   2.888  12.561  0.1555 -0.5891 -0.3837
  791MPD2    C411660   4.366   3.012  12.615  0.7565 -0.5877 -1.2622
  791MPD2    C511661   4.454   3.049  12.714  0.3972 -0.2308 -0.5949
  791MPD2     H11662   4.485   2.705  12.564 -1.7875 -0.3875  0.0826
  791MPD2    H111663   4.288   3.084  12.588  0.5762 -0.0719  0.6385
  791MPD2    H211664   4.620   3.013  12.830  0.1719  1.1891 -0.4515
  791MPD2    H311665   4.455   3.150  12.754  0.8388 -0.8797  1.0430
  791MPD2     N11666   4.288   2.835  12.460  0.5188 -0.1938 -0.2683
  791MPD2    H511667   4.297   2.734  12.448 -0.4213 -0.5797  2.3647
  791MPD2    N111668   4.679   2.754  12.737  0.2508 -0.3633 -0.3837
  791MPD2    H711669   0.005   2.779  12.822  2.2392 -1.0474 -1.3442
  792MPD2     C11670   0.529   2.484  11.213 -0.7921  0.2142 -0.8891
  792MPD2    C111671   0.502   2.485  11.080 -0.7868  0.1627 -0.8092
  792MPD2    C211672   0.405   2.397  11.036  0.1162 -0.2115 -1.2705
  792MPD2    C311673   0.337   2.309  11.120  0.1700  0.7045  0.8752
  792MPD2    C411674   0.370   2.319  11.254  0.2279  0.0413 -0.6093
  792MPD2    C511675   0.462   2.401  11.302 -0.3136 -0.2563  1.0853
  792MPD2     H11676   0.393   2.390  10.929  4.4637 -0.6320 -1.7257
  792MPD2    H111677   0.318   2.252  11.322  0.8926 -0.2925 -0.4381
  792MPD2    H211678   0.608   2.550  11.248  0.1115 -2.2112  1.5876
  792MPD2    H311679   0.487   2.397  11.407  0.8816 -1.7080  0.7374
  792MPD2     N11680   0.230   2.218  11.084  0.1641  0.0038  0.1971
  792MPD2    H511681   0.201   2.150  11.154  0.5221 -0.3688 -0.0120
  792MPD2    N111682   0.567   2.586  11.005 -0.7402  0.3194 -0.5242
  792MPD2    H711683   0.627   2.646  11.061  1.0970 -1.0841 -0.9905
  793MPD2     C11684   4.434   2.450  10.317  0.0065 -0.0987  0.3034
  793MPD2    C111685   4.549   2.497  10.384 -0.4568  0.0091  0.0889
  793MPD2    C211686   4.573   2.436  10.504 -0.2642 -0.3661 -0.6742
  793MPD2    C311687   4.505   2.323  10.545  0.0488  0.0884  0.5967
  793MPD2    C411688   4.404   2.270  10.472  0.2658  0.5794  0.0873
  793MPD2    C511689   4.371   2.333  10.353 -0.7124 -0.7861  0.4104
  793MPD2     H11690   4.655   2.469  10.566  0.2572  0.2517 -1.7077
  793MPD2    H111691   4.338   2.187  10.494  0.2491  0.7072  0.5350
  793MPD2    H211692   4.405   2.490  10.220  0.9079  0.9805  0.4912
  793MPD2    H311693   4.280   2.306  10.301 -0.9086  1.6058 -0.4923
  793MPD2     N11694   4.539   2.265  10.674 -0.1313 -0.4169 -0.0478
  793MPD2    H511695   4.602   2.327  10.725 -1.1043  1.8136 -1.5688
  793MPD2    N111696   4.634   2.601  10.341 -0.4130 -0.3477  0.0009
  793MPD2    H711697   4.704   2.626  10.410 -2.8332  2.5270  1.4476
  794MPD2     C11698   4.295   1.819  17.136  0.0402  0.1331  0.5449
  794MPD2    C111699   4.178   1.835  17.202 -0.4758 -0.0556 -0.1262
  794MPD2    C211700   4.060   1.805  17.139  0.9055  0.5908  1.2349
  794MPD2    C311701   4.060   1.756  17.006  0.3408 -1.1571  0.0969
  794MPD2    C411702   4.180   1.739  16.942 -0.8139  0.2412 -0.7596
  794MPD2    C511703   4.297   1.759  17.014 -0.5562  0.0731  0.0143
  794MPD2     H11704   3.964   1.811  17.189  0.9415 -0.5949  1.4318
  794MPD2    H111705   4.185   1.705  16.839 -1.1599 -1.1279 -0.3234
  794MPD2    H211706   4.393   1.845  17.176  0.5832  0.9910 -1.3865
  794MPD2    H311707   4.389   1.728  16.964 -1.2151  0.1940 -1.2799
  794MPD2     N11708   3.941   1.735  16.926  0.4136  0.6398  0.3002
  794MPD2    H511709   3.953   1.713  16.828 -1.7246 -0.2551  0.2460
  794MPD2    N111710   4.171   1.881  17.338 -0.1717 -0.7391 -0.1343
  794MPD2    H711711   4.076   1.898  17.371  0.0914  1.1118 -0.3174
  795MPD2     C11712   2.417   3.973  13.909 -0.1319  0.1052  0.5631
  795MPD2    C111713   2.431   3.912  13.781 -0.2082  0.5879  0.0171
  795MPD2    C211714   2.519   3.813  13.765  0.2482 -0.1221  0.1668
  795MPD2    C311715   2.612   3.784  13.865  0.3191 -0.1091 -0.4594
  795MPD2    C411716   2.594   3.847  13.987 -1.1941 -0.3994  0.1926
  795MPD2    C511717   2.494   3.934  14.015  0.6575 -0.4319  0.5865
  795MPD2     H11718   2.524   3.761  13.670 -1.2548  1.1535 -0.5945
  795MPD2    H111719   2.663   3.825  14.068  1.0801 -0.1609 -1.6743
  795MPD2    H211720   2.343   4.047  13.935 -0.4099  0.0487 -0.0582
  795MPD2    H311721   2.468   3.987  14.106 -0.3025  0.4805 -0.2066
  795MPD2     N11722   2.717   3.689  13.855  0.8171  0.1788  0.0188
  795MPD2    H511723   2.792   3.692  13.923  0.4754 -0.0739  0.4117
  795MPD2    N111724   2.361   3.950  13.666 -0.0441 -0.5825 -0.5033
  795MPD2    H711725   2.370   3.888  13.586  2.1398 -0.9987  0.0723
  796MPD2     C11726   1.820   1.129  15.937  0.0417  0.1375 -0.1916
  796MPD2    C111727   1.830   1.174  16.065 -0.6434 -0.5529 -0.3108
  796MPD2    C211728   1.808   1.306  16.090 -0.3582  0.0944  0.3309
  796MPD2    C311729   1.763   1.393  15.999 -0.5048 -0.3601  0.6961
  796MPD2    C411730   1.756   1.349  15.866 -0.0770 -0.3556  0.6749
  796MPD2    C511731   1.791   1.218  15.833  0.5332 -0.1783 -0.5436
  796MPD2     H11732   1.821   1.345  16.190 -1.1645 -0.8233  0.7976
  796MPD2    H111733   1.717   1.415  15.789  5.6449 -0.2962 -2.1785
  796MPD2    H211734   1.840   1.025  15.910 -2.8072 -0.1458 -1.1782
  796MPD2    H311735   1.789   1.188  15.728 -1.2668  1.3515 -0.9322
  796MPD2     N11736   1.745   1.531  16.035  0.7579  0.3087  0.5541
  796MPD2    H511737   1.758   1.559  16.132  1.4897  3.5557 -0.4791
  796MPD2    N111738   1.863   1.077  16.162 -0.0351 -0.2273 -0.1898
  796MPD2    H711739   1.847   0.983  16.128 -2.5435  0.5898 -1.2914
  797MPD2     C11740   2.796   0.052  17.609  0.1244 -0.6530 -0.1037
  797MPD2    C111741   2.857   0.142  17.526  0.4201  0.0280  0.2167
  797MPD2    C211742   2.767   0.233  17.465  0.4105  0.4829 -0.3155
  797MPD2    C311743   2.633   0.243  17.485 -0.5725  0.1502 -0.2828
  797MPD2    C411744   2.576   0.151  17.578  0.9075 -0.0362  0.2126
  797MPD2    C511745   2.658   0.054  17.634 -0.1404  0.3913  0.2156
  797MPD2     H11746   2.809   0.320  17.415 -2.3009  2.2169  0.3975
  797MPD2    H111747   2.470   0.147  17.601  0.4346 -1.7128 -2.3457
  797MPD2    H211748   2.855   4.697  17.655  0.1553  0.3055  1.4781
  797MPD2    H311749   2.622   4.701   0.007 -3.5654  1.3855 -0.4440
  797MPD2     N11750   2.550   0.348  17.443  0.7950  0.7626  0.6360
  797MPD2    H511751   2.466   0.363  17.498  0.1546 -0.5869  0.0157
  797MPD2    N111752   2.994   0.170  17.525 -0.0308  0.5490  0.8911
  797MPD2    H711753   3.024   0.246  17.464  0.4864  0.3957  0.9564
  798MPD2     C11754   3.110   0.851  17.232 -0.1149  0.5672 -0.2690
  798MPD2    C111755   3.035   0.802  17.338 -0.4949  0.3839  0.0966
  798MPD2    C211756   3.098   0.721  17.426 -0.0150  0.1638 -0.3138
  798MPD2    C311757   3.224   0.672  17.410 -0.2707  0.9707  0.4101
  798MPD2    C411758   3.299   0.729  17.311  0.5363 -0.2017 -0.3969
  798MPD2    C511759   3.245   0.810  17.219  0.2118 -0.4622  0.0030
  798MPD2     H11760   3.043   0.690  17.515 -1.8146  0.4732 -1.3325
  798MPD2    H111761   3.402   0.699  17.295  0.2458 -0.9939 -0.7732
  798MPD2    H211762   3.072   0.925  17.162 -0.9942  0.5141  0.1616
  798MPD2    H311763   3.303   0.838  17.132 -1.2401  0.0727 -0.8018
  798MPD2     N11764   3.256   0.564  17.492 -0.1946 -1.1980  0.6652
  798MPD2    H511765   3.175   0.527  17.541 -1.3007 -0.0062 -0.2679
  798MPD2    N111766   2.894   0.837  17.339 -0.7054  0.1751  0.0117
  798MPD2    H711767   2.859   0.875  17.252  2.0488  0.5118 -0.9527
  799MPD2     C11768   1.936   2.024  14.812  0.4132 -0.4126  0.2127
  799MPD2    C111769   1.803   1.978  14.813  0.2838  0.3131 -0.0958
  799MPD2    C211770   1.710   2.039  14.729 -0.4131 -0.4778  0.6623
  799MPD2    C311771   1.744   2.150  14.655  0.2154 -0.6527 -0.0645
  799MPD2    C411772   1.870   2.201  14.668  0.0855  0.4519  0.0538
  799MPD2    C511773   1.964   2.133  14.739  0.4120  0.6149 -0.0776
  799MPD2     H11774   1.617   1.990  14.703 -0.5162 -0.0801  0.2844
  799MPD2    H111775   1.897   2.295  14.620 -1.7121  0.4382 -0.9610
  799MPD2    H211776   2.017   1.979  14.868  1.1503  0.2478 -0.3166
  799MPD2    H311777   2.068   2.161  14.733  0.6564  0.2192  2.2534
  799MPD2     N11778   1.650   2.223  14.568  0.2840 -0.8027 -1.1532
  799MPD2    H511779   1.698   2.288  14.508  1.6374 -0.2177  0.5663
  799MPD2    N111780   1.763   1.873  14.891  0.2567  0.1518 -0.0036
  799MPD2    H711781   1.663   1.857  14.881 -0.4200  2.1657  3.4173
  800MPD2     C11782   2.139   2.805  13.859  0.1749 -0.4271  0.1840
  800MPD2    C111783   2.256   2.866  13.820  0.4084 -0.0349 -0.1987
  800MPD2    C211784   2.316   2.817  13.708 -0.6193 -0.0542  0.0062
  800MPD2    C311785   2.251   2.734  13.625 -0.6924 -0.2627  0.2325
  800MPD2    C411786   2.139   2.665  13.672  0.0510  0.4879 -1.0570
  800MPD2    C511787   2.093   2.695  13.799 -0.3365  1.1315  0.2445
  800MPD2     H11788   2.409   2.855  13.668  0.3666 -2.5676 -0.0937
  800MPD2    H111789   2.087   2.590  13.613 -0.6099 -0.9842  1.3975
  800MPD2    H211790   2.079   2.821  13.948  0.0709 -0.0736  0.0494
  800MPD2    H311791   2.002   2.657  13.844  1.5088 -2.2701  1.1319
  800MPD2     N11792   2.316   2.703  13.504 -0.3818  0.5140  0.1376
  800MPD2    H511793   2.393   2.764  13.480  0.4508 -1.4968 -2.3352
  800MPD2    N111794   2.303   2.984  13.888 -0.4891  0.7308  0.7188
  800MPD2    H711795   2.237   3.036  13.945 -2.7908  2.2725 -3.3878
  801MPD2     C11796   2.115   3.744  13.836  0.3731 -1.1170  0.4148
  801MPD2    C111797   2.140   3.685  13.958 -0.3162  0.1340  0.2101
  801MPD2    C211798   2.056   3.715  14.069  0.2919  0.6312 -0.5648
  801MPD2    C311799   1.952   3.798  14.059 -0.0838 -0.2688 -0.0368
  801MPD2    C411800   1.920   3.842  13.932 -0.5430  0.2896 -0.2333
  801MPD2    C511801   2.003   3.822  13.822 -0.4182  0.1232  0.7514
  801MPD2     H11802   2.076   3.662  14.162 -0.1120 -0.4631 -1.1076
  801MPD2    H111803   1.833   3.906  13.918 -1.5027 -1.2066 -1.1822
  801MPD2    H211804   2.178   3.732  13.749 -1.0791 -0.3717 -0.7401
  801MPD2    H311805   1.984   3.867  13.725  0.9995 -0.5351  0.1779
  801MPD2     N11806   1.861   3.822  14.165  0.0342  0.3205 -0.1622
  801MPD2    H511807   1.779   3.874  14.136  0.4489  0.8954 -0.2984
  801MPD2    N111808   2.247   3.593  13.983 -0.1839  0.4426 -0.1873
  801MPD2    H711809   2.261   3.552  14.075  0.6307  1.6157  0.2111
  802MPD2     C11810   1.280   3.581   0.078  0.2740 -0.2683 -0.3594
  802MPD2    C111811   1.246   3.690  17.688 -0.3376 -0.3194 -0.5992
  802MPD2    C211812   1.278   3.675  17.551 -0.1112  0.2022  0.1727
  802MPD2    C311813   1.345   3.566  17.503  0.1567 -0.6673 -0.1970
  802MPD2    C411814   1.368   3.462  17.590 -0.1165 -0.4189 -0.1977
  802MPD2    C511815   1.329   3.461   0.026 -0.3385 -0.7272 -0.6982
  802MPD2     H11816   1.282   3.757  17.479 -0.3820  2.1332  2.3568
  802MPD2    H111817   1.417   3.372  17.557  1.7499  1.4192 -2.4180
  802MPD2    H211818   1.256   3.571   0.183  0.6012  1.5352 -0.1143
  802MPD2    H311819   1.341   3.376   0.092 -1.2502 -1.9505 -2.1382
  802MPD2     N11820   1.384   3.568  17.368  0.7272  0.9431 -0.1424
  802MPD2    H511821   1.357   3.647  17.310  0.5020  2.0079  1.3835
  802MPD2    N111822   1.193   3.814   0.044 -0.2496 -0.4304  0.2142
  802MPD2    H711823   1.170   3.894  17.681 -0.7736 -1.3840 -0.8915
  803MPD2     C11824   2.844   2.526  11.646  0.4145  0.3875 -0.0125
  803MPD2    C111825   2.886   2.619  11.737  0.3603  0.4912 -0.5899
  803MPD2    C211826   2.910   2.588  11.874  0.1965  0.5992 -0.2683
  803MPD2    C311827   2.874   2.462  11.912 -0.4120  0.1262  0.4140
  803MPD2    C411828   2.823   2.375  11.821  0.6766 -0.5068  0.3301
  803MPD2    C511829   2.804   2.410  11.687  0.1434  0.5363  0.1465
  803MPD2     H11830   2.957   2.659  11.941 -0.9313  1.7933 -0.7483
  803MPD2    H111831   2.795   2.279  11.863 -0.0555 -0.5844 -0.3401
  803MPD2    H211832   2.833   2.549  11.540 -0.9069  1.1537  0.3002
  803MPD2    H311833   2.762   2.331  11.626  1.6335  1.2597 -1.8277
  803MPD2     N11834   2.899   2.404  12.040  0.0200  0.1101  0.0754
  803MPD2    H511835   2.875   2.307  12.053  0.5263 -0.2671 -1.8590
  803MPD2    N111836   2.918   2.752  11.694  0.5114 -0.3607  0.3053
  803MPD2    H711837   2.962   2.808  11.766  1.5112 -1.7699  0.7983
  804MPD2     C11838   2.217   4.238  16.554 -0.0749  0.0500  0.2284
  804MPD2    C111839   2.200   4.214  16.687  0.0657 -0.2006  0.6935
  804MPD2    C211840   2.262   4.305  16.778 -0.7140  0.7141 -0.5934
  804MPD2    C311841   2.366   4.386  16.724  0.2058 -0.5458 -0.5420
  804MPD2    C411842   2.393   4.391  16.591 -0.6786 -0.1146 -0.0449
  804MPD2    C511843   2.315   4.319  16.503 -0.6089 -0.0870  0.5324
  804MPD2     H11844   2.246   4.295  16.885  1.0579  0.5978 -0.3235
  804MPD2    H111845   2.465   4.457  16.546  1.4477 -1.5701  1.2292
  804MPD2    H211846   2.158   4.193  16.475  0.6757  0.0536 -0.3322
  804MPD2    H311847   2.330   4.343  16.398 -0.0162 -1.3964  0.3134
  804MPD2     N11848   2.433   4.468  16.821 -0.2504 -0.4198  0.1377
  804MPD2    H511849   2.396   4.462  16.915  0.1529  1.6711  0.4198
  804MPD2    N111850   2.116   4.112  16.738  0.7442  0.0698  0.1092
  804MPD2    H711851   2.107   4.099  16.838  1.4955  1.0833  0.3072
  805MPD2     C11852   1.325   2.314  15.582 -0.0507 -0.0899 -0.0221
  805MPD2    C111853   1.428   2.385  15.521 -0.4428  0.0062  0.7317
  805MPD2    C211854   1.544   2.417  15.586  0.6047  0.3156  0.0704
  805MPD2    C311855   1.560   2.380  15.720  0.1642 -0.0743 -0.4766
  805MPD2    C411856   1.459   2.302  15.776  0.3074 -0.2874 -0.8789
  805MPD2    C511857   1.342   2.269  15.717 -0.0057  0.0010 -0.2046
  805MPD2     H11858   1.625   2.456  15.526 -0.2146  0.6673 -0.8005
  805MPD2    H111859   1.466   2.276  15.881  0.4549  0.6736 -0.6513
  805MPD2    H211860   1.238   2.270  15.535  0.1053 -0.2071 -0.2014
  805MPD2    H311861   1.268   2.205  15.763  0.9641 -1.5564 -0.8465
  805MPD2     N11862   1.683   2.407  15.790  0.0956  0.3149  0.8939
  805MPD2    H511863   1.748   2.469  15.742  1.1427  0.4155  2.4383
  805MPD2    N111864   1.424   2.400  15.380  0.4143 -0.0970  0.0920
  805MPD2    H711865   1.508   2.428  15.330  0.7151 -2.3457 -0.6698
  806MPD2     C11866   1.619   1.525   0.697 -0.0594  0.5721 -0.6146
  806MPD2    C111867   1.592   1.646   0.746 -0.0674  0.1915 -0.0797
  806MPD2    C211868   1.564   1.756   0.654 -0.6193 -0.0500 -0.5224
  806MPD2    C311869   1.539   1.731   0.524 -0.4154 -0.1157 -0.4745
  806MPD2    C411870   1.549   1.602   0.478  0.3674  0.2253  0.2916
  806MPD2    C511871   1.585   1.501   0.563  0.1122  0.3723 -0.3747
  806MPD2     H11872   1.550   1.859   0.683  0.4329 -0.3518  1.0841
  806MPD2    H111873   1.533   1.566   0.377  1.0945  0.1557  0.1985
  806MPD2    H211874   1.636   1.434   0.754 -0.7879  0.8098 -0.0225
  806MPD2    H311875   1.601   1.400   0.528  0.6287  0.1697  0.4378
  806MPD2     N11876   1.514   1.840   0.440 -0.2938 -0.3189  0.0235
  806MPD2    H511877   1.504   1.931   0.485 -2.4607 -0.1524 -0.7743
  806MPD2    N111878   1.624   1.661   0.880 -0.3453 -0.4700  0.1234
  806MPD2    H711879   1.662   1.577   0.922 -0.9814 -0.2312  1.1759
  807MPD2     C11880   1.296   1.416   1.516  0.5738  0.4205  0.2301
  807MPD2    C111881   1.430   1.383   1.488  0.3959  0.0972  0.2449
  807MPD2    C211882   1.475   1.257   1.514  0.0153 -0.4292  0.1677
  807MPD2    C311883   1.398   1.157   1.566  0.2033 -0.5799  0.3907
  807MPD2    C411884   1.263   1.187   1.594 -0.0366 -0.0947  0.2795
  807MPD2    C511885   1.222   1.313   1.575  0.5957  0.0109 -0.2017
  807MPD2     H11886   1.579   1.233   1.495  0.3853  0.8534  0.5899
  807MPD2    H111887   1.185   1.123   1.634 -1.7150  2.2885  0.8028
  807MPD2    H211888   1.242   1.508   1.501  1.2113  0.5261 -1.4662
  807MPD2    H311889   1.117   1.330   1.596  0.2076 -1.7408 -0.6970
  807MPD2     N11890   1.463   1.035   1.574  0.1883 -0.3770 -0.0214
  807MPD2    H511891   1.563   1.033   1.556 -0.0856 -1.3824 -1.3921
  807MPD2    N111892   1.528   1.481   1.443 -0.3176  0.8713  0.2694
  807MPD2    H711893   1.623   1.449   1.432 -0.0511  0.8596  2.7593
  808MPD2     C11894   2.919   3.445   9.288 -0.6768 -0.5945 -0.0568
  808MPD2    C111895   2.875   3.467   9.412 -0.2172 -0.4478  0.8951
  808MPD2    C211896   2.875   3.591   9.469  0.3751  0.0447  0.3590
  808MPD2    C311897   2.928   3.704   9.401 -0.5837 -0.0701 -0.7788
  808MPD2    C411898   2.974   3.678   9.273  0.5004 -0.0992  0.2310
  808MPD2    C511899   2.965   3.554   9.217  0.7292 -0.2520 -0.4257
  808MPD2     H11900   2.841   3.613   9.570  1.1477 -1.3267  0.9174
  808MPD2    H111901   3.025   3.758   9.220 -1.3623  1.6306  1.0878
  808MPD2    H211902   2.929   3.349   9.239 -1.3135 -1.8185  2.2323
  808MPD2    H311903   3.024   3.544   9.126 -0.0060  2.2139 -1.1900
  808MPD2     N11904   2.961   3.833   9.453 -0.6534 -0.2060  0.3475
  808MPD2    H511905   3.001   3.905   9.394 -0.5104  0.7944  1.6539
  808MPD2    N111906   2.824   3.360   9.492  0.0410 -0.5395 -0.1485
  808MPD2    H711907   2.801   3.376   9.589 -0.9794 -3.8285  0.1338
  809MPD2     C11908   3.564   4.624   9.360  0.7564  0.2863 -0.6926
  809MPD2    C111909   3.567   4.488   9.348 -0.7842 -0.3556  0.3356
  809MPD2    C211910   3.458   4.413   9.369 -0.1368 -0.3254  0.4611
  809MPD2    C311911   3.343   4.464   9.430 -0.3302  0.0728 -0.0657
  809MPD2    C411912   3.337   4.603   9.457  0.2409 -0.1293 -0.1881
  809MPD2    C511913   3.446   4.673   9.414 -0.2848 -0.7253  0.5026
  809MPD2     H11914   3.472   4.306   9.357 -2.8341 -0.8083  1.6250
  809MPD2    H111915   3.252   4.658   9.496  0.0055 -0.0068 -0.8642
  809MPD2    H211916   3.644   4.697   9.349  0.9479  0.2037  0.1473
  809MPD2    H311917   3.445   0.059   9.416 -2.6619 -0.7835  1.8384
  809MPD2     N11918   3.230   4.381   9.475  0.2566 -0.1415 -0.0409
  809MPD2    H511919   3.156   4.428   9.526  1.6972  4.4169 -2.0914
  809MPD2    N111920   3.679   4.420   9.302  1.2223 -0.2659 -0.2136
  809MPD2    H711921   3.671   4.318   9.307  0.1647 -0.1741 -0.1825
  810MPD2     C11922   2.246   2.298   9.386  0.0551  0.2065 -0.7955
  810MPD2    C111923   2.262   2.264   9.517 -0.2391  0.3531  0.1044
  810MPD2    C211924   2.385   2.292   9.585 -0.7738 -0.5224  0.1146
  810MPD2    C311925   2.485   2.375   9.532  0.1523  0.4544 -0.1950
  810MPD2    C411926   2.478   2.398   9.397  0.7301 -0.6203  0.5345
  810MPD2    C511927   2.363   2.359   9.330 -0.0818 -0.4814  0.4777
  810MPD2     H11928   2.398   2.258   9.687  0.7889  2.0630  0.7896
  810MPD2    H111929   2.556   2.449   9.342  0.4253 -1.0570 -0.3072
  810MPD2    H211930   2.156   2.275   9.329 -0.0108  0.7439 -0.9121
  810MPD2    H311931   2.370   2.370   9.222 -0.4411 -1.8415  0.3237
  810MPD2     N11932   2.575   2.448   9.623  0.8826 -0.3698 -0.0208
  810MPD2    H511933   2.645   2.508   9.582  0.5369 -0.7235 -1.1232
  810MPD2    N111934   2.151   2.205   9.585  0.4982  0.1421  0.5406
  810MPD2    H711935   2.059   2.213   9.541  0.7008  1.5278  0.3716
  811MPD2     C11936   2.069   2.602  10.187 -0.0017  0.2005  0.0148
  811MPD2    C111937   1.972   2.596  10.088  0.2849 -0.1661 -0.6746
  811MPD2    C211938   1.933   2.722  10.036 -0.0231  0.1077 -0.3582
  811MPD2    C311939   1.986   2.837  10.091 -0.4239  0.1085 -0.1121
  811MPD2    C411940   2.078   2.844  10.195 -0.2671 -0.1345  0.8646
  811MPD2    C511941   2.120   2.721  10.244  0.0976 -0.2898 -0.7170
  811MPD2     H11942   1.870   2.734   9.948 -0.2431 -1.7771 -0.4665
  811MPD2    H111943   2.127   2.931  10.236 -2.1996  1.7557 -0.8351
  811MPD2    H211944   2.098   2.504  10.222 -0.7823  0.2179  0.7058
  811MPD2    H311945   2.187   2.722  10.329 -0.4496  1.0087 -0.2941
  811MPD2     N11946   1.944   2.959  10.024 -0.2078  0.1386  0.0799
  811MPD2    H511947   1.903   2.948   9.932  0.1394 -0.0909 -0.0479
  811MPD2    N111948   1.946   2.469  10.031 -0.2704  1.2738  0.0221
  811MPD2    H711949   2.001   2.387  10.059 -0.2729  1.6325  1.0931
  812MPD2     C11950   1.616   2.433  11.845 -0.5640  0.0233 -0.6345
  812MPD2    C111951   1.502   2.436  11.927  0.4057  0.2033  0.1345
  812MPD2    C211952   1.501   2.362  12.048  0.4781 -0.5589 -0.4371
  812MPD2    C311953   1.612   2.293  12.094  0.1789  0.5588 -0.5255
  812MPD2    C411954   1.712   2.284  12.004  0.3903 -0.0166 -0.7271
  812MPD2    C511955   1.721   2.354  11.885 -0.7391 -0.2535  0.5535
  812MPD2     H11956   1.414   2.361  12.113  1.6878  2.4231  1.2361
  812MPD2    H111957   1.802   2.236  12.041 -1.0071 -1.7375  0.4255
  812MPD2    H211958   1.630   2.502  11.763  1.9225 -0.1450 -0.3333
  812MPD2    H311959   1.823   2.360  11.849 -0.7271  1.9719  0.9954
  812MPD2     N11960   1.605   2.226  12.217 -0.0049  0.0843  0.0854
  812MPD2    H511961   1.517   2.232  12.267  0.4844 -3.1563  1.3936
  812MPD2    N111962   1.393   2.513  11.874 -0.1511 -0.0943  0.0206
  812MPD2    H711963   1.415   2.558  11.785  1.2062 -0.7087  0.0405
  813MPD2     C11964   0.142   4.433  12.492  0.2599  0.0420  0.5760
  813MPD2    C111965   0.119   4.564  12.528 -0.2720 -0.1239 -0.5285
  813MPD2    C211966   0.014   4.585  12.615  0.4417 -0.2588 -0.1394
  813MPD2    C311967   4.680   4.476  12.680  0.0468 -0.0300 -0.1108
  813MPD2    C411968   4.720   4.347  12.659 -0.2225  0.1799 -0.0135
  813MPD2    C511969   0.084   4.324  12.557 -0.1130 -0.2816 -0.0848
  813MPD2     H11970   4.706   4.685  12.641  0.1291 -0.5806  0.7317
  813MPD2    H111971   4.683   4.257  12.707  1.0525  0.5481  1.6788
  813MPD2    H211972   0.215   4.413  12.415  0.1769 -1.5216  0.8916
  813MPD2    H311973   0.106   4.223  12.525 -0.6078 -0.3232 -0.2992
  813MPD2     N11974   4.583   4.507  12.782 -0.0018 -0.0744 -0.2729
  813MPD2    H511975   4.550   4.603  12.787  1.6079  0.4250  0.5125
  813MPD2    N111976   0.185   4.665  12.451 -0.3846  0.2195 -0.4211
  813MPD2    H711977   0.259   4.628  12.392  0.2659 -0.1372  0.6132
  814MPD2     C11978   0.421   1.219  12.422 -0.0588  1.0590 -0.2617
  814MPD2    C111979   0.426   1.268  12.296 -0.6592  0.1523  0.2342
  814MPD2    C211980   0.522   1.361  12.265 -0.0535  0.3584  0.0344
  814MPD2    C311981   0.627   1.385  12.359  0.5055  0.0471 -0.1152
  814MPD2    C411982   0.623   1.330  12.483 -0.0379 -0.7422  0.2340
  814MPD2    C511983   0.514   1.259  12.517 -0.2610 -0.0593  0.6880
  814MPD2     H11984   0.507   1.421  12.176 -2.6619 -0.9552 -0.4110
  814MPD2    H111985   0.699   1.359  12.555 -1.2891 -0.2198  1.3385
  814MPD2    H211986   0.354   1.142  12.460 -0.1548  0.6133 -1.3219
  814MPD2    H311987   0.495   1.219  12.616 -2.9733  0.6503  0.4747
  814MPD2     N11988   0.720   1.489  12.337  0.0568 -0.4963 -0.3530
  814MPD2    H511989   0.788   1.515  12.408 -2.9969  1.0480  2.0205
  814MPD2    N111990   0.345   1.223  12.190  0.5161 -0.4714 -0.4194
  814MPD2    H711991   0.360   1.267  12.099 -0.2252 -2.8434 -1.6769
  815MPD2     C11992   1.243   3.976  11.687  0.2791 -0.2203 -0.4633
  815MPD2    C111993   1.160   3.883  11.637  1.2760 -0.2411  0.6863
  815MPD2    C211994   1.035   3.867  11.692 -0.5143 -0.0500 -0.6955
  815MPD2    C311995   0.987   3.957  11.785 -0.1355 -0.4072 -0.2688
  815MPD2    C411996   1.062   4.062  11.822  0.6420 -0.4014  0.6203
  815MPD2    C511997   1.191   4.069  11.775  0.2218  0.0307 -0.1051
  815MPD2     H11998   0.953   3.804  11.661 -0.2756 -0.5175 -0.3854
  815MPD2    H111999   1.033   4.134  11.897 -1.1098 -0.2606 -0.1832
  815MPD2    H212000   1.339   3.985  11.637  0.0403 -1.0398 -1.0738
  815MPD2    H312001   1.256   4.147  11.812  1.0644 -0.1168 -1.2802
  815MPD2     N12002   0.860   3.925  11.840  0.6100  0.1448 -0.1566
  815MPD2    H512003   0.805   3.849  11.801 -2.5025  2.5316 -0.4216
  815MPD2    N112004   1.195   3.800  11.525 -0.3888  0.1681 -0.7351
  815MPD2    H712005   1.281   3.831  11.480  0.7493 -1.7411  0.1264
  816MPD2     C12006   0.073   3.500  17.060 -1.0517 -0.6857 -0.4838
  816MPD2    C112007   0.162   3.590  17.113  0.2000  0.3644  0.7490
  816MPD2    C212008   0.297   3.571  17.088  0.6091 -0.2336  0.0796
  816MPD2    C312009   0.344   3.472  17.004  0.4132  0.8544 -0.4314
  816MPD2    C412010   0.253   3.377  16.966 -0.5335  0.2265 -0.3089
  816MPD2    C512011   0.118   3.389  16.990  0.2294  0.6582 -0.5992
  816MPD2     H12012   0.373   3.633  17.135  1.1343 -0.5150 -0.3985
  816MPD2    H112013   0.276   3.294  16.901  1.6456  2.8977 -2.9229
  816MPD2    H212014   4.691   3.515  17.079 -0.6412 -0.3336  1.4226
  816MPD2    H312015   0.048   3.315  16.953  1.2537  0.2776 -1.7640
  816MPD2     N12016   0.484   3.464  16.977 -0.7389  0.2665  0.4961
  816MPD2    H512017   0.543   3.532  17.024  0.6228  2.4220 -4.2844
  816MPD2    N112018   0.106   3.704  17.180 -0.3408 -0.1367  0.2577
  816MPD2    H712019   0.006   3.719  17.175 -0.4991 -1.4243 -0.3883
  817MPD2     C12020   0.917   0.173   9.756 -0.3867  0.3654 -0.6654
  817MPD2    C112021   0.933   0.195   9.618  0.1493  0.2551  0.0564
  817MPD2    C212022   0.890   0.310   9.567 -0.9999  0.6248  0.1316
  817MPD2    C312023   0.854   0.413   9.647  0.5165  0.4108  0.1901
  817MPD2    C412024   0.841   0.408   9.784  0.1269 -0.2282 -0.4500
  817MPD2    C512025   0.878   0.283   9.836  0.5676 -0.5795 -0.2083
  817MPD2     H12026   0.885   0.314   9.459  0.4852 -5.1130 -0.1695
  817MPD2    H112027   0.808   0.489   9.848 -0.9574  0.7827 -2.2792
  817MPD2    H212028   0.956   0.085   9.806  0.8935  1.1863 -0.2405
  817MPD2    H312029   0.875   0.278   9.944 -0.7240 -3.0154 -0.3579
  817MPD2     N12030   0.841   0.532   9.571 -0.7564 -0.5951  0.9382
  817MPD2    H512031   0.865   0.521   9.473 -2.0259  1.5711  0.3795
  817MPD2    N112032   0.981   0.090   9.534 -1.0338  0.4056 -0.3928
  817MPD2    H712033   0.996   0.116   9.437 -0.5911  0.0953 -0.4047
  818MPD2     C12034   4.450   0.355   9.931 -0.2097  0.1671  0.4155
  818MPD2    C112035   4.372   0.289  10.025  0.2875  0.2576  0.0112
  818MPD2    C212036   4.359   0.150  10.008 -0.8256 -0.1739 -0.4473
  818MPD2    C312037   4.419   0.080   9.901  0.4292  0.4945  0.1287
  818MPD2    C412038   4.506   0.145   9.817  0.6089 -0.4102 -0.2961
  818MPD2    C512039   4.513   0.282   9.833  0.0692  0.1844 -0.4866
  818MPD2     H12040   4.301   0.097  10.083 -0.1827 -0.0872  0.1104
  818MPD2    H112041   4.554   0.090   9.737 -0.6548  0.9125 -1.9792
  818MPD2    H212042   4.462   0.462   9.938 -2.6800  0.3296  2.2654
  818MPD2    H312043   4.573   0.333   9.758  1.9932  0.8501  1.5037
  818MPD2     N12044   4.405   4.667   9.884 -0.0548 -0.3766  0.0868
  818MPD2    H512045   4.461   4.627   9.809  1.1372  1.5941 -0.1057
  818MPD2    N112046   4.310   0.348  10.136  0.1835  0.8840  0.7397
  818MPD2    H712047   4.256   0.290  10.199  1.8999 -2.1814 -0.6189
  819MPD2     C12048   2.066   2.072  15.678  0.5496 -0.0954  0.1137
  819MPD2    C112049   2.072   1.934  15.700  0.1934 -0.2400 -0.2166
  819MPD2    C212050   2.184   1.884  15.766 -0.0212 -0.4815 -0.6704
  819MPD2    C312051   2.285   1.969  15.818  0.1117  0.1466  0.4529
  819MPD2    C412052   2.276   2.109  15.792 -0.0931  0.7440  0.1524
  819MPD2    C512053   2.164   2.148  15.726 -0.2698  0.5071  0.2243
  819MPD2     H12054   2.197   1.776  15.775 -0.5563 -0.5679 -0.9293
  819MPD2    H112055   2.336   2.191  15.828 -1.9861  2.0653  0.2813
  819MPD2    H212056   1.985   2.123  15.628  2.3925  2.5864 -0.1353
  819MPD2    H312057   2.152   2.253  15.702 -0.2789  0.1168 -1.4791
  819MPD2     N12058   2.390   1.912  15.889 -0.3329 -0.1699 -0.4578
  819MPD2    H512059   2.386   1.813  15.908 -0.6186  0.2987  1.8398
  819MPD2    N112060   1.967   1.854  15.656 -0.2375 -0.0124 -0.5163
  819MPD2    H712061   1.889   1.912  15.627 -0.5494 -0.7249 -1.1030
  820MPD2     C12062   1.250   1.860  14.977 -0.0238  0.6674  0.2402
  820MPD2    C112063   1.373   1.923  15.001  0.2715  0.3461 -0.1329
  820MPD2    C212064   1.460   1.861  15.087 -0.4993 -0.4024  0.0424
  820MPD2    C312065   1.422   1.747  15.161  0.1163  0.3093 -0.3992
  820MPD2    C412066   1.308   1.680  15.126  0.6369 -0.4963 -0.6311
  820MPD2    C512067   1.230   1.736  15.029  0.1545  0.0151  0.7065
  820MPD2     H12068   1.553   1.915  15.102 -0.5675 -0.1286 -0.5309
  820MPD2    H112069   1.292   1.579  15.162 -0.8379  0.1575  0.5516
  820MPD2    H212070   1.167   1.899  14.918  0.5702  0.7278 -0.5568
  820MPD2    H312071   1.138   1.680  15.019  0.5692 -0.4144 -0.7389
  820MPD2     N12072   1.516   1.688  15.253  0.3582  0.4646  0.3634
  820MPD2    H512073   1.503   1.591  15.279 -0.0668  0.9588  2.0215
  820MPD2    N112074   1.399   2.048  14.945  0.5101 -0.6910  0.3202
  820MPD2    H712075   1.319   2.080  14.891 -0.5478 -0.3412  2.0745
  821MPD2     C12076   2.340   3.044  12.785 -0.0186 -0.0994  0.2455
  821MPD2    C112077   2.423   3.059  12.895  0.2403 -0.0343 -0.2650
  821MPD2    C212078   2.492   3.179  12.915 -0.4289 -1.0374  0.4774
  821MPD2    C312079   2.472   3.290  12.838 -0.9377 -0.3610 -0.0124
  821MPD2    C412080   2.391   3.277  12.731 -0.3741 -0.2988 -0.9528
  821MPD2    C512081   2.334   3.150  12.701 -0.2540  0.1393  0.1385
  821MPD2     H12082   2.546   3.166  13.008 -1.7125 -0.1614  1.3510
  821MPD2    H112083   2.381   3.357  12.659  1.6772  0.2369 -0.6320
  821MPD2    H212084   2.278   2.956  12.770 -1.5102  0.6436  1.9683
  821MPD2    H312085   2.272   3.136  12.613  0.2250 -0.8536 -0.0453
  821MPD2     N12086   2.533   3.414  12.870 -0.7508 -0.3040  0.2395
  821MPD2    H512087   2.506   3.492  12.811 -0.7706 -0.9468 -0.6027
  821MPD2    N112088   2.430   2.968  13.003  0.2203  0.6443 -0.1053
  821MPD2    H712089   2.482   2.993  13.087  2.6874 -1.2568 -1.0641
  822MPD2     C12090   2.968   3.195  15.851 -0.6216 -0.0336 -0.4231
  822MPD2    C112091   3.016   3.306  15.917  0.4395  0.1811 -0.1606
  822MPD2    C212092   2.938   3.417  15.932  0.1077 -0.2047 -0.1285
  822MPD2    C312093   2.810   3.415  15.889  0.4865 -0.3073 -0.1845
  822MPD2    C412094   2.762   3.302  15.827 -0.5584  0.0980  0.3744
  822MPD2    C512095   2.840   3.195  15.801 -0.2055  0.0945 -0.1398
  822MPD2     H12096   2.975   3.500  15.991  2.8197  0.1679 -2.3602
  822MPD2    H112097   2.659   3.302  15.792  0.6306  0.2077 -3.1768
  822MPD2    H212098   3.024   3.103  15.838 -0.2357  0.8835 -5.0780
  822MPD2    H312099   2.786   3.111  15.758 -2.3996  1.6736 -0.4882
  822MPD2     N12100   2.728   3.523  15.931  0.1033 -0.5754  0.9149
  822MPD2    H512101   2.630   3.498  15.941 -0.1427 -0.4111 -1.2949
  822MPD2    N112102   3.145   3.315  15.984 -0.0395  0.7342 -0.0341
  822MPD2    H712103   3.163   3.401  16.035  1.6676  0.6392 -0.4676
  823MPD2     C12104   2.355   3.860  16.636  0.0297 -0.1189  0.0339
  823MPD2    C112105   2.391   3.751  16.551 -0.0139 -0.1544 -0.1467
  823MPD2    C212106   2.399   3.628  16.604  0.3847 -0.0820 -0.5879
  823MPD2    C312107   2.399   3.609  16.743  0.3294 -0.2595 -0.3656
  823MPD2    C412108   2.368   3.708  16.827  0.0682  0.0116  0.6759
  823MPD2    C512109   2.345   3.834  16.774 -0.1187 -0.1306  0.4035
  823MPD2     H12110   2.400   3.542  16.537  3.5765 -0.6851  0.2470
  823MPD2    H112111   2.353   3.695  16.934 -1.2207  0.0868  0.5009
  823MPD2    H212112   2.343   3.958  16.592 -1.0423 -0.1487  0.2469
  823MPD2    H312113   2.318   3.920  16.835  0.2680  0.1221  0.2190
  823MPD2     N12114   2.416   3.479  16.796 -1.2141 -0.4320  0.2861
  823MPD2    H512115   2.388   3.459  16.891 -0.6893 -3.5176 -0.2146
  823MPD2    N112116   2.400   3.787  16.413  0.1366  0.0651 -0.1410
  823MPD2    H712117   2.380   3.884  16.391 -0.9244 -0.5984 -2.0772
  824MPD2     C12118   3.607   2.611  16.244  0.2100  0.5117  0.7501
  824MPD2    C112119   3.585   2.698  16.139 -0.0043  0.4041 -0.3738
  824MPD2    C212120   3.636   2.660  16.013  0.4211  0.5359 -0.8033
  824MPD2    C312121   3.724   2.554  15.995  0.4357  0.4906  0.1585
  824MPD2    C412122   3.743   2.471  16.102 -0.2499 -0.7579  0.4013
  824MPD2    C512123   3.678   2.498  16.221  0.1572  0.4922 -0.7444
  824MPD2     H12124   3.627   2.732  15.932  1.2028 -2.1216 -3.2395
  824MPD2    H112125   3.804   2.382  16.095  0.9252  0.1718 -1.2044
  824MPD2    H212126   3.572   2.624  16.346 -1.5065  3.7612 -0.2512
  824MPD2    H312127   3.691   2.433  16.307 -0.8234  0.1875 -0.8329
  824MPD2     N12128   3.777   2.522  15.863 -0.5741 -0.6845  0.4232
  824MPD2    H512129   3.734   2.583  15.794 -0.7387 -0.9432  0.2972
  824MPD2    N112130   3.508   2.813  16.143  1.1127 -0.9064 -0.8654
  824MPD2    H712131   3.507   2.856  16.051 -1.6248 -1.1920 -0.9625
  825MPD2     C12132   4.079   2.740  15.082 -0.2472 -0.5750  0.2676
  825MPD2    C112133   4.058   2.760  15.217 -0.7011  0.0402  0.7549
  825MPD2    C212134   4.066   2.893  15.268  0.5170  0.4224  0.8620
  825MPD2    C312135   4.085   3.001  15.178  0.2021 -0.5722 -0.4675
  825MPD2    C412136   4.106   2.977  15.052 -0.1433  0.5958 -0.1401
  825MPD2    C512137   4.098   2.848  15.004 -0.9574  0.1307  0.1171
  825MPD2     H12138   4.046   2.918  15.372 -2.1841 -1.4174  0.8089
  825MPD2    H112139   4.083   3.061  14.986 -4.4908  1.0747  1.9605
  825MPD2    H212140   4.063   2.643  15.037 -0.6350 -0.4974  0.2357
  825MPD2    H312141   4.105   2.828  14.898 -1.3744  2.0133 -0.2581
  825MPD2     N12142   4.089   3.135  15.218 -0.5024  0.0757 -0.1773
  825MPD2    H512143   4.128   3.198  15.149  0.2577  0.7695  0.8848
  825MPD2    N112144   4.021   2.647  15.295 -0.0255 -0.4385  0.4043
  825MPD2    H712145   4.018   2.555  15.253  2.4286 -1.2408  1.9587
  826MPD2     C12146   3.334   2.286  13.461  0.4443  0.1449 -0.6344
  826MPD2    C112147   3.400   2.397  13.400  0.5175  0.4212  0.3757
  826MPD2    C212148   3.369   2.525  13.453  0.3549 -0.3387 -0.3385
  826MPD2    C312149   3.293   2.543  13.564 -0.0333 -0.1512  0.4869
  826MPD2    C412150   3.219   2.435  13.607 -0.4967  0.3275  0.3168
  826MPD2    C512151   3.241   2.311  13.559 -0.7302  0.4261  0.0688
  826MPD2     H12152   3.419   2.611  13.410  3.6597 -2.0975 -0.0650
  826MPD2    H112153   3.158   2.442  13.697 -0.2559  1.5732  0.3923
  826MPD2    H212154   3.346   2.186  13.422  1.8729  0.1695 -0.2585
  826MPD2    H312155   3.188   2.220  13.587  0.2712  0.0138  0.6192
  826MPD2     N12156   3.286   2.659  13.640  0.0490 -0.5370 -0.0405
  826MPD2    H512157   3.215   2.672  13.711  1.4906 -0.5591  1.3872
  826MPD2    N112158   3.489   2.374  13.295 -0.8956 -0.0143  0.1700
  826MPD2    H712159   3.519   2.278  13.285  1.8638  0.8749 -0.0386
  827MPD2     C12160   4.443   3.635   9.919 -0.0142 -0.2458  0.1484
  827MPD2    C112161   4.397   3.531  10.005  0.3771  1.1514  0.1531
  827MPD2    C212162   4.335   3.420   9.947  0.1732 -0.0057 -0.3502
  827MPD2    C312163   4.304   3.418   9.815 -0.3489 -0.4730  0.3330
  827MPD2    C412164   4.361   3.513   9.736 -0.9868 -0.1293  0.3920
  827MPD2    C512165   4.426   3.623   9.786 -0.2438  0.4516  0.1541
  827MPD2     H12166   4.304   3.332  10.002  1.7893 -1.0151 -1.0515
  827MPD2    H112167   4.360   3.502   9.628  1.1194 -0.1754  0.3730
  827MPD2    H212168   4.496   3.724   9.951 -0.3325 -0.4242  1.1548
  827MPD2    H312169   4.471   3.693   9.717 -2.1728 -0.0292 -1.5572
  827MPD2     N12170   4.254   3.303   9.753  0.1830  0.0260 -0.5056
  827MPD2    H512171   4.275   3.212   9.794 -1.7509 -0.9569 -1.7120
  827MPD2    N112172   4.450   3.541  10.138  0.1798  0.0543 -0.4171
  827MPD2    H712173   4.498   3.626  10.167  1.5622 -0.9796  0.3575
  828MPD2     C12174   3.013   3.629  12.446  0.7472 -0.2164 -0.1696
  828MPD2    C112175   2.996   3.591  12.310  0.4327 -0.4522  0.1441
  828MPD2    C212176   3.115   3.553  12.245 -0.5810  0.3183  0.2640
  828MPD2    C312177   3.237   3.552  12.306  1.3938 -0.3719 -0.1616
  828MPD2    C412178   3.236   3.572  12.444 -0.0692  0.5918  0.4244
  828MPD2    C512179   3.129   3.610  12.513 -0.0903  0.3477  0.0659
  828MPD2     H12180   3.109   3.524  12.141  0.4185  1.9508 -0.2487
  828MPD2    H112181   3.331   3.569  12.497  0.5916  1.0604 -0.7362
  828MPD2    H212182   2.930   3.666  12.504  1.7523  2.0808 -0.1769
  828MPD2    H312183   3.134   3.625  12.620 -0.1335  2.2832 -0.1963
  828MPD2     N12184   3.357   3.525  12.240 -0.3393  0.5064 -0.0748
  828MPD2    H512185   3.441   3.512  12.294  1.0707  3.1239 -1.5938
  828MPD2    N112186   2.881   3.616  12.229 -0.2469 -0.3371 -0.5003
  828MPD2    H712187   2.892   3.575  12.137  2.0005 -1.3206  0.2053
  829MPD2     C12188   3.005   3.630  11.437 -0.3011  0.2306 -0.0637
  829MPD2    C112189   2.867   3.620  11.436 -0.0984  0.2850 -0.2864
  829MPD2    C212190   2.789   3.617  11.548 -0.1125  0.2260  0.2057
  829MPD2    C312191   2.855   3.616  11.671  0.3157 -0.4902 -0.0951
  829MPD2    C412192   2.994   3.630  11.676 -0.4466 -0.4055 -0.6147
  829MPD2    C512193   3.069   3.639  11.557 -0.1246 -0.4692 -0.4713
  829MPD2     H12194   2.683   3.639  11.540 -0.3450 -1.0733 -0.2144
  829MPD2    H112195   3.039   3.649  11.773  2.1939 -1.8266 -1.5586
  829MPD2    H212196   3.051   3.628  11.338 -1.4408  1.0261 -0.6118
  829MPD2    H312197   3.177   3.641  11.558 -0.1391  0.5330 -0.5062
  829MPD2     N12198   2.778   3.621  11.798 -0.7642  0.2395  0.5259
  829MPD2    H512199   2.836   3.625  11.881 -2.0196 -1.1220  1.4679
  829MPD2    N112200   2.812   3.610  11.307  0.0022  0.1036  0.4004
  829MPD2    H712201   2.873   3.619  11.226 -0.8612  1.5018 -0.1023
  830MPD2     C12202   3.289   1.792  15.870 -0.4581 -0.1144 -0.0621
  830MPD2    C112203   3.176   1.817  15.798  0.7190 -0.1279  0.4878
  830MPD2    C212204   3.188   1.852  15.663 -0.5203 -0.3922  0.0830
  830MPD2    C312205   3.310   1.852  15.609  0.0152  0.4120 -0.0787
  830MPD2    C412206   3.417   1.799  15.673  0.0273  0.4964 -0.2910
  830MPD2    C512207   3.410   1.779  15.809 -0.2770 -0.5908 -0.7806
  830MPD2     H12208   3.107   1.883  15.597 -0.6600  0.0025  0.4425
  830MPD2    H112209   3.510   1.780  15.620 -1.9129 -3.0384 -2.3674
  830MPD2    H212210   3.293   1.777  15.977  2.2213  0.6291 -0.0604
  830MPD2    H312211   3.501   1.743  15.856 -0.5620 -2.8377 -1.9729
  830MPD2     N12212   3.336   1.897  15.476  0.1609  0.9788 -0.5455
  830MPD2    H512213   3.430   1.888  15.438 -0.3871  0.8170 -1.8593
  830MPD2    N112214   3.051   1.799  15.867  0.6512  0.5927  0.2343
  830MPD2    H712215   3.054   1.774  15.965 -1.3139 -1.6436 -0.2697
  831MPD2     C12216   2.915   3.830  16.338 -0.0779  0.0778  0.2174
  831MPD2    C112217   2.976   3.730  16.273  0.0413  0.5435 -0.1544
  831MPD2    C212218   2.917   3.601  16.277 -0.5472 -0.4110  0.0669
  831MPD2    C312219   2.799   3.578  16.340 -0.5313 -0.2732 -0.2130
  831MPD2    C412220   2.739   3.681  16.407  0.2503 -0.3218  0.2569
  831MPD2    C512221   2.806   3.803  16.411  0.3964 -0.1142  0.7926
  831MPD2     H12222   2.962   3.516  16.225  1.9302  1.9973 -1.7252
  831MPD2    H112223   2.648   3.672  16.466  0.7910 -1.2679  0.9526
  831MPD2    H212224   2.955   3.931  16.332  0.3840  0.0296  2.7877
  831MPD2    H312225   2.762   3.882  16.471 -1.2761 -0.0152 -0.5675
  831MPD2     N12226   2.712   3.464  16.318  0.2145  0.6197  0.1009
  831MPD2    H512227   2.614   3.460  16.347  0.1528  3.2493  0.2352
  831MPD2    N112228   3.084   3.759  16.186 -0.0659 -0.7555 -0.1465
  831MPD2    H712229   3.093   3.858  16.167  2.3519 -1.1987 -1.1950
  832MPD2     C12230   1.182   4.323  17.047  0.3067 -0.5378  0.1961
  832MPD2    C112231   1.154   4.449  17.093  0.3156  0.9177  0.4412
  832MPD2    C212232   1.061   4.525  17.030 -0.6034 -0.5227  0.5055
  832MPD2    C312233   0.990   4.481  16.917 -0.2873  0.2553 -0.1499
  832MPD2    C412234   1.022   4.356  16.872  0.3394  0.3994  0.2996
  832MPD2    C512235   1.120   4.281  16.933  0.3697  0.2540  0.3743
  832MPD2     H12236   1.035   4.616  17.083 -0.2029 -1.1011  1.6897
  832MPD2    H112237   0.969   4.319  16.785  3.2133  0.0584 -1.3167
  832MPD2    H212238   1.257   4.260  17.095  0.0896  0.5682  1.9767
  832MPD2    H312239   1.149   4.185  16.892 -2.4796 -0.8435  0.9713
  832MPD2     N12240   0.887   4.543  16.848  0.4689  0.4858  0.0564
  832MPD2    H512241   0.822   4.493  16.788  0.9086 -1.3614  1.1178
  832MPD2    N112242   1.229   4.490  17.207  0.1599 -0.0159 -0.6604
  832MPD2    H712243   1.290   4.418  17.242 -0.0517  0.1610  0.0782
  833MPD2     C12244   3.257   1.391  12.540 -0.5275 -0.1621  0.5102
  833MPD2    C112245   3.326   1.507  12.524  0.1357  0.4052 -0.6153
  833MPD2    C212246   3.381   1.540  12.405 -0.0840  0.0877  0.7263
  833MPD2    C312247   3.363   1.471  12.293 -0.9655 -0.9823 -0.0846
  833MPD2    C412248   3.285   1.358  12.308 -0.4533 -0.1426 -0.6623
  833MPD2    C512249   3.244   1.317  12.428  0.3306 -0.1693  0.4174
  833MPD2     H12250   3.430   1.637  12.401  1.4761 -0.7021  0.7017
  833MPD2    H112251   3.256   1.298  12.223  1.6929 -1.8501 -0.2076
  833MPD2    H212252   3.220   1.354  12.635  0.3305 -2.7160 -0.1748
  833MPD2    H312253   3.185   1.226  12.437  1.3450 -0.8496  0.2925
  833MPD2     N12254   3.392   1.526  12.159 -0.0923  0.0565 -0.7540
  833MPD2    H512255   3.369   1.471  12.077  2.0293 -0.6620 -0.8531
  833MPD2    N112256   3.335   1.591  12.636 -0.3455  0.3950  0.4564
  833MPD2    H712257   3.287   1.559  12.720 -0.6074  0.9923  0.5345
  834MPD2     C12258   3.877   1.621  11.329 -0.2606 -0.5922  0.3854
  834MPD2    C112259   3.815   1.519  11.398  0.1471 -0.4213  0.2120
  834MPD2    C212260   3.749   1.554  11.513 -0.0131 -0.7359  0.2448
  834MPD2    C312261   3.746   1.686  11.551 -0.6575  0.9246  0.2888
  834MPD2    C412262   3.803   1.793  11.477  0.0440 -0.1851 -0.2932
  834MPD2    C512263   3.867   1.753  11.361  0.1740 -0.2349 -0.0228
  834MPD2     H12264   3.705   1.485  11.584 -1.1327 -1.5886 -1.2612
  834MPD2    H112265   3.801   1.895  11.514  0.4323  0.1453 -1.1818
  834MPD2    H212266   3.916   1.585  11.235 -1.6373 -1.9198  0.3235
  834MPD2    H312267   3.922   1.825  11.302 -0.8812 -0.8496 -1.7469
  834MPD2     N12268   3.687   1.713  11.681  0.7323  0.0461  0.3219
  834MPD2    H512269   3.651   1.629  11.725 -0.3599  0.9089  1.0782
  834MPD2    N112270   3.826   1.388  11.344 -0.0776 -0.3314 -0.2092
  834MPD2    H712271   3.873   1.377  11.255 -1.1550 -1.1732 -0.6572
  835MPD2     C12272   4.014   3.196  10.849 -0.0156  0.3835  0.5262
  835MPD2    C112273   3.927   3.291  10.893 -0.8929 -1.1151 -0.0969
  835MPD2    C212274   3.929   3.343  11.021  0.0096 -0.5440  0.3204
  835MPD2    C312275   4.024   3.302  11.114 -0.8371  0.3678 -0.1353
  835MPD2    C412276   4.120   3.210  11.068  0.6717  0.9496 -0.5158
  835MPD2    C512277   4.111   3.165  10.940 -0.0960  0.1387 -0.1175
  835MPD2     H12278   3.867   3.428  11.048  0.8224  0.4637 -0.9856
  835MPD2    H112279   4.205   3.190  11.132  0.1688  2.3003  0.5821
  835MPD2    H212280   4.018   3.156  10.748 -0.1966  0.2997  0.5509
  835MPD2    H312281   4.187   3.093  10.911 -2.8271 -2.6153 -0.5324
  835MPD2     N12282   4.038   3.354  11.247  0.0707  0.6474  0.6149
  835MPD2    H512283   4.122   3.331  11.299 -0.3405 -1.0514  0.5344
  835MPD2    N112284   3.845   3.352  10.799  0.6948 -0.0279 -0.5561
  835MPD2    H712285   3.789   3.429  10.835  0.0251 -1.1115  0.7208
  836MPD2     C12286   3.833   3.670  12.083  0.0423  1.2044  0.2182
  836MPD2    C112287   3.777   3.698  11.962  0.0398 -0.2341 -0.7595
  836MPD2    C212288   3.650   3.764  11.959  0.2606  0.4927 -0.6859
  836MPD2    C312289   3.582   3.791  12.078  0.0767 -0.8939  0.3116
  836MPD2    C412290   3.636   3.752  12.198  0.0837  0.3671 -0.0882
  836MPD2    C512291   3.755   3.685  12.195 -0.3729 -0.3603  0.0879
  836MPD2     H12292   3.612   3.782  11.859 -0.7371 -2.6693 -0.8848
  836MPD2    H112293   3.585   3.759  12.294  0.7057  1.4886  0.1644
  836MPD2    H212294   3.931   3.626  12.098 -0.1817  1.0253  1.1696
  836MPD2    H312295   3.788   3.649  12.291  0.0477 -1.0032 -0.2996
  836MPD2     N12296   3.453   3.851  12.090  0.5565  0.0715  0.4904
  836MPD2    H512297   3.417   3.868  12.183  2.4290  0.3723  1.1560
  836MPD2    N112298   3.851   3.658  11.849  0.3833 -0.0067 -0.3214
  836MPD2    H712299   3.945   3.625  11.870  0.8467  1.3121 -0.3665
  837MPD2     C12300   1.775   3.834  10.060  0.1095 -0.4110  0.6549
  837MPD2    C112301   1.890   3.774   9.998  0.5576  0.3518 -0.0913
  837MPD2    C212302   1.996   3.855   9.946 -0.4633  0.3213  0.1861
  837MPD2    C312303   1.979   3.992   9.950 -0.4064  0.1914 -0.0778
  837MPD2    C412304   1.862   4.041  10.004  0.2739 -0.4384 -0.7259
  837MPD2    C512305   1.767   3.964  10.062  0.8260  0.2259  0.2035
  837MPD2     H12306   2.087   3.820   9.898 -2.7145 -3.9943 -0.8811
  837MPD2    H112307   1.842   4.147  10.017 -1.3416 -1.0711  2.2029
  837MPD2    H212308   1.699   3.775  10.111  1.3295 -2.0271  0.5976
  837MPD2    H312309   1.680   4.008  10.110  1.7894  0.5320  1.6833
  837MPD2     N12310   2.079   4.064   9.877  0.2263  0.5586 -0.2050
  837MPD2    H512311   2.160   4.013   9.842 -0.8246 -2.3696  1.6722
  837MPD2    N112312   1.919   3.638  10.000 -0.5182  0.8400 -0.5879
  837MPD2    H712313   1.995   3.609   9.938 -0.6029 -1.8645  0.5881
  838MPD2     C12314   4.502   1.500  11.458 -0.3545  0.6687 -0.2815
  838MPD2    C112315   4.541   1.576  11.565 -0.2889 -0.2987 -0.0533
  838MPD2    C212316   4.446   1.636  11.643 -0.6685  0.1693  0.8311
  838MPD2    C312317   4.310   1.612  11.619  0.7059 -0.4385  0.0820
  838MPD2    C412318   4.278   1.532  11.513  0.2886  0.4293 -0.1029
  838MPD2    C512319   4.369   1.483  11.425  0.7796 -0.0184  0.1427
  838MPD2     H12320   4.472   1.699  11.727 -0.7341 -0.3721  1.2558
  838MPD2    H112321   4.175   1.524  11.481 -0.5171 -0.8550  2.7953
  838MPD2    H212322   4.586   1.468  11.397 -0.5058  2.1006 -1.2345
  838MPD2    H312323   4.350   1.444  11.325  1.4351  0.0719 -0.0180
  838MPD2     N12324   4.215   1.681  11.700 -0.2937 -0.1333 -0.1097
  838MPD2    H512325   4.246   1.762  11.752  0.4693  0.5191 -1.6024
  838MPD2    N112326   4.675   1.603  11.604  0.1043  0.1588 -0.3728
  838MPD2    H712327   4.684   1.651  11.692 -1.5072 -1.7627  0.8367
  839MPD2     C12328   4.508   1.349  11.887  0.3819 -0.8326  0.4966
  839MPD2    C112329   4.613   1.301  11.808 -0.0070 -0.4315 -0.4726
  839MPD2    C212330   0.022   1.353  11.837  0.1816 -0.1354 -0.0055
  839MPD2    C312331   0.051   1.430  11.946 -0.3025 -0.0695 -0.1147
  839MPD2    C412332   4.669   1.452  12.034  0.6125  0.2870 -0.0821
  839MPD2    C512333   4.543   1.419  11.998  0.2220  0.4361 -0.3323
  839MPD2     H12334   0.105   1.324  11.774 -1.2504 -1.4418 -1.2889
  839MPD2    H112335   4.691   1.491  12.132  0.0728  0.1071  0.1098
  839MPD2    H212336   4.404   1.318  11.891 -0.0139  0.2422 -1.8065
  839MPD2    H312337   4.470   1.452  12.070  1.1578 -0.1654  0.8828
  839MPD2     N12338   0.182   1.458  11.993 -0.0164 -0.5566 -0.6037
  839MPD2    H512339   0.196   1.463  12.093 -0.7711 -1.2068 -0.4642
  839MPD2    N112340   4.593   1.219  11.696 -0.4374 -0.7122  0.5009
  839MPD2    H712341   4.665   1.200  11.628 -2.1023 -0.7073 -1.2735
  840MPD2     C12342   0.218   3.851  10.180  0.3049  0.0757 -0.2421
  840MPD2    C112343   0.205   3.810  10.307  0.5419  0.4497 -0.4099
  840MPD2    C212344   0.292   3.859  10.405  0.0990  0.1546 -0.2136
  840MPD2    C312345   0.393   3.953  10.376 -0.5550  0.1146 -0.2651
  840MPD2    C412346   0.419   3.991  10.243 -0.7609  0.6434 -1.2489
  840MPD2    C512347   0.322   3.940  10.152  0.1406  0.1529 -0.2220
  840MPD2     H12348   0.292   3.816  10.505 -0.2568  0.3127 -0.1449
  840MPD2    H112349   0.503   4.053  10.214  1.4892 -1.1576  1.4892
  840MPD2    H212350   0.163   3.812  10.094  1.0402 -0.8596 -0.2863
  840MPD2    H312351   0.341   3.953  10.046  1.4319  2.7217  0.3086
  840MPD2     N12352   0.477   4.016  10.471  0.0033  0.0685 -0.0678
  840MPD2    H512353   0.564   4.054  10.435  0.0645  1.4645  1.6016
  840MPD2    N112354   0.107   3.715  10.334  0.3047  0.6918 -0.0605
  840MPD2    H712355   0.051   3.681  10.256 -0.4902 -0.8247  1.1705
  841MPD2     C12356   4.363   3.264  14.977  0.6881  0.8735  0.0174
  841MPD2    C112357   4.356   3.262  14.839 -0.2492  0.1610  0.3578
  841MPD2    C212358   4.344   3.385  14.774  0.4523  0.6570  0.2765
  841MPD2    C312359   4.334   3.508  14.840 -0.0957  0.1615  0.5411
  841MPD2    C412360   4.349   3.511  14.975  1.1131  0.1735  0.1243
  841MPD2    C512361   4.360   3.390  15.040 -0.8791 -0.6784  0.3974
  841MPD2     H12362   4.348   3.383  14.665  0.2780 -1.7034  0.3029
  841MPD2    H112363   4.358   3.609  15.018  0.2905 -0.6651  2.1724
  841MPD2    H212364   4.372   3.186  15.052  0.5255  0.4370 -0.4160
  841MPD2    H312365   4.367   3.384  15.148 -0.8049  1.9382  0.5334
  841MPD2     N12366   4.349   3.623  14.758 -0.1404 -0.3928  0.1400
  841MPD2    H512367   4.360   3.611  14.657 -0.4867 -1.7506  0.2627
  841MPD2    N112368   4.368   3.140  14.760  0.0593 -0.0365 -0.7148
  841MPD2    H712369   4.352   3.154  14.661  0.4647  0.0436 -0.7715
  842MPD2     C12370   0.238   0.894  17.153 -0.4472  0.1208 -0.8935
  842MPD2    C112371   0.113   0.911  17.094 -0.3683  0.3584 -0.0219
  842MPD2    C212372   0.006   0.926  17.182 -0.5116  0.2376  0.4962
  842MPD2    C312373   0.018   0.910  17.321  0.3182  0.4151 -0.0839
  842MPD2    C412374   0.147   0.887  17.371  0.1390 -0.1090  0.0591
  842MPD2    C512375   0.254   0.888  17.284  0.8086 -0.3298  0.0451
  842MPD2     H12376   4.627   0.924  17.146 -0.6943 -0.7101  1.0546
  842MPD2    H112377   0.178   0.870  17.473 -0.5425 -0.5108  0.1961
  842MPD2    H212378   0.321   0.890  17.083  2.1956  2.1006  2.1070
  842MPD2    H312379   0.356   0.866  17.311  0.4912 -1.8434  0.0201
  842MPD2     N12380   4.628   0.908  17.407 -0.1493  0.3311  0.5745
  842MPD2    H512381   4.541   0.911  17.355 -1.2199 -1.3749  2.2682
  842MPD2    N112382   0.098   0.900  16.950  0.5925  0.3224  0.0677
  842MPD2    H712383   0.183   0.868  16.904  1.7744  0.9183  1.8539
  843MPD2     C12384   2.156   0.300  17.539 -0.5189  0.5193 -0.0719
  843MPD2    C112385   2.206   0.295  17.665 -0.4333  0.5229 -0.2068
  843MPD2    C212386   2.270   0.406   0.029 -0.2179  0.0179  0.3578
  843MPD2    C312387   2.293   0.516  17.644  0.3334  0.8644 -0.2817
  843MPD2    C412388   2.229   0.531  17.526 -0.2824  0.1946 -0.4373
  843MPD2    C512389   2.160   0.422  17.474  0.7083 -0.5468 -0.8480
  843MPD2     H12390   2.296   0.414   0.134  1.1987 -0.2114  0.0236
  843MPD2    H112391   2.226   0.622  17.466  2.7193  1.3794  1.2364
  843MPD2    H212392   2.118   0.213  17.486 -2.1229 -0.2776  2.3631
  843MPD2    H312393   2.133   0.423  17.369  0.3196 -0.5951 -0.7485
  843MPD2     N12394   2.386   0.611  17.689  0.2883  0.1030 -0.0047
  843MPD2    H512395   2.389   0.697  17.634 -0.0141  0.0799 -0.0567
  843MPD2    N112396   2.164   0.184   0.043 -0.3576  0.2769  0.2906
  843MPD2    H712397   2.097   0.127  17.689 -1.6896  1.1255  1.1305
  844MPD2     C12398   0.824   4.615  16.355  0.0561 -0.2551 -0.5807
  844MPD2    C112399   0.865   4.495  16.401 -0.5836  0.5644 -1.2143
  844MPD2    C212400   0.970   4.495  16.493 -0.5049 -0.5118 -0.1152
  844MPD2    C312401   1.029   4.610  16.541  0.6213 -0.4776 -0.0729
  844MPD2    C412402   0.972   0.006  16.505 -0.2553  0.7833  0.4798
  844MPD2    C512403   0.877   0.007  16.407 -0.0138 -0.5354  0.3436
  844MPD2     H12404   1.009   4.398  16.523 -1.0116 -1.3163 -2.0652
  844MPD2    H112405   1.017   0.097  16.543  0.3387 -0.2041  2.1380
  844MPD2    H212406   0.746   4.625  16.281  0.9185 -3.5527 -1.9442
  844MPD2    H312407   0.849   0.107  16.375  1.7300 -0.2082 -0.1344
  844MPD2     N12408   1.148   4.595  16.620  0.0574 -0.1110 -0.3490
  844MPD2    H512409   1.184   4.500  16.628  0.1146 -0.1619 -1.2568
  844MPD2    N112410   0.829   4.373  16.337  0.1748  0.1895  0.0386
  844MPD2    H712411   0.866   4.291  16.385 -3.0723 -1.2162  0.1193
  845MPD2     C12412   1.866   0.546  16.765  0.5854 -0.0990  1.0839
  845MPD2    C112413   1.749   0.532  16.839  1.0276  0.1583 -0.7617
  845MPD2    C212414   1.696   0.403  16.849 -0.0592  0.0056 -0.2661
  845MPD2    C312415   1.747   0.297  16.774  0.2008 -0.0204 -0.0679
  845MPD2    C412416   1.866   0.316  16.705 -0.2775 -0.1411 -0.7778
  845MPD2    C512417   1.922   0.443  16.698 -0.1461  0.6552 -0.0639
  845MPD2     H12418   1.598   0.388  16.894  0.0417 -0.3554 -0.1756
  845MPD2    H112419   1.925   0.239  16.656  0.4058 -0.5666  0.6905
  845MPD2    H212420   1.918   0.641  16.757  0.2778 -0.1908 -1.9646
  845MPD2    H312421   2.015   0.457  16.644  0.8328 -1.9619  0.9577
  845MPD2     N12422   1.672   0.177  16.778 -0.5137  0.2647 -0.5360
  845MPD2    H512423   1.580   0.178  16.821 -0.0087 -0.9874  0.5827
  845MPD2    N112424   1.683   0.644  16.897  0.2828  0.0350  0.4895
  845MPD2    H712425   1.728   0.735  16.896  2.6612 -1.1405 -0.5497
  846MPD2     C12426   2.851   0.713  13.539  0.7722  0.0688  0.1605
  846MPD2    C112427   2.812   0.845  13.554 -0.4929 -0.1049 -0.3157
  846MPD2    C212428   2.794   0.898  13.676  0.9125  0.1924  0.2012
  846MPD2    C312429   2.825   0.827  13.787 -0.1805 -0.0198 -0.3342
  846MPD2    C412430   2.866   0.698  13.776 -0.6975 -0.1413 -0.1143
  846MPD2    C512431   2.875   0.644  13.652 -0.6743  0.3453  0.6722
  846MPD2     H12432   2.764   1.002  13.675 -1.3673 -0.4685 -0.2376
  846MPD2    H112433   2.893   0.627  13.854 -0.2926  1.4479  1.1952
  846MPD2    H212434   2.857   0.665  13.442  2.0142 -0.8395  0.7022
  846MPD2    H312435   2.898   0.538  13.652 -0.5771  0.3672  0.3202
  846MPD2     N12436   2.796   0.889  13.913  0.3252 -0.0733 -0.2507
  846MPD2    H512437   2.746   0.977  13.918  0.3018 -0.1996  1.6842
  846MPD2    N112438   2.778   0.926  13.448  0.2971 -0.6169  0.7772
  846MPD2    H712439   2.745   1.020  13.469 -0.8212 -1.4480  2.7400
  847MPD2     C12440   3.273   1.800  13.898  0.3023  0.3096  0.4915
  847MPD2    C112441   3.297   1.867  14.010  0.6107 -0.4662 -0.4902
  847MPD2    C212442   3.312   1.797  14.131 -0.0627  0.2012  0.4609
  847MPD2    C312443   3.287   1.661  14.138  0.0091  0.5419 -0.1064
  847MPD2    C412444   3.265   1.597  14.020 -0.0873  0.6434  0.2053
  847MPD2    C512445   3.251   1.666  13.904  0.7982 -0.3496 -0.0765
  847MPD2     H12446   3.342   1.846  14.224 -0.8282 -0.9415  1.3159
  847MPD2    H112447   3.242   1.492  14.013 -2.6579  1.2082  0.4973
  847MPD2    H212448   3.260   1.855  13.805  0.5655  0.8613  0.7767
  847MPD2    H312449   3.219   1.607  13.819 -1.7247  2.0021 -0.7627
  847MPD2     N12450   3.291   1.595  14.262 -0.0586  0.5704  0.0717
  847MPD2    H512451   3.325   1.650  14.340  1.0433 -2.1527  1.5190
  847MPD2    N112452   3.320   2.009  14.021 -0.3685  0.6988 -0.2430
  847MPD2    H712453   3.363   2.043  14.107  0.9081  1.0119 -1.0082
  848MPD2     C12454   0.602   0.292  16.255 -0.1261  0.0800  0.5183
  848MPD2    C112455   0.666   0.331  16.369  0.3209  0.0565 -0.4208
  848MPD2    C212456   0.732   0.456  16.372 -1.0721  0.3821 -0.0790
  848MPD2    C312457   0.729   0.535  16.255 -0.7485 -0.9049  0.2867
  848MPD2    C412458   0.682   0.484  16.134  0.1683 -0.3895 -0.3102
  848MPD2    C512459   0.617   0.367  16.142 -0.0323 -0.4726  0.2066
  848MPD2     H12460   0.775   0.487  16.466 -0.9999  2.3119 -0.7345
  848MPD2    H112461   0.683   0.533  16.038  2.0255  0.5390  0.1647
  848MPD2    H212462   0.543   0.203  16.239  0.6411 -0.4196  0.4335
  848MPD2    H312463   0.567   0.333  16.052 -0.6530  0.1291  0.3233
  848MPD2     N12464   0.806   0.656  16.240  0.3133  0.2607  0.7511
  848MPD2    H512465   0.810   0.697  16.148 -1.6336  0.1631  0.6264
  848MPD2    N112466   0.656   0.255  16.488  0.3017 -0.0929 -0.2164
  848MPD2    H712467   0.696   0.296  16.571  0.9546 -2.0051  0.4037
  849MPD2     C12468   0.084   4.325  13.656 -0.7361  0.4367 -0.9825
  849MPD2    C112469   0.215   4.275  13.646 -0.8062 -0.3972 -0.2950
  849MPD2    C212470   0.276   4.233  13.767 -0.3541 -0.2078  0.4115
  849MPD2    C312471   0.211   4.218  13.885 -0.1889  0.4961 -0.7211
  849MPD2    C412472   0.077   4.267  13.887 -0.1203 -0.5624  0.7503
  849MPD2    C512473   0.023   4.316  13.775  0.1956 -0.4905  0.0323
  849MPD2     H12474   0.377   4.195  13.764  0.1247  1.1386 -0.6996
  849MPD2    H112475   0.020   4.266  13.980 -4.1825  0.6883 -1.7231
  849MPD2    H212476   0.027   4.366  13.573 -2.1939  1.5809  0.5755
  849MPD2    H312477   4.641   4.339  13.772 -0.0990 -1.8601  0.3171
  849MPD2     N12478   0.266   4.176  14.007 -0.1701 -0.0043 -0.0019
  849MPD2    H512479   0.212   4.191  14.092  0.2083 -0.8199  0.3774
  849MPD2    N112480   0.293   4.268  13.528 -0.8381 -0.2538  0.1285
  849MPD2    H712481   0.382   4.219  13.534 -0.3375  0.5827 -0.5480
  850MPD2     C12482   2.911   2.795  14.596 -0.4859  1.1325 -0.4550
  850MPD2    C112483   2.890   2.895  14.691  0.5661 -0.0504 -0.0583
  850MPD2    C212484   3.005   2.945  14.762 -0.0907 -0.4902 -0.0020
  850MPD2    C312485   3.125   2.874  14.753  0.3124 -0.1289  0.3690
  850MPD2    C412486   3.140   2.777  14.657  0.3895 -0.5280  0.4512
  850MPD2    C512487   3.032   2.742  14.575 -0.1317 -0.4086  0.1344
  850MPD2     H12488   2.987   3.022  14.836 -0.9248 -0.5254 -0.1643
  850MPD2    H112489   3.228   2.715  14.641  0.1861 -0.8045  0.3984
  850MPD2    H212490   2.828   2.749  14.545  0.3275  1.2312 -1.8588
  850MPD2    H312491   3.046   2.656  14.511 -0.1768 -1.1741  1.1604
  850MPD2     N12492   3.241   2.903  14.823 -0.1196  0.2128 -0.4369
  850MPD2    H512493   3.323   2.847  14.804  0.5854  0.1162  2.8754
  850MPD2    N112494   2.754   2.938  14.712 -0.6877  0.3317 -0.3726
  850MPD2    H712495   2.684   2.905  14.646 -0.1027  0.3024 -0.9802
  851MPD2     C12496   3.242   2.820  15.374 -0.2304  0.2921 -0.0376
  851MPD2    C112497   3.151   2.757  15.295 -0.2405 -0.3448 -0.5537
  851MPD2    C212498   3.182   2.627  15.247 -0.4707 -0.3190  0.3060
  851MPD2    C312499   3.299   2.570  15.264  0.9337 -0.3393  0.0873
  851MPD2    C412500   3.396   2.639  15.339 -0.3369 -0.6388 -0.3920
  851MPD2    C512501   3.359   2.759  15.398  0.3890 -0.3703 -0.7139
  851MPD2     H12502   3.111   2.573  15.185 -2.0802 -2.4269  3.9903
  851MPD2    H112503   3.490   2.596  15.368 -0.9251 -0.1034  2.3485
  851MPD2    H212504   3.232   2.921  15.413  0.7316  1.4570 -2.8369
  851MPD2    H312505   3.423   2.820  15.460 -1.3244  1.9806 -1.2391
  851MPD2     N12506   3.314   2.436  15.213  0.2775 -0.3726  0.0802
  851MPD2    H512507   3.230   2.392  15.179 -0.3430 -0.3289  1.5549
  851MPD2    N112508   3.037   2.825  15.254  0.5023  0.1326  0.1568
  851MPD2    H712509   3.027   2.918  15.292  2.3409 -0.2474  1.6171
  852MPD2     C12510   2.829   0.179  10.212  0.5413  0.3828 -0.2915
  852MPD2    C112511   2.891   0.266  10.294  0.5477 -0.0662  0.1199
  852MPD2    C212512   3.018   0.313  10.267  0.8137  0.3588 -0.4679
  852MPD2    C312513   3.082   0.266  10.153  0.2014 -0.3513 -0.3558
  852MPD2    C412514   3.016   0.179  10.070 -0.6001  0.7962  0.6459
  852MPD2    C512515   2.889   0.140  10.098 -0.1256  0.3976  0.1102
  852MPD2     H12516   3.077   0.370  10.339 -1.7752  1.5143  0.7586
  852MPD2    H112517   3.059   0.141   9.978 -0.3593 -1.4465  1.6827
  852MPD2    H212518   2.732   0.131  10.223  0.4739  0.7058  0.4898
  852MPD2    H312519   2.853   0.067  10.026 -1.5285  0.5598  0.6538
  852MPD2     N12520   3.212   0.310  10.134 -0.2134  0.4931 -0.5010
  852MPD2    H512521   3.234   0.386  10.197 -0.5260  0.0334  0.1528
  852MPD2    N112522   2.829   0.310  10.414 -0.2112  0.5245 -0.9502
  852MPD2    H712523   2.879   0.373  10.476  0.6517 -0.3993 -0.7015
  853MPD2     C12524   0.011   0.729  12.378  0.0488  0.7661 -0.4410
  853MPD2    C112525   4.619   0.676  12.321 -0.4929 -0.1539 -0.0519
  853MPD2    C212526   4.628   0.602  12.208 -0.4331 -0.1847  0.8881
  853MPD2    C312527   0.027   0.577  12.142  0.3075 -0.7368 -0.0023
  853MPD2    C412528   0.139   0.641  12.191 -0.5765  0.1803  1.4369
  853MPD2    C512529   0.125   0.716  12.306 -0.3991 -1.0672 -0.0592
  853MPD2     H12530   4.535   0.567  12.164 -0.6419  1.2702  0.1909
  853MPD2    H112531   0.237   0.640  12.145 -1.3348 -3.2657 -0.0598
  853MPD2    H212532   0.008   0.795  12.464 -0.0812  0.6624 -0.3682
  853MPD2    H312533   0.211   0.767  12.348  0.4739 -2.5290 -0.0619
  853MPD2     N12534   0.040   0.511  12.017 -0.0616  0.5930 -0.1661
  853MPD2    H512535   0.135   0.503  11.982 -0.3281  1.7030 -1.1357
  853MPD2    N112536   4.493   0.689  12.387 -0.3896 -0.2126 -0.1689
  853MPD2    H712537   4.415   0.632  12.355 -0.3122 -0.5497  0.2467
  854MPD2     C12538   1.038   0.897  13.845  0.4417  0.0391 -0.4527
  854MPD2    C112539   1.084   0.846  13.725 -0.1184  0.0518  0.4037
  854MPD2    C212540   1.223   0.836  13.705 -0.2287 -0.4450 -0.0215
  854MPD2    C312541   1.310   0.887  13.810  0.0907 -0.4663 -0.3842
  854MPD2    C412542   1.257   0.938  13.932 -0.0255  0.0328  0.1602
  854MPD2    C512543   1.117   0.938  13.945  0.2099  0.1189 -0.0816
  854MPD2     H12544   1.249   0.794  13.608 -0.1595 -2.6357  0.9494
  854MPD2    H112545   1.326   0.968  14.009  0.2592  0.0305 -0.0933
  854MPD2    H212546   0.934   0.900  13.875  0.2154  1.8507 -1.3868
  854MPD2    H312547   1.077   0.957  14.044 -1.1654  0.1303 -0.6334
  854MPD2     N12548   1.448   0.869  13.799  0.8084 -0.0461 -0.2726
  854MPD2    H512549   1.510   0.895  13.875  1.4821 -0.1916 -0.7719
  854MPD2    N112550   0.996   0.794  13.626  0.2967  0.0945  0.0588
  854MPD2    H712551   0.898   0.799  13.654  0.3934  0.3627  0.3521
  855MPD2     C12552   1.707   0.063  13.440  0.7512  0.0170 -0.4294
  855MPD2    C112553   1.682   0.073  13.574 -0.3787 -0.0154  0.1198
  855MPD2    C212554   1.704   0.191  13.644  0.6899 -0.5887 -0.0951
  855MPD2    C312555   1.754   0.305  13.580  0.3956  0.4722  0.2709
  855MPD2    C412556   1.769   0.293  13.444 -0.7777 -0.8860  1.3583
  855MPD2    C512557   1.745   0.182  13.377 -0.8656 -0.4530 -0.4865
  855MPD2     H12558   1.687   0.192  13.751 -2.7079 -3.1034 -0.6184
  855MPD2    H112559   1.803   0.373  13.379  2.4470 -2.4086  1.2037
  855MPD2    H212560   1.703   4.698  13.377 -2.8744 -0.9847  1.1966
  855MPD2    H312561   1.765   0.176  13.270 -3.9004  2.2354 -1.2202
  855MPD2     N12562   1.773   0.430  13.634  0.1377  0.1044  0.6296
  855MPD2    H512563   1.802   0.506  13.573  0.3386 -0.3860  0.1195
  855MPD2    N112564   1.640   4.682  13.644 -0.3218 -0.2205 -0.1764
  855MPD2    H712565   1.642   4.690  13.745 -1.7190  1.5337 -0.2840
  856MPD2     C12566   3.540   1.122  14.001  0.4637  0.3569 -0.2412
  856MPD2    C112567   3.641   1.216  13.986 -0.6104  0.3037 -0.2214
  856MPD2    C212568   3.631   1.323  13.901 -0.2069 -0.4104  0.0029
  856MPD2    C312569   3.513   1.349  13.825 -0.0850  0.5249 -0.2223
  856MPD2    C412570   3.402   1.260  13.845  0.0455  0.0936 -0.2499
  856MPD2    C512571   3.423   1.147  13.925 -0.4574 -0.1657  0.1149
  856MPD2     H12572   3.709   1.397  13.894 -0.0772 -0.8609 -3.4480
  856MPD2    H112573   3.307   1.260  13.792 -0.9716  0.5911  1.5938
  856MPD2    H212574   3.549   1.045  14.077  0.0688  1.2006  0.6708
  856MPD2    H312575   3.338   1.080  13.927 -1.2735  0.9038  1.2170
  856MPD2     N12576   3.501   1.464  13.737 -0.0689 -0.4105 -0.8048
  856MPD2    H512577   3.410   1.481  13.695 -0.7213 -0.0983  0.7240
  856MPD2    N112578   3.774   1.212  14.051  0.4348 -0.4670  0.5448
  856MPD2    H712579   3.836   1.288  14.024  0.8692 -1.9031 -2.5699
  857MPD2     C12580   0.879   3.341  12.410 -0.5620  0.0004  0.0992
  857MPD2    C112581   1.010   3.294  12.426 -1.0066 -0.6421  0.1986
  857MPD2    C212582   1.115   3.386  12.458 -0.2210 -0.2893 -0.0907
  857MPD2    C312583   1.082   3.525  12.471 -0.1486 -0.1715  0.4076
  857MPD2    C412584   0.948   3.565  12.468  0.4250  0.2647 -0.1510
  857MPD2    C512585   0.847   3.474  12.436  0.0801  0.3755  0.6482
  857MPD2     H12586   1.222   3.369  12.459 -0.4500 -1.5047  3.5923
  857MPD2    H112587   0.917   3.669  12.476 -4.1645 -1.2187  0.9546
  857MPD2    H212588   0.800   3.274  12.379  1.0892 -1.9467  0.1725
  857MPD2    H312589   0.741   3.497  12.433  0.1036  0.6159  1.5432
  857MPD2     N12590   1.181   3.611  12.517 -0.2371  0.0629 -0.1000
  857MPD2    H512591   1.272   3.576  12.545 -1.7937 -1.2135  3.3879
  857MPD2    N112592   1.057   3.166  12.394 -0.3248  0.0573  0.2144
  857MPD2    H712593   1.158   3.153  12.388 -0.4818 -0.2943 -1.4795
  858MPD2     C12594   0.879   2.373  16.635  0.1526  0.0581  0.2822
  858MPD2    C112595   1.017   2.382  16.628 -0.1113  0.4815  0.4817
  858MPD2    C212596   1.082   2.476  16.709 -0.2933 -0.2247  1.1540
  858MPD2    C312597   1.009   2.549  16.798 -0.1222  0.0697  0.3143
  858MPD2    C412598   0.873   2.539  16.798 -0.0074 -0.0738  0.5697
  858MPD2    C512599   0.803   2.447  16.726  0.3968  0.2691  0.1583
  858MPD2     H12600   1.189   2.495  16.708 -0.5438  1.1387  0.1747
  858MPD2    H112601   0.811   2.594  16.868  1.1956  0.6381  1.0760
  858MPD2    H212602   0.819   2.304  16.577  3.1953 -0.8219 -1.8354
  858MPD2    H312603   0.697   2.444  16.744  0.2341  0.9824 -0.6770
  858MPD2     N12604   1.059   2.639  16.891  0.2864  0.7353 -0.1214
  858MPD2    H512605   0.990   2.687  16.948 -1.6142 -0.0850 -1.7167
  858MPD2    N112606   1.084   2.305  16.531 -0.0573 -0.2445  0.3895
  858MPD2    H712607   1.034   2.224  16.494  0.3201 -0.1038 -0.4304
  859MPD2     C12608   4.450   4.140  15.215  0.2037  0.0880 -0.3356
  859MPD2    C112609   4.563   4.200  15.178  0.7522 -0.4007 -0.2441
  859MPD2    C212610   4.656   4.124  15.111  0.3340 -0.5665 -0.1448
  859MPD2    C312611   4.641   3.991  15.092  0.2873 -0.3783 -0.3735
  859MPD2    C412612   4.527   3.930  15.126 -0.5926 -0.2371 -0.5935
  859MPD2    C512613   4.431   4.007  15.189 -0.2451 -0.4701 -0.1298
  859MPD2     H12614   0.014   4.178  15.065 -0.0355  0.0473 -0.0794
  859MPD2    H112615   4.498   3.829  15.098 -0.2886 -0.3600 -0.4667
  859MPD2    H212616   4.363   4.192  15.254  0.8163  1.3252 -0.6042
  859MPD2    H312617   4.336   3.964  15.220  0.4378 -0.7300  1.5948
  859MPD2     N12618   0.013   3.903  15.030  0.5815 -0.9030 -0.3515
  859MPD2    H512619   4.711   3.809  15.002  1.9196 -0.7268 -2.1435
  859MPD2    N112620   4.574   4.340  15.218  0.2885 -0.3647 -0.5323
  859MPD2    H712621   4.490   4.383  15.255 -0.5526 -0.5091 -2.2791
  860MPD2     C12622   1.850   4.521  12.288  0.5183  0.2867  0.2503
  860MPD2    C112623   1.939   4.534  12.388  0.4560  0.2690 -0.0585
  860MPD2    C212624   1.932   4.652  12.460  0.1773 -0.7828 -0.3861
  860MPD2    C312625   1.843   0.029  12.429 -0.1369  0.6466  0.9158
  860MPD2    C412626   1.759   0.011  12.321  0.9811  0.3035 -0.7128
  860MPD2    C512627   1.753   4.616  12.254  0.0143  0.1504  0.2903
  860MPD2     H12628   1.993   4.660  12.550 -0.6109  3.5473 -0.2397
  860MPD2    H112629   1.690   0.087  12.285  0.1822  0.4289  1.1074
  860MPD2    H212630   1.834   4.430  12.231 -0.6806  0.0086  1.0215
  860MPD2    H312631   1.685   4.594  12.172 -0.8260  0.6436  0.8606
  860MPD2     N12632   1.836   0.137  12.519  0.0800  0.1084  0.0335
  860MPD2    H512633   1.913   0.138  12.584  0.1910 -1.3171 -0.0729
  860MPD2    N112634   2.036   4.442  12.420  0.3648 -0.6038  0.3351
  860MPD2    H712635   2.088   4.459  12.506  2.2781 -0.7375 -0.8061
  861MPD2     C12636   1.977   2.820  10.734 -0.6106  0.0570 -0.2112
  861MPD2    C112637   1.861   2.799  10.807  0.2522 -0.5720  0.1585
  861MPD2    C212638   1.740   2.819  10.746  0.2786 -0.5280 -0.1275
  861MPD2    C312639   1.738   2.845  10.609 -0.0480 -0.1354 -0.2574
  861MPD2    C412640   1.851   2.864  10.536 -0.5026 -0.5560  0.5627
  861MPD2    C512641   1.963   2.854  10.602 -0.3738  0.1991 -0.4300
  861MPD2     H12642   1.649   2.817  10.805  0.1793  2.0780 -0.1704
  861MPD2    H112643   1.852   2.890  10.431 -0.1765 -0.6747  0.5363
  861MPD2    H212644   2.078   2.808  10.773 -0.8795 -0.3921  0.3419
  861MPD2    H312645   2.054   2.868  10.545  0.3266  2.6203  1.2588
  861MPD2     N12646   1.609   2.857  10.549  0.1619  0.4739 -0.1198
  861MPD2    H512647   1.531   2.868  10.612  1.0288  0.8032  0.9014
  861MPD2    N112648   1.862   2.782  10.951  0.1187 -0.4032 -0.4051
  861MPD2    H712649   1.777   2.787  11.007 -0.6320  0.7000 -1.6266
  862MPD2     C12650   1.015   2.604  10.057 -0.1522  0.3433  0.3387
  862MPD2    C112651   1.089   2.596  10.169 -0.2394 -0.4447 -0.0560
  862MPD2    C212652   1.091   2.475  10.238  0.4411  0.4382  0.3065
  862MPD2    C312653   1.025   2.359  10.190  0.0284 -0.9639  0.1160
  862MPD2    C412654   0.982   2.371  10.061  0.0118  0.0183  0.1456
  862MPD2    C512655   0.964   2.490   9.999  0.0836  0.1975  0.5193
  862MPD2     H12656   1.147   2.479  10.331  0.6040  0.1544  0.2217
  862MPD2    H112657   0.939   2.283  10.016 -1.5386  0.9530 -0.1830
  862MPD2    H212658   1.011   2.693   9.995 -1.3045  0.0527 -0.0143
  862MPD2    H312659   0.913   2.500   9.904 -1.2555 -1.6116  1.0495
  862MPD2     N12660   1.020   2.223  10.246 -0.2984 -0.4649 -0.1273
  862MPD2    H512661   1.009   2.153  10.173 -1.5926  0.2303 -0.5982
  862MPD2    N112662   1.175   2.699  10.215  0.0118 -0.4551  0.2995
  862MPD2    H712663   1.236   2.678  10.293 -0.3042 -0.4135  0.5567
  863MPD2     C12664   4.438   1.539  16.604  0.0015  0.2024  0.1983
  863MPD2    C112665   4.349   1.452  16.669 -0.3406  0.3244  0.9649
  863MPD2    C212666   4.379   1.413  16.801 -0.5645  0.2976  0.3900
  863MPD2    C312667   4.494   1.456  16.856 -0.1276 -0.6714  0.3410
  863MPD2    C412668   4.573   1.557  16.793  0.2980 -0.0455  0.3801
  863MPD2    C512669   4.541   1.597  16.669 -0.4292 -1.0249  0.1035
  863MPD2     H12670   4.319   1.339  16.852  1.2983 -0.8945  0.8495
  863MPD2    H112671   4.645   1.613  16.851  0.8549 -1.4016  0.9984
  863MPD2    H212672   4.412   1.563  16.502 -0.2011 -0.8134  0.0105
  863MPD2    H312673   4.609   1.665  16.618  0.9917 -1.3655  1.5614
  863MPD2     N12674   4.547   1.409  16.980  0.5480 -0.5798  0.2359
  863MPD2    H512675   4.643   1.439  16.993  0.2969  1.5148 -2.6556
  863MPD2    N112676   4.246   1.395  16.596 -0.3646 -0.1031 -0.2828
  863MPD2    H712677   4.249   1.411  16.495 -1.8854 -0.8601 -0.4465
  864MPD2     C12678   4.364   2.689  17.135  0.2765 -0.1135 -0.3650
  864MPD2    C112679   4.468   2.615  17.091  0.5864  0.1052 -0.4771
  864MPD2    C212680   4.576   2.682  17.048  0.3460  1.1193 -0.6951
  864MPD2    C312681   4.600   2.819  17.057  0.0335  0.4592  0.3377
  864MPD2    C412682   4.494   2.892  17.116 -0.5037 -0.1929  1.1333
  864MPD2    C512683   4.378   2.828  17.149 -0.2451 -0.1454  0.3473
  864MPD2     H12684   4.653   2.618  17.006 -0.8746 -0.5627 -0.3360
  864MPD2    H112685   4.505   3.000  17.121  1.1684 -0.4547  2.8774
  864MPD2    H212686   4.270   2.647  17.169 -0.2209 -0.1493 -1.8109
  864MPD2    H312687   4.286   2.877  17.177  0.4641  0.8918  0.8402
  864MPD2     N12688   0.004   2.866  17.014 -0.0482  0.2505 -0.0090
  864MPD2    H512689   0.069   2.795  16.983 -0.0248  0.9540 -1.6249
  864MPD2    N112690   4.468   2.473  17.089  0.3162  0.0700  0.1226
  864MPD2    H712691   4.554   2.430  17.056  0.0448 -0.6987  0.4096
  865MPD2     C12692   0.253   3.015  16.093 -0.3631 -0.7240  0.2324
  865MPD2    C112693   0.231   2.902  16.172  0.4657 -0.2925 -0.4903
  865MPD2    C212694   0.225   2.927  16.306 -0.3361  0.5630 -0.0703
  865MPD2    C312695   0.253   3.052  16.364 -0.2911  0.2583 -0.5985
  865MPD2    C412696   0.279   3.160  16.282 -0.1332 -0.6740  0.4285
  865MPD2    C512697   0.270   3.142  16.147 -0.4152 -0.2601 -0.3235
  865MPD2     H12698   0.193   2.854  16.379  0.9353  0.2609  0.1910
  865MPD2    H112699   0.289   3.262  16.316 -0.7077 -0.0109 -1.4023
  865MPD2    H212700   0.267   3.006  15.986  0.6660 -1.6683  0.4457
  865MPD2    H312701   0.272   3.225  16.077 -0.2913  1.1766  1.4085
  865MPD2     N12702   0.258   3.072  16.503  0.0932 -0.2888  0.5067
  865MPD2    H512703   0.302   3.158  16.535 -0.4592  0.6079 -1.1150
  865MPD2    N112704   0.202   2.776  16.115  0.0703  0.6817  0.3064
  865MPD2    H712705   0.197   2.769  16.014  0.0578 -1.6122  0.4653
  866MPD2     C12706   2.429   3.039  11.101 -0.3996 -0.0917  0.1768
  866MPD2    C112707   2.416   3.093  10.971 -0.0337  0.7961 -0.3299
  866MPD2    C212708   2.285   3.115  10.926 -0.6445 -0.5435  0.0808
  866MPD2    C312709   2.177   3.098  11.008 -0.7005 -0.9843  0.1787
  866MPD2    C412710   2.189   3.044  11.136 -0.0755  0.4149  0.0774
  866MPD2    C512711   2.316   3.015  11.179 -0.4377  0.3992  0.0125
  866MPD2     H12712   2.278   3.154  10.825  1.5181  0.3438  0.2589
  866MPD2    H112713   2.108   3.017  11.202 -0.0813  1.9089  0.6796
  866MPD2    H212714   2.519   2.994  11.142  0.6590 -0.4785 -2.6142
  866MPD2    H312715   2.327   2.979  11.280  1.5118 -2.7904 -1.3502
  866MPD2     N12716   2.043   3.114  10.968 -0.5015  1.1675 -0.2191
  866MPD2    H512717   1.969   3.081  11.029  1.9592 -2.8174  0.6737
  866MPD2    N112718   2.534   3.096  10.897  0.2609 -0.7114 -0.1496
  866MPD2    H712719   2.617   3.055  10.939 -0.3696 -1.5939  0.2485
  867MPD2     C12720   3.246   2.212  16.609 -0.1806 -0.0352  0.0302
  867MPD2    C112721   3.350   2.217  16.692  1.1019  0.2017  1.1621
  867MPD2    C212722   3.389   2.342  16.742  0.8888 -0.4584  0.9508
  867MPD2    C312723   3.315   2.456  16.696 -0.0853  0.0508  0.4009
  867MPD2    C412724   3.199   2.439  16.622  0.3065  1.2863  0.0116
  867MPD2    C512725   3.164   2.313  16.584 -0.6965  0.0445 -0.6057
  867MPD2     H12726   3.462   2.361  16.819 -0.1054  1.6134  1.3943
  867MPD2    H112727   3.133   2.519  16.592 -1.5504 -0.1577  0.2307
  867MPD2    H212728   3.221   2.114  16.569 -2.3335  0.2841  0.5890
  867MPD2    H312729   3.071   2.298  16.529 -1.4351 -0.6845  0.8487
  867MPD2     N12730   3.342   2.585  16.751 -0.4843  0.3011  0.3478
  867MPD2    H512731   3.264   2.649  16.739  0.6697  1.6865  0.2072
  867MPD2    N112732   3.410   2.095  16.724  0.0789  0.3499  0.1207
  867MPD2    H712733   3.369   2.008  16.690  0.8536  0.3754 -0.8458
  868MPD2     C12734   1.247   1.073  13.262 -0.7676 -0.4335 -0.5969
  868MPD2    C112735   1.246   1.111  13.393 -0.3305 -0.2278  0.6772
  868MPD2    C212736   1.123   1.127  13.453 -0.0477 -0.3516 -0.1116
  868MPD2    C312737   1.005   1.090  13.393  1.0581  0.1929  0.4386
  868MPD2    C412738   1.009   1.044  13.259  0.0265 -0.6592  0.0554
  868MPD2    C512739   1.132   1.039  13.198 -0.4744  0.4493  0.5231
  868MPD2     H12740   1.107   1.162  13.555  0.2200  0.0934 -0.2214
  868MPD2    H112741   0.923   1.008  13.203 -0.2062  0.8022 -0.5541
  868MPD2    H212742   1.332   1.086  13.196 -1.8237  3.1365 -1.2371
  868MPD2    H312743   1.145   0.999  13.098 -0.5071 -1.8577  1.4334
  868MPD2     N12744   0.892   1.080  13.476  0.3112 -0.3101 -0.1480
  868MPD2    H512745   0.901   1.111  13.573  0.5274  1.3271 -0.7028
  868MPD2    N112746   1.366   1.146  13.460 -0.1072  0.2971 -0.9109
  868MPD2    H712747   1.451   1.119  13.410 -0.2971  1.2779 -1.7753
  869MPD2     C12748   2.441   4.046   1.707  0.5018 -0.5826 -0.3551
  869MPD2    C112749   2.324   3.972   1.694  0.1117 -0.2283 -0.2000
  869MPD2    C212750   2.230   4.014   1.602 -0.3915  0.7320  0.0089
  869MPD2    C312751   2.253   4.136   1.536 -0.6233  0.0602 -0.0124
  869MPD2    C412752   2.366   4.207   1.556 -0.1950 -0.4994  0.2131
  869MPD2    C512753   2.462   4.162   1.641  0.1507 -0.4623 -0.0740
  869MPD2     H12754   2.145   3.950   1.580  1.1979 -1.0755 -0.9028
  869MPD2    H112755   2.381   4.303   1.509 -1.4333  1.2099  3.2993
  869MPD2    H212756   2.519   4.017   1.777  0.7302  3.6279  1.1432
  869MPD2    H312757   2.554   4.219   1.643 -0.4597  0.4757  1.6462
  869MPD2     N12758   2.158   4.184   1.441  0.0529 -0.4008 -0.3216
  869MPD2    H512759   2.187   4.273   1.402 -0.6337  0.2167  0.5837
  869MPD2    N112760   2.307   3.854   1.773 -0.2018  0.2394 -0.2082
  869MPD2    H712761   2.383   3.818   1.830 -0.0288  0.3012 -0.3995
  870MPD2     C12762   1.160   3.422   1.536  0.2203  0.4285 -0.0327
  870MPD2    C112763   1.294   3.439   1.504  0.6564 -0.6099 -0.3723
  870MPD2    C212764   1.324   3.534   1.402 -0.3822  0.0718 -0.4016
  870MPD2    C312765   1.227   3.597   1.329 -0.8177 -0.4389 -0.8354
  870MPD2    C412766   1.094   3.567   1.366 -0.4633 -0.5517 -0.1191
  870MPD2    C512767   1.058   3.476   1.464  0.2709  1.0956 -0.0505
  870MPD2     H12768   1.425   3.566   1.378  0.6666 -1.9066  1.3224
  870MPD2    H112769   1.017   3.610   1.303  1.3754  3.0442  0.0875
  870MPD2    H212770   1.119   3.358   1.613 -0.7414 -0.6733 -1.4453
  870MPD2    H312771   0.960   3.439   1.491  0.0556  1.0618 -0.8957
  870MPD2     N12772   1.268   3.679   1.217 -0.1384 -0.0539 -0.0645
  870MPD2    H512773   1.365   3.685   1.188 -0.3241  0.5956 -0.5627
  870MPD2    N112774   1.396   3.377   1.582 -0.7882 -0.3514  0.2287
  870MPD2    H712775   1.362   3.315   1.656  0.4310  0.0736  1.1402
  871MPD2     C12776   2.813   2.797  16.526  0.0657  0.3762 -0.8615
  871MPD2    C112777   2.718   2.799  16.623  0.5187 -0.5759 -0.0986
  871MPD2    C212778   2.669   2.684  16.661 -0.3687  0.3860 -0.0040
  871MPD2    C312779   2.715   2.561  16.622  0.1227  0.0434  1.1128
  871MPD2    C412780   2.808   2.556  16.517  0.3979 -0.1323 -1.0771
  871MPD2    C512781   2.855   2.678  16.475  0.1886  0.1279 -0.1316
  871MPD2     H12782   2.588   2.689  16.733  1.7182  0.1099  2.3122
  871MPD2    H112783   2.851   2.466  16.476 -0.8046 -0.5819 -1.3414
  871MPD2    H212784   2.860   2.887  16.489  1.9228 -0.5063 -0.6116
  871MPD2    H312785   2.933   2.676  16.399  0.2802  0.3834 -0.0419
  871MPD2     N12786   2.661   2.448  16.683 -0.1340  0.7384 -0.3448
  871MPD2    H512787   2.610   2.474  16.767  0.6107  1.5531 -0.1426
  871MPD2    N112788   2.683   2.926  16.682  0.3121 -0.1886 -0.2951
  871MPD2    H712789   2.709   3.012  16.636 -0.5107  0.0778 -0.2486
  872MPD2     C12790   3.675   0.751  13.715 -0.2470  0.0866  0.2007
  872MPD2    C112791   3.755   0.652  13.754 -0.1557 -0.3529 -0.0994
  872MPD2    C212792   3.716   0.575  13.860 -0.5506 -0.1703  0.6077
  872MPD2    C312793   3.608   0.611  13.936  0.9089  0.0904  0.2700
  872MPD2    C412794   3.544   0.726  13.904  0.2089  0.3310  0.1250
  872MPD2    C512795   3.575   0.790  13.792  0.1940 -0.1517  0.0446
  872MPD2     H12796   3.778   0.489  13.884 -2.5384 -1.0998  2.3309
  872MPD2    H112797   3.460   0.761  13.963  0.3014  0.5595  0.1214
  872MPD2    H212798   3.698   0.823  13.637 -2.1555  0.0054 -0.4495
  872MPD2    H312799   3.522   0.880  13.762 -0.7259 -1.1303 -1.3057
  872MPD2     N12800   3.561   0.534  14.043 -0.0245 -0.0010  0.1074
  872MPD2    H512801   3.478   0.568  14.091 -0.1802  1.3526 -1.1221
  872MPD2    N112802   3.864   0.611  13.681 -0.4705  0.0568 -0.1151
  872MPD2    H712803   3.915   0.527  13.710 -0.8626 -0.2066 -0.1893
  873MPD2     C12804   0.010   0.197   0.887  0.4334  0.5184 -0.1762
  873MPD2    C112805   0.007   0.168   1.026  0.4216 -0.1171 -0.5452
  873MPD2    C212806   4.719   0.038   1.064  0.2094  0.6636  0.4926
  873MPD2    C312807   4.713   4.659   0.979 -0.0101  0.6780  0.1011
  873MPD2    C412808   4.716   4.690   0.842  0.2399 -0.0017  0.1202
  873MPD2    C512809   0.011   0.094   0.799  0.1775 -0.3843  0.0926
  873MPD2     H12810   4.705   0.013   1.168 -2.0147  1.8469  0.4739
  873MPD2    H112811   4.676   4.623   0.766 -0.7544 -0.3346  0.9339
  873MPD2    H212812   0.019   0.300   0.855  1.3405  0.1803 -1.0094
  873MPD2    H312813   0.015   0.116   0.693  1.2308  1.7306  0.5704
  873MPD2     N12814   4.684   4.532   1.041 -0.0939 -1.0310 -0.0106
  873MPD2    H512815   4.656   4.526   1.138  0.9559 -1.3824  0.2761
  873MPD2    N112816   0.025   0.275   1.119 -0.0805 -0.0208 -0.0156
  873MPD2    H712817   0.028   0.368   1.079  0.0495  0.4457  1.0827
  874MPD2     C12818   0.208   0.700  16.095  0.1049 -0.1053 -0.6000
  874MPD2    C112819   0.220   0.788  16.199  0.9018 -0.4014 -0.4292
  874MPD2    C212820   0.321   0.878  16.198 -0.3188 -0.6060  0.0224
  874MPD2    C312821   0.430   0.871  16.109 -0.0485  0.4267 -0.0320
  874MPD2    C412822   0.418   0.782  16.007 -0.3245 -0.1762  0.6316
  874MPD2    C512823   0.305   0.698  16.001  0.1735  0.4783 -0.0156
  874MPD2     H12824   0.324   0.955  16.275  0.8639 -0.5788 -0.0440
  874MPD2    H112825   0.491   0.780  15.927  0.1810 -0.1723  1.0901
  874MPD2    H212826   0.119   0.639  16.083 -1.2704  1.6135  0.9440
  874MPD2    H312827   0.276   0.643  15.912 -0.2555  1.5405 -0.5312
  874MPD2     N12828   0.544   0.959  16.100  0.2916  0.4021  0.0737
  874MPD2    H512829   0.613   0.936  16.029  0.5409 -1.3004  0.8655
  874MPD2    N112830   0.122   0.777  16.309  0.3459 -0.0076 -0.1543
  874MPD2    H712831   0.067   0.692  16.313  1.6259 -0.7560  1.5473
  875MPD2     C12832   1.720   3.507  14.806 -0.1773  0.3331 -0.2394
  875MPD2    C112833   1.588   3.474  14.837  0.1249 -0.3158 -0.3396
  875MPD2    C212834   1.535   3.510  14.960  0.2548 -0.1472  0.0958
  875MPD2    C312835   1.616   3.585  15.044 -0.4330  0.2738 -0.1040
  875MPD2    C412836   1.744   3.622  15.010 -0.5417  0.9060 -0.0717
  875MPD2    C512837   1.794   3.584  14.890 -0.7485  0.4934  1.5440
  875MPD2     H12838   1.433   3.481  14.984  0.5063 -0.2751  1.0188
  875MPD2    H112839   1.796   3.671  15.091 -0.4607 -0.7556  0.8922
  875MPD2    H212840   1.753   3.491  14.704 -2.3316  1.9863 -1.1964
  875MPD2    H312841   1.898   3.605  14.868 -0.9937 -0.3859 -0.4651
  875MPD2     N12842   1.571   3.636  15.170 -0.2730 -0.2616 -0.3746
  875MPD2    H512843   1.634   3.697  15.222  0.1055 -1.8043  0.9836
  875MPD2    N112844   1.499   3.416  14.744  0.4294  0.0536  0.4234
  875MPD2    H712845   1.403   3.403  14.772  0.2901  0.8536  0.3174
  876MPD2     C12846   0.146   0.404  15.930  0.1860 -0.1398 -0.4468
  876MPD2    C112847   0.273   0.375  15.889 -0.0290 -0.6950 -0.0409
  876MPD2    C212848   0.343   0.274  15.939 -0.7498 -0.1342  0.0315
  876MPD2    C312849   0.291   0.200  16.043 -0.5386 -0.2350 -0.4597
  876MPD2    C412850   0.159   0.230  16.087  0.0428  0.2474  0.3876
  876MPD2    C512851   0.090   0.331  16.026  0.3477 -0.1173  0.1686
  876MPD2     H12852   0.445   0.254  15.908 -0.7251 -0.1448  0.1210
  876MPD2    H112853   0.114   0.177  16.171 -1.3996  2.0394  0.7770
  876MPD2    H212854   0.079   0.477  15.885 -0.6506 -1.5334 -1.4829
  876MPD2    H312855   4.707   0.340  16.046  0.0429 -0.3747 -1.3305
  876MPD2     N12856   0.360   0.088  16.085  0.1888  0.1146  0.3381
  876MPD2    H512857   0.451   0.067  16.047 -0.8384 -1.3625 -1.2971
  876MPD2    N112858   0.316   0.440  15.771  0.2333 -0.4720 -0.4236
  876MPD2    H712859   0.247   0.488  15.715  0.3466  1.1034  0.7868
  877MPD2     C12860   0.088   0.572  15.092  0.4157  0.2533 -0.0639
  877MPD2    C112861   0.222   0.600  15.075 -0.1560 -0.5893 -0.4459
  877MPD2    C212862   0.274   0.612  14.949  0.2429  0.5897  0.0691
  877MPD2    C312863   0.189   0.608  14.843 -0.8243 -0.3118 -0.5026
  877MPD2    C412864   0.056   0.588  14.864  0.0097  0.3758  0.2561
  877MPD2    C512865   0.006   0.567  14.989 -0.1433  0.0913 -0.4520
  877MPD2     H12866   0.382   0.618  14.942  0.1387 -0.0522 -1.9184
  877MPD2    H112867   4.708   0.584  14.783  1.5034 -0.1635 -1.0340
  877MPD2    H212868   0.045   0.552  15.189  1.3024  2.6226  0.8246
  877MPD2    H312869   4.622   0.549  14.998 -0.3115  0.4482 -1.6912
  877MPD2     N12870   0.233   0.606  14.706 -0.7041  0.4150  0.6714
  877MPD2    H512871   0.171   0.564  14.637  0.7760  3.4775 -2.5293
  877MPD2    N112872   0.311   0.610  15.184  0.4304  0.2149  0.1311
  877MPD2    H712873   0.408   0.634  15.165  0.7975 -0.3105  1.3647
  878MPD2     C12874   0.706   4.492  12.650 -0.4866 -0.6048  0.3967
  878MPD2    C112875   0.631   4.590  12.716  0.1010  0.3791  0.6052
  878MPD2    C212876   0.612   4.586  12.856  0.4300 -0.2275  0.1382
  878MPD2    C312877   0.657   4.469  12.922 -0.2476  0.0651 -0.5827
  878MPD2    C412878   0.730   4.376  12.852 -0.2059  0.2513  0.9742
  878MPD2    C512879   0.737   4.378  12.715  0.3178  1.0602 -0.3988
  878MPD2     H12880   0.562   4.665  12.912  1.6094  0.5520  0.1005
  878MPD2    H112881   0.761   4.283  12.899  2.4244  0.8058  0.3387
  878MPD2    H212882   0.720   4.499  12.543  1.5881  0.2710  0.7347
  878MPD2    H312883   0.783   4.295  12.662 -0.8037  1.8409 -2.5962
  878MPD2     N12884   0.624   4.440  13.054 -0.0608  0.2622  0.1366
  878MPD2    H512885   0.659   4.350  13.086  2.0627  1.3023  0.7677
  878MPD2    N112886   0.588   4.695  12.635  0.5293 -0.3937 -0.3022
  878MPD2    H712887   0.612   4.695  12.536 -2.1840  0.4353 -0.9639
  879MPD2     C12888   0.354   1.697  16.763 -0.5942 -0.0594  0.3291
  879MPD2    C112889   0.351   1.581  16.832 -0.2953  0.1223 -0.3427
  879MPD2    C212890   0.276   1.476  16.786  0.1838 -0.1052  0.6159
  879MPD2    C312891   0.198   1.489  16.670 -0.0435 -0.3279 -0.4793
  879MPD2    C412892   0.203   1.610  16.604 -0.3542  0.1031  0.9918
  879MPD2    C512893   0.282   1.712  16.649  0.1553 -0.1666 -0.5703
  879MPD2     H12894   0.274   1.384  16.843 -1.4018 -0.8469 -0.6623
  879MPD2    H112895   0.132   1.639  16.527 -0.0248 -0.1081  0.6100
  879MPD2    H212896   0.402   1.792  16.785  0.1774 -0.4465  0.3323
  879MPD2    H312897   0.276   1.808  16.599  1.0590  0.1354 -0.0988
  879MPD2     N12898   0.109   1.393  16.623 -0.3243 -0.5513 -0.0567
  879MPD2    H512899   0.077   1.399  16.526 -0.3555  1.9032  0.1041
  879MPD2    N112900   0.414   1.558  16.958 -0.1428  0.0804 -0.1995
  879MPD2    H712901   0.388   1.475  17.010  1.1984 -0.1460  0.1267
  880MPD2     C12902   1.577   3.018  17.592 -0.7756  0.0799  0.4802
  880MPD2    C112903   1.644   3.053   0.010  0.6578  1.4266 -0.0319
  880MPD2    C212904   1.665   2.957   0.101 -0.3123 -0.0240  0.2859
  880MPD2    C312905   1.628   2.825   0.073  0.2951 -0.7068  0.0814
  880MPD2    C412906   1.566   2.792  17.650 -0.2134  0.8385  0.1153
  880MPD2    C512907   1.525   2.896  17.566  0.3745 -0.1449  1.0427
  880MPD2     H12908   1.717   2.982   0.193 -0.1007  1.5515 -0.2647
  880MPD2    H112909   1.532   2.693  17.622 -1.9764  1.2147  0.9078
  880MPD2    H212910   1.555   3.095  17.518 -0.6078 -0.7068 -0.3965
  880MPD2    H312911   1.465   2.888  17.476  1.6370 -2.4995  0.4117
  880MPD2     N12912   1.652   2.737   0.174 -0.9014  0.2098 -0.0685
  880MPD2    H512913   1.688   2.777   0.259 -0.8534 -0.1237  0.0682
  880MPD2    N112914   1.688   3.186   0.024  0.1619 -0.3843  0.1327
  880MPD2    H712915   1.679   3.253  17.643 -0.2434  0.9658  1.3701
  881MPD2     C12916   1.813   4.121  17.323 -0.0216 -0.3345  0.1810
  881MPD2    C112917   1.834   3.994  17.281 -0.3998 -0.2782  0.0630
  881MPD2    C212918   1.804   3.890  17.370 -0.0593 -0.8811  0.5043
  881MPD2    C312919   1.754   3.913  17.498  0.4543 -0.9490 -0.4203
  881MPD2    C412920   1.755   4.043  17.542  0.7183 -0.3164 -0.0223
  881MPD2    C512921   1.782   4.144  17.455  0.7515  0.6713 -0.4261
  881MPD2     H12922   1.815   3.784  17.349  0.0044 -0.8332  0.2866
  881MPD2    H112923   1.727   4.060  17.645  0.3875  2.6601 -0.5895
  881MPD2    H212924   1.843   4.210  17.268 -1.7567 -1.1402 -2.0789
  881MPD2    H312925   1.782   4.244  17.496  1.4615 -0.4120  2.1753
  881MPD2     N12926   1.727   3.817  17.603  0.0686 -0.9258  0.7707
  881MPD2    H512927   1.679   3.851  17.686 -1.5708 -4.9068  1.4571
  881MPD2    N112928   1.869   3.964  17.144  0.3496 -0.1278 -0.1509
  881MPD2    H712929   1.902   4.046  17.094 -3.4292  0.0948 -2.1897
  882MPD2     C12930   4.708   0.321  14.001  1.0861 -0.3104 -0.7257
  882MPD2    C112931   4.719   0.428  14.086  0.1365  0.2731  0.1823
  882MPD2    C212932   4.603   0.509  14.085 -0.2223  0.3961  0.7514
  882MPD2    C312933   4.496   0.478  14.001  0.7181  0.1903  0.5533
  882MPD2    C412934   4.495   0.369  13.919  0.3715  0.3737  0.5659
  882MPD2    C512935   4.603   0.284  13.918 -0.7179 -0.5474  0.0802
  882MPD2     H12936   4.590   0.592  14.154  2.5176  0.4798  1.1774
  882MPD2    H112937   4.409   0.355  13.855  0.5946 -0.2934  0.4107
  882MPD2    H212938   0.073   0.260  13.988  1.0021 -0.8242  1.1463
  882MPD2    H312939   4.612   0.203  13.847 -0.7961 -0.1449 -0.3893
  882MPD2     N12940   4.380   0.560  13.998  0.5625 -0.5157  0.1868
  882MPD2    H512941   4.307   0.529  13.935 -0.3322 -2.5679  2.2224
  882MPD2    N112942   0.114   0.440  14.165 -0.5240 -0.7909  0.5045
  882MPD2    H712943   0.192   0.376  14.151 -1.0543 -1.6701  1.4788
  883MPD2     C12944   2.070   0.683  15.842  0.5448  0.4676  0.4840
  883MPD2    C112945   2.191   0.704  15.777 -0.1607 -0.3128 -0.1724
  883MPD2    C212946   2.286   0.773  15.846  0.3746 -0.1477  0.7047
  883MPD2    C312947   2.274   0.806  15.976 -0.3451 -0.0279  0.6305
  883MPD2    C412948   2.160   0.787  16.045  0.2243  0.0592 -0.4462
  883MPD2    C512949   2.058   0.720  15.977 -0.3470 -0.3199  0.7699
  883MPD2     H12950   2.380   0.793  15.796  0.3437  0.4447  0.8863
  883MPD2    H112951   2.145   0.810  16.149 -0.7079 -0.0652 -0.5513
  883MPD2    H212952   1.983   0.639  15.795 -1.2335  2.9071  1.4837
  883MPD2    H312953   1.970   0.680  16.026  0.5051 -0.3912  2.2319
  883MPD2     N12954   2.387   0.859  16.043  0.1047 -0.0066 -0.2345
  883MPD2    H512955   2.474   0.864  15.991  0.0247 -0.2416 -0.3915
  883MPD2    N112956   2.208   0.658  15.643  0.5035 -0.1947 -0.5607
  883MPD2    H712957   2.296   0.671  15.594  0.0356 -0.6021 -1.5121
  884MPD2     C12958   4.248   1.185  15.088 -0.0462 -0.3518  0.0171
  884MPD2    C112959   4.163   1.183  14.976  0.5195 -0.2819 -1.4542
  884MPD2    C212960   4.029   1.211  14.993  0.5437 -0.1566  0.3951
  884MPD2    C312961   3.980   1.254  15.112  0.3566  0.0421  0.2569
  884MPD2    C412962   4.070   1.264  15.223 -0.8365  0.0511  0.1921
  884MPD2    C512963   4.200   1.222  15.209 -0.8708  0.2134  0.4667
  884MPD2     H12964   3.959   1.207  14.910  0.6461  1.9375  0.2187
  884MPD2    H112965   4.038   1.277  15.326 -1.1764 -1.6242  0.2988
  884MPD2    H212966   4.353   1.160  15.084 -0.3337 -1.5363 -0.1964
  884MPD2    H312967   4.268   1.214  15.294 -0.1724 -1.9623 -0.2876
  884MPD2     N12968   3.854   1.313  15.115 -0.1415 -0.1180 -0.1540
  884MPD2    H512969   3.805   1.312  15.026  1.4768  0.7813 -1.0603
  884MPD2    N112970   4.210   1.147  14.849  0.2518 -0.5146  0.5907
  884MPD2    H712971   4.147   1.163  14.771  1.2615 -0.2171 -0.1602
  885MPD2     C12972   1.927   1.501   0.410  0.8034 -0.8067  0.9003
  885MPD2    C112973   2.011   1.413   0.348  0.8462 -0.6322  0.7670
  885MPD2    C212974   2.058   1.436   0.214 -0.0178  0.6622 -0.2579
  885MPD2    C312975   1.999   1.540   0.141 -0.5771 -0.1868  0.1966
  885MPD2    C412976   1.908   1.617   0.203 -0.3900  0.0495 -0.5378
  885MPD2    C512977   1.867   1.599   0.336  0.5289  0.0262  0.2704
  885MPD2     H12978   2.129   1.364   0.173  0.0852  0.4730  0.2601
  885MPD2    H112979   1.872   1.709   0.158 -1.3761  1.3856  3.0090
  885MPD2    H212980   1.883   1.480   0.507 -2.1545  1.6062  0.0565
  885MPD2    H312981   1.792   1.667   0.375  1.4166  0.0701  1.8733
  885MPD2     N12982   2.040   1.567   0.009  0.3229 -0.1540  0.3121
  885MPD2    H512983   2.110   1.506  17.663  1.6142  0.4079  1.6650
  885MPD2    N112984   2.055   1.294   0.416 -0.3529 -0.5234  0.2754
  885MPD2    H712985   2.043   1.300   0.517  2.1369 -0.1866  0.5687
  886MPD2     C12986   3.584   0.043  15.677  0.1964  0.0551 -0.3010
  886MPD2    C112987   3.718   0.042  15.644  0.4351  1.0312 -0.2867
  886MPD2    C212988   3.765   0.137  15.557 -0.2371  0.4356 -0.5710
  886MPD2    C312989   3.687   0.239  15.510  0.0120  0.4282  0.0441
  886MPD2    C412990   3.552   0.241  15.547  0.2899 -0.7486 -0.2675
  886MPD2    C512991   3.501   0.139  15.625 -0.3644 -0.2156  0.1879
  886MPD2     H12992   3.867   0.132  15.520 -0.0418 -2.3944  0.3569
  886MPD2    H112993   3.474   0.309  15.517  0.3293 -0.1642  0.9386
  886MPD2    H212994   3.540   4.686  15.735  1.0422  1.7907  2.7503
  886MPD2    H312995   3.396   0.140  15.655 -0.2967  1.1825  0.3905
  886MPD2     N12996   3.744   0.323  15.404 -0.2684 -0.2188  0.1294
  886MPD2    H512997   3.845   0.335  15.396 -0.3258  0.4859  0.5068
  886MPD2    N112998   3.816   4.667  15.682 -0.0278 -0.2435 -0.5886
  886MPD2    H712999   3.899   4.664  15.622 -1.1358  2.8890 -2.2860
  887MPD2     C13000   4.521   4.602  15.605 -0.2131  0.3194 -0.1466
  887MPD2    C113001   4.391   4.650  15.590 -0.0545  0.6077  0.3561
  887MPD2    C213002   4.366   0.044  15.526  0.7441  0.2639  0.1067
  887MPD2    C313003   4.467   0.114  15.464 -0.1648  0.0096 -0.2393
  887MPD2    C413004   4.594   0.076  15.494  0.3386 -0.0221 -0.1227
  887MPD2    C513005   4.619   4.685  15.569  0.2864 -0.1727  0.1588
  887MPD2     H13006   4.262   0.072  15.515 -0.0960 -1.6389  3.1743
  887MPD2    H113007   4.685   0.121  15.456  1.4985 -0.2108  2.4248
  887MPD2    H213008   4.541   4.507  15.653  2.3688 -0.0888 -2.0785
  887MPD2    H313009   4.722   4.661  15.591  1.3495  2.5277 -1.9159
  887MPD2     N13010   4.419   0.228  15.395 -0.4223  0.1004 -0.4244
  887MPD2    H513011   4.320   0.250  15.393 -0.2057  0.8701 -2.4838
  887MPD2    N113012   4.283   4.582  15.644  0.2224  0.2028 -0.0025
  887MPD2    H713013   4.194   4.621  15.612  0.3193  0.8362  0.4988
  888MPD2     C13014   1.451   0.170  14.599  0.6864 -0.5399  0.3386
  888MPD2    C113015   1.452   0.194  14.734  0.1907 -0.3119 -0.6487
  888MPD2    C213016   1.508   0.313  14.776 -0.0925 -0.2564  0.0035
  888MPD2    C313017   1.556   0.402  14.682 -0.2045  0.8771 -0.3204
  888MPD2    C413018   1.554   0.366  14.547  0.4047  0.9034  0.1662
  888MPD2    C513019   1.518   0.246  14.509 -0.4272 -0.6253  0.0864
  888MPD2     H13020   1.512   0.341  14.881  0.5638 -0.1753 -0.0474
  888MPD2    H113021   1.607   0.420  14.470  1.2399  1.1289  0.8938
  888MPD2    H213022   1.434   0.066  14.572 -1.4252 -0.1279  0.1193
  888MPD2    H313023   1.525   0.212  14.406 -3.1131 -0.3553 -0.1919
  888MPD2     N13024   1.627   0.514  14.731 -0.4371  0.4903 -1.2371
  888MPD2    H513025   1.649   0.508  14.829 -0.8003 -0.0745 -1.1866
  888MPD2    N113026   1.395   0.099  14.826  0.6362  0.6468  0.1474
  888MPD2    H713027   1.428   0.104  14.922  0.3827  0.5542  0.2389
  889MPD2     C13028   1.174   4.404  12.536 -0.2018  0.4034  0.2722
  889MPD2    C113029   1.210   4.345  12.658  0.7212 -0.6949 -0.0991
  889MPD2    C213030   1.141   4.398  12.767 -0.5523  0.6192  0.2895
  889MPD2    C313031   1.077   4.521  12.763  0.0072  0.2069  0.1516
  889MPD2    C413032   1.043   4.573  12.641  0.0680 -0.2611 -0.8795
  889MPD2    C513033   1.089   4.507  12.528 -0.2182  0.3783 -0.1201
  889MPD2     H13034   1.165   4.366  12.867  0.2593 -0.1670 -0.1603
  889MPD2    H113035   1.002   4.671  12.620 -1.4404 -0.9122 -0.9689
  889MPD2    H213036   1.203   4.353  12.445 -2.3378  2.0031 -1.3068
  889MPD2    H313037   1.040   4.542  12.438  1.4722 -0.8031 -1.4953
  889MPD2     N13038   1.042   4.585  12.885  0.0489 -0.0245 -0.2004
  889MPD2    H513039   1.065   4.538  12.972 -2.2252  0.5911  0.7298
  889MPD2    N113040   1.285   4.227  12.668  0.5351  0.5860  0.0070
  889MPD2    H713041   1.308   4.183  12.579  2.0000  1.3866 -0.0226
  890MPD2     C13042   0.430   1.113  14.697 -1.1580  0.3007  0.8695
  890MPD2    C113043   0.501   1.200  14.776  0.0181 -0.5163 -0.4576
  890MPD2    C213044   0.576   1.159  14.886  0.6030  0.0107  0.0968
  890MPD2    C313045   0.577   1.025  14.918 -0.7003 -0.5529  0.0705
  890MPD2    C413046   0.510   0.933  14.841  0.0012  0.6381  0.0520
  890MPD2    C513047   0.435   0.979  14.737  0.2541 -0.0067  0.1435
  890MPD2     H13048   0.628   1.226  14.953 -1.0642  1.4099 -0.0216
  890MPD2    H113049   0.497   0.830  14.870 -0.7597  0.4002 -1.1683
  890MPD2    H213050   0.365   1.148  14.619  0.6700  2.5508  0.3610
  890MPD2    H313051   0.368   0.912  14.684 -0.5570  2.2284 -1.6556
  890MPD2     N13052   0.650   0.996  15.035 -0.6467 -0.6587  0.0256
  890MPD2    H513053   0.710   1.067  15.075 -2.2115  0.6212  0.1043
  890MPD2    N113054   0.502   1.338  14.734  0.8199 -0.7381 -0.4658
  890MPD2    H713055   0.455   1.368  14.649  3.2038  0.9583 -1.1910
  891MPD2     C13056   3.256   4.563  16.314  0.3924 -0.9373 -0.3200
  891MPD2    C113057   3.183   4.617  16.418 -0.3761  0.2181 -0.1964
  891MPD2    C213058   3.241   4.642  16.543 -0.1752 -0.0409  0.0141
  891MPD2    C313059   3.368   4.596  16.560 -0.0953 -0.0188  0.7440
  891MPD2    C413060   3.442   4.548  16.451 -0.4546 -0.4103 -0.0410
  891MPD2    C513061   3.384   4.527  16.334  0.1235 -0.9710  0.1545
  891MPD2     H13062   3.190   4.684  16.629 -0.4677 -1.0716  0.3486
  891MPD2    H113063   3.548   4.530  16.457 -0.6287 -1.5024 -0.1279
  891MPD2    H213064   3.215   4.538  16.217 -0.8543  0.8376 -0.2426
  891MPD2    H313065   3.444   4.476  16.259 -1.7176 -1.1471 -1.1927
  891MPD2     N13066   3.430   4.599  16.684 -0.3333 -0.3575 -0.8129
  891MPD2    H513067   3.370   4.630  16.760 -1.7681 -3.0677 -0.8488
  891MPD2    N113068   3.053   4.670  16.384 -0.1904  0.3780 -0.5152
  891MPD2    H713069   3.013   4.654  16.292 -0.4838 -0.6018 -0.2185
  892MPD2     C13070   4.099   0.799  14.817  0.5197  0.0255  0.6528
  892MPD2    C113071   3.985   0.804  14.738  0.2189 -0.6499  0.3194
  892MPD2    C213072   3.998   0.759  14.609  0.1939 -0.3361 -0.4403
  892MPD2    C313073   4.106   0.694  14.560  0.3329 -0.2028  0.3222
  892MPD2    C413074   4.212   0.688  14.641 -0.5787  0.0281  0.4914
  892MPD2    C513075   4.210   0.748  14.767  0.7390  0.3871 -0.5184
  892MPD2     H13076   3.910   0.765  14.546  1.0679  1.2230 -1.5258
  892MPD2    H113077   4.307   0.653  14.602 -0.8029  1.0034 -0.9291
  892MPD2    H213078   4.102   0.832  14.920  0.2265 -0.5649  0.8544
  892MPD2    H313079   4.295   0.730  14.832 -0.2327 -1.5700  0.2187
  892MPD2     N13080   4.112   0.645  14.426  0.4312  0.0227  0.3993
  892MPD2    H513081   4.193   0.595  14.389  0.6113  0.1460  0.6306
  892MPD2    N113082   3.852   0.844  14.777 -0.6102  0.7453  0.3404
  892MPD2    H713083   3.781   0.858  14.706 -0.1108 -1.0697 -0.4975
  893MPD2     C13084   0.650   3.416   1.812 -0.2706 -0.3925  0.6406
  893MPD2    C113085   0.680   3.552   1.813 -0.1748 -1.1372 -0.8182
  893MPD2    C213086   0.577   3.647   1.836 -0.6772  0.2817 -0.0238
  893MPD2    C313087   0.446   3.608   1.853 -0.3701 -0.4434  0.2631
  893MPD2    C413088   0.418   3.474   1.846 -0.3897  0.7077 -0.3592
  893MPD2    C513089   0.516   3.380   1.824  0.4451 -0.2624 -0.9181
  893MPD2     H13090   0.604   3.751   1.850 -1.8298  0.4212  1.0843
  893MPD2    H113091   0.317   3.435   1.852 -0.3788  0.5951 -0.8659
  893MPD2    H213092   0.728   3.344   1.794  1.0577  1.7144 -2.0276
  893MPD2    H313093   0.501   3.274   1.805  1.9092 -0.9847  1.9274
  893MPD2     N13094   0.333   3.696   1.877 -0.0136  0.9559  0.3246
  893MPD2    H513095   0.239   3.659   1.878 -0.1341  1.3021  2.2655
  893MPD2    N113096   0.814   3.610   1.802 -0.5123  0.4845  0.9219
  893MPD2    H713097   0.829   3.710   1.812  0.9121  0.3183  0.4327
  894MPD2     C13098   3.808   1.696   0.980  0.2845  0.0315  0.0120
  894MPD2    C113099   3.754   1.776   1.078  0.1849  0.3597  0.0824
  894MPD2    C213100   3.802   1.901   1.089  0.1450 -0.1824 -0.0683
  894MPD2    C313101   3.909   1.940   1.012 -0.1619  0.0552 -0.5008
  894MPD2    C413102   3.956   1.855   0.919 -0.2562 -0.3413 -0.3420
  894MPD2    C513103   3.900   1.735   0.893  0.8538 -0.3987 -0.9771
  894MPD2     H13104   3.748   1.969   1.154  0.5242  0.4485 -0.4174
  894MPD2    H113105   4.046   1.887   0.868 -0.6168  0.2930 -0.5722
  894MPD2    H213106   3.761   1.599   0.966  0.0678 -0.2498  2.7377
  894MPD2    H313107   3.935   1.665   0.819 -0.7608  0.0233 -2.1320
  894MPD2     N13108   3.957   2.065   1.020 -0.2967  0.7810  0.3880
  894MPD2    H513109   3.924   2.121   1.098  0.1701 -1.0981  1.9348
  894MPD2    N113110   3.644   1.739   1.164  0.0781 -0.0438 -0.9567
  894MPD2    H713111   3.604   1.817   1.216 -1.1667 -1.3497  0.0640
  895MPD2     C13112   3.662   4.666  13.658  0.2579  0.1844  0.4186
  895MPD2    C113113   3.548   0.003  13.593  0.0716 -0.6029 -0.5242
  895MPD2    C213114   3.478   4.649  13.506 -0.2084 -0.2973  0.1530
  895MPD2    C313115   3.535   4.530  13.455  0.7794 -0.3651 -0.3158
  895MPD2    C413116   3.647   4.483  13.512  0.1929  0.1418  0.1470
  895MPD2    C513117   3.701   4.539  13.618  0.0558  0.2033 -0.3120
  895MPD2     H13118   3.392   4.690  13.454  0.1605 -0.3731 -0.5199
  895MPD2    H113119   3.682   4.386  13.480 -2.4778 -0.2236 -1.6926
  895MPD2    H213120   3.721   4.712  13.736  3.9606 -0.3520 -2.0428
  895MPD2    H313121   3.787   4.503  13.672 -0.2513  0.7116  0.5299
  895MPD2     N13122   3.485   4.460  13.344 -0.6221  0.1631 -0.5683
  895MPD2    H513123   3.528   4.372  13.318 -0.0325 -0.4363  2.4576
  895MPD2    N113124   3.488   0.132  13.610  0.4065  0.8566 -0.2483
  895MPD2    H713125   3.408   0.158  13.554  0.3372  0.6428 -0.2459
  896MPD2     C13126   0.394   2.682   2.246  0.4465  0.0332  0.0137
  896MPD2    C113127   0.410   2.635   2.117  0.5016  0.2578 -0.2845
  896MPD2    C213128   0.302   2.571   2.064 -0.0060 -1.0945  0.0710
  896MPD2    C313129   0.178   2.562   2.127  0.0935 -0.6823  0.2816
  896MPD2    C413130   0.167   2.610   2.256  0.4335  0.5019  0.4161
  896MPD2    C513131   0.271   2.672   2.310  0.1407 -0.6241  0.2470
  896MPD2     H13132   0.305   2.536   1.961  3.0611  0.1224 -0.2609
  896MPD2    H113133   0.071   2.619   2.306  0.3586  2.9350 -0.1631
  896MPD2    H213134   0.479   2.730   2.293  0.3297  0.1021  0.1533
  896MPD2    H313135   0.261   2.712   2.411 -0.8429  0.3990 -0.2600
  896MPD2     N13136   0.059   2.512   2.061 -0.3505  0.1085 -0.2231
  896MPD2    H513137   0.081   2.459   1.977  0.4766  1.7193 -1.0212
  896MPD2    N113138   0.524   2.672   2.041 -0.2677 -0.1700 -0.3215
  896MPD2    H713139   0.592   2.731   2.088  1.8991 -3.8137  1.1849
  897MPD2     C13140   2.206   4.066  10.218 -0.8183 -0.5426  0.0129
  897MPD2    C113141   2.105   4.138  10.291  1.3849  0.1620 -0.6695
  897MPD2    C213142   2.003   4.064  10.352 -0.3546  0.2766 -0.6605
  897MPD2    C313143   1.996   3.931  10.325  0.3632  0.1472 -0.1049
  897MPD2    C413144   2.102   3.865  10.257  0.5841 -0.8788 -0.1270
  897MPD2    C513145   2.198   3.930  10.195  0.8198 -0.7147 -1.3153
  897MPD2     H13146   1.920   4.114  10.401 -0.0960  0.2504 -0.1943
  897MPD2    H113147   2.093   3.758  10.240  1.6992 -1.4309  2.6405
  897MPD2    H213148   2.274   4.119  10.153  0.7478  0.6493  2.5968
  897MPD2    H313149   2.272   3.881  10.134  1.3571  1.1507 -2.1714
  897MPD2     N13150   1.897   3.859  10.391 -0.1013 -0.8821  0.4383
  897MPD2    H513151   1.822   3.920  10.423 -0.0239 -0.7801  0.4236
  897MPD2    N113152   2.122   4.280  10.280  0.0147  0.0313  0.2908
  897MPD2    H713153   2.202   4.302  10.222  0.0994 -1.0378 -0.0095
  898MPD2     C13154   4.080   0.134   0.109 -0.4490  0.5964 -0.8241
  898MPD2    C113155   4.105   0.275   0.122 -0.0044 -0.1959  0.1265
  898MPD2    C213156   4.065   0.356   0.011  0.6312 -0.2188  1.2240
  898MPD2    C313157   4.013   0.302  17.592  0.5279 -0.3498 -0.9661
  898MPD2    C413158   3.999   0.162  17.577  0.6247  1.1373 -0.1042
  898MPD2    C513159   4.030   0.083  17.685  0.0469 -0.0333  0.5677
  898MPD2     H13160   4.088   0.461   0.018 -1.6225  0.3067  0.7496
  898MPD2    H113161   3.974   0.107  17.487 -1.4309  0.4781  0.8691
  898MPD2    H213162   4.096   0.060   0.186  1.9011 -0.5295 -2.3870
  898MPD2    H313163   4.022   4.699  17.675 -0.3277  0.0106  0.3910
  898MPD2     N13164   3.970   0.389  17.487  0.3374  0.4380 -0.0488
  898MPD2    H513165   3.964   0.487  17.513  0.5441  0.4094  0.1050
  898MPD2    N113166   4.170   0.333   0.225 -0.2191 -0.1411 -0.2428
  898MPD2    H713167   4.176   0.435   0.230  0.5470 -0.2009  0.1954
  899MPD2     C13168   4.663   1.205   0.169  0.0371 -0.1353  0.3972
  899MPD2    C113169   4.559   1.195   0.080  0.1178 -0.6994 -0.5049
  899MPD2    C213170   4.434   1.158   0.130 -0.0377  0.1579  0.5613
  899MPD2    C313171   4.409   1.140   0.266 -0.3348 -0.0896 -0.6859
  899MPD2    C413172   4.517   1.159   0.353 -0.2358 -1.1460 -0.6192
  899MPD2    C513173   4.649   1.183   0.301 -0.4469 -0.3193  0.3140
  899MPD2     H13174   4.354   1.162   0.057 -0.6698 -2.7030  1.0970
  899MPD2    H113175   4.506   1.142   0.459 -0.6036 -0.1908 -0.5053
  899MPD2    H213176   0.042   1.210   0.135 -0.5909 -0.0043 -1.4874
  899MPD2    H313177   0.012   1.183   0.367 -0.2092 -0.9899  0.0078
  899MPD2     N13178   4.284   1.110   0.320  0.0765  0.5715  0.0907
  899MPD2    H513179   4.275   1.112   0.421 -1.8886  0.4500 -0.0882
  899MPD2    N113180   4.589   1.225  17.638 -0.2529  0.3159 -0.3623
  899MPD2    H713181   4.689   1.225  17.621 -0.2563 -2.2783 -0.3749
  900MPD2     C13182   4.617   2.886  12.289 -0.4254 -0.0635  0.0488
  900MPD2    C113183   4.604   2.768  12.221 -1.0361 -0.3886  1.0799
  900MPD2    C213184   4.510   2.771  12.117  0.2814 -0.4437  0.2763
  900MPD2    C313185   4.428   2.877  12.112 -0.0538  0.0840 -0.1967
  900MPD2    C413186   4.442   2.989  12.192 -0.1255 -0.2072 -0.6437
  900MPD2    C513187   4.548   3.000  12.275  0.2232  0.0937  0.6310
  900MPD2     H13188   4.496   2.689  12.047 -1.4096  1.6328 -1.8265
  900MPD2    H113189   4.369   3.068  12.182 -0.2781 -0.2404  0.1478
  900MPD2    H213190   4.692   2.885  12.367  0.4644 -2.9591 -0.8504
  900MPD2    H313191   4.569   3.080  12.345  0.1113 -0.7137  1.6060
  900MPD2     N13192   4.325   2.853  12.020  0.4981 -0.0961 -0.4558
  900MPD2    H513193   4.315   2.759  11.982 -0.2154 -1.0975  2.2178
  900MPD2    N113194   4.677   2.650  12.258 -0.0845  0.2472  0.4314
  900MPD2    H713195   0.007   2.653  12.345  1.4505 -1.5028 -0.4451
  901MPD2     C13196   4.356   1.707  12.544 -0.4818 -0.1628 -0.2879
  901MPD2    C113197   4.487   1.695  12.566 -0.7807  0.6414 -0.5389
  901MPD2    C213198   4.565   1.810  12.548  0.0422  0.4019 -0.2534
  901MPD2    C313199   4.512   1.925  12.503 -0.3851  0.4818  0.0622
  901MPD2    C413200   4.376   1.934  12.485 -0.1453  0.3259 -0.8427
  901MPD2    C513201   4.301   1.822  12.499  0.3349  0.4848 -0.4821
  901MPD2     H13202   4.670   1.797  12.569  0.1553 -0.9924 -1.6857
  901MPD2    H113203   4.333   2.026  12.448 -2.8393 -1.0718 -1.1925
  901MPD2    H213204   4.291   1.621  12.551 -0.8425  0.3483  2.3678
  901MPD2    H313205   4.195   1.822  12.476  0.2739 -2.2333 -0.2131
  901MPD2     N13206   4.600   2.033  12.481 -0.2250 -0.6530  0.7683
  901MPD2    H513207   4.698   2.010  12.495  0.6937  1.7225 -1.7353
  901MPD2    N113208   4.533   1.568  12.578  0.0308 -0.1110  0.1976
  901MPD2    H713209   4.464   1.493  12.574  0.8251 -0.8748  0.8027
  902MPD2     C13210   3.392   0.422  12.746  0.1095  0.4247  0.2517
  902MPD2    C113211   3.450   0.410  12.617 -0.1454  0.5691  0.0792
  902MPD2    C213212   3.476   0.281  12.572 -0.1158 -0.5071  0.8242
  902MPD2    C313213   3.468   0.174  12.651 -0.4752  1.0423  0.0492
  902MPD2    C413214   3.432   0.185  12.780  0.4988  0.2818 -0.2530
  902MPD2    C513215   3.383   0.306  12.827 -0.3287  0.2303 -0.1644
  902MPD2     H13216   3.507   0.267  12.469  0.0919 -3.1310  1.2302
  902MPD2    H113217   3.417   0.103  12.849  2.1564  0.0135 -0.2109
  902MPD2    H213218   3.371   0.521  12.785  0.3950  0.9285 -0.8889
  902MPD2    H313219   3.356   0.314  12.931 -0.5534  3.1880 -0.4428
  902MPD2     N13220   3.472   0.036  12.601  0.1875 -0.2913 -0.0772
  902MPD2    H513221   3.453   4.690  12.673  0.2359 -2.0242 -1.7425
  902MPD2    N113222   3.466   0.528  12.541 -0.9725  0.0602  0.4299
  902MPD2    H713223   3.448   0.620  12.580 -4.1312 -0.0342 -0.8223
  903MPD2     C13224   2.984   4.373  12.019  0.3994  0.2983 -0.0780
  903MPD2    C113225   2.991   4.386  12.161 -0.2453  0.4878 -0.2646
  903MPD2    C213226   2.874   4.358  12.234 -0.5262 -0.4815  0.2456
  903MPD2    C313227   2.763   4.314  12.172  0.7277 -0.2767 -0.3389
  903MPD2    C413228   2.757   4.298  12.034 -0.3280 -0.1990 -0.4339
  903MPD2    C513229   2.871   4.332  11.960  0.0033 -0.3169 -0.8503
  903MPD2     H13230   2.862   4.370  12.341 -0.7663  3.3783 -0.2186
  903MPD2    H113231   2.681   4.243  11.980 -1.9676 -0.0329  1.7040
  903MPD2    H213232   3.070   4.392  11.956  1.5511 -1.9505  0.8060
  903MPD2    H313233   2.864   4.312  11.854 -2.3798  0.0409 -0.7681
  903MPD2     N13234   2.655   4.299  12.260  0.2618 -0.3575  0.5694
  903MPD2    H513235   2.674   4.317  12.358 -0.6744  0.5883  0.5738
  903MPD2    N113236   3.113   4.415  12.225  0.1730  0.4391 -0.3848
  903MPD2    H713237   3.197   4.422  12.168 -0.7578  2.6897 -1.5222
  904MPD2     C13238   3.154   4.218  13.577 -1.1243  0.3966 -0.5562
  904MPD2    C113239   3.141   4.131  13.680 -0.1184 -0.3440 -0.1278
  904MPD2    C213240   3.252   4.092  13.757  0.8649 -0.5023 -0.1800
  904MPD2    C313241   3.374   4.137  13.723  0.3140 -0.3803 -0.0511
  904MPD2    C413242   3.376   4.242  13.630 -0.2876 -0.3944  0.3180
  904MPD2    C513243   3.268   4.290  13.554  0.0051 -0.0411 -0.0220
  904MPD2     H13244   3.247   4.014  13.832 -0.7198  1.2376  1.5202
  904MPD2    H113245   3.467   4.295  13.602 -1.7254  0.5544 -2.5212
  904MPD2    H213246   3.066   4.236  13.517 -2.5443 -2.0473  0.7664
  904MPD2    H313247   3.278   4.354  13.468 -0.0638  0.6339  0.4738
  904MPD2     N13248   3.491   4.085  13.789 -0.2917  0.0718 -0.0977
  904MPD2    H513249   3.482   4.016  13.863 -1.2133 -0.0998 -0.3644
  904MPD2    N113250   3.008   4.097  13.717  1.0589 -0.0977  0.7706
  904MPD2    H713251   2.938   4.130  13.650 -0.3386 -0.7507  1.9036
  905MPD2     C13252   2.875   4.579  13.641 -0.0940  0.2237 -0.0321
  905MPD2    C113253   2.822   4.470  13.577  0.8602 -0.1233 -0.1378
  905MPD2    C213254   2.880   4.422  13.462 -0.7060  0.0934  0.2492
  905MPD2    C313255   2.995   4.487  13.409  0.9979  0.1230 -0.2702
  905MPD2    C413256   3.047   4.598  13.469 -0.7062 -0.6670 -0.5701
  905MPD2    C513257   2.979   4.643  13.583 -0.4258 -0.5074 -0.3192
  905MPD2     H13258   2.825   4.348  13.406  1.4994 -1.2330 -0.1379
  905MPD2    H113259   3.136   4.644  13.427 -0.5096  0.3252  0.9563
  905MPD2    H213260   2.846   4.616  13.738 -0.4394 -0.1900  0.0209
  905MPD2    H313261   3.016   0.012  13.625 -0.7847  0.3253 -1.8205
  905MPD2     N13262   3.062   4.444  13.296  0.3144  0.2084 -0.1801
  905MPD2    H513263   3.138   4.508  13.275 -0.8857  1.1494 -1.6890
  905MPD2    N113264   2.717   4.406  13.645  0.2775 -0.2754  0.3223
  905MPD2    H713265   2.694   4.452  13.732 -0.4738 -0.4074  0.1975
  906MPD2     C13266   0.746   3.962  11.305 -0.6608  0.3077  0.1067
  906MPD2    C113267   0.685   3.897  11.200 -0.3005  0.1520 -0.7316
  906MPD2    C213268   0.637   3.776  11.226  0.3961 -0.8093  0.0038
  906MPD2    C313269   0.642   3.719  11.350  0.1217  0.4675  0.5821
  906MPD2    C413270   0.687   3.784  11.457 -0.4860  0.0547  0.3913
  906MPD2    C513271   0.733   3.910  11.431  0.4096 -0.2181  0.0336
  906MPD2     H13272   0.595   3.713  11.148 -0.1008  0.8288 -1.0528
  906MPD2    H113273   0.692   3.744  11.558 -1.7629 -0.0206  0.4153
  906MPD2    H213274   0.790   4.061  11.302  2.6802 -1.1656  0.1948
  906MPD2    H313275   0.771   3.969  11.513 -0.7366 -1.6044  1.5731
  906MPD2     N13276   0.607   3.583  11.358 -0.2047  0.2781 -0.0924
  906MPD2    H513277   0.580   3.541  11.270  0.6990  0.1327 -0.3017
  906MPD2    N113278   0.671   3.942  11.070 -0.7357  0.0227 -0.5423
  906MPD2    H713279   0.625   3.875  11.008 -0.1367 -0.0746 -0.8798
  907MPD2     C13280   4.510   3.584  15.756 -0.2031 -0.2033  0.0284
  907MPD2    C113281   4.409   3.496  15.771  0.6027  0.0076  0.5989
  907MPD2    C213282   4.407   3.391  15.863  0.1990  0.5504 -0.2230
  907MPD2    C313283   4.517   3.371  15.946 -0.0821  0.3996  0.0996
  907MPD2    C413284   4.627   3.456  15.929 -0.3923  0.0667 -0.0870
  907MPD2    C513285   4.613   3.559  15.837 -0.1271 -0.1887 -0.1177
  907MPD2     H13286   4.326   3.323  15.881 -0.5754  1.6854  0.6312
  907MPD2    H113287   4.721   3.451  15.982 -0.6780 -1.1044  0.3205
  907MPD2    H213288   4.502   3.664  15.683 -0.8806 -0.6901 -0.4343
  907MPD2    H313289   4.702   3.618  15.815  1.2529 -1.8602  0.9585
  907MPD2     N13290   4.515   3.270  16.047 -0.3378 -0.6317 -0.4697
  907MPD2    H513291   4.432   3.212  16.052 -3.1168  3.2073 -2.3817
  907MPD2    N113292   4.299   3.491  15.679 -0.5020 -0.0896 -0.3840
  907MPD2    H713293   4.219   3.430  15.697 -1.3916  0.5310 -2.1934
  908MPD2     C13294   2.369   4.540   9.515 -0.3782  0.4300 -0.1995
  908MPD2    C113295   2.398   4.437   9.606  0.5869 -0.3051  0.1520
  908MPD2    C213296   2.348   4.444   9.737 -1.0322 -0.1223 -0.3805
  908MPD2    C313297   2.281   4.559   9.785 -0.1144 -0.6229  0.7957
  908MPD2    C413298   2.261   4.661   9.691 -0.4952 -0.5385  0.2255
  908MPD2    C513299   2.298   4.643   9.558 -0.3028 -0.6127 -0.4304
  908MPD2     H13300   2.339   4.356   9.799  0.1129 -0.8687 -1.2820
  908MPD2    H113301   2.199   0.024   9.712 -0.7573 -0.5779 -0.3890
  908MPD2    H213302   2.412   4.538   9.416 -0.6801 -1.0476 -0.3060
  908MPD2    H313303   2.272   0.003   9.493 -0.2249 -1.4145 -1.4954
  908MPD2     N13304   2.232   4.562   9.918 -0.1750  0.6650  0.1409
  908MPD2    H513305   2.249   4.482   9.979  0.4046  2.5863  2.4747
  908MPD2    N113306   2.455   4.313   9.571 -0.0464 -0.1704  0.0131
  908MPD2    H713307   2.462   4.244   9.644 -1.5163 -1.3065 -0.9106
  909MPD2     C13308   2.755   1.873  12.005 -0.4375  0.1995  0.8512
  909MPD2    C113309   2.727   1.960  11.897 -0.0932 -0.4255 -0.5635
  909MPD2    C213310   2.661   2.077  11.928  0.4594  0.2989 -0.2874
  909MPD2    C313311   2.623   2.112  12.057 -0.1745 -0.2555  0.5089
  909MPD2    C413312   2.650   2.026  12.154 -0.8795  0.2152  0.0035
  909MPD2    C513313   2.721   1.912  12.128 -0.2187  0.3751 -0.4917
  909MPD2     H13314   2.631   2.149  11.853 -1.3463 -0.6121 -0.4339
  909MPD2    H113315   2.625   2.035  12.260 -0.6625  0.2537  0.0507
  909MPD2    H213316   2.810   1.781  11.989 -0.2187  0.8738 -2.4719
  909MPD2    H313317   2.753   1.846  12.208  0.7753  1.6315  0.1389
  909MPD2     N13318   2.548   2.229  12.075 -0.0455  0.4718  0.2721
  909MPD2    H513319   2.531   2.290  11.995  0.7784 -0.8333 -0.9076
  909MPD2    N113320   2.761   1.935  11.766 -0.2586  0.4458 -0.7153
  909MPD2    H713321   2.754   2.006  11.694  0.4950 -0.1526 -1.3832
  910MPD2     C13322   4.273   4.094  15.632 -0.4615 -0.0218  0.0078
  910MPD2    C113323   4.189   3.981  15.664  0.5043 -0.2786 -0.1366
  910MPD2    C213324   4.094   3.949  15.569 -0.1737 -0.5599 -0.3163
  910MPD2    C313325   4.074   4.025  15.454  0.1476  0.0992  0.1691
  910MPD2    C413326   4.150   4.144  15.434  0.0799 -0.5928 -0.7181
  910MPD2    C513327   4.248   4.178  15.524  0.4308  0.5742 -0.2765
  910MPD2     H13328   4.035   3.858  15.570 -0.7553 -0.1797  0.2311
  910MPD2    H113329   4.147   4.214  15.352  0.5921  0.1324 -0.1149
  910MPD2    H213330   4.343   4.127  15.707 -0.9039 -0.8503  0.7732
  910MPD2    H313331   4.302   4.269  15.505  0.1001  0.8310  0.0023
  910MPD2     N13332   3.981   3.998  15.353 -0.0824  0.1399  0.3691
  910MPD2    H513333   3.963   4.074  15.289  1.0229  0.9416  1.0056
  910MPD2    N113334   4.202   3.897  15.772  0.1184 -0.3648 -0.5537
  910MPD2    H713335   4.125   3.833  15.791 -0.0935 -0.4680 -1.7945
  911MPD2     C13336   1.317   4.515  16.233 -0.1990 -0.0601 -0.0146
  911MPD2    C113337   1.393   4.623  16.272 -1.1526  0.3412  0.1608
  911MPD2    C213338   1.334   0.025  16.285  0.2646 -0.1289  0.3478
  911MPD2    C313339   1.199   0.043  16.250  0.0136 -0.0501 -0.5033
  911MPD2    C413340   1.125   4.656  16.211  0.4732  0.9632 -0.2536
  911MPD2    C513341   1.181   4.528  16.211  0.9868 -1.2161  0.2872
  911MPD2     H13342   1.396   0.110  16.308  1.1320 -0.1355 -1.9372
  911MPD2    H113343   1.022   4.667  16.180  0.5848 -0.6159 -1.1751
  911MPD2    H213344   1.366   4.420  16.212  0.3416 -0.1631  1.7092
  911MPD2    H313345   1.119   4.443  16.187 -1.6863  0.6125  0.6141
  911MPD2     N13346   1.136   0.164  16.235  0.2307 -0.3799  0.6790
  911MPD2    H513347   1.047   0.156  16.187  1.2927  1.3814 -1.6018
  911MPD2    N113348   1.526   4.597  16.303  0.4117  0.1312 -0.2829
  911MPD2    H713349   1.556   4.501  16.294  0.3127  0.0590  0.1682
  912MPD2     C13350   1.080   0.015  15.691 -0.1624  0.1984 -0.3813
  912MPD2    C113351   1.009   0.033  15.808  0.0618 -0.1458 -0.1698
  912MPD2    C213352   0.960   4.640  15.870  0.3463 -0.2135  0.0337
  912MPD2    C313353   0.986   4.513  15.812 -0.1380  0.4561  0.1033
  912MPD2    C413354   1.074   4.505  15.707 -0.0305 -1.0837  0.2150
  912MPD2    C513355   1.113   4.614  15.643 -0.9246 -0.4202  0.1074
  912MPD2     H13356   0.895   4.636  15.956 -0.1660 -0.7009 -0.3774
  912MPD2    H113357   1.107   4.412  15.661  0.0330 -0.3573 -1.1821
  912MPD2    H213358   1.108   0.098  15.628 -0.9420  1.4452  0.9372
  912MPD2    H313359   1.175   4.599  15.555 -0.8843  1.1998 -0.1463
  912MPD2     N13360   0.945   4.395  15.885 -0.2908  0.4372  0.5499
  912MPD2    H513361   0.895   4.411  15.972  0.6132  0.4329  1.0663
  912MPD2    N113362   0.982   0.166  15.858 -0.8226  0.2709 -0.7023
  912MPD2    H713363   1.027   0.237  15.802 -0.0345 -0.2356 -0.7012
  913MPD2     C13364   1.806   0.626  11.471  0.9734 -0.2736 -0.5796
  913MPD2    C113365   1.931   0.674  11.436 -0.0646 -0.0981 -1.0140
  913MPD2    C213366   1.945   0.731  11.313  0.2383 -0.3958  0.4754
  913MPD2    C313367   1.842   0.730  11.218  0.4609 -0.0851  0.6316
  913MPD2    C413368   1.717   0.689  11.262  0.3048  0.2754  0.3479
  913MPD2    C513369   1.702   0.628  11.383 -1.0120 -1.0090  1.0039
  913MPD2     H13370   2.030   0.790  11.282  1.4143 -2.7222 -0.7160
  913MPD2    H113371   1.642   0.669  11.186 -1.2988  2.2694  1.3931
  913MPD2    H213372   1.785   0.576  11.565 -0.6534  2.4938  0.5309
  913MPD2    H313373   1.607   0.588  11.416 -0.5660 -1.7710  1.3811
  913MPD2     N13374   1.853   0.783  11.084 -0.3936 -0.1883  0.4927
  913MPD2    H513375   1.773   0.766  11.024 -0.3720 -1.4125  0.8167
  913MPD2    N113376   2.035   0.678  11.537  0.1377  0.2522 -0.6930
  913MPD2    H713377   2.015   0.645  11.631 -0.5431 -0.9558 -1.2528
  914MPD2     C13378   4.159   1.210  12.018 -0.1013  0.3500 -0.2411
  914MPD2    C113379   4.159   1.317  12.105  0.7391 -0.6652  0.8963
  914MPD2    C213380   4.245   1.311  12.215 -1.0452  0.4926  0.7091
  914MPD2    C313381   4.338   1.207  12.231 -0.3448 -0.4715  0.4353
  914MPD2    C413382   4.347   1.116  12.133 -0.7489 -0.3155 -0.2603
  914MPD2    C513383   4.252   1.114  12.034  0.3187  0.0337 -0.9802
  914MPD2     H13384   4.251   1.386  12.292 -0.2745  0.4783  0.6609
  914MPD2    H113385   4.430   1.046  12.127  0.4918  1.1152  0.0061
  914MPD2    H213386   4.087   1.201  11.938 -0.7620 -0.0212  0.3960
  914MPD2    H313387   4.237   1.026  11.973  0.9522 -1.0683  0.4610
  914MPD2     N13388   4.427   1.209  12.339  0.2713  0.3972 -0.8161
  914MPD2    H513389   4.413   1.271  12.417 -0.4375  2.0831 -2.2849
  914MPD2    N113390   4.080   1.426  12.073 -0.2200  0.1663 -0.0436
  914MPD2    H713391   4.015   1.413  11.996  0.3267 -1.3537 -0.2434
  915MPD2     C13392   2.758   1.414  15.989  0.5350  0.1300 -0.3447
  915MPD2    C113393   2.631   1.363  15.952 -0.1260 -0.0251 -0.7456
  915MPD2    C213394   2.546   1.328  16.056  0.3997  0.2438  0.1301
  915MPD2    C313395   2.586   1.353  16.190 -0.1322 -0.6050  0.1336
  915MPD2    C413396   2.714   1.389  16.226  0.0652  0.0621 -0.0795
  915MPD2    C513397   2.802   1.409  16.120  0.4097  0.4596  0.2379
  915MPD2     H13398   2.446   1.294  16.032  0.3526  0.7316 -0.3717
  915MPD2    H113399   2.748   1.411  16.327  2.7903  0.7132 -1.1533
  915MPD2    H213400   2.823   1.450  15.910  1.4173 -2.3908 -0.7570
  915MPD2    H313401   2.907   1.433  16.137  0.6212  0.4895 -1.1303
  915MPD2     N13402   2.487   1.361  16.288  0.6436  0.2533  0.3305
  915MPD2    H513403   2.394   1.340  16.251  0.9723  0.8527 -0.8141
  915MPD2    N113404   2.616   1.331  15.823 -0.3154  0.3263 -0.3460
  915MPD2    H713405   2.692   1.343  15.757 -0.3850  1.0083 -0.3045
  916MPD2     C13406   0.638   4.416  15.659 -0.2707  0.2767 -0.1294
  916MPD2    C113407   0.581   4.330  15.746  0.9435  0.9486 -1.2052
  916MPD2    C213408   0.610   4.195  15.731  0.0741 -0.0712 -0.4691
  916MPD2    C313409   0.682   4.144  15.623  0.4185 -0.4858  0.6069
  916MPD2    C413410   0.728   4.240  15.530  0.1303 -0.5922 -1.0648
  916MPD2    C513411   0.719   4.376  15.559 -0.4151  0.4649  0.2436
  916MPD2     H13412   0.585   4.127  15.812 -2.0476 -0.5506 -1.5435
  916MPD2    H113413   0.781   4.207  15.441  0.3046 -0.2973 -1.0737
  916MPD2    H213414   0.633   4.524  15.656  1.5313  0.3432 -0.3073
  916MPD2    H313415   0.752   4.444  15.482  2.2776  1.0238  1.8922
  916MPD2     N13416   0.721   4.007  15.631 -0.8892  0.5400 -0.5438
  916MPD2    H513417   0.688   3.944  15.704 -1.7330  1.9069  0.2521
  916MPD2    N113418   0.509   4.393  15.851 -0.2161 -0.6041  0.0492
  916MPD2    H713419   0.513   4.495  15.855  3.0090 -0.6913 -1.0056
  917MPD2     C13420   1.689   1.616  11.816 -0.0796 -0.2561 -0.2928
  917MPD2    C113421   1.588   1.685  11.752 -0.6025 -0.8617 -0.1836
  917MPD2    C213422   1.619   1.778  11.657 -0.0297  0.1115 -0.2251
  917MPD2    C313423   1.752   1.802  11.632  0.6761 -0.4898  0.4353
  917MPD2    C413424   1.851   1.733  11.698 -0.5875 -0.1621 -0.1403
  917MPD2    C513425   1.822   1.637  11.789  0.2911 -0.3765  0.3992
  917MPD2     H13426   1.543   1.835  11.605  0.8802  1.1663 -0.4056
  917MPD2    H113427   1.957   1.742  11.678 -0.6421 -0.1008 -0.3946
  917MPD2    H213428   1.668   1.556  11.904  0.2152  0.6686  0.4081
  917MPD2    H313429   1.901   1.584  11.841 -0.5772 -5.3544 -3.3281
  917MPD2     N13430   1.792   1.911  11.551  1.0233  0.8521  0.6553
  917MPD2    H513431   1.888   1.909  11.519  0.2322 -1.2978 -1.6297
  917MPD2    N113432   1.454   1.662  11.807  0.2642 -0.3037 -0.0754
  917MPD2    H713433   1.460   1.605  11.890 -0.5871 -4.4589 -2.8672
  918MPD2     C13434   1.434   1.610  12.656  0.3364  0.4108  0.3681
  918MPD2    C113435   1.528   1.615  12.553  0.0157 -0.0716 -0.1495
  918MPD2    C213436   1.482   1.628  12.421  0.3499  0.1403  0.5856
  918MPD2    C313437   1.345   1.632  12.396  1.4044  0.4211  0.1205
  918MPD2    C413438   1.254   1.632  12.497 -0.1997 -0.8546  0.4064
  918MPD2    C513439   1.304   1.620  12.623  0.9802  0.1165  0.2271
  918MPD2     H13440   1.546   1.609  12.335 -1.6429  2.2740 -1.3627
  918MPD2    H113441   1.149   1.651  12.482  0.1329  0.7882  0.1714
  918MPD2    H213442   1.463   1.608  12.760 -1.0965  1.2894  0.7798
  918MPD2    H313443   1.225   1.631  12.697  1.1773 -2.2117  0.7746
  918MPD2     N13444   1.308   1.644  12.257 -0.1933  0.4498 -0.0383
  918MPD2    H513445   1.376   1.664  12.184 -0.5772 -0.4935 -0.6491
  918MPD2    N113446   1.669   1.593  12.579 -0.1392  0.7015  0.1500
  918MPD2    H713447   1.729   1.600  12.497 -0.8367 -0.3592 -0.4430
  919MPD2     C13448   1.822   0.684  11.926 -0.4159  0.3494  0.1812
  919MPD2    C113449   1.705   0.631  11.877 -0.0264  0.2093  0.0213
  919MPD2    C213450   1.643   0.678  11.765  0.0973 -0.6019 -0.1089
  919MPD2    C313451   1.673   0.803  11.716  0.1578 -0.1404 -0.3226
  919MPD2    C413452   1.788   0.857  11.759 -0.3009 -0.0699 -0.2627
  919MPD2    C513453   1.854   0.801  11.868  0.0924  0.2998  0.2898
  919MPD2     H13454   1.575   0.608  11.719  0.9137 -2.4026  1.3960
  919MPD2    H113455   1.813   0.955  11.720 -2.6014  1.6099  2.5033
  919MPD2    H213456   1.890   0.629  11.990 -0.2965 -0.1272 -0.3558
  919MPD2    H313457   1.954   0.840  11.886  0.5123 -0.7110  0.1602
  919MPD2     N13458   1.606   0.864  11.603  0.0993  0.0670 -0.1786
  919MPD2    H513459   1.663   0.938  11.565  0.2567 -1.8258 -3.5829
  919MPD2    N113460   1.652   0.507  11.927 -0.0952 -0.1080 -0.2936
  919MPD2    H713461   1.577   0.467  11.871 -0.1032 -0.4250 -0.0516
  920MPD2     C13462   1.809   1.336  10.756 -0.1162 -0.9170 -0.3387
  920MPD2    C113463   1.703   1.258  10.714  0.1231  0.6206  0.6173
  920MPD2    C213464   1.643   1.185  10.809  0.0084 -0.0607 -0.1649
  920MPD2    C313465   1.674   1.176  10.946  0.3724 -0.5183 -0.1872
  920MPD2    C413466   1.781   1.260  10.986  0.6334 -0.1853  0.3412
  920MPD2    C513467   1.847   1.335  10.893 -0.1067  0.4843  0.6825
  920MPD2     H13468   1.555   1.126  10.789 -0.6083  0.0247  2.2813
  920MPD2    H113469   1.805   1.283  11.089 -1.7141 -0.3205  0.9303
  920MPD2    H213470   1.869   1.397  10.690 -2.4229  1.0022 -0.6544
  920MPD2    H313471   1.910   1.418  10.922  1.2982 -0.8636  1.4972
  920MPD2     N13472   1.596   1.094  11.031 -0.0171 -0.4790  0.1315
  920MPD2    H513473   1.518   1.047  10.986 -0.6952  0.0870  0.7255
  920MPD2    N113474   1.672   1.235  10.580 -0.7705  0.1909 -0.9211
  920MPD2    H713475   1.631   1.144  10.562 -0.3374 -0.8387  3.2857
  921MPD2     C13476   2.380   0.183  16.791  0.7688  0.8766  0.9486
  921MPD2    C113477   2.400   0.152  16.658  1.1166 -0.0819 -0.1367
  921MPD2    C213478   2.298   0.086  16.594 -0.6120  0.3347  0.0877
  921MPD2    C313479   2.179   0.058  16.653  0.0225  0.3784 -0.4896
  921MPD2    C413480   2.158   0.097  16.781  0.1948  0.9692 -0.6147
  921MPD2    C513481   2.260   0.163  16.843 -0.4625  0.3496 -0.2978
  921MPD2     H13482   2.299   0.084  16.485  0.9407  0.0250  0.1004
  921MPD2    H113483   2.063   0.095  16.834  1.0848  1.8000  1.0140
  921MPD2    H213484   2.451   0.232  16.857  0.5092 -0.0525  1.9004
  921MPD2    H313485   2.245   0.188  16.948 -2.8179 -2.1830 -0.0438
  921MPD2     N13486   2.075   4.719  16.582  0.0691 -0.4190 -0.4060
  921MPD2    H513487   1.984   4.716  16.627 -0.6735  0.6691 -1.8354
  921MPD2    N113488   2.525   0.189  16.596 -0.1429  0.6868 -0.3384
  921MPD2    H713489   2.604   0.189  16.659 -0.3275 -2.5509 -0.1181
  922MPD2     C13490   3.047   2.373   0.297 -0.0851 -0.2660 -0.2392
  922MPD2    C113491   3.024   2.358   0.161 -0.2845  0.1178 -0.8691
  922MPD2    C213492   2.906   2.399   0.105  0.4267  0.7416  0.0536
  922MPD2    C313493   2.811   2.460   0.174  0.1773 -0.3680  0.0536
  922MPD2    C413494   2.832   2.474   0.313 -0.1671 -0.6233 -0.5928
  922MPD2    C513495   2.943   2.420   0.372 -0.0244  1.2222  0.4900
  922MPD2     H13496   2.882   2.386  17.695  1.0254 -0.0726  0.0222
  922MPD2    H113497   2.758   2.514   0.381  0.6154  0.7505 -0.5439
  922MPD2    H213498   3.138   2.338   0.343  0.1876  2.6414  1.4223
  922MPD2    H313499   2.952   2.431   0.479 -4.9792 -0.9360  1.1202
  922MPD2     N13500   2.686   2.492   0.113 -0.6328  0.2162 -0.1254
  922MPD2    H513501   2.670   2.472   0.015  1.7675  0.2025 -0.5080
  922MPD2    N113502   3.109   2.276   0.078 -0.3214  0.1582  0.1988
  922MPD2    H713503   3.089   2.268  17.674 -0.3758  0.8127  0.1552
  923MPD2     C13504   0.536   4.303   8.595 -0.1493 -0.2756  0.1089
  923MPD2    C113505   0.489   4.384   8.697 -0.4206  0.1504  0.3813
  923MPD2    C213506   0.552   4.371   8.824  0.3266 -0.0824  0.4467
  923MPD2    C313507   0.658   4.283   8.834  0.1267 -0.2004 -0.5984
  923MPD2    C413508   0.717   4.220   8.726  0.0867 -0.3540  0.1610
  923MPD2    C513509   0.656   4.237   8.603  0.3667 -0.1575 -0.3668
  923MPD2     H13510   0.497   4.418   8.904  0.7438 -0.5171  0.9878
  923MPD2    H113511   0.802   4.153   8.733 -1.5477 -2.3201  0.9186
  923MPD2    H213512   0.483   4.297   8.501  0.8196 -1.2640 -0.3663
  923MPD2    H313513   0.687   4.189   8.511 -0.9798 -2.2518  0.2622
  923MPD2     N13514   0.729   4.256   8.954  0.6712 -0.8203  0.2541
  923MPD2    H513515   0.807   4.194   8.940 -0.9188 -2.5380 -1.0383
  923MPD2    N113516   0.374   4.465   8.675 -0.2416  0.1431  0.1049
  923MPD2    H713517   0.320   4.451   8.590  1.0244 -0.2133 -0.6404
  924MPD2     C13518   4.007   2.602  16.339  0.2665 -0.3592 -0.4740
  924MPD2    C113519   4.064   2.673  16.440 -0.5935 -0.3043  0.0809
  924MPD2    C213520   4.189   2.719  16.423  0.3838  0.5138  0.8771
  924MPD2    C313521   4.251   2.715  16.299 -0.0610 -0.7272 -0.5082
  924MPD2    C413522   4.189   2.647  16.199  0.2677 -0.3389 -0.5888
  924MPD2    C513523   4.067   2.588  16.216  0.3490 -0.0365 -0.6075
  924MPD2     H13524   4.232   2.771  16.507 -0.6569  1.9297  0.5285
  924MPD2    H113525   4.240   2.629  16.105  0.0581 -0.0657 -0.7565
  924MPD2    H213526   3.905   2.569  16.350  0.5598 -1.4332 -0.9925
  924MPD2    H313527   4.020   2.535  16.133 -1.8572  0.4670  0.3111
  924MPD2     N13528   4.371   2.777  16.289 -0.8783 -0.0400 -0.5522
  924MPD2    H513529   4.407   2.823  16.372  2.3977 -2.6787 -0.5177
  924MPD2    N113530   4.003   2.692  16.567  1.0377  0.8385 -0.4160
  924MPD2    H713531   4.061   2.742  16.635  0.7478  0.9437 -0.2470
  925MPD2     C13532   3.571   4.653  14.678 -0.5058 -0.1527 -0.4744
  925MPD2    C113533   3.490   0.040  14.681  0.2643  0.6169  0.2311
  925MPD2    C213534   3.397   0.046  14.788  0.5635  0.2484  0.3027
  925MPD2    C313535   3.366   4.659  14.866  1.0233  0.2074 -0.0637
  925MPD2    C413536   3.446   4.545  14.850 -0.3503  0.2901  0.7867
  925MPD2    C513537   3.548   4.541  14.759  0.4796 -0.2233 -0.5963
  925MPD2     H13538   3.330   0.131  14.796  0.2571  0.0175  0.2317
  925MPD2    H113539   3.418   4.455  14.902 -0.6641 -0.3018 -0.3929
  925MPD2    H213540   3.630   4.636  14.588  0.1825 -0.4103  0.0219
  925MPD2    H313541   3.611   4.453  14.756 -1.2163 -1.3899 -1.9539
  925MPD2     N13542   3.258   4.648  14.958 -0.0828 -0.5191 -0.4942
  925MPD2    H513543   3.245   4.561  15.007  1.1203 -0.8243 -0.7176
  925MPD2    N113544   3.508   0.159  14.605 -0.1541  0.4587  0.0188
  925MPD2    H713545   3.462   0.245  14.631  0.1755  0.6012  0.1230
  926MPD2     C13546   1.626   3.110  13.500  0.2271 -0.6211 -0.1434
  926MPD2    C113547   1.566   3.186  13.403  0.2028  0.0823 -0.3054
  926MPD2    C213548   1.639   3.249  13.310  0.3597 -0.3060  0.1970
  926MPD2    C313549   1.775   3.246  13.299 -0.1829  0.0744  0.8122
  926MPD2    C413550   1.838   3.167  13.395  0.5940 -0.2215 -0.3797
  926MPD2    C513551   1.768   3.103  13.496 -0.8507  0.3178  0.5565
  926MPD2     H13552   1.593   3.316  13.237  0.6146 -0.2826  0.0592
  926MPD2    H113553   1.945   3.156  13.396  0.7566  1.5461  1.7908
  926MPD2    H213554   1.584   3.085  13.596  1.1229  3.3076  1.2724
  926MPD2    H313555   1.824   3.055  13.576  1.2467  0.0330 -1.0929
  926MPD2     N13556   1.854   3.326  13.214 -0.3883  0.3757 -0.6940
  926MPD2    H513557   1.952   3.335  13.239 -0.6191  1.9528 -0.3631
  926MPD2    N113558   1.427   3.216  13.399 -0.3565  0.8688  0.2514
  926MPD2    H713559   1.406   3.281  13.324 -2.2663  0.0082  0.0470
  927MPD2     C13560   2.215   0.791   0.878  0.0567 -0.2962 -0.1209
  927MPD2    C113561   2.090   0.852   0.874 -0.1578 -0.0920 -0.3869
  927MPD2    C213562   2.005   0.821   0.765 -0.0764  0.2588  0.0950
  927MPD2    C313563   2.040   0.711   0.679 -0.6764 -1.0004 -0.2521
  927MPD2    C413564   2.164   0.649   0.695  0.3582 -0.3945  0.3745
  927MPD2    C513565   2.247   0.693   0.792  0.1993  0.0491 -0.4711
  927MPD2     H13566   1.906   0.863   0.752  0.6632  1.8280 -0.4554
  927MPD2    H113567   2.183   0.554   0.646  0.4672 -0.3309  0.2927
  927MPD2    H213568   2.284   0.813   0.958  0.4700  0.1470 -0.5935
  927MPD2    H313569   2.341   0.639   0.800  0.7375  0.8805 -1.3349
  927MPD2     N13570   1.933   0.665   0.602  0.0577  0.8711  0.3228
  927MPD2    H513571   1.847   0.719   0.602 -0.4027  0.1302 -0.1254
  927MPD2    N113572   2.058   0.946   0.982 -0.1096  0.0456 -0.0527
  927MPD2    H713573   2.111   0.944   1.068  0.6630 -1.4257 -0.5820
  928MPD2     C13574   3.696   0.195   0.645  0.3682  0.1898  0.0172
  928MPD2    C113575   3.719   0.085   0.728  0.3266  0.0274  0.1532
  928MPD2    C213576   3.824   4.720   0.682 -0.1467 -0.1004 -0.6799
  928MPD2    C313577   3.883   0.014   0.559 -0.4384  0.0611 -0.9730
  928MPD2    C413578   3.855   0.119   0.479 -0.0783  0.0104 -0.0873
  928MPD2    C513579   3.753   0.209   0.522 -0.2009 -0.2775  0.3955
  928MPD2     H13580   3.854   4.649   0.758  1.3673  1.4051  0.1448
  928MPD2    H113581   3.897   0.127   0.379 -1.5152  0.5798 -0.6450
  928MPD2    H213582   3.630   0.277   0.674  0.4364  0.1715  0.2245
  928MPD2    H313583   3.736   0.297   0.460 -1.6977  0.4532  1.8240
  928MPD2     N13584   4.008   4.672   0.528 -0.0552  0.2649  0.1046
  928MPD2    H513585   4.055   4.702   0.443  0.2948  1.4759  0.7243
  928MPD2    N113586   3.665   0.090   0.860 -0.5136  0.2559 -0.1770
  928MPD2    H713587   3.635   0.185   0.878 -2.1914 -0.1337 -0.8809
  929MPD2     C13588   0.167   4.282  10.383  0.4553  0.3100  0.7187
  929MPD2    C113589   0.061   4.196  10.368 -0.3883  0.6526 -0.2425
  929MPD2    C213590   4.708   4.202  10.252 -0.2483 -0.6079 -0.3252
  929MPD2    C313591   0.010   4.306  10.170 -0.3849  0.1003 -0.7259
  929MPD2    C413592   0.105   4.407  10.197  0.1399 -0.0347 -0.0657
  929MPD2    C513593   0.193   4.390  10.300  0.1113 -0.1621 -0.0935
  929MPD2     H13594   4.620   4.140  10.239  0.3941 -1.1458 -2.0040
  929MPD2    H113595   0.111   4.487  10.124  2.3271 -0.3308 -0.2286
  929MPD2    H213596   0.234   4.269  10.468  2.4785  0.9715 -0.7924
  929MPD2    H313597   0.273   4.461  10.320  0.9072 -0.3603 -2.5648
  929MPD2     N13598   4.658   4.330  10.053  0.7824  0.5845  0.5481
  929MPD2    H513599   4.656   4.420  10.006  2.2076  0.4719  0.2914
  929MPD2    N113600   0.039   4.103  10.475 -0.1905 -0.2685 -0.1404
  929MPD2    H713601   0.096   4.117  10.558 -2.0718 -1.4839  1.3838
  930MPD2     C13602   1.362   1.330  14.481 -0.0445 -0.3887 -0.3143
  930MPD2    C113603   1.472   1.397  14.438  0.3345 -0.0287  0.2750
  930MPD2    C213604   1.490   1.400  14.299 -0.3796  0.0340 -0.0276
  930MPD2    C313605   1.400   1.352  14.212  0.4409 -0.2766 -0.3488
  930MPD2    C413606   1.291   1.290  14.259  0.1357  1.0506  1.3231
  930MPD2    C513607   1.270   1.283  14.389  0.3863 -0.7913 -0.3011
  930MPD2     H13608   1.567   1.464  14.257  0.0736 -1.0143 -0.8051
  930MPD2    H113609   1.214   1.244  14.198  0.6536 -1.1607  2.3297
  930MPD2    H213610   1.330   1.329  14.585  0.4962  0.6058 -0.1375
  930MPD2    H313611   1.175   1.243  14.422  0.5180 -0.4986  0.4276
  930MPD2     N13612   1.405   1.385  14.074  0.1199 -0.0781  0.7364
  930MPD2    H513613   1.321   1.369  14.018 -0.6832  0.4982  1.7921
  930MPD2    N113614   1.556   1.466  14.530 -0.7015  0.4156  0.1701
  930MPD2    H713615   1.512   1.487  14.620 -1.3009 -3.2478  0.7327
  931MPD2     C13616   1.872   0.640   1.501 -0.2106  0.1394 -0.0135
  931MPD2    C113617   1.771   0.709   1.443 -0.8467  0.0518 -0.7484
  931MPD2    C213618   1.643   0.642   1.428 -0.3293  0.0871  1.0610
  931MPD2    C313619   1.611   0.525   1.493  0.0586 -0.1250  0.0387
  931MPD2    C413620   1.717   0.463   1.559 -0.2710  0.0473  0.2591
  931MPD2    C513621   1.841   0.523   1.559  0.4092  0.4762  0.0330
  931MPD2     H13622   1.561   0.696   1.382 -0.6848 -1.5922 -0.2790
  931MPD2    H113623   1.711   0.363   1.599  2.5103 -1.0683 -2.0877
  931MPD2    H213624   1.972   0.681   1.508 -0.0610 -0.1833 -0.2890
  931MPD2    H313625   1.923   0.481   1.615  0.1628 -1.4060 -1.0230
  931MPD2     N13626   1.483   0.466   1.495 -0.0573 -0.4804 -0.3931
  931MPD2    H513627   1.477   0.377   1.543  0.0959  0.4722  1.3682
  931MPD2    N113628   1.806   0.832   1.384 -0.3191 -0.1595 -0.0935
  931MPD2    H713629   1.902   0.866   1.392 -0.6484  0.0724  2.7731
  932MPD2     C13630   3.536   0.600  11.526  0.1876 -0.3837  0.2932
  932MPD2    C113631   3.651   0.595  11.453  0.2862 -0.0712  0.2011
  932MPD2    C213632   3.722   0.473  11.442 -0.0121  0.0028 -0.1746
  932MPD2    C313633   3.683   0.358  11.513 -0.7985  0.4554 -0.0685
  932MPD2    C413634   3.567   0.368  11.580 -0.5073 -0.3884  0.0334
  932MPD2    C513635   3.502   0.489  11.598 -0.5280 -0.4498  0.6446
  932MPD2     H13636   3.813   0.468  11.384 -1.0214 -2.4843 -1.5256
  932MPD2    H113637   3.534   0.288  11.646 -1.0654 -0.4654 -0.3354
  932MPD2    H213638   3.472   0.688  11.529 -0.4554 -0.8123 -1.1795
  932MPD2    H313639   3.408   0.492  11.654  0.2368 -1.3022  1.9908
  932MPD2     N13640   3.759   0.235  11.519  0.0427  0.2951  0.1665
  932MPD2    H513641   3.732   0.167  11.589  2.8367 -2.5925 -1.5517
  932MPD2    N113642   3.699   0.705  11.372  0.0349  0.5002  0.2912
  932MPD2    H713643   3.775   0.679  11.309  1.3708  1.2721  1.5903
  933MPD2     C13644   3.082   0.367   0.956  0.0033 -0.2031 -0.1185
  933MPD2    C113645   3.168   0.387   1.060 -0.3775  0.0586 -0.2694
  933MPD2    C213646   3.153   0.495   1.149 -0.4843 -0.1122  0.0811
  933MPD2    C313647   3.058   0.591   1.126 -0.2364 -0.0686 -0.3456
  933MPD2    C413648   2.974   0.565   1.022  0.2302 -0.2367 -1.0536
  933MPD2    C513649   2.979   0.451   0.947 -1.4303 -0.0979  0.1254
  933MPD2     H13650   3.226   0.521   1.225 -0.4756 -2.5560  0.9321
  933MPD2    H113651   2.896   0.634   0.995  0.0441 -0.2216 -0.4749
  933MPD2    H213652   3.087   0.276   0.896 -0.0468 -0.9479  1.0138
  933MPD2    H313653   2.907   0.445   0.867 -0.5527  0.3799 -0.6919
  933MPD2     N13654   3.061   0.710   1.202 -0.1202 -0.3583  0.4271
  933MPD2    H513655   3.127   0.705   1.279 -2.2850  0.6464  2.3423
  933MPD2    N113656   3.279   0.294   1.066 -0.1749  0.1950  0.4447
  933MPD2    H713657   3.297   0.222   0.996  2.5223  1.7563 -0.4615
  934MPD2     C13658   0.183   2.229   2.244 -0.0412  0.5368 -0.1700
  934MPD2    C113659   0.257   2.149   2.154 -0.4656  0.5333  0.6858
  934MPD2    C213660   0.187   2.050   2.086 -0.0876  0.4025 -0.1285
  934MPD2    C313661   0.055   2.022   2.119 -0.0966 -0.4468 -0.9038
  934MPD2    C413662   4.714   2.110   2.197 -0.1931  0.5744 -0.2998
  934MPD2    C513663   0.046   2.218   2.249 -0.6410 -0.2124 -0.7537
  934MPD2     H13664   0.244   1.980   2.026 -0.6310  0.3215 -0.5528
  934MPD2    H113665   4.607   2.092   2.199 -0.2208  0.5085 -2.1918
  934MPD2    H213666   0.226   2.319   2.285 -1.3291 -0.3100  3.0936
  934MPD2    H313667   4.719   2.294   2.307  1.6294  0.5323  0.1947
  934MPD2     N13668   4.703   1.928   2.051 -0.3200  0.1914  0.0275
  934MPD2    H513669   4.607   1.912   2.080 -0.7635  2.2214 -0.2745
  934MPD2    N113670   0.394   2.165   2.140  0.3840 -0.6373 -0.0981
  934MPD2    H713671   0.451   2.115   2.073  0.6350  0.0761 -0.4135
  935MPD2     C13672   0.146   1.017   1.629  0.5830 -0.5640 -0.1522
  935MPD2    C113673   0.088   1.100   1.532  0.9072 -0.5123 -0.5307
  935MPD2    C213674   0.030   1.214   1.573 -0.4753  0.3847  0.6030
  935MPD2    C313675   0.048   1.271   1.698  0.0512 -0.1555 -0.6500
  935MPD2    C413676   0.126   1.195   1.784  0.3148  0.2591 -0.1454
  935MPD2    C513677   0.158   1.064   1.756 -0.4438  0.0508 -0.7284
  935MPD2     H13678   4.692   1.276   1.509 -1.5500  0.4673  1.7242
  935MPD2    H113679   0.143   1.235   1.884 -2.3840  2.3000 -0.4747
  935MPD2    H213680   0.178   0.915   1.609  0.1330 -0.7148 -0.0996
  935MPD2    H313681   0.212   1.008   1.831 -1.0994 -1.1816 -1.1862
  935MPD2     N13682   4.713   1.390   1.739 -0.1896 -0.2016 -0.1380
  935MPD2    H513683   4.712   1.413   1.839 -2.0044 -0.7296 -0.0457
  935MPD2    N113684   0.071   1.058   1.398 -0.0396  0.0381 -0.2146
  935MPD2    H713685   0.033   1.121   1.329  2.0254 -1.5891 -2.8182
  936MPD2     C13686   4.057   3.413  13.008  0.9241  0.1572 -0.5355
  936MPD2    C113687   3.984   3.486  12.914  0.0273  0.8223 -0.4699
  936MPD2    C213688   4.023   3.481  12.783  0.3388  0.4469  0.5325
  936MPD2    C313689   4.138   3.404  12.746  0.0275 -0.2045  0.0585
  936MPD2    C413690   4.211   3.326  12.836  0.0088 -0.1048 -0.0924
  936MPD2    C513691   4.159   3.338  12.960 -0.6777  0.3552 -0.4592
  936MPD2     H13692   3.961   3.523  12.705  0.6196 -1.8160 -0.9192
  936MPD2    H113693   4.303   3.273  12.814 -0.1959 -0.3776 -0.3004
  936MPD2    H213694   4.031   3.415  13.113 -1.3820  0.2761 -1.1080
  936MPD2    H313695   4.222   3.286  13.031  2.5428  0.8337 -2.9585
  936MPD2     N13696   4.167   3.418  12.610  0.1788 -0.2515  0.2977
  936MPD2    H513697   4.107   3.482  12.559  0.9515  0.1992 -0.0372
  936MPD2    N113698   3.875   3.566  12.951  0.0676  0.1110  0.0042
  936MPD2    H713699   3.829   3.619  12.878  0.4091  1.6092  0.8883
  937MPD2     C13700   1.455   4.700  11.624 -0.1191 -0.2886 -0.1589
  937MPD2    C113701   1.570   4.716  11.705 -0.6575 -0.3433  0.7898
  937MPD2    C213702   1.695   4.707  11.652  1.0607  0.6053 -0.5422
  937MPD2    C313703   1.711   4.685  11.516  0.6083 -0.3528  0.0718
  937MPD2    C413704   1.598   4.656  11.442  0.1578  0.1315 -0.4972
  937MPD2    C513705   1.467   4.656  11.497 -0.2928  0.3413 -0.2928
  937MPD2     H13706   1.782   4.722  11.714 -0.1867 -0.6076  1.4964
  937MPD2    H113707   1.606   4.645  11.334  0.8651  2.7815 -0.7195
  937MPD2    H213708   1.358   4.700  11.671  0.0039 -2.5242  0.1224
  937MPD2    H313709   1.376   4.643  11.439 -0.4659 -0.9801  0.2763
  937MPD2     N13710   1.836   4.684  11.447 -0.5040  0.1028 -0.0465
  937MPD2    H513711   1.825   4.691  11.347 -1.5646  1.9252  0.1926
  937MPD2    N113712   1.555   0.050  11.834  0.0851 -0.7748 -0.3622
  937MPD2    H713713   1.645   0.077  11.871 -0.0728 -0.1762 -0.4014
  938MPD2     C13714   4.221   1.465   0.931  0.1695  0.2437 -0.1758
  938MPD2    C113715   4.193   1.577   1.000  0.3286 -0.5170 -0.9058
  938MPD2    C213716   4.100   1.568   1.109  0.4326  1.0344  0.0184
  938MPD2    C313717   4.051   1.449   1.146 -0.2441  0.0583 -0.1085
  938MPD2    C413718   4.090   1.336   1.073 -0.0675  0.5236 -0.0414
  938MPD2    C513719   4.166   1.347   0.965 -0.8370 -0.4374 -1.0217
  938MPD2     H13720   4.053   1.649   1.162  0.0461 -0.4721  1.9981
  938MPD2    H113721   4.055   1.236   1.099  2.4876  0.1794  2.1546
  938MPD2    H213722   4.285   1.464   0.843  0.7640 -0.7299  0.2823
  938MPD2    H313723   4.198   1.264   0.902 -1.7711 -1.9905  0.5453
  938MPD2     N13724   3.973   1.428   1.262  0.1724  0.0126  0.1707
  938MPD2    H513725   3.951   1.330   1.277  0.1097 -0.2579 -1.6477
  938MPD2    N113726   4.254   1.705   0.981 -0.2196 -0.3210  0.6773
  938MPD2    H713727   4.235   1.778   1.050  0.8486  0.3557  0.2477
  939MPD2     C13728   0.272   2.472   0.972 -0.0856  0.0113  0.3074
  939MPD2    C113729   0.224   2.598   0.934  0.3008  0.5625 -0.0057
  939MPD2    C213730   0.248   2.646   0.798  0.1697 -0.2757 -0.7473
  939MPD2    C313731   0.314   2.566   0.708 -0.4304  0.4453 -0.0922
  939MPD2    C413732   0.361   2.442   0.756 -0.4365 -0.0942  0.3144
  939MPD2    C513733   0.345   2.397   0.884  0.0179 -0.1269 -0.0822
  939MPD2     H13734   0.208   2.742   0.768 -1.2920 -0.3237  1.0387
  939MPD2    H113735   0.416   2.379   0.687  1.1327  0.4125  1.1084
  939MPD2    H213736   0.262   2.446   1.077  0.2494  0.2936  0.4086
  939MPD2    H313737   0.399   2.307   0.912 -0.4641 -0.6748 -0.8950
  939MPD2     N13738   0.335   2.611   0.580  0.3276 -0.1879 -0.5326
  939MPD2    H513739   0.303   2.703   0.552 -1.9726 -0.7278  0.3710
  939MPD2    N113740   0.166   2.688   1.026 -0.3694 -0.1042  0.4076
  939MPD2    H713741   0.158   2.653   1.121 -3.7653 -1.3016 -0.3217
  940MPD2     C13742   0.043   3.507  13.150  0.0395  0.5341  0.0138
  940MPD2    C113743   0.075   3.389  13.218  0.3545 -0.2601 -0.1613
  940MPD2    C213744   0.132   3.279  13.151  0.5106  0.2169 -0.8611
  940MPD2    C313745   0.161   3.300  13.013 -0.2618 -0.2736  0.2785
  940MPD2    C413746   0.129   3.414  12.949 -0.0653  0.2718 -0.3359
  940MPD2    C513747   0.076   3.524  13.016 -0.1082 -0.4606  0.4065
  940MPD2     H13748   0.166   3.194  13.209  2.4152  0.3158 -1.8067
  940MPD2    H113749   0.150   3.414  12.843 -0.2062 -0.5507 -0.3639
  940MPD2    H213750   4.714   3.590  13.195 -1.8405 -2.4477  3.3194
  940MPD2    H313751   0.063   3.614  12.956 -1.4143 -0.2582  0.9957
  940MPD2     N13752   0.211   3.194  12.935 -0.1997  0.5042  0.5713
  940MPD2    H513753   0.239   3.221  12.842 -0.0233 -2.3930 -0.2105
  940MPD2    N113754   0.045   3.371  13.356  0.0954  0.8767 -0.2862
  940MPD2    H713755   0.065   3.283  13.403  0.7198  2.5635  2.5819
  941MPD2     C13756   4.366   2.974   9.338  0.0240 -0.2723 -0.1901
  941MPD2    C113757   4.396   2.962   9.471 -0.3025  0.2172 -0.7086
  941MPD2    C213758   4.340   2.856   9.545 -0.2920  0.0593  0.0501
  941MPD2    C313759   4.265   2.757   9.484  0.1812  0.3967 -0.7366
  941MPD2    C413760   4.224   2.777   9.355  0.8248  0.1456 -0.5056
  941MPD2    C513761   4.279   2.881   9.284  0.3266  0.1869 -0.9796
  941MPD2     H13762   4.355   2.853   9.653  4.0555 -1.2830 -0.5980
  941MPD2    H113763   4.166   2.704   9.300 -0.8053  0.8779  0.2487
  941MPD2    H213764   4.393   3.056   9.273 -1.3035  0.1819 -0.1590
  941MPD2    H313765   4.247   2.876   9.181  0.3646  1.2290 -1.0367
  941MPD2     N13766   4.205   2.649   9.549  0.6766  0.1910 -0.0085
  941MPD2    H513767   4.132   2.599   9.498 -0.0082  0.2416  0.9328
  941MPD2    N113768   4.469   3.059   9.536  0.4927  0.2075  0.1612
  941MPD2    H713769   4.466   3.062   9.637  1.3496  0.6742  0.1792
  942MPD2     C13770   3.693   4.329   8.999 -0.0025 -1.1923 -0.4002
  942MPD2    C113771   3.778   4.230   8.966 -0.6385 -0.3800  0.7898
  942MPD2    C213772   3.895   4.261   8.895  0.1158 -0.0077 -0.0751
  942MPD2    C313773   3.927   4.389   8.856  0.3527 -0.2618  0.3963
  942MPD2    C413774   3.840   4.491   8.888  0.0965 -0.4974 -0.0810
  942MPD2    C513775   3.724   4.461   8.953 -0.4561 -0.0036  0.1166
  942MPD2     H13776   3.966   4.179   8.887  1.6090  1.4070 -1.3042
  942MPD2    H113777   3.865   4.590   8.851 -0.3446 -0.6222 -0.7135
  942MPD2    H213778   3.611   4.311   9.067  1.6606 -2.3059  1.2966
  942MPD2    H313779   3.657   4.539   8.988 -1.4113 -0.7037 -0.1576
  942MPD2     N13780   4.049   4.431   8.799 -0.1288  0.0174  0.1558
  942MPD2    H513781   4.045   4.528   8.770 -2.4898  0.6307  2.4870
  942MPD2    N113782   3.759   4.099   9.009  0.2011  0.0338  0.4604
  942MPD2    H713783   3.830   4.030   8.985  1.0605  0.9452  0.3850
  943MPD2     C13784   1.787   1.634  10.194  0.2082  0.3968  0.1989
  943MPD2    C113785   1.862   1.639  10.078  0.4195  0.0612 -0.7661
  943MPD2    C213786   1.804   1.663   9.958 -0.2540  0.6346 -0.5600
  943MPD2    C313787   1.661   1.668   9.951  0.3424 -0.3729  0.9448
  943MPD2    C413788   1.583   1.662  10.066 -0.3824 -0.5544 -0.0897
  943MPD2    C513789   1.651   1.639  10.183  0.0308  0.3295 -0.2103
  943MPD2     H13790   1.866   1.649   9.871  0.0906  0.6237 -0.3111
  943MPD2    H113791   1.475   1.667  10.069 -0.4859 -1.2527 -2.3958
  943MPD2    H213792   1.818   1.602  10.292  2.4465 -2.2382 -1.3625
  943MPD2    H313793   1.593   1.631  10.274  1.9895 -0.7082  0.9433
  943MPD2     N13794   1.593   1.676   9.826  0.1570  0.7444 -0.9484
  943MPD2    H513795   1.493   1.696   9.827 -0.0482 -0.2255 -2.1117
  943MPD2    N113796   2.003   1.631  10.094 -0.2335  0.5060  0.6878
  943MPD2    H713797   2.025   1.602  10.189 -1.8173 -2.6748  0.1009
  944MPD2     C13798   2.685   1.608  11.135 -0.4015 -0.3019 -0.3043
  944MPD2    C113799   2.714   1.485  11.191  0.0465  0.4181  0.8113
  944MPD2    C213800   2.699   1.463  11.325  1.0663  0.4918  0.3965
  944MPD2    C313801   2.649   1.564  11.406 -0.4167  0.0435 -0.5546
  944MPD2    C413802   2.610   1.689  11.345 -0.6753  0.7744 -0.1687
  944MPD2    C513803   2.634   1.711  11.211  0.2946  0.1151 -0.7927
  944MPD2     H13804   2.741   1.372  11.366  0.8195 -0.2786 -1.0412
  944MPD2    H113805   2.564   1.762  11.411  0.1451  0.5629  0.6330
  944MPD2    H213806   2.688   1.630  11.029 -1.1914  0.8941 -0.0776
  944MPD2    H313807   2.604   1.804  11.166 -1.5297 -0.4461 -0.7289
  944MPD2     N13808   2.620   1.527  11.537 -0.2999  0.2804  0.2675
  944MPD2    H513809   2.653   1.438  11.572 -0.5003  0.5095  1.0505
  944MPD2    N113810   2.755   1.386  11.101 -0.0814  0.0651 -0.4592
  944MPD2    H713811   2.776   1.414  11.006 -1.3499  0.5465 -0.6013
    1TCq1    O113812   0.577   1.973  13.943 -0.2818  0.0274 -0.0019
    1TCq1    C113813   0.660   1.867  13.950  0.4188 -0.2158 -0.5892
    1TCq1    O213814   0.698   1.784  13.866  0.2661 -0.0312  0.3691
    1TCq1    C213815   0.726   1.878  14.082  0.1441 -0.3775  0.0849
    1TCq1    C313816   0.823   1.785  14.116 -0.1547  0.1083 -0.0858
    1TCq1    C413817   0.889   1.789  14.235  0.3605 -0.1197 -0.1028
    1TCq1    C513818   0.859   1.889  14.323  0.3144 -0.1741 -0.6832
    1TCq1    C613819   0.772   1.985  14.288  0.5222 -1.2110  0.3229
    1TCq1    C713820   0.702   1.982  14.168  0.0906 -0.2693  0.1066
    1TCq1    C813821   0.733   2.085  14.393 -0.1546 -0.0494  0.2095
    1TCq1    O413822   0.763   2.062  14.506 -0.3628 -0.5269  0.3349
    1TCq1    C913823   0.991   1.689  14.257 -0.1781  0.1681 -0.3886
    1TCq1    O513824   1.051   1.685  14.361  0.6196  0.8018  0.0246
    1TCq1    O613825   1.004   1.610  14.164  0.6526  0.2007 -0.0790
    1TCq1    H113826   0.542   1.987  14.034  0.0583 -4.2789  0.7797
    1TCq1    H213827   0.856   1.713  14.043 -3.0074 -0.0263 -1.2419
    1TCq1    H313828   0.905   1.891  14.421  0.6193  0.0316 -0.8315
    1TCq1    H413829   0.630   2.061  14.150 -0.0669 -0.6492 -0.9447
    2MPD2     C13830   0.634   2.565  14.517  0.5687  0.3411 -0.5615
    2MPD2    C113831   0.614   2.550  14.382 -0.2713 -1.3029 -0.6349
    2MPD2    C213832   0.613   2.419  14.333 -0.3059  0.0809 -0.3945
    2MPD2    C313833   0.652   2.316  14.412  0.6970  0.4018 -0.2795
    2MPD2    C413834   0.676   2.335  14.548 -0.1564 -0.3604 -0.2767
    2MPD2    C513835   0.656   2.462  14.601  0.0599  0.1607  0.9044
    2MPD2     H13836   0.592   2.397  14.229  0.6911  0.0106 -0.5845
    2MPD2    H113837   0.704   2.253  14.614 -2.0199 -1.1318 -0.4240
    2MPD2    H213838   0.620   2.667  14.551 -1.7381 -0.7067  1.6400
    2MPD2    H313839   0.667   2.475  14.708 -0.6974  1.0478  0.8752
    2MPD2     N13840   0.685   2.198  14.338  0.2828  0.1451 -0.6283
    2MPD2    H513841   0.691   2.214  14.238  0.0455  1.1561 -0.4818
    2MPD2    N113842   0.593   2.666  14.304  0.7726  0.3852 -0.0290
    2MPD2    H713843   0.589   2.754  14.355 -1.7156  0.7959 -0.9414
    3TMC2    C113844   0.520   2.797  14.116  0.6018  0.6960 -0.4137
    3TMC2    C213845   0.446   2.875  14.194  0.4431  0.0287 -0.1250
    3TMC2    C313846   0.382   2.985  14.144 -0.7026  0.8520  0.6819
    3TMC2    C413847   0.530   2.817  13.984 -0.5429  0.2268 -0.1256
    3TMC2    C513848   0.471   2.932  13.935  0.4046  0.3578 -0.4444
    3TMC2    C613849   0.402   3.019  14.012  0.3597  0.5294  0.3422
    3TMC2     C13850   0.565   2.670  14.165  0.1571 -0.1180 -0.1641
    3TMC2     O13851   0.559   2.585  14.077  0.0042 -1.1444  0.1723
    3TMC2     H13852   0.404   2.840  14.288  1.9248  0.1396  0.5735
    3TMC2    H113853   0.583   2.747  13.920  0.4153  0.9396 -0.1073
    3TMC2    H213854   0.329   3.087  13.972 -1.2255 -1.7437 -0.6257
    3TMC2    C713855   0.469   2.956  13.793  0.0512  0.3615 -1.2731
    3TMC2    C813856   0.302   3.064  14.232  0.8719 -0.1631  0.3013
    3TMC2    O113857   0.487   2.854  13.729  0.7229 -0.0656 -0.2395
    3TMC2    O213858   0.259   3.026  14.337  0.2358  0.1121 -0.2411
    3TMC2    O513859   0.332   3.191  14.205  0.0813 -0.0675 -0.0677
    3TMC2    H513860   0.345   3.204  14.108  2.3908  0.3748  0.2910
    4MPD2     C13861   4.165   3.871  13.483  0.3485 -0.2982 -0.9433
    4MPD2    C113862   4.224   3.931  13.379  0.2919 -0.6509 -0.3216
    4MPD2    C213863   4.366   3.922  13.368 -0.0221  0.5647 -0.3194
    4MPD2    C313864   4.444   3.850  13.462  0.1535 -0.1124  0.0615
    4MPD2    C413865   4.375   3.793  13.572 -0.3466 -0.5580  0.6486
    4MPD2    C513866   4.242   3.803  13.575  0.4222 -0.2979  0.0809
    4MPD2     H13867   4.415   3.969  13.284 -1.4402  1.9608 -0.3648
    4MPD2    H113868   4.418   3.719  13.640 -0.7037  1.1646  2.7477
    4MPD2    H213869   4.059   3.880  13.506  1.0514 -0.1857  2.1898
    4MPD2    H313870   4.185   3.749  13.650 -2.8714  1.6746 -1.0029
    4MPD2     N13871   4.581   3.848  13.437  0.2504 -0.2365  0.3922
    4MPD2    H513872   4.612   3.888  13.349  0.2343  0.1500  0.5621
    4MPD2    N113873   4.146   4.000  13.284 -0.2043 -0.5917  0.0426
    4MPD2    H713874   4.046   3.984  13.291  0.1410 -1.9140  1.7750
    5TCq2    C113875   4.674   3.802  13.527  0.7847 -0.1794 -0.0671
    5TCq2    O213876   4.655   3.770  13.643  0.0524  0.0594 -0.0010
    5TCq2    C213877   0.079   3.793  13.466 -0.1078 -0.1099  0.0567
    5TCq2    C313878   0.105   3.818  13.332 -0.1750 -0.1947 -0.0172
    5TCq2    C413879   0.219   3.780  13.284 -0.2431 -0.6573 -0.2324
    5TCq2    C513880   0.305   3.702  13.355  0.6942  0.1316  0.1055
    5TCq2    C613881   0.272   3.663  13.485 -0.0310  0.0939 -0.7864
    5TCq2    C713882   0.167   3.724  13.551  0.4105  0.3634 -0.2793
    5TCq2    C813883   0.329   3.543  13.543 -0.5647 -0.1079 -0.0849
    5TCq2    O413884   0.315   3.528  13.664  0.4787  0.7468 -0.1029
    5TCq2    C913885   0.256   3.816  13.149 -0.2583  0.1887  0.3206
    5TCq2    O513886   0.179   3.893  13.090 -0.3478 -0.1270  0.1896
    5TCq2    O613887   0.373   3.787  13.102 -0.3011  0.1679  0.1065
    5TCq2    H213888   0.039   3.877  13.270 -0.0390  1.6257  1.5471
    5TCq2    H313889   0.394   3.665  13.304  0.7460  3.0448 -1.9502
    5TCq2    H413890   0.143   3.682  13.648  2.5456 -2.2712 -0.8833
    6MPD1     C13891   3.875   1.002  12.305  0.0815  0.5115  0.1972
    6MPD1    C113892   3.912   0.914  12.207 -0.0741  0.7379 -0.2202
    6MPD1    C213893   3.915   0.779  12.242  0.4778 -0.1351  0.1855
    6MPD1    C313894   3.885   0.746  12.371 -0.1980  0.3167 -0.6121
    6MPD1    C413895   3.858   0.836  12.469 -0.3830  0.0415 -0.0868
    6MPD1    C513896   3.848   0.963  12.433  0.0048  0.0776  0.1330
    6MPD1     H13897   3.939   0.699  12.172 -0.8349 -1.6821  1.5012
    6MPD1    H113898   3.857   0.811  12.575  1.2329 -0.1134 -0.1205
    6MPD1    H213899   3.874   1.108  12.279  0.7357 -0.1372 -2.4589
    6MPD1    H313900   3.811   1.034  12.506  1.3201  0.4914  0.4072
    6MPD1     N13901   3.883   0.614  12.419  0.1165  0.5857  0.0082
    6MPD1    H513902   3.857   0.598  12.516  2.0539 -2.3635  0.0592
    6MPD1    N113903   3.927   0.953  12.078 -0.6409  0.0167 -0.0789
    6MPD1    H613904   3.991   0.885  12.036  0.9184  0.0872  2.1836
    6MPD1    H713905   3.970   1.045  12.079 -0.2262 -0.2077  1.8917
    7MPD2     C13906   3.694   0.113  13.014  0.4834 -0.5777  0.2396
    7MPD2    C113907   3.760   0.060  12.905  0.2975  0.0513  0.3408
    7MPD2    C213908   3.785   4.644  12.905  0.0476  0.1530  1.0638
    7MPD2    C313909   3.769   4.576  13.024  0.3848 -0.3923 -0.2133
    7MPD2    C413910   3.722   4.640  13.141  0.5249 -0.5868 -0.1611
    7MPD2    C513911   3.680   0.049  13.137  0.0336  0.1347  0.5658
    7MPD2     H13912   3.814   4.582  12.821  0.6652  0.6700  0.8949
    7MPD2    H113913   3.723   4.591  13.238 -1.4659  2.6761  1.4862
    7MPD2    H213914   3.666   0.218  13.016  0.7284 -0.4833 -1.6099
    7MPD2    H313915   3.634   0.097  13.222 -1.6730  0.0268 -0.2981
    7MPD2     N13916   3.819   4.442  13.017  0.4437  0.8921 -0.4847
    7MPD2    H513917   3.856   4.412  12.928 -3.0846 -2.0790 -0.9507
    7MPD2    N113918   3.804   0.128  12.790 -0.2808 -0.3302  0.4841
    7MPD2    H713919   3.833   0.074  12.709 -1.3268 -1.1544  0.6715
    8TMC3    C113920   3.883   4.227  13.069 -0.5032 -0.4641  0.1928
    8TMC3    C213921   3.988   4.187  13.147  0.1829 -0.2294 -0.2540
    8TMC3    C313922   4.100   4.130  13.083 -0.4991  0.1349 -0.3297
    8TMC3    C413923   3.892   4.216  12.933 -0.0301 -0.5324 -0.0497
    8TMC3    C513924   4.010   4.183  12.868  0.1290 -0.8418  0.5426
    8TMC3    C613925   4.113   4.122  12.938 -0.0460 -0.7474  0.0064
    8TMC3     C13926   3.823   4.352  13.117 -0.1818  0.4946 -0.0763
    8TMC3     O13927   3.800   4.367  13.234 -0.0327 -0.1659 -0.0897
    8TMC3     H13928   3.985   4.188  13.256  0.4232  0.9333 -0.2584
    8TMC3    H113929   3.802   4.249  12.881 -1.0886 -1.2895  1.3041
    8TMC3    H213930   4.204   4.090  12.888 -0.3236 -0.9354 -0.3770
    8TMC3    C713931   4.039   4.292  12.778 -0.0384  0.2163 -0.3634
    8TMC3    C813932   4.201   4.067  13.169  0.8090 -0.3853  0.0438
    8TMC3    O113933   3.957   4.381  12.775  0.2920  0.3369 -0.2235
    8TMC3    O213934   4.315   4.075  13.119 -0.0493 -0.1621 -0.6579
    9TMC3    C113935   3.944   0.397  12.449 -0.3408 -0.2179  1.1407
    9TMC3    C213936   4.044   0.308  12.425 -0.3744 -0.2224 -0.0424
    9TMC3    C313937   4.079   0.221  12.523 -0.4190  0.0415 -0.8176
    9TMC3    C413938   3.854   0.381  12.551 -0.6364 -0.3250 -0.3766
    9TMC3    C513939   3.875   0.273  12.639 -0.2418  0.6723  1.0398
    9TMC3    C613940   3.999   0.197  12.635 -0.1710  0.2333  0.4615
    9TMC3     C13941   3.925   0.506  12.353 -0.3302 -0.0959 -0.5140
    9TMC3     O13942   3.993   0.498  12.250  0.7063  0.1081 -0.1314
    9TMC3     H13943   4.107   0.307  12.337  0.7125  0.9061  0.7275
    9TMC3    H113944   3.760   0.432  12.565  0.1703  0.9435  0.4560
    9TMC3    H213945   4.036   0.129  12.710 -1.6247 -0.9463  0.1119
    9TMC3    C713946   3.799   0.263  12.758  0.1296 -0.4390 -0.1002
    9TMC3    C813947   4.184   0.120  12.479  0.3056 -0.5178 -0.3504
    9TMC3    O113948   3.750   0.357  12.818  0.0096 -0.4604  0.5363
    9TMC3    O213949   4.294   0.154  12.437  0.1875  0.0401  0.3480
   10MPD2     C13950   4.326   4.366  12.555 -0.5976 -0.1064  0.1832
   10MPD2    C113951   4.210   4.388  12.631 -0.3772 -0.5853  0.2861
   10MPD2    C213952   4.159   4.515  12.624 -0.5871  0.2835 -0.4664
   10MPD2    C313953   4.208   4.607  12.536 -0.4556  0.8920  0.4025
   10MPD2    C413954   4.317   4.580  12.458  0.6180  0.1506 -0.4584
   10MPD2    C513955   4.377   4.461  12.468  0.1684 -0.0783 -0.0393
   10MPD2     H13956   4.073   4.540  12.684 -1.0011  0.1059 -0.9808
   10MPD2    H113957   4.347   4.643  12.374  0.7678  0.7743  0.0641
   10MPD2    H213958   4.368   4.267  12.566 -0.1916 -0.0533 -0.8720
   10MPD2    H313959   4.457   4.431  12.402 -0.5127 -0.2482 -0.8011
   10MPD2     N13960   4.140   0.006  12.535 -0.2003 -0.5342 -0.2026
   10MPD2    H513961   4.046   0.009  12.574 -0.6231 -1.8113 -1.1232
   10MPD2    N113962   4.159   4.287  12.714 -0.0883  0.2202  0.5961
   10MPD2    H713963   4.207   4.198  12.717 -1.4016 -0.4258  2.4636
   11MPD2     C13964   0.472   3.057  13.512 -0.6714 -0.1106  0.5711
   11MPD2    C113965   0.445   3.134  13.622  0.4240 -0.2329  0.0028
   11MPD2    C213966   0.417   3.269  13.604 -0.0668  0.4719 -0.3382
   11MPD2    C313967   0.406   3.325  13.475 -0.0709 -0.4805 -0.5846
   11MPD2    C413968   0.432   3.247  13.364 -0.1446 -0.1833  0.1377
   11MPD2    C513969   0.463   3.113  13.389 -0.5444  0.0538 -0.1515
   11MPD2     H13970   0.381   3.317  13.694  1.8346  1.6637 -0.2348
   11MPD2    H113971   0.433   3.288  13.264 -1.7896 -0.1506  0.1221
   11MPD2    H213972   0.502   2.953  13.520 -4.4218 -1.0865  2.0243
   11MPD2    H313973   0.482   3.053  13.301 -1.4966 -0.4670  0.0063
   11MPD2     N13974   0.373   3.452  13.454  0.1248 -0.3131 -0.1114
   11MPD2    H513975   0.365   3.479  13.356  0.7657 -1.8169 -0.5752
   11MPD2    N113976   0.463   3.091  13.760 -0.3245  0.2661 -0.3054
   11MPD2    H713977   0.448   3.157  13.835  2.0083 -1.8292  2.0104
    1MPD1     C13978   1.847   0.737  17.209  0.8957  0.3011  0.1313
    1MPD1    C113979   1.908   0.615  17.239  0.1154 -0.4943  0.1170
    1MPD1    C213980   2.011   0.566  17.153  0.5016  0.2228 -0.3935
    1MPD1    C313981   2.062   0.645  17.053  0.5514 -0.6905 -0.2437
    1MPD1    C413982   2.010   0.769  17.041 -0.2062 -0.4950 -0.1287
    1MPD1    C513983   1.904   0.821  17.113 -0.4690  0.0013 -0.3115
    1MPD1     H13984   2.049   0.465  17.159  0.7142  0.2996 -0.4338
    1MPD1    H113985   2.047   0.834  16.962  0.8413  3.0323  3.2092
    1MPD1    H213986   1.757   0.771  17.258 -0.1240 -0.8765 -0.9360
    1MPD1    H313987   1.870   0.921  17.089 -0.7742 -0.2249 -0.8096
    1MPD1     N13988   2.158   0.602  16.961  0.1645 -0.1966  0.4594
    1MPD1    H513989   2.189   0.674  16.897  0.5544 -2.5493 -2.0438
    1MPD1    N113990   1.857   0.529  17.336  0.0604 -0.2091 -0.4953
    1MPD1    H613991   1.812   0.597  17.397 -0.2527 -1.9565  1.2286
    1MPD1    H713992   1.931   0.486  17.392 -1.7341 -0.0750  1.9865
    2MPD1     C13993   3.197   0.714  16.836  0.3967 -0.9680 -0.5863
    2MPD1    C113994   3.123   0.777  16.737 -0.6430 -0.0266 -0.0220
    2MPD1    C213995   2.988   0.749  16.721 -0.1147 -0.7673 -0.2683
    2MPD1    C313996   2.925   0.668  16.812 -0.8112  0.6085  0.4184
    2MPD1    C413997   2.997   0.613  16.922  0.7520  0.1207 -0.0172
    2MPD1    C513998   3.134   0.627  16.921 -0.3525 -0.0949 -0.4402
    2MPD1     H13999   2.940   0.780  16.629 -1.7754 -1.3779  0.3912
    2MPD1    H114000   2.959   0.548  17.000 -1.8673  0.9926 -0.5714
    2MPD1    H214001   3.305   0.722  16.838  0.3112 -0.1970  0.9051
    2MPD1    H314002   3.194   0.573  16.993 -2.1658 -0.2444  0.9501
    2MPD1     N14003   2.789   0.640  16.783  0.0391  0.3648 -0.4057
    2MPD1    H514004   2.744   0.693  16.710 -0.8877  1.4422  0.9553
    2MPD1    N114005   3.188   0.835  16.623  0.2202  0.0616 -0.4626
    2MPD1    H614006   3.284   0.852  16.651  0.4572 -2.0926  0.0309
    2MPD1    H714007   3.155   0.927  16.595  1.0047  0.2915 -0.6145
    3TMC3    C114008   2.577   0.551  16.831  0.4804 -0.5316 -0.4997
    3TMC3    C214009   2.545   0.583  16.699 -0.0400 -0.5539 -0.1815
    3TMC3    C314010   2.417   0.575  16.664  0.3352  0.6689 -0.2477
    3TMC3    C414011   2.484   0.506  16.921  0.0929  0.0418  0.5070
    3TMC3    C514012   2.351   0.511  16.876  0.7717  0.4459  0.1676
    3TMC3    C614013   2.318   0.538  16.749  0.6241 -0.4602 -0.5559
    3TMC3     C14014   2.711   0.571  16.876 -0.1238 -0.5885  0.8148
    3TMC3     O14015   2.742   0.508  16.976  0.6772  0.3647 -0.1536
    3TMC3     H14016   2.626   0.579  16.626  0.0182  2.3474 -0.2680
    3TMC3    H114017   2.511   0.476  17.022  2.0556  3.0360  0.8638
    3TMC3    H214018   2.219   0.517  16.710  0.6878 -0.6891 -0.5973
    3TMC3    C714019   2.247   0.502  16.977  0.1095  0.2891  0.5236
    3TMC3    C814020   2.385   0.559  16.527  0.0318  0.5039  0.1275
    3TMC3    O114021   2.262   0.421  17.069 -0.6494 -0.0829 -0.1706
    3TMC3    O214022   2.267   0.542  16.495  0.5028  0.0132 -0.0163
    4MPD1     C14023   2.505   0.542  16.027  0.7915 -0.0288  0.4614
    4MPD1    C114024   2.609   0.605  16.098 -0.6035  0.0666  0.2185
    4MPD1    C214025   2.603   0.616  16.235  0.6194 -0.6737  0.0575
    4MPD1    C314026   2.487   0.580  16.300  0.0825 -0.5474  0.1569
    4MPD1    C414027   2.386   0.523  16.236 -0.6963 -0.2220 -0.6659
    4MPD1    C514028   2.392   0.502  16.098  0.7312 -0.7252  0.4183
    4MPD1     H14029   2.678   0.669  16.294  1.1114  1.9132 -2.8858
    4MPD1    H114030   2.287   0.505  16.278  0.3499 -0.2655  1.7694
    4MPD1    H214031   2.487   0.540  15.920 -0.9839  0.7089  0.7390
    4MPD1    H314032   2.302   0.472  16.047  0.8036  0.5339 -0.4524
    4MPD1     N14033   2.487   0.602  16.441  0.1807  0.3903 -0.5040
    4MPD1    H514034   2.568   0.644  16.485  0.2003 -0.4134  0.2455
    4MPD1    N114035   2.721   0.648  16.028  0.3596 -0.5094 -0.1959
    4MPD1    H614036   2.799   0.651  16.093 -1.7712  0.2431  2.3100
    4MPD1    H714037   2.738   0.582  15.952 -0.3038  0.0763 -0.8552
    1TCq1    O114038   4.083   1.195  11.407  0.1714  0.0579  0.5420
    1TCq1    C114039   4.175   1.112  11.352  0.1687 -0.2728  0.2948
    1TCq1    O214040   4.235   1.138  11.247 -0.3747  0.1027 -0.4843
    1TCq1    C214041   4.133   0.976  11.388 -0.7855  0.5121 -0.4812
    1TCq1    C314042   4.134   0.882  11.289 -0.2159 -0.0738 -0.0623
    1TCq1    C414043   4.074   0.762  11.314  0.1705 -0.5157  0.0880
    1TCq1    C514044   4.003   0.743  11.427  0.1047 -0.0645 -0.2339
    1TCq1    C614045   4.008   0.837  11.528  0.0035  0.2617  0.3701
    1TCq1    C714046   4.085   0.951  11.516 -0.1969 -0.5796  0.7904
    1TCq1    C814047   3.931   0.824  11.657 -0.3815 -0.4170 -0.1879
    1TCq1    O414048   3.910   0.925  11.727 -0.4350  0.0711 -0.2213
    1TCq1    C914049   4.029   0.688  11.201 -0.5714 -0.2558  0.3597
    1TCq1    O514050   3.916   0.642  11.216  0.5023 -0.1425  0.1049
    1TCq1    O614051   4.099   0.692  11.093  0.0582  0.0323 -0.0181
    1TCq1    H114052   4.054   1.159  11.493 -0.5322  0.4816  0.4806
    1TCq1    H214053   4.145   0.909  11.185 -1.6965  1.8795  0.2975
    1TCq1    H314054   3.944   0.655  11.450  1.8515 -0.7037  1.9259
    1TCq1    H414055   4.110   1.022  11.593 -2.3959 -0.6377  1.5669
    2MPD1     C14056   3.665   0.535  12.004 -0.4385  0.0362 -0.2595
    2MPD1    C114057   3.711   0.456  11.901  0.5330 -0.3188 -1.1093
    2MPD1    C214058   3.787   0.517  11.799 -0.1390  0.3975 -0.0230
    2MPD1    C314059   3.819   0.650  11.799 -0.3898  0.0361  0.2387
    2MPD1    C414060   3.773   0.723  11.902  0.2601 -0.0576  0.1922
    2MPD1    C514061   3.695   0.668  12.002 -0.5777 -0.1785 -0.4280
    2MPD1     H14062   3.823   0.467  11.711  1.1453  1.7882 -0.2890
    2MPD1    H114063   3.798   0.827  11.919 -0.9261  0.0739  1.1522
    2MPD1    H214064   3.599   0.493  12.079 -0.6305  0.1322 -0.3747
    2MPD1    H314065   3.656   0.739  12.074 -1.0556 -1.5615  0.6671
    2MPD1     N14066   3.896   0.695  11.686 -0.6340  0.1503 -0.4372
    2MPD1    H514067   3.921   0.627  11.614 -1.0152  0.0648 -0.4903
    2MPD1    N114068   3.704   0.317  11.918  0.0820  0.6672 -0.0053
    2MPD1    H614069   3.699   0.269  11.829 -3.6200  0.0262  0.5663
    2MPD1    H714070   3.628   0.296  11.981  0.9474 -0.9780  0.4767
    1TCq1    O114071   1.737   0.044   1.484 -0.0558 -0.3112  0.0063
    1TCq1    C114072   1.778   0.114   1.379  0.0525  0.2044  0.1728
    1TCq1    O214073   1.708   0.191   1.318  0.2802  0.3063  0.0600
    1TCq1    C214074   1.888   0.036   1.322 -0.1403  0.4016  0.0724
    1TCq1    C314075   1.998   4.720   1.388  0.1603  0.6875  0.5865
    1TCq1    C414076   2.120   4.693   1.322 -0.2857  0.7869 -0.4733
    1TCq1    C514077   2.129   4.714   1.188  0.3016  0.6481 -0.2900
    1TCq1    C614078   2.020   0.030   1.117 -0.2815  0.7729 -0.0679
    1TCq1    C714079   1.898   0.067   1.189 -0.4641 -0.1662 -0.2805
    1TCq1    C814080   2.039   0.087   0.981  0.1591  0.1698 -0.0817
    1TCq1    O414081   1.947   0.143   0.927  0.4504  0.3192  0.4528
    1TCq1    C914082   2.237   4.679   1.396 -0.8525  0.4178 -0.3263
    1TCq1    O514083   2.343   4.662   1.330 -0.0143 -0.0401  0.7807
    1TCq1    O614084   2.226   4.680   1.520 -0.0921 -0.0158  0.3551
    1TCq1    H114085   1.795   4.694   1.513  0.1387  0.3901  1.4120
    1TCq1    H214086   2.003   0.010   1.495 -0.2523  1.2499  0.5380
    1TCq1    H314087   2.219   4.678   1.141 -1.5964 -1.8403 -1.9761
    1TCq1    H414088   1.819   0.098   1.123  0.4423  1.1328 -0.7624
    2MPD1     C14089   2.340   0.190   0.579  0.0935  0.0176  0.1132
    2MPD1    C114090   2.422   0.149   0.687  0.0922 -1.0592 -0.0936
    2MPD1    C214091   2.360   0.132   0.815 -0.3256  0.1642 -0.2068
    2MPD1    C314092   2.227   0.136   0.830 -0.2678 -0.3578 -0.2025
    2MPD1    C414093   2.153   0.152   0.717 -0.2870 -0.3767 -0.1506
    2MPD1    C514094   2.202   0.194   0.598 -0.0993  0.1596 -0.2387
    2MPD1     H14095   2.419   0.127   0.906 -0.6376 -0.7791 -0.0597
    2MPD1    H114096   2.047   0.130   0.720 -0.3009 -0.4056 -0.8877
    2MPD1    H214097   2.372   0.208   0.478  0.0329 -1.1978 -0.1218
    2MPD1    H314098   2.141   0.227   0.515 -0.6676  0.8386  0.4435
    2MPD1     N14099   2.173   0.095   0.947 -0.7572 -0.3249  0.0872
    2MPD1    H514100   2.247   0.067   1.010 -0.2398 -0.6874 -0.6762
    2MPD1    N114101   2.560   0.166   0.673 -0.1517  0.2774  0.2649
    2MPD1    H614102   2.589   0.139   0.580 -0.3419  2.8162 -0.5264
    2MPD1    H714103   2.621   0.125   0.744  1.4472 -1.5065 -2.1776
    1MPD1     C14104   0.510   3.107  12.180 -0.0864  0.2185  0.3991
    1MPD1    C114105   0.501   3.237  12.205 -0.4126  0.1515  0.1933
    1MPD1    C214106   0.614   3.311  12.175 -0.2450 -0.2204 -0.0551
    1MPD1    C314107   0.718   3.263  12.102 -0.5577 -0.3600 -0.6435
    1MPD1    C414108   0.710   3.135  12.055  0.2113 -0.6441  0.0137
    1MPD1    C514109   0.615   3.050  12.105  0.1925 -0.3364  0.0661
    1MPD1     H14110   0.614   3.415  12.206 -3.2894 -0.6023  1.1988
    1MPD1    H114111   0.781   3.087  11.989 -1.9344 -0.4470 -2.4312
    1MPD1    H214112   0.439   3.031  12.210 -0.9361  1.3651  1.2698
    1MPD1    H314113   0.618   2.942  12.093  1.5010 -0.3550  0.6481
    1MPD1     N14114   0.818   3.348  12.064 -0.4284  0.4062 -0.2396
    1MPD1    H514115   0.791   3.445  12.079  0.4090  0.7141 -0.7251
    1MPD1    N114116   0.418   3.279  12.305 -0.5878 -0.8873  0.0727
    1MPD1    H614117   0.398   3.378  12.290 -0.7521 -0.6256  1.9391
    1MPD1    H714118   0.330   3.228  12.294 -0.8624 -0.8635  2.1726
    2MPD1     C14119   0.497   0.375  11.727  0.3511 -0.2829  0.2103
    2MPD1    C114120   0.438   0.336  11.612 -0.3701 -0.6157 -0.7550
    2MPD1    C214121   0.498   0.236  11.534 -0.1892  0.0320 -0.3061
    2MPD1    C314122   0.610   0.169  11.572 -0.2950 -0.4111 -0.2722
    2MPD1    C414123   0.664   0.199  11.689  0.6799 -0.3717  0.6069
    2MPD1    C514124   0.618   0.313  11.754  0.4512 -0.0580  0.0222
    2MPD1     H14125   0.444   0.216  11.442  1.4995  0.2581 -1.3389
    2MPD1    H114126   0.755   0.154  11.729 -0.3261 -1.4322  1.6847
    2MPD1    H214127   0.471   0.463  11.785 -0.4945  0.8957 -1.9435
    2MPD1    H314128   0.688   0.351  11.828  2.3661 -0.7392 -1.4216
    2MPD1     N14129   0.666   0.061  11.510 -0.3138  0.0017  0.0127
    2MPD1    H514130   0.758   0.029  11.539 -0.3896  0.9054  1.2443
    2MPD1    N114131   0.343   0.418  11.554  0.0365  0.4011  0.2526
    2MPD1    H614132   0.280   0.461  11.622 -1.0237 -0.0269 -0.4575
    2MPD1    H714133   0.291   0.382  11.474  2.2502  1.5201 -1.7042
    3MPD1     C14134   0.836   4.394  10.575  0.0499 -0.0789  0.0206
    3MPD1    C114135   0.944   4.408  10.659  0.4460  0.0221  0.7863
    3MPD1    C214136   0.924   4.435  10.789  0.5017  0.9749 -0.2067
    3MPD1    C314137   0.799   4.427  10.836 -0.4240  0.0421 -0.7488
    3MPD1    C414138   0.690   4.392  10.757 -0.3231  0.3197  0.0605
    3MPD1    C514139   0.711   4.392  10.627 -0.0342 -0.2480  0.0008
    3MPD1     H14140   1.001   4.457  10.862  1.1748  0.8384 -0.8764
    3MPD1    H114141   0.587   4.387  10.791  0.3407 -2.4175  1.6397
    3MPD1    H214142   0.847   4.390  10.467 -0.6951  2.5330 -0.1603
    3MPD1    H314143   0.634   4.379  10.552  0.7204 -0.3453 -0.7679
    3MPD1     N14144   0.777   4.446  10.976  0.0888 -0.3103 -0.5121
    3MPD1    H514145   0.858   4.488  11.021  0.2356 -1.8119  0.5992
    3MPD1    N114146   1.067   4.440  10.604  0.0550 -0.1734 -0.6489
    3MPD1    H614147   1.141   4.424  10.672  1.3388 -0.8793 -2.1957
    3MPD1    H714148   1.079   4.387  10.517  2.2122 -1.2308  0.2783
    4MPD2     C14149   1.073   4.062  12.205  0.4004  0.1859  0.4118
    4MPD2    C114150   1.178   3.982  12.160 -0.1022  0.4470  0.1186
    4MPD2    C214151   1.300   4.040  12.143 -0.1702 -0.4865  1.2481
    4MPD2    C314152   1.327   4.175  12.157  0.6137  0.3212 -0.3949
    4MPD2    C414153   1.228   4.256  12.198  0.1830 -0.0034  0.3291
    4MPD2    C514154   1.107   4.196  12.231 -0.1653 -0.2134 -0.3521
    4MPD2     H14155   1.378   3.973  12.108  0.0908  1.7175 -2.3510
    4MPD2    H114156   1.239   4.363  12.214 -2.4078  0.3449 -0.3322
    4MPD2    H214157   0.973   4.030  12.229  0.6723  0.8036  2.3913
    4MPD2    H314158   1.035   4.263  12.278 -0.4906  0.1690 -1.3874
    4MPD2     N14159   1.455   4.223  12.116  0.5050 -0.0451  0.0315
    4MPD2    H514160   1.519   4.155  12.076  1.1724  0.3726  0.3937
    4MPD2    N114161   1.168   3.840  12.121  0.0856  0.4171 -0.6437
    4MPD2    H714162   1.248   3.789  12.084 -1.0309 -0.4734 -1.8249
    5TMC3    C114163   1.055   3.652  12.025  0.6070 -0.3737  0.0437
    5TMC3    C214164   0.989   3.542  12.067 -0.2897 -0.5195 -0.6581
    5TMC3    C314165   1.026   3.425  12.006  0.3431 -0.7455  0.2765
    5TMC3    C414166   1.157   3.653  11.929 -0.3248 -0.0714  0.4613
    5TMC3    C514167   1.181   3.538  11.862  0.1339  0.3821 -0.1113
    5TMC3    C614168   1.117   3.427  11.902  0.1082  0.4259 -0.6802
    5TMC3     C14169   1.045   3.773  12.108  0.1792 -0.1536  0.4460
    5TMC3     O14170   0.936   3.796  12.162  0.2394  0.2693 -0.3471
    5TMC3     H14171   0.919   3.556  12.148 -0.8486 -0.8692 -1.0815
    5TMC3    H114172   1.221   3.739  11.917 -2.3381  1.2650 -0.6400
    5TMC3    H214173   1.147   3.335  11.852  2.3893  1.2448 -0.7988
    5TMC3    C714174   1.306   3.523  11.789  0.2468  0.2304  0.7838
    5TMC3    C814175   0.930   3.322  11.997  0.5542  0.2038  0.3564
    5TMC3    O114176   1.311   3.458  11.685 -0.1588  0.0481 -0.1466
    5TMC3    O214177   0.971   3.211  11.960 -0.7716 -0.3858 -0.0873
    6TMC3    C114178   0.678   4.618  11.352 -0.4367  0.9504  0.0065
    6TMC3    C214179   0.636   4.564  11.239  0.1942 -0.7276 -0.1689
    6TMC3    C314180   0.690   4.449  11.185  0.0340 -0.7057 -0.2828
    6TMC3    C414181   0.773   4.549  11.427 -0.2349 -0.5884 -0.6388
    6TMC3    C514182   0.831   4.436  11.371  0.3085 -0.8088  0.1742
    6TMC3    C614183   0.796   4.387  11.250  0.3330  0.4214 -0.8348
    6TMC3     C14184   0.616   0.015  11.399 -0.3105 -0.0424 -0.5951
    6TMC3     O14185   0.517   0.046  11.343  0.2669 -0.5944 -0.0248
    6TMC3     H14186   0.571   4.618  11.172  1.1732 -1.4228 -1.6984
    6TMC3    H114187   0.815   4.587  11.519 -2.9560  0.5741  0.0971
    6TMC3    H214188   0.846   4.300  11.209 -2.0328 -0.9461 -0.8303
    6TMC3    C714189   0.964   4.390  11.412 -0.2710 -0.5097  0.4008
    6TMC3    C814190   0.656   4.427  11.044  0.0850 -0.2668  0.4415
    6TMC3    O114191   0.972   4.365  11.533 -0.3713  0.3558  0.4891
    6TMC3    O214192   0.550   4.367  11.032  0.0631 -0.4383  0.8092
    7MPD2     C14193   1.695   3.777  11.618 -0.3085 -0.4055 -0.7189
    7MPD2    C114194   1.654   3.834  11.736 -0.6708 -0.0687  0.3782
    7MPD2    C214195   1.566   3.767  11.813 -0.0190 -0.1678  0.0900
    7MPD2    C314196   1.510   3.647  11.775 -0.2330 -0.0560  0.1401
    7MPD2    C414197   1.556   3.592  11.657 -0.0119 -0.0917 -0.2143
    7MPD2    C514198   1.644   3.658  11.577 -0.0090  0.9645  0.0159
    7MPD2     H14199   1.528   3.828  11.894  3.3682  0.0721  1.5074
    7MPD2    H114200   1.510   3.502  11.619 -0.4170  0.6826 -1.5719
    7MPD2    H214201   1.761   3.831  11.552  0.3270 -0.1269  0.1402
    7MPD2    H314202   1.682   3.619  11.484 -0.1010 -0.4221  0.5523
    7MPD2     N14203   1.401   3.603  11.846  0.0500 -0.1674 -0.3851
    7MPD2    H514204   1.383   3.641  11.937  1.3677 -0.6329  0.0743
    7MPD2    N114205   1.692   3.969  11.765 -0.3508 -0.4944  0.2298
    7MPD2    H714206   1.744   4.013  11.690  0.8059 -1.1829  0.6303
    8TMC3    C114207   1.697   4.191  11.861 -0.1099  0.4307 -0.0449
    8TMC3    C214208   1.639   4.235  11.749 -0.7509 -0.6729  0.5309
    8TMC3    C314209   1.561   4.352  11.756  0.7899  0.1874  0.0413
    8TMC3    C414210   1.682   4.246  11.985  0.2320  0.5637  0.7652
    8TMC3    C514211   1.597   4.354  11.995  0.6229 -0.7093 -0.0784
    8TMC3    C614212   1.547   4.413  11.881 -0.0933  0.3099 -0.4510
    8TMC3     C14213   1.678   4.045  11.880 -0.4617 -0.3934  0.6047
    8TMC3     O14214   1.638   4.007  11.986 -0.4718 -0.6698 -0.4659
    8TMC3     H14215   1.650   4.177  11.658  0.5724  0.6051 -0.1273
    8TMC3    H114216   1.709   4.197  12.078  0.9597 -1.3665 -0.4741
    8TMC3    H214217   1.469   4.488  11.885 -1.3478 -0.9580 -1.0094
    8TMC3    C714218   1.494   4.350  12.100  0.9673 -0.2968  0.1792
    8TMC3    C814219   1.443   4.348  11.668  0.9238  0.0766  0.8138
    8TMC3    O114220   1.435   4.457  12.120  0.1565 -0.1512 -0.6187
    8TMC3    O214221   1.336   4.376  11.722 -0.3603 -0.0117 -0.1353
    9MPD2     C14222   1.454   4.330  11.299  0.0444  0.3814 -0.5543
    9MPD2    C114223   1.393   4.336  11.422 -0.1083  0.0145  0.4557
    9MPD2    C214224   1.258   4.345  11.437  0.1213  0.6250 -0.1053
    9MPD2    C314225   1.186   4.361  11.318 -0.5729 -0.1445  1.0058
    9MPD2    C414226   1.245   4.352  11.198 -0.4982  0.4290 -0.2276
    9MPD2    C514227   1.377   4.333  11.186 -0.2705 -0.2177 -0.6638
    9MPD2     H14228   1.208   4.336  11.533  0.0772  2.2705  0.0198
    9MPD2    H114229   1.192   4.372  11.106  0.0473 -3.5355 -1.3737
    9MPD2    H214230   1.560   4.329  11.279  0.2388  1.2345  0.4710
    9MPD2    H314231   1.417   4.344  11.086  1.7540 -2.4514 -0.0943
    9MPD2     N14232   1.052   4.395  11.307  0.2223 -0.0693  0.6021
    9MPD2    H514233   1.018   4.433  11.219  0.8107  1.9301  1.2368
    9MPD2    N114234   1.477   4.318  11.536 -0.3619  0.2711  0.1351
    9MPD2    H714235   1.575   4.307  11.509 -0.8160  1.0223 -1.8304
    1MPD1     C14236   0.217   3.550   0.192 -0.5645 -0.0020  0.9499
    1MPD1    C114237   0.348   3.497   0.171  0.4915  0.3053 -0.8072
    1MPD1    C214238   0.364   3.366   0.133  0.0421  0.1290 -0.6610
    1MPD1    C314239   0.250   3.291   0.110 -0.1892 -0.0487  0.6814
    1MPD1    C414240   0.122   3.342   0.123 -0.1135  0.4401 -0.5466
    1MPD1    C514241   0.108   3.472   0.164  0.9049 -0.7174 -0.5742
    1MPD1     H14242   0.458   3.312   0.143  0.2782  0.4943 -0.9395
    1MPD1    H114243   0.027   3.291   0.115  0.6216 -0.8230 -1.3597
    1MPD1    H214244   0.204   3.653   0.225  3.0413  1.3421 -1.9257
    1MPD1    H314245   0.006   3.507   0.174 -0.1135 -3.4593 -1.1533
    1MPD1     N14246   0.265   3.155   0.073  0.2338  0.4799  0.3454
    1MPD1    H514247   0.182   3.097   0.080  1.3035 -1.2563 -1.2645
    1MPD1    N114248   0.461   3.578   0.200 -0.0548 -0.0239 -0.2556
    1MPD1    H614249   0.440   3.667   0.157 -0.0844 -0.8784 -2.0002
    1MPD1    H714250   0.548   3.548   0.157  0.0558  0.0442 -0.0810
    2MPD1     C14251   0.781   2.251  17.346  0.7606 -0.6288 -0.0100
    2MPD1    C114252   0.672   2.216  17.427 -0.4695  0.2243  0.1565
    2MPD1    C214253   0.592   2.318  17.480  0.1564  0.5480 -0.2897
    2MPD1    C314254   0.620   2.451  17.465  0.3818  0.3781 -0.4485
    2MPD1    C414255   0.730   2.489  17.391  0.6025 -0.2002  0.5651
    2MPD1    C514256   0.812   2.389  17.336 -0.3222  0.0610 -0.1661
    2MPD1     H14257   0.506   2.283  17.536 -0.2337  0.8081 -0.7304
    2MPD1    H114258   0.752   2.593  17.371  1.9445 -0.2791  1.5829
    2MPD1    H214259   0.849   2.185  17.294 -1.4256 -4.0225  1.4525
    2MPD1    H314260   0.896   2.421  17.276  1.1363 -2.1338  0.7260
    2MPD1     N14261   0.543   2.548  17.541 -0.1150  0.3872 -1.1863
    2MPD1    H514262   0.467   2.505  17.592  0.4410 -0.3451 -0.9737
    2MPD1    N114263   0.634   2.084  17.428 -0.1077  0.0522  0.2924
    2MPD1    H614264   0.703   2.009  17.418 -0.9674 -1.0710  2.8046
    2MPD1    H714265   0.580   2.060  17.511 -0.3524 -3.7625 -0.9482
    3TCq2    C114266   0.563   2.683  17.553 -0.9829 -0.0279  0.8492
    3TCq2    O214267   0.658   2.749  17.512 -0.2829 -0.2145 -0.6870
    3TCq2    C214268   0.454   2.747  17.624  0.1453  0.7688 -0.4956
    3TCq2    C314269   0.358   2.674  17.693  0.6233  0.0005  0.4003
    3TCq2    C414270   0.276   2.749   0.086 -0.5244  0.3266 -0.1906
    3TCq2    C514271   0.285   2.883   0.099 -0.9736 -0.4244 -0.7074
    3TCq2    C614272   0.377   2.951   0.021 -0.3051  0.0323  0.4088
    3TCq2    C714273   0.465   2.885  17.632 -0.2671  1.0328 -0.5385
    3TCq2    C814274   0.386   3.099   0.030 -0.8777  0.7087  1.3909
    3TCq2    O414275   0.494   3.147  17.686 -0.1140 -0.1207 -0.3634
    3TCq2    C914276   0.177   2.676   0.167  0.0204  1.0067  0.3476
    3TCq2    O514277   0.083   2.731   0.225  0.5028  0.0035 -0.1400
    3TCq2    O614278   0.179   2.550   0.156  0.0991  0.0151  0.0754
    3TCq2    H214279   0.353   2.567   0.011  1.9734 -0.0820  0.2040
    3TCq2    H314280   0.216   2.927   0.171 -1.1384  1.8341 -2.2243
    3TCq2    H414281   0.549   2.933  17.583  1.0004 -0.5993 -0.0056
    1TCq1    O114282   2.956   2.775  12.510 -0.0320 -0.1742 -0.3809
    1TCq1    C114283   3.074   2.819  12.470 -0.0377 -0.6563 -0.3093
    1TCq1    O214284   3.131   2.791  12.367 -0.6316 -0.0223  0.5107
    1TCq1    C214285   3.123   2.907  12.576  0.0370 -0.1013  0.0580
    1TCq1    C314286   3.073   2.891  12.707  0.0168  0.1232  0.1423
    1TCq1    C414287   3.148   2.941  12.807  0.3999  0.2675 -0.3345
    1TCq1    C514288   3.264   3.005  12.788  1.2299  0.1678  0.2179
    1TCq1    C614289   3.310   3.016  12.663  0.1841  0.7274  0.2152
    1TCq1    C714290   3.244   2.971  12.553 -0.3597 -0.1684  0.1883
    1TCq1    C814291   3.446   3.054  12.625  0.1175 -0.1970 -0.7411
    1TCq1    O414292   3.462   3.083  12.503  0.1518 -0.7601  0.2885
    1TCq1    C914293   3.110   2.923  12.944 -0.2402  0.7891  0.1961
    1TCq1    O514294   2.988   2.895  12.960 -0.4533 -0.7887  0.2225
    1TCq1    O614295   3.210   2.914  13.023  0.0827  0.0968  0.0586
    1TCq1    H114296   2.907   2.845  12.558 -0.6324 -0.1444 -1.0535
    1TCq1    H214297   2.983   2.837  12.734  0.0581  1.2921  2.6691
    1TCq1    H314298   3.310   3.046  12.876  0.7229 -2.2362  1.6222
    1TCq1    H414299   3.292   2.954  12.457  0.2403 -0.9954  0.6292
    2MPD2     C14300   3.744   3.101  12.606 -0.0163 -0.0067 -0.5183
    2MPD2    C114301   3.681   3.066  12.723 -0.2769 -0.4466  0.5917
    2MPD2    C214302   3.759   3.032  12.830 -0.3669  0.3917  0.5034
    2MPD2    C314303   3.892   3.058  12.836 -0.9284 -0.1090 -0.4480
    2MPD2    C414304   3.953   3.092  12.720  0.2198  0.3487  0.1949
    2MPD2    C514305   3.881   3.116  12.611 -0.0937  0.4034 -0.0277
    2MPD2     H14306   3.716   2.981  12.916 -1.1756 -0.4096 -0.3780
    2MPD2    H114307   4.061   3.097  12.709  0.1210 -1.6785 -1.5671
    2MPD2    H214308   3.695   3.111  12.509 -0.3940  1.0544 -0.2244
    2MPD2    H314309   3.927   3.148  12.518 -0.1130 -0.8483 -0.4708
    2MPD2     N14310   3.960   3.035  12.956 -0.1464  0.4769 -0.4524
    2MPD2    H514311   3.900   3.020  13.037  1.3097 -1.0872  0.3356
    2MPD2    N114312   3.536   3.038  12.730  0.1812  0.1071  0.2279
    2MPD2    H714313   3.489   3.009  12.815  0.7852  1.1483  0.9265
    3TCq1    O114314   4.432   2.781  13.225  0.0407  0.1033 -0.4119
    3TCq1    C114315   4.320   2.761  13.295  0.1511  0.4075  0.9699
    3TCq1    O214316   4.284   2.667  13.360  0.2713 -0.4192 -0.2785
    3TCq1    C214317   4.222   2.864  13.252 -0.3372 -0.7679 -1.1283
    3TCq1    C314318   4.147   2.906  13.350  0.2993 -0.0057  0.1560
    3TCq1    C414319   4.065   3.015  13.319 -0.3846  0.8519  0.1391
    3TCq1    C514320   4.062   3.074  13.195 -0.8879  0.2661  0.2027
    3TCq1    C614321   4.145   3.019  13.099  0.3542 -0.0014  0.2731
    3TCq1    C714322   4.236   2.919  13.126 -0.0878 -0.1396  0.0055
    3TCq1    C814323   4.093   3.019  12.963  0.3397  0.3922 -0.3982
    3TCq1    O414324   4.176   2.996  12.874  0.6033  1.0241 -0.9908
    3TCq1    C914325   3.978   3.061  13.424  0.4796  0.6810  0.1896
    3TCq1    O514326   3.958   2.983  13.524 -0.1424 -0.1158 -0.1834
    3TCq1    O614327   3.916   3.167  13.409  0.2916  0.6253  0.0465
    3TCq1    H114328   4.443   2.877  13.208  2.3816  0.0315  0.7121
    3TCq1    H214329   4.144   2.856  13.447  0.0300 -1.0181 -0.3753
    3TCq1    H314330   3.982   3.142  13.169 -0.2185  0.8120 -0.4452
    3TCq1    H414331   4.303   2.878  13.051  0.3247  0.8848 -0.1756
    1MPD2     C14332   2.993   3.448  14.799 -0.0267 -0.8413  1.1020
    1MPD2    C114333   2.957   3.377  14.687  0.3322  0.4705 -0.1343
    1MPD2    C214334   3.060   3.313  14.615 -0.4021  0.0453  0.1954
    1MPD2    C314335   3.179   3.296  14.673 -0.5586 -0.1207  0.3310
    1MPD2    C414336   3.210   3.351  14.794 -0.5609 -0.8350  0.1544
    1MPD2    C514337   3.117   3.429  14.854 -0.7404 -0.7088 -0.7736
    1MPD2     H14338   3.052   3.285  14.511  1.1953 -1.2766  0.4447
    1MPD2    H114339   3.306   3.337  14.844 -1.1233  0.1942  1.5283
    1MPD2    H214340   2.915   3.486  14.865  1.7552 -0.6015  3.0613
    1MPD2    H314341   3.139   3.464  14.954  2.3946 -2.8448 -0.7002
    1MPD2     N14342   3.271   3.226  14.598 -0.9044 -0.0266  0.4161
    1MPD2    H514343   3.233   3.185  14.513  1.7878  1.4844 -1.5092
    1MPD2    N114344   2.818   3.378  14.648  0.6274 -0.6144  0.2201
    1MPD2    H714345   2.761   3.420  14.720  1.7612  0.9753  0.1749
    2TMC3    C114346   2.620   3.301  14.550  0.4749  0.2313  0.0107
    2TMC3    C214347   2.589   3.182  14.494  0.2104 -0.4010 -0.4412
    2TMC3    C314348   2.515   3.172  14.379  0.3577 -0.0087  0.4386
    2TMC3    C414349   2.565   3.415  14.496 -0.2556 -0.2533  0.2095
    2TMC3    C514350   2.480   3.401  14.391 -0.4328 -0.0025 -0.3313
    2TMC3    C614351   2.457   3.280  14.325 -0.1825 -0.1660  0.0194
    2TMC3     C14352   2.765   3.299  14.559  0.0580 -0.3957 -0.4063
    2TMC3     O14353   2.820   3.213  14.492  0.2661  0.0823  0.3435
    2TMC3     H14354   2.633   3.097  14.544  1.4540  0.0396 -0.7715
    2TMC3    H114355   2.565   3.506  14.556 -1.4451 -0.9796  1.3050
    2TMC3    H214356   2.401   3.269  14.233  1.5013 -0.4019 -0.9857
    2TMC3    C714357   2.404   3.520  14.339  0.5943  0.0796  0.0724
    2TMC3    C814358   2.560   3.074  14.284 -0.8323  0.0404 -0.1337
    2TMC3    O114359   2.307   3.507  14.260  0.4122  0.2114  0.0248
    2TMC3    O214360   2.475   3.022  14.216  0.2108 -0.1722 -0.4730
    3TCq1    O114361   2.712   4.717  14.428 -0.2480  0.3936  0.1839
    3TCq1    C114362   2.792   4.674  14.326  0.1909  0.0171  0.6282
    3TCq1    O214363   2.896   0.007  14.294 -0.5495 -0.1602 -0.3904
    3TCq1    C214364   2.793   4.532  14.343 -0.0869  0.4457  0.2528
    3TCq1    C314365   2.909   4.480  14.397  0.1713  0.2912 -0.6577
    3TCq1    C414366   2.911   4.354  14.456 -0.3455  0.3519  0.1381
    3TCq1    C514367   2.802   4.271  14.441 -0.3398 -0.3905  0.0213
    3TCq1    C614368   2.686   4.327  14.395 -0.2978 -0.8114  0.4914
    3TCq1    C714369   2.673   4.456  14.351  0.1327  0.1278 -0.4669
    3TCq1    C814370   2.565   4.246  14.379  0.5512 -0.3074 -0.0892
    3TCq1    O414371   2.465   4.301  14.341  0.0129  0.1119 -0.3382
    3TCq1    C914372   3.025   4.303  14.530  0.3457 -0.0149  0.2674
    3TCq1    O514373   3.121   4.382  14.542 -0.0483 -0.1269 -0.9948
    3TCq1    O614374   3.021   4.184  14.567  0.5809  0.4467 -0.0416
    3TCq1    H114375   2.676   4.643  14.482  1.2554  0.6383  1.5221
    3TCq1    H214376   2.998   4.542  14.398  0.5571 -0.2940  0.9759
    3TCq1    H314377   2.801   4.184  14.505  0.4360  0.8251  1.7021
    3TCq1    H414378   2.578   4.493  14.313  0.7268  0.2104 -1.8755
    4MPD2     C14379   2.350   4.032  14.332 -0.5377 -0.0677 -0.1653
    4MPD2    C114380   2.473   4.014  14.389  0.8582 -0.0239  0.4322
    4MPD2    C214381   2.512   3.881  14.396 -0.1454  0.1576  0.3768
    4MPD2    C314382   2.430   3.774  14.354  0.3918 -0.5627 -0.2357
    4MPD2    C414383   2.307   3.797  14.304 -0.2899 -0.3295  0.0048
    4MPD2    C514384   2.267   3.929  14.304  0.2131 -0.4956 -0.5199
    4MPD2     H14385   2.611   3.859  14.433  0.9732 -0.4678 -3.0683
    4MPD2    H114386   2.239   3.713  14.290  1.2142 -2.2065  3.9353
    4MPD2    H214387   2.309   4.132  14.333  2.6007  1.2565 -1.9525
    4MPD2    H314388   2.165   3.957  14.280  0.6156  2.2846  0.9909
    4MPD2     N14389   2.470   3.636  14.384  0.1378  0.0760 -0.6890
    4MPD2    H514390   2.534   3.627  14.463  0.8940 -2.5068 -1.5783
    4MPD2    N114391   2.575   4.114  14.412  0.2907 -0.5440  0.1343
    4MPD2    H714392   2.657   4.086  14.465 -1.0810  1.0973  3.1208
    5TMC2    C114393   3.340   2.985  14.364 -0.7561  0.4033 -0.0259
    5TMC2    C214394   3.389   2.870  14.422  0.1031  0.0510 -0.7717
    5TMC2    C314395   3.489   2.889  14.504 -0.3463  0.3244  0.1483
    5TMC2    C414396   3.382   3.111  14.403  0.4544  0.4913  0.2632
    5TMC2    C514397   3.458   3.117  14.514  0.0988  0.5370  0.0050
    5TMC2    C614398   3.526   3.006  14.563  0.3328 -0.0664 -0.4050
    5TMC2     C14399   3.198   2.986  14.353 -0.8912 -0.6533  0.0853
    5TMC2     O14400   3.154   3.084  14.407  0.1963  0.8089  0.5902
    5TMC2     H14401   3.341   2.774  14.407 -0.6641  0.2182  0.6108
    5TMC2    H114402   3.342   3.201  14.357  0.0981  0.2077  0.0234
    5TMC2    H214403   3.597   3.017  14.645  0.6834  0.0401 -0.7205
    5TMC2    C714404   3.403   3.213  14.614 -0.5587 -0.1914  0.3005
    5TMC2    C814405   3.532   2.777  14.578 -0.6310 -0.0475  0.4594
    5TMC2    O114406   3.469   3.241  14.711  0.4204 -0.5471  0.0846
    5TMC2    O214407   3.458   2.744  14.670 -0.0374  0.4938 -1.0042
    5TMC2    O514408   3.661   2.796  14.588 -0.2744  0.9869 -0.3392
    5TMC2    H514409   3.708   2.840  14.514  0.4150 -2.0452 -1.6923
    6MPD2     C14410   2.736   2.884  14.125 -0.6654 -0.5136 -0.0969
    6MPD2    C114411   2.782   2.971  14.226 -0.5393 -0.7514  0.3697
    6MPD2    C214412   2.913   2.979  14.271  0.4907 -0.3343 -0.3253
    6MPD2    C314413   3.011   2.901  14.215 -0.0683 -0.6864  0.0540
    6MPD2    C414414   2.969   2.818  14.111  0.1173  0.1991 -0.0939
    6MPD2    C514415   2.840   2.809  14.071  0.5568  0.9935  0.2052
    6MPD2     H14416   2.936   3.054  14.345 -0.7766  1.5870 -1.8836
    6MPD2    H114417   3.036   2.756  14.053  0.8402  0.0662  0.8958
    6MPD2    H214418   2.633   2.875  14.095 -1.3942  0.3383  2.1393
    6MPD2    H314419   2.816   2.740  13.991 -2.2790  3.2386 -0.8663
    6MPD2     N14420   3.148   2.892  14.263 -0.0093 -0.2518 -0.4115
    6MPD2    H514421   3.198   2.822  14.209  0.5694  0.0628 -0.2880
    6MPD2    N114422   2.696   3.062  14.294  0.2685  0.5323  0.6083
    6MPD2    H714423   2.735   3.135  14.353  0.3002  0.2225  0.9693
  945NH3     N114424   3.814   3.569   0.019 -1.2222  0.3837  0.0286
  945NH3     H214425   3.831   3.497   0.089  0.3269 -0.0477 -0.7963
  945NH3     H314426   3.823   3.519  17.627  0.9298  3.9701 -1.7904
  945NH3     H414427   3.713   3.567   0.014 -1.0995  0.8172 -2.3444
  946SOD     NA14428   2.320   1.880  15.235  0.0891  0.0513  0.2608
  947SOD     NA14429   0.236   3.533  15.345 -0.1601  0.2808 -0.0360
  948SOD     NA14430   0.428   1.505  13.061 -0.6466  0.1946  0.2350
  949SOD     NA14431   1.984   0.975   9.272 -0.4126 -0.0331  0.2118
  950SOD     NA14432   0.051   0.110   7.310  0.0098  0.5850 -0.1040
  951SOD     NA14433   1.213   0.095  10.493 -0.0553  0.6653 -0.0028
  952SOD     NA14434   2.238   2.209  13.055  0.2184 -0.0276  0.1796
  953SOD     NA14435   4.527   2.383   0.246 -0.0000 -0.2570  0.0506
  954SOD     NA14436   3.895   2.391  11.673  0.1982 -0.2976  0.2508
  955SOD     NA14437   2.966   3.033  10.122 -0.0393  0.3154  0.0705
  956SOD     NA14438   4.230   2.489  11.521 -0.6503 -0.1246  0.0525
  957SOD     NA14439   1.257   1.829  14.398  0.2889  0.3532  0.0885
  958SOD     NA14440   2.312   1.398   1.810  0.4963 -0.2203  0.1345
  959SOD     NA14441   1.609   0.601  16.235  0.4990 -0.3717  0.1015
  960SOD     NA14442   0.038   3.969  12.942 -0.0504 -0.1641 -0.0494
  961SOD     NA14443   0.475   3.557   0.431  0.3455 -0.5897  0.0499
  962SOD     NA14444   0.187   0.241   3.208 -0.3631  0.2353  0.3239
  963SOD     NA14445   1.568   0.185   0.439 -0.0994  0.6294  0.3746
  964SOD     NA14446   0.541   3.434   4.326  0.1407 -0.1008 -0.0298
  965SOD     NA14447   2.915   1.333  10.413 -0.2476 -0.1195 -0.2838
  966SOD     NA14448   3.680   0.320   9.664 -0.2069  0.0008 -0.1456
  967SOD     NA14449   2.627   2.564  10.894 -0.2251  0.0329  0.2626
  968SOD     NA14450   0.773   3.685  15.057  0.1521 -0.2216 -0.1882
  969SOD     NA14451   2.404   1.690   9.200 -0.1263 -0.0630  0.2812
  970SOD     NA14452   1.391   1.379   8.865 -0.1448 -0.4791  0.4319
  971SOD     NA14453   2.872   2.592  15.677  0.5720  0.1142 -0.3367
  972SOD     NA14454   0.410   3.526  10.973 -0.1518 -0.2825 -0.0894
  973SOD     NA14455   3.254   2.735   9.727 -0.0655 -0.1983 -0.3742
  974SOD     NA14456   3.165   3.933  14.987 -0.4215 -0.1739 -0.2900
  975SOD     NA14457   3.461   3.166   2.383 -0.2473 -0.4680  0.6206
  976SOD     NA14458   0.424   0.996   2.583 -0.2190  0.1853  0.2078
  977SOD     NA14459   2.127   3.489  10.378 -0.2248 -0.2353 -0.0471
  978SOD     NA14460   0.118   3.332   0.744 -0.8125 -0.4535 -0.4181
  979SOD     NA14461   1.641   4.423   8.111  0.1695 -0.0025 -0.1221
  980SOD     NA14462   3.324   4.290  14.577 -0.1496 -0.0112  0.0266
  981SOD     NA14463   3.258   1.369  10.314  0.0783  0.2164 -0.5188
  982SOD     NA14464   4.063   1.383  17.287  0.3326  0.2147  0.2317
  983SOD     NA14465   3.310   0.358  15.304  0.1379  0.1205 -0.3498
  984SOD     NA14466   3.587   0.222  10.708  0.0402 -0.0031 -0.6370
  985SOD     NA14467   4.655   0.294  12.638 -0.0466  0.0850 -0.1986
  986SOD     NA14468   3.027   1.533  10.111  0.3093 -0.0733  0.0085
  987SOD     NA14469   1.834   4.491   0.745 -0.0534  0.0598 -0.2774
  988SOD     NA14470   0.810   2.995  16.237  0.8863  0.3939 -0.5578
  989SOD     NA14471   1.111   1.865  16.119 -0.3655  0.3381  0.0684
  990SOD     NA14472   3.942   2.371   0.329  0.6533  0.0999 -0.3393
  991SOD     NA14473   4.218   2.356  14.869 -0.2926  0.5835  0.5208
  992SOD     NA14474   4.620   0.854  14.003 -0.0110  0.4713  0.5173
  993SOD     NA14475   1.067   2.248  11.979 -0.2211 -0.1777 -0.1833
  994SOD     NA14476   0.558   2.317   9.847  0.0314 -0.1845 -0.1180
  995SOD     NA14477   0.641   2.311  13.326 -0.3540  0.0075 -0.2942
  996SOD     NA14478   3.838   2.994  10.539  0.4715 -0.0440  0.0433
  997SOD     NA14479   2.749   2.273   2.841  0.0772  0.1959  0.0923
  998SOD     NA14480   0.832   3.091   0.459 -0.1594 -0.1097 -0.3144
  999SOD     NA14481   0.740   2.239   0.319  0.0863  0.6656  0.6509
 1000SOD     NA14482   4.193   2.454  11.852  0.2398  0.4225  0.2359
 1001SOD     NA14483   3.761   2.669   9.642  0.0946 -0.1233 -0.5309
 1002SOD     NA14484   1.263   3.412  12.915  0.0286  0.2684 -0.6723
 1003SOD     NA14485   3.535   2.844  11.479  0.3619 -0.2565 -0.2639
 1004SOD     NA14486   3.389   1.599  10.193 -0.0428 -0.2436  0.0913
 1005SOD     NA14487   1.980   1.979  12.981  0.0913  0.3238 -0.3465
 1006SOD     NA14488   0.364   2.404   1.724  0.1347  0.2967 -0.4073
 1007SOD     NA14489   2.647   2.999  10.127 -0.4293  0.5382  0.2507
 1008SOD     NA14490   3.503   3.576  14.241 -0.2832 -0.2583  0.0353
 1009SOD     NA14491   0.723   0.990   1.742 -0.2431 -0.1916  0.0228
 1010SOD     NA14492   1.409   4.068   4.223  0.3010 -0.0371  0.0358
 1011SOD     NA14493   0.765   3.155   5.431  0.2969  0.5174  0.2718
 1012SOL     OW14494   4.193   2.920   2.311  0.5437 -0.0252  0.6973
 1012SOL    HW114495   4.182   2.890   2.220  0.6756  0.3417  0.5618
 1012SOL    HW214496   4.150   2.844   2.350  1.5291 -0.4842  0.9026
 1013SOL     OW14497   1.066   3.594   6.596 -0.8639 -0.4399  0.1334
 1013SOL    HW114498   1.069   3.628   6.507  1.3257 -1.3145 -0.1317
 1013SOL    HW214499   1.116   3.666   6.635 -1.7531  0.2621 -0.0425
 1014SOL     OW14500   1.438   2.337   0.636  0.2307  0.7427 -0.4550
 1014SOL    HW114501   1.379   2.374   0.570  1.1389  1.3471 -0.9366
 1014SOL    HW214502   1.416   2.383   0.716  0.2858 -0.7501  0.4157
 1015SOL     OW14503   4.150   0.421   6.690 -0.2521 -0.3273  0.2238
 1015SOL    HW114504   4.208   0.489   6.656 -0.9571  1.0020  1.6810
 1015SOL    HW214505   4.218   0.363   6.726 -1.1733 -2.6120 -1.7106
 1016SOL     OW14506   3.846   3.612   8.021 -0.3415 -0.3022  0.1268
 1016SOL    HW114507   3.882   3.616   7.933  0.0044 -1.2451  0.2192
 1016SOL    HW214508   3.849   3.517   8.025 -3.1198 -0.3311  1.5781
 1017SOL     OW14509   3.453   4.002  12.401  0.7013  0.1917  0.3014
 1017SOL    HW114510   3.519   4.046  12.346  1.3404 -1.2397 -0.0926
 1017SOL    HW214511   3.501   3.929  12.440  0.9685 -0.7617 -1.7922
 1018SOL     OW14512   3.759   3.725  16.961 -0.1547  0.1677 -0.2974
 1018SOL    HW114513   3.852   3.747  16.971 -0.6290  1.2313  1.6006
 1018SOL    HW214514   3.729   3.739  17.051 -0.3338  1.8647 -0.6263
 1019SOL     OW14515   3.857   3.740   1.465 -0.1608 -0.4040  0.2606
 1019SOL    HW114516   3.817   3.780   1.388  1.6208 -1.2743 -1.1186
 1019SOL    HW214517   3.950   3.727   1.450  0.2086  2.1264  0.3881
 1020SOL     OW14518   2.766   2.243  15.609  0.3021 -0.5474  0.0508
 1020SOL    HW114519   2.854   2.226  15.577 -0.1249 -1.3156 -0.7063
 1020SOL    HW214520   2.770   2.234  15.705 -2.9567  1.3912  0.3881
 1021SOL     OW14521   4.374   1.647   9.053 -0.9046 -0.5267  0.5361
 1021SOL    HW114522   4.386   1.603   8.969  2.0378  1.0503  0.1076
 1021SOL    HW214523   4.309   1.592   9.096 -2.1149  0.2930 -0.2260
 1022SOL     OW14524   1.054   4.237   6.700  0.5460  0.2039 -0.1261
 1022SOL    HW114525   1.076   4.317   6.747 -1.3568  0.6169  0.0397
 1022SOL    HW214526   1.000   4.190   6.764  1.1874 -0.0957  0.2015
 1023SOL     OW14527   4.413   4.340  17.331  0.0652 -0.4088 -0.0727
 1023SOL    HW114528   4.322   4.363  17.317  0.1130  0.3302  0.8701
 1023SOL    HW214529   4.456   4.392  17.263  1.6401 -0.5305  0.8310
 1024SOL     OW14530   0.158   3.103   2.306 -0.2881 -0.8088 -0.0072
 1024SOL    HW114531   0.205   3.133   2.228  1.5557 -1.4288  0.8878
 1024SOL    HW214532   0.099   3.178   2.309  0.2080 -0.4642  0.9295
 1025SOL     OW14533   2.739   1.560   1.877 -0.4097 -0.1096 -0.3734
 1025SOL    HW114534   2.746   1.570   1.782  2.6240  0.8908 -0.0241
 1025SOL    HW214535   2.676   1.488   1.875  0.9649 -1.3043 -0.7893
 1026SOL     OW14536   1.278   3.376   6.822  0.3696 -0.1615 -0.3647
 1026SOL    HW114537   1.265   3.471   6.817 -0.2012 -0.1347  1.9717
 1026SOL    HW214538   1.328   3.357   6.901  1.0638  0.8495 -0.5498
 1027SOL     OW14539   3.081   4.225   5.715 -0.7898  0.2648 -0.6452
 1027SOL    HW114540   3.134   4.183   5.648  0.8788  1.2156  0.0735
 1027SOL    HW214541   3.116   4.196   5.799 -0.9697 -0.9397 -0.9878
 1028SOL     OW14542   3.332   3.650   7.137  0.3582 -0.1105  0.1723
 1028SOL    HW114543   3.257   3.594   7.157 -0.6138  0.7768 -1.0988
 1028SOL    HW214544   3.326   3.704   7.216 -1.8465 -0.4644  0.2394
 1029SOL     OW14545   1.187   1.269  13.939 -0.3320  0.1882  0.1464
 1029SOL    HW114546   1.246   1.212  13.891  0.9773  0.3159  1.5931
 1029SOL    HW214547   1.104   1.233  13.909 -1.2595  1.8730  0.6644
 1030SOL     OW14548   2.563   0.736   2.481 -0.3977  0.9512 -0.2798
 1030SOL    HW114549   2.497   0.712   2.547  0.9098  0.0638  0.7087
 1030SOL    HW214550   2.584   0.653   2.438  1.9106  2.4075 -1.9592
 1031SOL     OW14551   4.384   2.790   8.175  1.1060 -0.1869  0.0345
 1031SOL    HW114552   4.418   2.841   8.101  0.4183  0.1426 -0.0544
 1031SOL    HW214553   4.289   2.802   8.177  1.2297  0.6187  0.8549
 1032SOL     OW14554   3.120   0.007   0.472  0.3985  0.8176 -0.2298
 1032SOL    HW114555   3.077   0.021   0.556 -1.3223 -0.5367 -0.8744
 1032SOL    HW214556   3.047   0.035   0.416 -1.0705  2.2549  2.4278
 1033SOL     OW14557   2.969   1.674   6.172 -0.5228 -0.1306  0.6711
 1033SOL    HW114558   2.989   1.762   6.139  1.6806 -0.7633  0.3796
 1033SOL    HW214559   3.053   1.632   6.156 -0.1591  1.2088 -1.0316
 1034SOL     OW14560   4.110   2.030  11.085 -0.1847 -0.2177  0.6002
 1034SOL    HW114561   4.075   1.941  11.084  0.3234 -0.4139 -0.0295
 1034SOL    HW214562   4.150   2.040  10.999 -2.6453  1.5748 -0.3238
 1035SOL     OW14563   2.938   2.293   2.691  1.0772 -0.1015 -0.1792
 1035SOL    HW114564   3.019   2.253   2.660  0.3409 -0.2712 -1.8696
 1035SOL    HW214565   2.908   2.345   2.616  0.4573 -0.5663 -0.2523
 1036SOL     OW14566   4.548   3.370   3.667 -0.4635  0.2770  0.2267
 1036SOL    HW114567   4.608   3.306   3.707 -0.4269 -0.4025 -0.9136
 1036SOL    HW214568   4.609   3.443   3.667  0.1756 -0.2480  1.0321
 1037SOL     OW14569   2.740   3.363   2.329 -0.0413 -0.3166 -0.5666
 1037SOL    HW114570   2.710   3.282   2.287  0.4921 -0.0898 -1.3726
 1037SOL    HW214571   2.740   3.417   2.251 -3.2652  0.3478 -0.1300
 1038SOL     OW14572   1.385   3.587   5.006 -0.1146 -0.2554  0.1387
 1038SOL    HW114573   1.479   3.582   4.989 -0.1796 -0.3084 -0.1865
 1038SOL    HW214574   1.369   3.503   5.049 -0.6023 -0.6042 -0.7296
 1039SOL     OW14575   2.193   1.979   5.252 -0.3839 -0.6047  0.2695
 1039SOL    HW114576   2.285   1.971   5.277 -0.1720  1.7410  0.3153
 1039SOL    HW214577   2.150   1.901   5.287 -1.7071 -0.0811 -0.1590
 1040SOL     OW14578   1.299   3.850   7.653  0.3602  0.5706  0.2106
 1040SOL    HW114579   1.262   3.867   7.566  1.2809  0.5431 -0.1982
 1040SOL    HW214580   1.389   3.870   7.627  0.1496 -1.3263 -2.0259
 1041SOL     OW14581   2.529   1.185   1.313  0.0920 -0.1090 -0.2418
 1041SOL    HW114582   2.523   1.163   1.220 -0.6480 -0.5230 -0.0961
 1041SOL    HW214583   2.623   1.183   1.328 -0.0579  0.8286  0.7527
 1042SOL     OW14584   0.452   4.257   5.956  0.4038 -0.0191  0.0446
 1042SOL    HW114585   0.365   4.246   5.918  0.0391 -0.8774  1.1345
 1042SOL    HW214586   0.494   4.242   5.871  2.4439 -0.9840  1.2188
 1043SOL     OW14587   3.144   2.557   9.323  0.5023  0.1397  0.4799
 1043SOL    HW114588   3.176   2.645   9.342  0.3103  0.3099  0.0011
 1043SOL    HW214589   3.176   2.508   9.399 -3.0229 -0.8005  1.3766
 1044SOL     OW14590   0.388   4.079   4.942 -0.1373  0.1344  0.4822
 1044SOL    HW114591   0.309   4.042   4.904  0.6127 -0.4775 -0.4704
 1044SOL    HW214592   0.344   4.138   5.004 -0.9874  1.9206 -1.8269
 1045SOL     OW14593   2.508   1.422   5.903 -0.2230  0.6339 -0.1806
 1045SOL    HW114594   2.483   1.480   5.831  2.5157 -0.6592 -2.1357
 1045SOL    HW214595   2.450   1.350   5.877  3.3288 -2.0396 -0.6809
 1046SOL     OW14596   2.678   4.685   6.801  0.0916  0.5650  0.2734
 1046SOL    HW114597   2.753   4.681   6.743  0.1494  0.4335  0.3563
 1046SOL    HW214598   2.609   4.652   6.743 -2.0883  1.1177  2.5181
 1047SOL     OW14599   3.825   1.186   4.712  0.2121 -0.6664  0.2244
 1047SOL    HW114600   3.827   1.242   4.790 -1.3360 -0.3515  0.0370
 1047SOL    HW214601   3.919   1.187   4.693  0.0845  1.6593 -0.3295
 1048SOL     OW14602   4.503   3.421   9.275  0.3187 -0.0213 -0.1683
 1048SOL    HW114603   4.540   3.338   9.304 -0.6782 -0.3084  0.2881
 1048SOL    HW214604   4.544   3.439   9.190  1.9322  1.4322  0.9167
 1049SOL     OW14605   1.139   0.022   2.999  0.0114 -0.1668  0.0608
 1049SOL    HW114606   1.131   0.046   2.907 -0.2687  0.4217  0.2436
 1049SOL    HW214607   1.083   0.083   3.047  2.1069  1.4123  0.4853
 1050SOL     OW14608   1.489   1.856  13.092  0.5585  0.2072  0.0945
 1050SOL    HW114609   1.571   1.883  13.133  0.2209  0.8959  0.3258
 1050SOL    HW214610   1.525   1.819  13.012  0.0655  2.7305 -1.3032
 1051SOL     OW14611   1.266   0.044   6.164  0.1398  0.0874 -0.1206
 1051SOL    HW114612   1.178   0.070   6.189  0.7935 -2.2867  4.6720
 1051SOL    HW214613   1.275   4.688   6.216 -0.3055 -0.1379 -0.3840
 1052SOL     OW14614   0.835   1.074  10.890  0.3881  0.6622 -0.4905
 1052SOL    HW114615   0.774   1.123  10.944 -0.0308 -1.1303  0.6361
 1052SOL    HW214616   0.882   1.146  10.848  0.2312  1.5271  0.8486
 1053SOL     OW14617   3.720   2.365   3.511 -0.6150  0.0420 -0.2893
 1053SOL    HW114618   3.810   2.346   3.487 -0.5478  2.3351 -1.9538
 1053SOL    HW214619   3.699   2.277   3.541 -0.5808 -0.2550 -1.1319
 1054SOL     OW14620   3.342   2.570  15.672 -0.1678 -0.6216  0.7635
 1054SOL    HW114621   3.358   2.656  15.712  0.3809 -0.3827  0.0265
 1054SOL    HW214622   3.389   2.586  15.590 -1.8496  0.2068 -0.0429
 1055SOL     OW14623   2.520   1.371   8.565 -0.2016 -0.1883 -0.0712
 1055SOL    HW114624   2.610   1.399   8.581  0.2131  0.2740 -3.2850
 1055SOL    HW214625   2.491   1.446   8.512 -0.9851 -0.6560 -0.3076
 1056SOL     OW14626   2.722   0.626   9.624 -0.1484 -0.3455 -0.5415
 1056SOL    HW114627   2.655   0.640   9.558  0.3322 -0.8301 -1.1374
 1056SOL    HW214628   2.685   0.548   9.666  0.7225 -0.6192 -0.2683
 1057SOL     OW14629   3.750   1.929   3.323  0.0034 -0.7881  0.6295
 1057SOL    HW114630   3.828   1.984   3.319  0.4335 -1.5606 -1.7882
 1057SOL    HW214631   3.763   1.879   3.403 -0.0905 -2.0439 -0.1475
 1058SOL     OW14632   2.920   2.871   3.751 -0.0066  0.6587  0.5260
 1058SOL    HW114633   2.874   2.808   3.697  1.3708 -0.7748  1.0284
 1058SOL    HW214634   2.980   2.811   3.796  0.3686 -0.1401 -1.0709
 1059SOL     OW14635   3.666   2.545   3.726 -0.1747  0.0528 -0.0391
 1059SOL    HW114636   3.692   2.489   3.653  1.1549  1.8289 -0.9349
 1059SOL    HW214637   3.742   2.604   3.723 -2.3494  2.9092  0.9344
 1060SOL     OW14638   3.775   2.966   4.413 -0.1620 -0.6935  0.2868
 1060SOL    HW114639   3.696   3.020   4.417 -0.3002 -0.8218 -0.7510
 1060SOL    HW214640   3.830   3.010   4.477 -1.8454  1.1582  0.4546
 1061SOL     OW14641   3.680   4.114   7.937 -0.0940  0.2113  0.4978
 1061SOL    HW114642   3.765   4.143   7.905  0.5316  0.4638  2.4192
 1061SOL    HW214643   3.627   4.194   7.930  0.8025  0.6599 -1.1162
 1062SOL     OW14644   2.259   2.775   8.202 -0.3264 -0.2755  0.2995
 1062SOL    HW114645   2.179   2.817   8.237  0.3095  2.5258 -1.6103
 1062SOL    HW214646   2.241   2.749   8.112  0.3869  2.5921 -0.6686
 1063SOL     OW14647   0.896   2.570   7.062 -0.0814 -0.1260 -0.2070
 1063SOL    HW114648   0.837   2.634   7.022 -0.5134 -0.0453  0.5467
 1063SOL    HW214649   0.922   2.527   6.981  0.0323  0.0032 -0.2389
 1064SOL     OW14650   1.874   2.198   3.787  0.1078 -0.3922  0.6687
 1064SOL    HW114651   1.864   2.283   3.744  0.4843  0.0136  1.3894
 1064SOL    HW214652   1.955   2.163   3.752  1.8305  3.6478  0.6650
 1065SOL     OW14653   2.840   0.451   7.813 -0.5876  0.0811  0.0214
 1065SOL    HW114654   2.847   0.374   7.869 -1.8380 -0.1292 -0.0977
 1065SOL    HW214655   2.866   0.513   7.882  3.1980  0.7983 -2.0948
 1066SOL     OW14656   2.504   0.734  11.196  0.2096 -0.0697 -0.2433
 1066SOL    HW114657   2.519   0.793  11.122 -0.3425 -2.0408 -1.9387
 1066SOL    HW214658   2.409   0.725  11.188  0.3036 -0.4463 -0.9197
 1067SOL     OW14659   2.900   1.865   5.497 -0.3511  0.1398 -0.2366
 1067SOL    HW114660   2.835   1.826   5.556  1.3510 -0.9335  0.8986
 1067SOL    HW214661   2.930   1.792   5.442  0.9065  0.7915 -0.4140
 1068SOL     OW14662   2.341   2.630   7.398 -0.1677  0.3715  0.0151
 1068SOL    HW114663   2.412   2.571   7.422  1.0988  1.5867 -0.7582
 1068SOL    HW214664   2.349   2.700   7.463  0.8751  0.3477 -0.0877
 1069SOL     OW14665   0.911   3.416  15.006 -0.6955 -0.5549  0.1887
 1069SOL    HW114666   0.925   3.463  15.089 -0.2774 -3.0087  1.4967
 1069SOL    HW214667   0.915   3.491  14.946 -0.4017  0.3149  1.2868
 1070SOL     OW14668   3.302   2.991   4.497 -0.3880  1.0520  0.0198
 1070SOL    HW114669   3.294   2.985   4.592 -1.3507  0.2393 -0.1174
 1070SOL    HW214670   3.349   2.912   4.469 -1.1126  0.7268 -0.2964
 1071SOL     OW14671   3.887   0.679   0.715 -0.2206  0.1283 -0.0408
 1071SOL    HW114672   3.923   0.670   0.803  1.3196 -0.8792 -0.7909
 1071SOL    HW214673   3.827   0.754   0.720  2.3965  2.1902  0.7502
 1072SOL     OW14674   3.155   2.540  14.936 -0.6719 -0.0966 -0.4090
 1072SOL    HW114675   3.095   2.467  14.919 -0.1687 -1.0459  1.8384
 1072SOL    HW214676   3.089   2.609  14.937 -3.1617 -2.4610 -0.3067
 1073SOL     OW14677   3.511   4.071   7.444  0.2074  0.7858 -0.0656
 1073SOL    HW114678   3.453   4.071   7.520 -1.3720  3.0221 -1.2654
 1073SOL    HW214679   3.453   4.122   7.387 -0.5286 -1.4667 -1.3596
 1074SOL     OW14680   3.951   3.738   7.783  0.2434 -0.2158  0.6954
 1074SOL    HW114681   3.856   3.746   7.769  0.2477  0.2277  0.9058
 1074SOL    HW214682   3.979   3.830   7.775 -1.8824  0.3909 -0.0069
 1075SOL     OW14683   4.137   1.140  17.457  0.0245 -0.7269 -0.2113
 1075SOL    HW114684   4.070   1.208  17.458  1.9820  1.1886 -1.5490
 1075SOL    HW214685   4.216   1.180  17.493  0.2463 -0.6315 -0.8189
 1076SOL     OW14686   0.624   0.416   7.324 -0.8343 -0.3963 -0.5189
 1076SOL    HW114687   0.595   0.506   7.335  0.1130 -0.3367  1.5181
 1076SOL    HW214688   0.658   0.423   7.235 -1.8684 -1.0847 -0.9673
 1077SOL     OW14689   1.166   1.280   6.606  0.7393 -0.2905 -0.3540
 1077SOL    HW114690   1.167   1.272   6.701  2.5530 -1.6707 -0.4782
 1077SOL    HW214691   1.225   1.206   6.591  0.9149  0.0117 -1.1561
 1078SOL     OW14692   1.254   2.614  10.468  0.1772 -0.5790  0.8427
 1078SOL    HW114693   1.256   2.626  10.563 -2.3428  1.2077  0.6763
 1078SOL    HW214694   1.278   2.522  10.469 -1.3578 -0.9461  2.5163
 1079SOL     OW14695   4.292   2.704   5.954 -0.3619 -0.1926  0.5180
 1079SOL    HW114696   4.222   2.752   6.000 -1.3706  0.1469 -1.3914
 1079SOL    HW214697   4.365   2.710   6.016 -0.4400  1.9706  0.3863
 1080SOL     OW14698   4.435   1.388  14.077  0.1693 -0.2391 -0.2287
 1080SOL    HW114699   4.360   1.438  14.110 -0.5815 -1.2416 -0.4288
 1080SOL    HW214700   4.404   1.367  13.989  1.3523  0.0708 -0.7206
 1081SOL     OW14701   3.343   3.783   2.612 -0.2848 -0.0307  0.1637
 1081SOL    HW114702   3.282   3.817   2.678 -0.1579 -0.3617  0.4530
 1081SOL    HW214703   3.293   3.717   2.566  1.9736 -2.5012  1.2609
 1082SOL     OW14704   3.286   0.731  12.619  0.5594 -0.0791  0.4184
 1082SOL    HW114705   3.215   0.787  12.588  1.3791  0.1283 -1.1293
 1082SOL    HW214706   3.293   0.765  12.708 -0.8041 -1.3356  1.0087
 1083SOL     OW14707   3.634   3.920   9.549  0.4825 -0.3833  0.3598
 1083SOL    HW114708   3.697   3.955   9.485 -0.3482  0.2566 -0.1093
 1083SOL    HW214709   3.699   3.891   9.612  1.6735  0.6124 -0.3908
 1084SOL     OW14710   1.522   0.956  14.226 -0.3513  0.2644  0.0484
 1084SOL    HW114711   1.443   0.902  14.227 -1.0403  1.3053  2.1920
 1084SOL    HW214712   1.495   1.023  14.164 -3.4074  0.4735  1.6223
 1085SOL     OW14713   3.163   2.083   4.548 -0.2801  0.0465 -0.0458
 1085SOL    HW114714   3.137   2.175   4.537  0.3508  0.0279 -1.7388
 1085SOL    HW214715   3.119   2.050   4.470  0.6010  4.1221 -2.2918
 1086SOL     OW14716   1.104   1.462   9.392 -0.1166  0.1786  0.0584
 1086SOL    HW114717   1.189   1.455   9.349 -0.7104 -0.2142 -1.0715
 1086SOL    HW214718   1.061   1.505   9.318 -1.5384 -0.5403  0.4731
 1087SOL     OW14719   3.893   1.918   5.283  0.0137 -0.1087  0.1218
 1087SOL    HW114720   3.928   1.941   5.370  2.3725 -1.1133 -0.5616
 1087SOL    HW214721   3.872   2.006   5.253 -1.6279 -0.5876 -0.1453
 1088SOL     OW14722   3.741   1.414  11.882 -0.4829 -0.2246 -0.3976
 1088SOL    HW114723   3.652   1.384  11.863 -0.8111 -0.4529  1.5311
 1088SOL    HW214724   3.794   1.337  11.863  1.7781  1.4959 -1.0108
 1089SOL     OW14725   0.225   1.642   2.311  0.1954  0.3384 -0.0014
 1089SOL    HW114726   0.205   1.587   2.235 -0.4304 -2.5007  2.2329
 1089SOL    HW214727   0.310   1.680   2.288 -0.4063  0.0815 -2.6796
 1090SOL     OW14728   2.403   1.988   4.881 -0.9590  0.2879  0.1504
 1090SOL    HW114729   2.448   2.020   4.803  0.2985  1.4583  1.3554
 1090SOL    HW214730   2.480   1.983   4.938 -0.2867  1.5796 -0.6231
 1091SOL     OW14731   0.733   0.289   5.171 -0.1372 -0.5818  0.3106
 1091SOL    HW114732   0.754   0.324   5.085 -1.2537  2.3563  1.2368
 1091SOL    HW214733   0.823   0.277   5.202 -0.0348 -2.7956 -0.8687
 1092SOL     OW14734   0.621   2.576   9.506 -0.4739 -0.2065  0.2952
 1092SOL    HW114735   0.716   2.584   9.501 -0.5228  0.9544  1.1394
 1092SOL    HW214736   0.598   2.502   9.449 -2.6584  0.4066  0.3684
 1093SOL     OW14737   2.013   3.205  13.792 -0.2974  0.3429 -0.0134
 1093SOL    HW114738   1.949   3.135  13.779  0.5372 -0.4642  0.1840
 1093SOL    HW214739   2.061   3.198  13.709  1.2329 -1.1990  0.9972
 1094SOL     OW14740   0.880   3.926   8.579 -0.4333 -0.4252 -0.7530
 1094SOL    HW114741   0.975   3.921   8.584 -0.5525  0.5864  2.7235
 1094SOL    HW214742   0.861   3.936   8.486 -2.0908 -1.4243 -0.5327
 1095SOL     OW14743   1.720   2.934  14.857  0.2049  0.1034  0.0124
 1095SOL    HW114744   1.711   2.994  14.931  1.6230  0.3074  0.0354
 1095SOL    HW214745   1.784   2.980  14.803  0.1724 -1.0066 -0.9628
 1096SOL     OW14746   2.055   1.267   8.963  0.0943  0.2757  0.1176
 1096SOL    HW114747   2.027   1.349   9.003  1.0863  1.0714 -0.8191
 1096SOL    HW214748   2.149   1.268   8.984  0.4207 -0.4541 -1.3064
 1097SOL     OW14749   3.322   4.183   3.996  0.0002  0.4569  0.7045
 1097SOL    HW114750   3.345   4.176   3.903 -0.0836 -0.2785  0.7428
 1097SOL    HW214751   3.273   4.103   4.014 -0.3301  0.0512 -1.9474
 1098SOL     OW14752   2.612   1.658   9.301  0.2572 -0.0838 -0.0341
 1098SOL    HW114753   2.693   1.620   9.266 -0.5068  0.4542 -2.4153
 1098SOL    HW214754   2.649   1.698   9.379  1.0099  1.0389 -0.9613
 1099SOL     OW14755   0.154   3.370   1.640  0.1283 -0.9294 -0.2792
 1099SOL    HW114756   0.084   3.433   1.659 -0.7321 -1.5799 -1.2948
 1099SOL    HW214757   0.105   3.289   1.632  0.0120 -1.1100  2.3363
 1100SOL     OW14758   4.107   0.438   8.899 -0.2631  0.3522  0.2444
 1100SOL    HW114759   4.197   0.405   8.887 -0.2805  0.2377  0.4233
 1100SOL    HW214760   4.048   0.363   8.898 -0.1802  0.3053 -1.0019
 1101SOL     OW14761   3.158   3.481   6.502  0.0060  0.0079 -0.2037
 1101SOL    HW114762   3.220   3.431   6.555  1.7471  0.7640 -1.5369
 1101SOL    HW214763   3.074   3.470   6.546  1.0217  0.9735  1.9654
 1102SOL     OW14764   3.101   2.184   0.757 -0.0849  0.0204  0.2308
 1102SOL    HW114765   3.036   2.137   0.704  1.6126 -1.1311 -0.7980
 1102SOL    HW214766   3.154   2.111   0.789  0.7318 -0.2887 -1.8555
 1103SOL     OW14767   3.815   2.938   2.504  0.5191  0.2919  0.1871
 1103SOL    HW114768   3.892   2.987   2.478  1.1596  0.1237  1.7365
 1103SOL    HW214769   3.740   2.977   2.459  0.6349 -0.4301 -0.6307
 1104SOL     OW14770   2.882   2.132   2.937  0.2095 -0.3862  0.2408
 1104SOL    HW114771   2.969   2.133   2.978 -0.1302  0.0509  0.9581
 1104SOL    HW214772   2.896   2.050   2.890 -0.4712 -0.7747  0.7127
 1105SOL     OW14773   0.911   1.521  15.104  0.6802  0.1625 -0.6734
 1105SOL    HW114774   0.907   1.608  15.065 -1.7934 -0.4897 -1.8886
 1105SOL    HW214775   0.862   1.543  15.184  1.0593 -1.1160 -0.0936
 1106SOL     OW14776   1.721   1.594   9.132 -0.3584  0.0031 -0.1135
 1106SOL    HW114777   1.691   1.579   9.042 -0.5219  2.0497 -0.3867
 1106SOL    HW214778   1.654   1.547   9.181 -0.1170  1.8712  1.9874
 1107SOL     OW14779   0.059   2.414   4.579  0.2813  0.2321  0.5538
 1107SOL    HW114780   0.120   2.488   4.579  0.4111  0.1127 -1.1971
 1107SOL    HW214781   0.114   2.349   4.623  1.3850  0.1754 -0.9385
 1108SOL     OW14782   2.392   0.538   7.845  0.5447  0.2547  0.3837
 1108SOL    HW114783   2.388   0.547   7.749  0.6530 -0.9431  0.2692
 1108SOL    HW214784   2.301   0.534   7.875  0.0878 -1.2474 -1.1720
 1109SOL     OW14785   2.464   1.110   3.732  0.3404  0.2763  0.1632
 1109SOL    HW114786   2.403   1.083   3.664  0.3911  2.1834 -0.6411
 1109SOL    HW214787   2.496   1.194   3.698  2.0855  0.1157  1.3961
 1110SOL     OW14788   3.035   2.240   7.869  0.3790 -0.0171  0.1104
 1110SOL    HW114789   3.003   2.181   7.938  1.1424 -2.2972 -1.5088
 1110SOL    HW214790   3.118   2.267   7.907  0.8270 -0.0360 -0.8594
 1111SOL     OW14791   0.200   1.647   0.876  0.0315 -0.5779  0.3276
 1111SOL    HW114792   0.220   1.554   0.885 -0.5003 -0.3851  3.3637
 1111SOL    HW214793   0.182   1.657   0.782  0.1014 -0.8818  0.2796
 1112SOL     OW14794   1.222   2.683   9.396 -0.4716 -0.4338  0.0990
 1112SOL    HW114795   1.163   2.633   9.340 -0.8324  0.1957 -0.0832
 1112SOL    HW214796   1.303   2.650   9.357  0.8884  0.8678  1.8620
 1113SOL     OW14797   2.447   0.103   9.238 -0.2018  0.3369 -0.3189
 1113SOL    HW114798   2.385   0.037   9.208  0.3445  0.3315 -1.4251
 1113SOL    HW214799   2.528   0.076   9.193 -0.3411 -0.0562 -0.3310
 1114SOL     OW14800   0.475   0.656   7.292 -0.2616  0.0465  0.0266
 1114SOL    HW114801   0.466   0.730   7.352 -1.4793  0.3804 -0.5605
 1114SOL    HW214802   0.385   0.624   7.298  0.7182 -2.4139  1.4640
 1115SOL     OW14803   2.398   0.976  11.568 -0.5501  0.2138  0.7277
 1115SOL    HW114804   2.453   0.941  11.639 -0.7605 -1.2809  0.1510
 1115SOL    HW214805   2.339   1.021  11.628 -0.0840  0.0556  1.3047
 1116SOL     OW14806   3.602   3.004   8.633  0.0384 -0.3755 -0.7839
 1116SOL    HW114807   3.633   2.935   8.692  1.4495  2.1892  1.4707
 1116SOL    HW214808   3.554   3.066   8.688  1.3480  0.3499 -0.4571
 1117SOL     OW14809   3.840   3.856  15.776 -0.2146 -0.0223  0.7384
 1117SOL    HW114810   3.789   3.821  15.850 -0.7007  1.4104  1.0828
 1117SOL    HW214811   3.837   3.947  15.804  0.6240  0.8041 -1.8816
 1118SOL     OW14812   2.997   4.413   9.088  0.2573 -0.2682  0.3187
 1118SOL    HW114813   2.907   4.426   9.060 -1.0738 -3.1128  3.1602
 1118SOL    HW214814   3.046   4.470   9.029  0.1017 -0.4523  0.0108
 1119SOL     OW14815   2.470   0.289   8.029 -0.3044  0.1706 -0.1572
 1119SOL    HW114816   2.546   0.237   8.003  0.7273  0.7993  1.5882
 1119SOL    HW214817   2.446   0.325   7.944 -0.1368 -0.6434 -0.5469
 1120SOL     OW14818   1.848   0.816   6.072  0.5319 -0.4398 -0.4124
 1120SOL    HW114819   1.804   0.737   6.041 -0.5521  0.7091 -1.8680
 1120SOL    HW214820   1.923   0.802   6.013  1.2786  1.1359  0.1469
 1121SOL     OW14821   0.113   4.242   4.083  0.2394 -0.1140 -0.1298
 1121SOL    HW114822   0.100   4.245   4.178  1.9464 -1.0059  0.1197
 1121SOL    HW214823   0.176   4.313   4.072  1.0767 -1.2512 -2.5915
 1122SOL     OW14824   4.304   4.171   8.277 -0.2750  0.3316  0.0964
 1122SOL    HW114825   4.329   4.080   8.261  1.4580  0.3177  2.7976
 1122SOL    HW214826   4.388   4.213   8.258 -1.0024  1.6201 -0.2320
 1123SOL     OW14827   0.765   3.377   4.363 -0.3850  0.6226  0.3579
 1123SOL    HW114828   0.779   3.370   4.457 -0.1531  0.0335  0.2750
 1123SOL    HW214829   0.852   3.349   4.335 -1.3235 -2.2213  0.3213
 1124SOL     OW14830   1.574   0.283   5.383  0.1479 -0.3156 -0.4458
 1124SOL    HW114831   1.651   0.340   5.389  0.2318 -0.4798  0.0765
 1124SOL    HW214832   1.505   0.348   5.373  0.8450  0.2233 -1.6569
 1125SOL     OW14833   1.917   4.620   6.411  0.4771 -0.1556  0.5544
 1125SOL    HW114834   1.876   4.649   6.493 -1.1881  1.7018 -0.9427
 1125SOL    HW214835   1.939   4.698   6.359  0.0725  0.5049  1.3579
 1126SOL     OW14836   3.332   0.170  16.279  0.7595 -0.0928  0.0322
 1126SOL    HW114837   3.337   0.079  16.309 -4.8290 -0.4765 -0.1827
 1126SOL    HW214838   3.331   0.165  16.184  1.7921  1.6307 -0.0655
 1127SOL     OW14839   0.272   1.812  15.883  0.1185 -0.1525  0.3587
 1127SOL    HW114840   0.256   1.786  15.792  1.6291  0.0435  0.0453
 1127SOL    HW214841   0.226   1.743  15.932  2.1982 -1.8611 -0.1432
 1128SOL     OW14842   0.773   1.614   2.962 -0.1578  0.1485  0.2795
 1128SOL    HW114843   0.846   1.588   2.906  1.2463 -1.3086  2.7887
 1128SOL    HW214844   0.811   1.640   3.046 -0.1606  0.0885  0.2997
 1129SOL     OW14845   3.530   3.359  14.964 -0.2280 -0.1435  0.0432
 1129SOL    HW114846   3.493   3.447  14.958  0.6409  0.2679  0.6506
 1129SOL    HW214847   3.503   3.332  14.877  2.0368  1.6001 -1.2133
 1130SOL     OW14848   1.063   1.966   0.415  0.1911  0.2027  0.9186
 1130SOL    HW114849   1.019   2.047   0.391  0.9068  0.1296 -0.5954
 1130SOL    HW214850   1.107   2.008   0.488  0.6364  0.3412  0.5642
 1131SOL     OW14851   1.585   2.701   2.167  0.0674 -0.6463 -0.1175
 1131SOL    HW114852   1.526   2.771   2.139 -0.7254 -0.9532  0.7798
 1131SOL    HW214853   1.533   2.643   2.223 -1.9503  0.7802 -0.5153
 1132SOL     OW14854   1.082   0.709  10.696 -0.5905 -0.0049 -0.4553
 1132SOL    HW114855   1.103   0.711  10.602  0.3380 -0.7632 -0.2665
 1132SOL    HW214856   1.086   0.796  10.737  0.7897 -0.7118  0.9218
 1133SOL     OW14857   3.021   1.069   6.214  0.4405  0.3652  0.1618
 1133SOL    HW114858   3.020   1.064   6.118  2.1496 -1.5785  0.2240
 1133SOL    HW214859   3.035   0.975   6.228 -1.2371  0.4210  2.3000
 1134SOL     OW14860   2.694   4.000   8.285 -0.1607 -0.0883 -0.4282
 1134SOL    HW114861   2.748   4.060   8.234 -0.6857 -1.2870 -2.3893
 1134SOL    HW214862   2.605   4.035   8.278  0.1265  1.0255  1.3752
 1135SOL     OW14863   3.890   2.969   3.555  0.1414 -0.4416 -0.0246
 1135SOL    HW114864   3.980   2.994   3.575 -0.1781 -0.3331  1.2658
 1135SOL    HW214865   3.843   2.993   3.635 -1.1819  1.7997 -1.4727
 1136SOL     OW14866   3.320   1.092   6.681  0.3347  0.2543 -0.0157
 1136SOL    HW114867   3.302   1.068   6.590 -1.2753 -0.6966  0.5524
 1136SOL    HW214868   3.411   1.061   6.684  0.1577 -0.0206  2.1014
 1137SOL     OW14869   1.720   0.339   4.974  0.1859 -0.2067 -0.1995
 1137SOL    HW114870   1.658   0.274   4.940 -0.4220 -0.0924  0.6953
 1137SOL    HW214871   1.730   0.396   4.898 -2.6449 -1.8682 -1.8197
 1138SOL     OW14872   2.951   3.414   7.881  1.1728  0.2959 -0.4326
 1138SOL    HW114873   3.043   3.425   7.907  0.9111 -0.7432  0.9019
 1138SOL    HW214874   2.905   3.445   7.958  2.1089 -1.3746  0.8054
 1139SOL     OW14875   0.774   0.158   2.199 -0.2838  0.1187 -0.0960
 1139SOL    HW114876   0.691   0.124   2.166 -1.2781  3.0375 -0.6420
 1139SOL    HW214877   0.780   0.116   2.285 -1.1036 -0.4811 -0.3349
 1140SOL     OW14878   2.162   0.890   2.935  0.1203  0.3614 -0.4136
 1140SOL    HW114879   2.122   0.942   3.005 -2.4924 -1.5467 -0.5099
 1140SOL    HW214880   2.155   0.961   2.872 -0.1380  1.1022  0.4426
 1141SOL     OW14881   2.927   0.796  12.744  0.1507 -0.1132  0.5453
 1141SOL    HW114882   2.864   0.868  12.752 -1.3427 -1.2894 -0.7309
 1141SOL    HW214883   2.869   0.721  12.750  0.1529 -0.2976 -1.8014
 1142SOL     OW14884   0.464   3.072   9.436  0.2740 -0.7802 -0.4502
 1142SOL    HW114885   0.461   2.977   9.421  0.4628 -0.5640 -1.7793
 1142SOL    HW214886   0.507   3.108   9.359 -0.0395 -1.7564 -1.0812
 1143SOL     OW14887   0.526   0.354   3.149  0.3381 -0.2003  0.2371
 1143SOL    HW114888   0.488   0.297   3.216 -3.2084 -0.4988 -1.9969
 1143SOL    HW214889   0.474   0.326   3.073 -0.0362  0.5113  0.2301
 1144SOL     OW14890   4.556   0.764   5.138 -0.2852 -0.4208 -0.6961
 1144SOL    HW114891   4.621   0.720   5.193  0.5305  1.9463  0.2485
 1144SOL    HW214892   4.467   0.735   5.159 -0.4349 -0.5707 -1.5454
 1145SOL     OW14893   0.086   3.611   2.447 -0.0622  0.0047 -0.3279
 1145SOL    HW114894   0.166   3.656   2.421 -1.3495  3.3057  1.4016
 1145SOL    HW214895   0.095   3.593   2.541 -1.1564 -0.6964 -0.3560
 1146SOL     OW14896   0.756   0.898   3.080 -0.2821  0.0951  0.1018
 1146SOL    HW114897   0.675   0.922   3.125 -1.7230 -0.7429 -2.0731
 1146SOL    HW214898   0.738   0.933   2.993 -0.7393  1.0392  0.5792
 1147SOL     OW14899   2.203   4.539   7.515  0.4168  0.2868 -0.6269
 1147SOL    HW114900   2.294   4.567   7.519  0.4904 -0.1113  0.4970
 1147SOL    HW214901   2.198   4.516   7.608  0.5581 -1.8449 -1.1526
 1148SOL     OW14902   0.390   4.496   2.949 -0.0322  0.0140 -0.1755
 1148SOL    HW114903   0.329   4.514   2.877  0.0271 -0.8994 -0.4618
 1148SOL    HW214904   0.475   4.472   2.911  0.8047  0.5171  1.3827
 1149SOL     OW14905   4.067   3.181   2.770 -0.4056 -0.2429  0.2581
 1149SOL    HW114906   4.104   3.252   2.719 -1.7390  0.3789  0.1531
 1149SOL    HW214907   4.141   3.147   2.820  0.8217 -1.1837 -2.2098
 1150SOL     OW14908   3.672   4.602   5.987 -0.5718  0.1115 -0.3730
 1150SOL    HW114909   3.746   4.635   5.936 -2.2529  1.7241 -1.7445
 1150SOL    HW214910   3.624   4.546   5.927  0.7216 -2.5203  1.0055
 1151SOL     OW14911   2.357   0.858  17.536  0.5638  0.1965 -0.1464
 1151SOL    HW114912   2.311   0.856  17.452  2.8089  0.2321 -1.3832
 1151SOL    HW214913   2.298   0.914  17.586  0.5610  0.5794 -0.5706
 1152SOL     OW14914   2.071   0.074   5.218 -0.0206 -0.0995  0.2207
 1152SOL    HW114915   2.091   4.705   5.201  1.3376  0.6396 -2.0506
 1152SOL    HW214916   2.102   0.114   5.137 -0.8363  1.0280  0.4741
 1153SOL     OW14917   2.582   1.079  14.699 -0.0874  0.2548  0.2354
 1153SOL    HW114918   2.531   1.145  14.652  0.1202  0.4115  0.2315
 1153SOL    HW214919   2.597   1.132  14.778  1.0556  1.8908 -1.0704
 1154SOL     OW14920   0.098   3.564   7.715 -0.4142  0.1026  0.4458
 1154SOL    HW114921   0.028   3.608   7.667  0.1055 -0.7434 -1.0893
 1154SOL    HW214922   0.070   3.472   7.709 -2.3709  0.7348 -0.1188
 1155SOL     OW14923   4.589   3.844  12.850  0.7928  0.0266 -0.3214
 1155SOL    HW114924   4.623   3.790  12.778  0.4055 -1.5736  0.6824
 1155SOL    HW214925   4.510   3.791  12.862  1.1128 -0.2907  0.4330
 1156SOL     OW14926   2.283   4.348   4.849  0.5705  0.2161 -0.1360
 1156SOL    HW114927   2.375   4.328   4.866  0.1202 -1.8711 -0.1620
 1156SOL    HW214928   2.293   4.438   4.816  1.7260  0.6044  1.2671
 1157SOL     OW14929   4.436   1.371   4.021  0.1291 -0.1349  0.3885
 1157SOL    HW114930   4.529   1.381   4.043  0.4961  1.2949 -1.8114
 1157SOL    HW214931   4.417   1.458   3.985 -1.9878 -0.8104 -0.1090
 1158SOL     OW14932   3.837   4.429   1.105  0.0059  0.4521  0.1245
 1158SOL    HW114933   3.868   4.460   1.190  3.3240 -3.3853  0.3113
 1158SOL    HW214934   3.789   4.503   1.068  1.3672 -0.4200 -3.3773
 1159SOL     OW14935   0.423   3.842   0.057  0.0602 -0.0077  0.0405
 1159SOL    HW114936   0.494   3.879   0.005  1.0818 -3.6857 -1.1855
 1159SOL    HW214937   0.350   3.894   0.024 -0.7829 -2.1165 -1.3723
 1160SOL     OW14938   3.133   4.709  14.548 -0.0774  0.4018 -0.1191
 1160SOL    HW114939   3.117   0.046  14.620  2.9289  0.6931  0.3032
 1160SOL    HW214940   3.125   0.036  14.466  2.1345  1.4903  0.3348
 1161SOL     OW14941   3.437   3.166   4.049  0.2186  0.3498 -0.6598
 1161SOL    HW114942   3.378   3.178   3.974  0.6078 -1.9436 -1.3324
 1161SOL    HW214943   3.466   3.075   4.042 -0.3379  0.1196  0.0763
 1162SOL     OW14944   2.608   2.316   8.715 -0.2041  0.1421  0.3319
 1162SOL    HW114945   2.539   2.257   8.683  0.7537 -1.4649  1.2038
 1162SOL    HW214946   2.681   2.253   8.719 -1.8492 -1.7412  1.0100
 1163SOL     OW14947   3.970   2.673   7.751  0.1477  0.2255 -0.5650
 1163SOL    HW114948   3.974   2.613   7.676  0.3219 -0.8746  0.3242
 1163SOL    HW214949   3.874   2.674   7.759 -0.1116 -4.4228 -2.9112
 1164SOL     OW14950   2.714   4.645  14.778 -1.0549 -0.1208  0.3520
 1164SOL    HW114951   2.669   4.684  14.853  0.5851 -0.6812  1.6287
 1164SOL    HW214952   2.790   4.603  14.820 -1.1404  0.5584  1.2055
 1165SOL     OW14953   3.152   0.581  12.438 -0.4956 -0.2562 -0.8079
 1165SOL    HW114954   3.214   0.606  12.506 -0.1568  0.0931 -1.2515
 1165SOL    HW214955   3.122   0.502  12.485  0.6758  1.2281  2.4592
 1166SOL     OW14956   2.048   0.437  12.138  0.2161 -0.1139  0.4484
 1166SOL    HW114957   2.067   0.527  12.109  0.1869 -0.3333 -0.2563
 1166SOL    HW214958   1.952   0.442  12.140  0.2973  2.0874 -0.1520
 1167SOL     OW14959   1.930   4.430  13.770  0.5415 -0.0936 -0.2056
 1167SOL    HW114960   2.008   4.464  13.726  0.8030 -0.8625 -0.3364
 1167SOL    HW214961   1.970   4.350  13.805 -0.0283  1.7574  4.7531
 1168SOL     OW14962   2.373   2.334  11.554 -0.0232  0.6827 -0.1970
 1168SOL    HW114963   2.289   2.304  11.518  1.1929  0.1457 -2.5570
 1168SOL    HW214964   2.365   2.422  11.516  2.0191 -0.1017 -2.4021
 1169SOL     OW14965   3.865   2.108  10.918 -0.2267 -0.2532  0.2441
 1169SOL    HW114966   3.947   2.071  10.949 -1.6058 -3.7083 -0.1918
 1169SOL    HW214967   3.805   2.035  10.936 -1.9810  1.1491  0.1055
 1170SOL     OW14968   0.661   2.238   2.909 -0.4791  0.2025  0.5354
 1170SOL    HW114969   0.669   2.192   2.826  2.1394  0.1834  0.8211
 1170SOL    HW214970   0.618   2.312   2.866 -0.3899 -0.1274 -0.1118
 1171SOL     OW14971   0.053   1.285   5.172  0.1691  0.4224 -0.6665
 1171SOL    HW114972   4.701   1.227   5.176  0.7152 -0.3750 -1.7820
 1171SOL    HW214973   0.052   1.330   5.256 -0.8400  0.1332 -0.5334
 1172SOL     OW14974   0.202   3.097   3.931 -0.3677 -0.2799 -0.7227
 1172SOL    HW114975   0.247   3.057   4.006 -0.7361 -0.9373 -0.8537
 1172SOL    HW214976   0.264   3.166   3.908  1.8202 -1.8540  0.4385
 1173SOL     OW14977   2.202   2.776   4.702  0.4075  0.1623  0.3524
 1173SOL    HW114978   2.122   2.731   4.676 -0.2731  3.0110 -2.4063
 1173SOL    HW214979   2.187   2.868   4.681  0.4923  0.3159  0.9676
 1174SOL     OW14980   2.763   0.853   7.558  0.5065 -0.1379 -0.1447
 1174SOL    HW114981   2.854   0.868   7.533  0.9729 -0.1919  1.5238
 1174SOL    HW214982   2.767   0.774   7.611 -2.1418  0.2380  0.6205
 1175SOL     OW14983   2.885   0.335   6.441  0.1063  0.2222 -0.1329
 1175SOL    HW114984   2.889   0.240   6.425  1.4104 -0.1906  2.6520
 1175SOL    HW214985   2.969   0.349   6.484 -0.6129  0.0691  1.3422
 1176SOL     OW14986   3.571   4.432   9.747  0.0326  0.4338 -0.0444
 1176SOL    HW114987   3.556   4.349   9.702  2.7199 -1.5642  2.7533
 1176SOL    HW214988   3.543   4.414   9.837 -1.1334  2.5400  0.0094
 1177SOL     OW14989   3.803   2.556   3.232  0.0389 -0.2553  0.2612
 1177SOL    HW114990   3.846   2.483   3.277  0.4863  0.5875  1.1784
 1177SOL    HW214991   3.719   2.571   3.274 -0.9483  1.0295 -2.1583
 1178SOL     OW14992   2.407   0.783  14.489 -0.1022  0.0290  0.3131
 1178SOL    HW114993   2.333   0.760  14.545 -0.9727  1.7218 -0.1532
 1178SOL    HW214994   2.422   0.699  14.447  2.1754 -0.0708  1.3267
 1179SOL     OW14995   1.545   1.942   8.235  0.3174  0.3279 -0.1249
 1179SOL    HW114996   1.468   1.992   8.208  0.2040 -0.5047 -1.3465
 1179SOL    HW214997   1.580   1.932   8.147 -0.7838  3.5085 -0.9410
 1180SOL     OW14998   0.430   0.594   4.886 -0.4551 -0.0800  0.0220
 1180SOL    HW114999   0.419   0.679   4.928  1.1961 -0.7700  1.8460
 1180SOL    HW215000   0.388   0.544   4.957  0.6923 -0.3263  0.5183
 1181SOL     OW15001   2.109   0.501   7.876 -0.3140 -0.1687  0.7174
 1181SOL    HW115002   2.077   0.544   7.955 -0.5745  0.4851  0.2554
 1181SOL    HW215003   2.026   0.462   7.848 -0.7462 -0.7984  2.8397
 1182SOL     OW15004   4.659   3.318   9.039 -0.2060 -0.3342 -0.1801
 1182SOL    HW115005   4.575   3.333   8.996  0.1126 -1.3704 -1.1497
 1182SOL    HW215006   0.000   3.368   8.990  0.1743  0.4031  1.0822
 1183SOL     OW15007   4.289   2.413  13.468  0.7007 -0.0362 -0.0760
 1183SOL    HW115008   4.315   2.456  13.550 -0.6990  3.4187 -1.4563
 1183SOL    HW215009   4.295   2.485  13.405 -0.1518 -1.6499 -2.0053
 1184SOL     OW15010   4.502   2.073   7.025  0.1928  0.6094  0.0764
 1184SOL    HW115011   4.548   2.042   6.946 -2.0122  0.3101 -1.0910
 1184SOL    HW215012   4.567   2.049   7.091 -0.6743 -0.9346  0.3781
 1185SOL     OW15013   0.012   2.685   7.407  0.3866  0.6359  0.0469
 1185SOL    HW115014   4.717   2.737   7.328 -3.2388  1.2341  1.2686
 1185SOL    HW215015   0.059   2.752   7.457  1.0934  0.0064  0.2166
 1186SOL     OW15016   2.085   3.730   7.336 -0.5541 -0.0521  0.3402
 1186SOL    HW115017   2.142   3.675   7.389 -0.3870 -1.6577 -1.5122
 1186SOL    HW215018   2.008   3.675   7.325  0.5446 -1.2932 -1.2375
 1187SOL     OW15019   0.448   2.794   8.734  0.2523  0.6730  0.8885
 1187SOL    HW115020   0.370   2.749   8.765  0.6977 -0.3310  0.5543
 1187SOL    HW215021   0.429   2.877   8.777 -1.3169  1.2685 -0.9491
 1188SOL     OW15022   0.525   0.298  17.133  0.2330 -0.5391  0.0976
 1188SOL    HW115023   0.481   0.326  17.052  0.5337  2.2467  0.8817
 1188SOL    HW215024   0.449   0.259  17.174  0.0157 -0.6327 -0.3993
 1189SOL     OW15025   1.033   2.611   7.291  0.0215 -0.5219  0.2194
 1189SOL    HW115026   0.962   2.639   7.349  0.5854 -0.8983  1.1088
 1189SOL    HW215027   0.986   2.606   7.208 -0.8263 -4.0310  0.9279
 1190SOL     OW15028   1.425   2.274   7.237  0.4176 -0.4166 -0.0151
 1190SOL    HW115029   1.426   2.201   7.298 -3.2259 -2.1598 -2.0637
 1190SOL    HW215030   1.349   2.323   7.269  0.0038 -0.0727 -1.5222
 1191SOL     OW15031   4.450   4.334   7.931  0.3327  0.4684  0.1643
 1191SOL    HW115032   4.456   4.426   7.907 -0.8905  0.6783  0.6714
 1191SOL    HW215033   4.497   4.338   8.015 -0.7877 -1.9876  0.9208
 1192SOL     OW15034   2.112   1.091   4.839 -0.3734 -0.3920 -0.0354
 1192SOL    HW115035   2.134   1.121   4.751  1.8401  0.6995  0.8779
 1192SOL    HW215036   2.199   1.085   4.879 -0.3865 -3.1123 -0.4840
 1193SOL     OW15037   0.195   1.145   3.440 -0.7541  0.2945  0.1902
 1193SOL    HW115038   0.107   1.125   3.470 -0.8235  1.3069  0.6785
 1193SOL    HW215039   0.202   1.239   3.457 -0.3779  0.5472 -1.2966
 1194SOL     OW15040   3.152   3.618  12.895  0.1696 -0.0427 -0.6470
 1194SOL    HW115041   3.109   3.562  12.959 -1.7277  1.7798 -0.3191
 1194SOL    HW215042   3.160   3.704  12.938 -1.7721  0.5666 -1.5351
 1195SOL     OW15043   0.229   3.619  12.194 -0.1278  0.3325 -0.3279
 1195SOL    HW115044   0.300   3.633  12.256 -0.2139 -1.9040  0.2507
 1195SOL    HW215045   0.169   3.552  12.226  1.7173 -3.0500 -4.0223
 1196SOL     OW15046   2.317   2.902   3.900  0.5136 -0.1933  0.0357
 1196SOL    HW115047   2.329   2.848   3.822 -1.2324 -0.3447 -0.1333
 1196SOL    HW215048   2.389   2.962   3.885  0.1634  0.3471  0.5195
 1197SOL     OW15049   3.546   2.094   2.417  0.1531 -0.1354 -0.3581
 1197SOL    HW115050   3.641   2.096   2.410  0.1103  0.7753 -0.5705
 1197SOL    HW215051   3.538   2.084   2.512 -1.8876 -1.1878 -0.6376
 1198SOL     OW15052   2.810   4.446  16.537  0.8021  0.2701  0.5267
 1198SOL    HW115053   2.886   4.501  16.557  0.9143 -0.0890  1.0854
 1198SOL    HW215054   2.745   4.475  16.602  0.0088 -1.5422  0.5321
 1199SOL     OW15055   4.613   1.833   5.267 -0.3655 -0.1653  0.4004
 1199SOL    HW115056   4.524   1.867   5.261  0.0367  1.2351  2.2675
 1199SOL    HW215057   4.643   1.820   5.178 -0.3004  1.0721  0.2459
 1200SOL     OW15058   3.513   1.395   4.180  0.2402  0.1324 -0.0230
 1200SOL    HW115059   3.557   1.427   4.101 -1.0611 -3.4328 -2.1783
 1200SOL    HW215060   3.479   1.478   4.215 -1.1654 -0.2121 -0.5690
 1201SOL     OW15061   0.748   2.119   6.930  0.4060 -0.0842  0.5111
 1201SOL    HW115062   0.724   2.205   6.894  1.7247 -0.6196 -1.7065
 1201SOL    HW215063   0.686   2.067   6.878  1.0083 -0.7081  0.4164
 1202SOL     OW15064   3.944   2.051   5.513  0.3495 -0.1760  0.6985
 1202SOL    HW115065   3.962   2.056   5.607 -1.0230 -1.0562  0.9979
 1202SOL    HW215066   3.876   2.113   5.487  1.4171  2.3002  3.8502
 1203SOL     OW15067   2.803   4.374   7.403 -0.2980 -0.0436 -0.2027
 1203SOL    HW115068   2.847   4.397   7.485 -0.8637  0.2290  0.0193
 1203SOL    HW215069   2.713   4.378   7.434 -0.1490  0.1161  0.2041
 1204SOL     OW15070   2.379   3.218   3.317  0.2542 -0.2962  0.6197
 1204SOL    HW115071   2.464   3.235   3.276 -1.5325 -0.1601 -2.9909
 1204SOL    HW215072   2.359   3.294   3.371  1.4329  1.0872 -0.8822
 1205SOL     OW15073   3.424   3.348   4.649 -0.2389 -0.7118  0.3291
 1205SOL    HW115074   3.376   3.428   4.627  0.7744  0.1783  1.3476
 1205SOL    HW215075   3.491   3.381   4.709 -1.0911 -0.4624  1.1441
 1206SOL     OW15076   0.062   1.423   5.438  0.2503 -0.1600  0.3075
 1206SOL    HW115077   4.709   1.477   5.420  0.7784 -0.7857 -3.8816
 1206SOL    HW215078   0.127   1.481   5.477  0.4094  0.8000 -1.3756
 1207SOL     OW15079   4.544   1.573  11.158 -0.0407 -0.6399  0.1908
 1207SOL    HW115080   4.639   1.556  11.154 -0.3418 -2.5143  1.1769
 1207SOL    HW215081   4.544   1.634  11.084  4.0261 -3.3368 -2.0565
 1208SOL     OW15082   3.466   0.167  15.105 -0.0972 -0.2542  0.2662
 1208SOL    HW115083   3.438   0.160  15.196 -0.3367 -2.9781 -0.0399
 1208SOL    HW215084   3.383   0.139  15.067 -0.3676  0.2133  0.5132
 1209SOL     OW15085   2.557   4.456  15.220  0.1523  0.4839  0.1560
 1209SOL    HW115086   2.540   4.362  15.209  2.4237  0.2343 -1.2728
 1209SOL    HW215087   2.481   4.477  15.275 -0.3774 -1.2856  0.0867
 1210SOL     OW15088   2.428   0.273  14.056 -0.0113 -0.3930  0.3353
 1210SOL    HW115089   2.465   0.276  14.145 -0.6284  0.2843  0.5715
 1210SOL    HW215090   2.435   0.186  14.018  2.1644 -0.2474  0.3935
 1211SOL     OW15091   2.666   1.846   7.138  0.3464  0.1492 -0.1893
 1211SOL    HW115092   2.572   1.862   7.146  0.1331 -0.5597 -1.1953
 1211SOL    HW215093   2.664   1.761   7.181 -0.5007  0.9476  1.3529
 1212SOL     OW15094   4.047   2.701   2.410  1.1138  0.1862  0.1193
 1212SOL    HW115095   3.980   2.685   2.343  1.7085 -1.5248 -0.0642
 1212SOL    HW215096   4.092   2.617   2.408  0.9710  0.1605 -1.9566
 1213SOL     OW15097   1.983   2.264   4.101  0.1000  0.4670  0.5575
 1213SOL    HW115098   1.986   2.227   4.013  0.4935 -0.9073  1.1392
 1213SOL    HW215099   1.968   2.189   4.159  1.2864 -1.0211 -1.0649
 1214SOL     OW15100   3.946   0.149  14.238  0.1515 -0.5657 -0.0736
 1214SOL    HW115101   4.011   0.136  14.169 -2.2397  2.8949 -2.9675
 1214SOL    HW215102   3.936   0.062  14.276  0.8413 -0.5017  0.2521
 1215SOL     OW15103   1.462   3.421   3.570 -0.5919 -0.1620 -0.4034
 1215SOL    HW115104   1.483   3.384   3.485  0.1730  1.7351 -1.0435
 1215SOL    HW215105   1.547   3.457   3.596 -1.3287  0.7691  0.7302
 1216SOL     OW15106   0.682   2.742   5.045 -0.3268  0.3212  0.7204
 1216SOL    HW115107   0.596   2.727   5.084 -2.2455  1.2971 -3.0972
 1216SOL    HW215108   0.716   2.653   5.049 -3.1634 -0.8621 -1.2622
 1217SOL     OW15109   1.622   2.924   8.989 -0.4367 -0.2774 -0.1124
 1217SOL    HW115110   1.545   2.870   9.005 -0.0881 -0.8113 -0.2404
 1217SOL    HW215111   1.577   3.005   8.964 -0.2325 -0.6734 -1.7837
 1218SOL     OW15112   2.573   2.120  12.732 -0.3199 -0.0034  0.1037
 1218SOL    HW115113   2.597   2.147  12.643  0.8539  0.0188  0.4274
 1218SOL    HW215114   2.655   2.078  12.754 -1.8151 -2.8453  0.2008
 1219SOL     OW15115   2.422   3.331   8.045  0.3198 -0.1214  0.2452
 1219SOL    HW115116   2.492   3.265   8.038 -0.5672 -0.7089 -3.1124
 1219SOL    HW215117   2.351   3.272   8.070 -1.4510  1.8387 -0.1147
 1220SOL     OW15118   0.752   1.807   8.532 -0.2189 -0.0004  0.5398
 1220SOL    HW115119   0.797   1.765   8.459 -0.1800 -0.6000  0.9040
 1220SOL    HW215120   0.694   1.741   8.572  3.6906 -4.2594 -0.8392
 1221SOL     OW15121   1.815   0.879   8.020 -0.0190 -0.1375  0.0087
 1221SOL    HW115122   1.880   0.914   7.959  0.6967  0.2031  0.9796
 1221SOL    HW215123   1.831   0.941   8.091 -0.5820 -1.7622  1.5351
 1222SOL     OW15124   3.288   0.290   6.046  0.4705 -0.4997  0.3752
 1222SOL    HW115125   3.328   0.377   6.054  1.6462 -0.9711 -0.3650
 1222SOL    HW215126   3.344   0.235   6.101  0.4136 -0.8536  0.0807
 1223SOL     OW15127   3.655   2.363  11.634 -0.0014  0.0413  0.1035
 1223SOL    HW115128   3.598   2.334  11.705 -2.6044 -1.8716 -2.7603
 1223SOL    HW215129   3.639   2.297  11.567  3.7986 -0.8218  0.0726
 1224SOL     OW15130   1.150   2.487   2.339  0.2758 -0.2177  0.5097
 1224SOL    HW115131   1.106   2.510   2.257 -1.6811 -2.1312  1.0011
 1224SOL    HW215132   1.076   2.493   2.400 -2.8424  0.0236 -3.2547
 1225SOL     OW15133   0.794   1.075   0.174 -0.1496 -0.0928 -0.4300
 1225SOL    HW115134   0.870   1.112   0.219 -1.3666 -1.1676  2.5189
 1225SOL    HW215135   0.803   0.980   0.183  1.7525  0.3719  2.3358
 1226SOL     OW15136   3.162   1.397   5.957 -0.2813 -0.1876 -0.0942
 1226SOL    HW115137   3.069   1.392   5.931 -0.1495 -3.2240  0.0060
 1226SOL    HW215138   3.159   1.483   5.998 -1.2546 -0.6366  0.7742
 1227SOL     OW15139   1.671   0.094   4.196 -0.3902  0.2257 -0.3346
 1227SOL    HW115140   1.603   0.084   4.130 -0.7397 -0.2726  0.1009
 1227SOL    HW215141   1.726   0.145   4.137  1.9424 -1.3739  0.4764
 1228SOL     OW15142   1.925   2.774   5.595  0.1191 -0.2656 -0.3085
 1228SOL    HW115143   1.837   2.792   5.563 -0.0335 -0.7685 -0.1721
 1228SOL    HW215144   1.939   2.860   5.635 -1.0756 -0.8882  1.4080
 1229SOL     OW15145   2.145   1.938  11.761  0.1554 -0.4076 -0.6935
 1229SOL    HW115146   2.236   1.927  11.785 -0.7948  3.8879  4.6322
 1229SOL    HW215147   2.151   1.937  11.665  4.7754  2.9189 -0.4380
 1230SOL     OW15148   0.925   3.746   2.059 -0.1281 -0.4169  0.1819
 1230SOL    HW115149   0.904   3.823   2.005  2.4704 -0.5635 -1.0467
 1230SOL    HW215150   0.853   3.750   2.121 -0.9333  2.9420 -0.9421
 1231SOL     OW15151   2.253   0.996  11.263 -0.3362  0.0614  0.4984
 1231SOL    HW115152   2.237   0.936  11.335  0.7264  0.1350  0.7935
 1231SOL    HW215153   2.224   0.936  11.194  0.8065 -2.6458  2.3812
 1232SOL     OW15154   4.050   1.558   4.759 -0.2424 -0.4669 -0.0006
 1232SOL    HW115155   4.056   1.599   4.672  0.7330 -0.4734  0.0726
 1232SOL    HW215156   4.070   1.467   4.738  0.4560 -0.0526 -1.1625
 1233SOL     OW15157   4.093   3.959   6.582  0.1902  0.4122  0.9385
 1233SOL    HW115158   4.052   4.045   6.581 -1.0625 -0.1896  0.7705
 1233SOL    HW215159   4.088   3.928   6.672 -0.5561  0.9457  1.0767
 1234SOL     OW15160   1.369   4.413   6.666  0.1417 -0.3176  0.5467
 1234SOL    HW115161   1.461   4.426   6.689 -0.5580 -0.2980  3.2989
 1234SOL    HW215162   1.340   4.504   6.653  2.2149  0.3267  0.4512
 1235SOL     OW15163   3.835   4.360  10.135 -0.5195 -0.3567 -0.1013
 1235SOL    HW115164   3.911   4.303  10.140 -1.2717 -1.2738  0.8567
 1235SOL    HW215165   3.863   4.437  10.085 -0.3751  0.0128  0.5560
 1236SOL     OW15166   1.873   2.337   1.298  0.1788 -0.2152  1.1642
 1236SOL    HW115167   1.968   2.342   1.296  0.0351  1.0828 -1.4127
 1236SOL    HW215168   1.857   2.368   1.388 -1.1504  1.8925  0.1995
 1237SOL     OW15169   2.173   0.661   4.018  0.5722  0.4452  0.3426
 1237SOL    HW115170   2.208   0.592   4.075 -1.5903 -0.9929 -0.0866
 1237SOL    HW215171   2.200   0.639   3.929 -3.0413  1.3761 -0.9544
 1238SOL     OW15172   1.806   1.274   3.181  0.1254  0.6818 -0.6562
 1238SOL    HW115173   1.840   1.226   3.257  1.0226  1.6207 -0.4779
 1238SOL    HW215174   1.717   1.238   3.182  0.8841 -1.2044 -0.8582
 1239SOL     OW15175   2.093   1.876   7.315  0.2174  0.3328 -0.0965
 1239SOL    HW115176   2.085   1.853   7.222 -0.3329 -2.2029  0.5758
 1239SOL    HW215177   2.178   1.844   7.346 -0.8879 -0.6521  1.9133
 1240SOL     OW15178   4.585   2.393  12.824  0.7130  0.3862 -0.1038
 1240SOL    HW115179   4.542   2.445  12.892 -0.4176  2.0656 -2.1113
 1240SOL    HW215180   4.524   2.410  12.753 -1.4289 -1.5085  1.2921
 1241SOL     OW15181   3.405   3.234   2.161  0.3474 -0.2344 -0.6635
 1241SOL    HW115182   3.415   3.327   2.141 -1.9953 -0.1428 -1.3246
 1241SOL    HW215183   3.468   3.204   2.096  0.7725  0.8134 -0.7402
 1242SOL     OW15184   2.237   0.821   2.332  0.0138  0.2576  0.6723
 1242SOL    HW115185   2.165   0.838   2.271 -1.4819 -1.5684  1.9409
 1242SOL    HW215186   2.297   0.764   2.284 -0.9221 -0.4725  0.3614
 1243SOL     OW15187   4.328   0.295  15.695 -0.1243 -0.3623  0.3646
 1243SOL    HW115188   4.358   0.379  15.731 -1.8472  0.8627 -1.0502
 1243SOL    HW215189   4.407   0.246  15.718  0.0307 -0.1401  0.3014
 1244SOL     OW15190   3.206   0.689   5.641 -0.1530 -0.2573  0.0404
 1244SOL    HW115191   3.138   0.627   5.668 -1.8651  2.0889  1.0406
 1244SOL    HW215192   3.203   0.676   5.546 -1.8589  1.5830 -0.1494
 1245SOL     OW15193   4.607   4.115   4.885  0.4174  0.3065 -0.0386
 1245SOL    HW115194   4.562   4.040   4.845 -4.1719  2.5492  0.8654
 1245SOL    HW215195   4.658   4.144   4.810 -0.7995  0.3800 -0.8401
 1246SOL     OW15196   3.178   4.151   5.955 -0.1163 -0.0629 -0.1744
 1246SOL    HW115197   3.245   4.082   5.949 -0.5248 -0.6830  2.1492
 1246SOL    HW215198   3.194   4.190   6.041 -1.6025  3.1931 -1.4071
 1247SOL     OW15199   4.224   1.574   2.512  0.0792  0.2882  0.7303
 1247SOL    HW115200   4.306   1.621   2.525  0.4028  0.3646 -1.5004
 1247SOL    HW215201   4.165   1.647   2.527  0.8649  1.4534 -1.8505
 1248SOL     OW15202   0.802   4.689   1.105 -0.0250  0.0117  0.4971
 1248SOL    HW115203   0.727   0.024   1.116  1.0789  0.9303  3.0572
 1248SOL    HW215204   0.777   4.610   1.153 -1.7840 -0.7128 -1.6460
 1249SOL     OW15205   0.785   1.461  17.635  0.9496  0.1293  0.0636
 1249SOL    HW115206   0.739   1.505   0.011 -3.4575 -0.9722 -2.0992
 1249SOL    HW215207   0.832   1.396  17.687  0.7644 -0.7533 -0.8588
 1250SOL     OW15208   1.528   0.880   6.058  0.1792 -0.3071 -0.1437
 1250SOL    HW115209   1.458   0.944   6.052  0.0129 -0.2714  1.9788
 1250SOL    HW215210   1.589   0.920   6.120  1.8358 -1.1981 -1.2116
 1251SOL     OW15211   0.500   2.673  16.364  0.0823 -0.0588 -0.1091
 1251SOL    HW115212   0.407   2.665  16.342  0.7060  0.5477 -2.9403
 1251SOL    HW215213   0.531   2.582  16.363  1.8656  0.5742 -2.1160
 1252SOL     OW15214   0.926   3.652  10.481  0.0331  0.2607 -0.2520
 1252SOL    HW115215   0.852   3.622  10.534 -0.6313 -1.3391 -2.0923
 1252SOL    HW215216   0.978   3.709  10.538 -0.1027  0.4163 -0.2859
 1253SOL     OW15217   4.274   2.276   8.163 -0.4585 -0.0616 -0.0997
 1253SOL    HW115218   4.214   2.201   8.166 -0.1451 -0.2425  1.3386
 1253SOL    HW215219   4.220   2.340   8.115  0.8516  0.0935 -1.3566
 1254SOL     OW15220   1.392   2.643  11.208 -0.3561  0.5854 -0.3194
 1254SOL    HW115221   1.400   2.709  11.277 -0.6563 -0.3288  0.5789
 1254SOL    HW215222   1.310   2.599  11.231 -0.7248 -0.0431 -2.7624
 1255SOL     OW15223   4.284   0.839  10.972 -0.2699 -0.2859 -0.0205
 1255SOL    HW115224   4.218   0.892  10.927 -0.8324 -0.6786  0.3502
 1255SOL    HW215225   4.230   0.781  11.024  0.4793  0.4054  1.5298
 1256SOL     OW15226   4.606   3.762   2.571 -0.1740  0.3868 -0.5175
 1256SOL    HW115227   4.622   3.690   2.510 -2.4134 -2.4141  2.2231
 1256SOL    HW215228   4.570   3.708   2.641  3.2723 -1.2498 -0.0140
 1257SOL     OW15229   0.526   4.563   3.684  0.5743  0.5718 -0.2459
 1257SOL    HW115230   0.471   4.616   3.626  0.1288 -0.2179 -0.5349
 1257SOL    HW215231   0.459   4.553   3.752 -0.1202  0.9987 -0.8640
 1258SOL     OW15232   3.566   2.907   3.938  0.1823 -0.1445 -0.4802
 1258SOL    HW115233   3.548   2.909   4.032 -0.0513 -1.7598 -0.4957
 1258SOL    HW215234   3.517   2.830   3.911 -1.8310  0.5618  1.1464
 1259SOL     OW15235   0.384   4.503  13.996  0.3099 -0.1002 -0.2726
 1259SOL    HW115236   0.422   4.543  14.074 -1.0378  1.0537 -0.2131
 1259SOL    HW215237   0.462   4.460  13.961  0.8767 -0.0278  0.9262
 1260SOL     OW15238   4.553   0.266  10.497 -0.2550 -0.4651  0.0823
 1260SOL    HW115239   4.529   0.285  10.588  0.8409 -0.8889  0.4491
 1260SOL    HW215240   4.648   0.277  10.503 -0.3441 -0.6376  1.6963
 1261SOL     OW15241   2.697   1.951   4.587 -0.0975  0.1021  0.3366
 1261SOL    HW115242   2.662   2.011   4.653  0.0953 -0.7044  1.1768
 1261SOL    HW215243   2.713   2.011   4.515 -1.9055 -0.1197 -0.2470
 1262SOL     OW15244   1.191   0.002   3.909  0.1270 -0.2778  0.2258
 1262SOL    HW115245   1.201   4.677   3.826  2.7134 -0.0154  0.3893
 1262SOL    HW215246   1.207   4.660   3.977  3.0446  1.5106  1.2565
 1263SOL     OW15247   4.297   1.085   3.376 -0.0615  0.1691  0.0703
 1263SOL    HW115248   4.266   1.045   3.295 -1.9499 -1.4841  1.6162
 1263SOL    HW215249   4.227   1.063   3.438  0.2950  1.1502  0.8282
 1264SOL     OW15250   2.046   3.750   2.600 -0.0353 -0.0925  0.7068
 1264SOL    HW115251   2.036   3.725   2.508 -0.4100  0.1840  0.6695
 1264SOL    HW215252   1.954   3.776   2.602 -0.7660 -2.5533 -1.1692
 1265SOL     OW15253   1.484   2.011  17.087  0.3404 -0.3012  0.2021
 1265SOL    HW115254   1.422   1.967  17.029 -0.6501  0.2532  0.8322
 1265SOL    HW215255   1.425   2.071  17.132  1.0633  0.2562  0.3975
 1266SOL     OW15256   1.691   4.662   4.431  0.3644 -0.4390  0.1411
 1266SOL    HW115257   1.703   4.704   4.346  1.9559 -2.4817 -0.6560
 1266SOL    HW215258   1.694   0.014   4.490 -1.6679  0.4250 -0.8637
 1267SOL     OW15259   2.260   3.595   3.141  0.0198 -0.3852  0.0647
 1267SOL    HW115260   2.219   3.534   3.080 -2.5080  1.7366 -0.3817
 1267SOL    HW215261   2.185   3.637   3.182  0.4471  0.2697  0.1771
 1268SOL     OW15262   2.575   2.207   2.286  0.3074 -0.0403 -0.2043
 1268SOL    HW115263   2.655   2.226   2.237  0.3030  0.7992  0.1056
 1268SOL    HW215264   2.506   2.190   2.221 -1.3775 -0.9266  1.8306
 1269SOL     OW15265   2.205   0.612   8.945 -0.2044  0.5539  0.3629
 1269SOL    HW115266   2.301   0.614   8.944 -0.2499  0.7268 -3.7202
 1269SOL    HW215267   2.183   0.563   9.024  1.5392  0.1136  0.5720
 1270SOL     OW15268   3.977   0.344  11.998  0.2707 -0.0757  0.2741
 1270SOL    HW115269   3.881   0.342  11.997  0.2654 -0.1669  1.1550
 1270SOL    HW215270   3.996   0.400  12.073  1.6992  1.3942 -1.1733
 1271SOL     OW15271   1.357   3.575   7.193 -0.2583 -0.2749  0.4026
 1271SOL    HW115272   1.418   3.603   7.125 -1.5383 -0.3439 -0.7802
 1271SOL    HW215273   1.369   3.480   7.184  1.3371 -0.0429  0.1599
 1272SOL     OW15274   3.312   0.514   1.811  0.3752 -0.5983 -0.1561
 1272SOL    HW115275   3.278   0.468   1.888  0.7388  1.2089  1.0995
 1272SOL    HW215276   3.300   0.440   1.752  1.6583 -1.3037  0.4604
 1273SOL     OW15277   0.468   4.706   7.381  0.5429  0.3164  0.0123
 1273SOL    HW115278   0.498   4.662   7.302  2.0894 -2.1753  1.9796
 1273SOL    HW215279   0.534   0.053   7.387  0.7728  0.0638  0.4430
 1274SOL     OW15280   1.300   2.175  12.363 -0.2059  0.3643  0.5650
 1274SOL    HW115281   1.322   2.094  12.409 -0.5844 -0.3567 -0.5422
 1274SOL    HW215282   1.284   2.245  12.427  1.8346 -0.5559  2.0914
 1275SOL     OW15283   4.398   3.746   5.226 -0.0697  0.5294  0.3241
 1275SOL    HW115284   4.429   3.675   5.283 -1.2715  0.7487  1.2484
 1275SOL    HW215285   4.472   3.792   5.186 -0.1584  0.8629  0.5383
 1276SOL     OW15286   0.289   3.652   5.560  0.5091 -0.0389 -0.1162
 1276SOL    HW115287   0.270   3.729   5.615  1.5910 -0.1163  0.3645
 1276SOL    HW215288   0.221   3.590   5.584 -0.0635  1.1757  1.4325
 1277SOL     OW15289   0.681   2.137  15.432  0.0116 -0.0712  0.2795
 1277SOL    HW115290   0.699   2.112  15.522 -1.0716 -0.2890  0.4322
 1277SOL    HW215291   0.764   2.174  15.400 -0.3975 -1.7208 -2.6995
 1278SOL     OW15292   4.080   2.798   6.079 -0.0594  0.0300 -0.0826
 1278SOL    HW115293   4.009   2.863   6.084 -0.3442 -0.3120  0.3293
 1278SOL    HW215294   4.022   2.722   6.076 -2.9254  2.1068  2.4200
 1279SOL     OW15295   4.465   2.136  12.100 -0.4618 -0.2120 -0.2105
 1279SOL    HW115296   4.543   2.183  12.071  0.3517 -1.9720 -0.8335
 1279SOL    HW215297   4.506   2.051  12.111  0.2955  0.1113 -0.5464
 1280SOL     OW15298   2.171   3.448   2.398  0.5978  0.6766  0.4169
 1280SOL    HW115299   2.111   3.435   2.325  1.0551  0.0498  0.1461
 1280SOL    HW215300   2.250   3.399   2.375 -0.3495 -0.5215 -0.2628
 1281SOL     OW15301   0.983   0.522   7.040 -0.0290 -0.3590  0.1047
 1281SOL    HW115302   0.941   0.602   7.072  2.5280  0.5315  1.2415
 1281SOL    HW215303   1.020   0.483   7.119 -0.7145  0.3922  0.7857
 1282SOL     OW15304   2.906   0.082   6.582  0.2521 -0.4442  0.0473
 1282SOL    HW115305   2.949   0.158   6.621  0.5704 -0.8144  0.4200
 1282SOL    HW215306   2.964   0.009   6.604  1.6286  0.4667 -0.5593
 1283SOL     OW15307   0.127   4.139   2.641  0.7096  0.2559 -1.4564
 1283SOL    HW115308   0.051   4.088   2.615  0.6176 -0.9459  1.2056
 1283SOL    HW215309   0.081   4.218   2.667  2.2663  0.0345  1.9914
 1284SOL     OW15310   1.133   1.413   6.136  0.5620  0.6474  0.8232
 1284SOL    HW115311   1.056   1.381   6.088  0.2357  0.7594  1.2693
 1284SOL    HW215312   1.196   1.357   6.091  1.6429  2.7224 -0.2101
 1285SOL     OW15313   0.766   2.744   7.293  0.1248  0.0007  0.3939
 1285SOL    HW115314   0.696   2.681   7.278  1.3973 -0.7775 -2.1789
 1285SOL    HW215315   0.720   2.827   7.302  1.3689  1.0425 -2.7938
 1286SOL     OW15316   3.079   1.704   5.828 -0.3160 -0.1774 -0.3052
 1286SOL    HW115317   3.074   1.799   5.821  0.7526 -0.0163  1.1755
 1286SOL    HW215318   2.990   1.669   5.830  0.7077 -2.8777 -0.6317
 1287SOL     OW15319   3.109   2.351   5.668  0.1704 -0.4572 -0.0809
 1287SOL    HW115320   3.180   2.415   5.669  0.3314 -0.6115 -1.6165
 1287SOL    HW215321   3.150   2.275   5.709 -1.1457 -0.4018  1.3538
 1288SOL     OW15322   3.584   3.001  11.631 -0.3097  0.1886 -0.0672
 1288SOL    HW115323   3.524   3.034  11.698  0.8059  0.5580  0.7463
 1288SOL    HW215324   3.656   3.056  11.661 -0.2118  0.2615 -0.4394
 1289SOL     OW15325   1.678   2.539   2.473 -0.1459 -0.0109  0.3600
 1289SOL    HW115326   1.705   2.631   2.471 -1.3290  0.2681 -2.5241
 1289SOL    HW215327   1.586   2.543   2.446  0.0846  0.9534 -0.2501
 1290SOL     OW15328   3.275   3.362   4.171 -0.3774 -0.1674 -0.2337
 1290SOL    HW115329   3.352   3.418   4.186 -2.0525  1.9933  0.2575
 1290SOL    HW215330   3.318   3.279   4.152  2.3793  0.9078  1.2358
 1291SOL     OW15331   4.012   1.891   1.345 -0.0001 -0.1561 -0.3168
 1291SOL    HW115332   3.923   1.927   1.337  0.3022  0.3930 -1.2543
 1291SOL    HW215333   3.995   1.797   1.353 -0.3637 -0.0548  0.0979
 1292SOL     OW15334   3.505   2.263   5.694  0.4736 -0.1700 -0.0160
 1292SOL    HW115335   3.577   2.275   5.755  0.4774 -0.2167 -0.0118
 1292SOL    HW215336   3.552   2.213   5.628  0.2988 -1.1948  0.6407
 1293SOL     OW15337   2.216   2.123   7.503  0.2338  0.6933  0.1566
 1293SOL    HW115338   2.221   2.142   7.409 -3.4866  0.9515  0.0105
 1293SOL    HW215339   2.189   2.212   7.526  1.6550  0.7835  1.4489
 1294SOL     OW15340   4.477   0.387   3.505 -0.4995  1.0484  0.4844
 1294SOL    HW115341   4.559   0.377   3.552 -0.6082 -1.1390  0.2056
 1294SOL    HW215342   4.493   0.458   3.443  0.7747 -2.0920 -2.7876
 1295SOL     OW15343   0.499   1.751   7.799 -0.3987  0.1230 -0.6953
 1295SOL    HW115344   0.585   1.778   7.768  0.6991 -0.6507  1.6973
 1295SOL    HW215345   0.512   1.667   7.754 -1.8723 -0.3210 -0.2772
 1296SOL     OW15346   4.022   1.096   2.568 -0.1500  0.0896  0.1467
 1296SOL    HW115347   3.937   1.135   2.589 -0.9206 -0.6563 -1.6426
 1296SOL    HW215348   4.076   1.172   2.586 -0.0286  0.1899 -0.6791
 1297SOL     OW15349   2.116   3.372   3.730 -0.4069  0.1306 -0.4487
 1297SOL    HW115350   2.182   3.339   3.669 -0.5658 -1.9601  0.4819
 1297SOL    HW215351   2.036   3.376   3.680 -1.2541  0.2457  0.9085
 1298SOL     OW15352   3.269   4.291   1.911 -0.4120 -0.4467 -0.1639
 1298SOL    HW115353   3.216   4.370   1.904  1.3780  0.6699 -1.2678
 1298SOL    HW215354   3.338   4.315   1.973  1.0516 -2.6019 -0.9374
 1299SOL     OW15355   0.438   1.015   8.590 -0.3621 -0.4326  0.1591
 1299SOL    HW115356   0.353   1.015   8.547 -0.8459 -0.9030  1.1043
 1299SOL    HW215357   0.433   0.983   8.681  0.7819  0.3955  0.5155
 1300SOL     OW15358   2.635   3.677   2.921  0.1329  0.1074 -0.2444
 1300SOL    HW115359   2.582   3.704   2.846  2.6567  1.5094 -1.5012
 1300SOL    HW215360   2.716   3.645   2.881  1.2972  2.0106  0.5874
 1301SOL     OW15361   3.384   1.375   2.065 -0.3955 -0.0708 -0.4328
 1301SOL    HW115362   3.455   1.440   2.069  1.7111 -2.5869  3.3904
 1301SOL    HW215363   3.308   1.410   2.019 -1.2033 -0.7904  0.3745
 1302SOL     OW15364   4.104   0.704   5.381  0.2046 -0.0874  0.3720
 1302SOL    HW115365   4.198   0.688   5.380  0.1362 -0.4812  0.1952
 1302SOL    HW215366   4.064   0.618   5.388  0.3894 -0.1864  0.2043
 1303SOL     OW15367   4.494   0.563   0.149 -0.3965 -0.0050  0.0436
 1303SOL    HW115368   4.546   0.516   0.214 -1.9795 -1.0337  0.5660
 1303SOL    HW215369   4.534   0.650   0.161 -1.1891  0.3274  0.2809
 1304SOL     OW15370   4.022   1.543   6.918 -0.6866  0.0797 -0.0860
 1304SOL    HW115371   3.967   1.616   6.944  0.7328  1.0427  0.2115
 1304SOL    HW215372   4.021   1.503   7.005  1.6304 -2.4483 -1.1881
 1305SOL     OW15373   1.343   2.069  12.980  0.5728  0.1070  0.0493
 1305SOL    HW115374   1.389   2.153  12.984 -2.0144  1.5826 -1.6372
 1305SOL    HW215375   1.405   2.018  13.033  1.2255  3.2424  2.3022
 1306SOL     OW15376   1.030   0.017   8.651  0.1198 -0.6278 -0.1957
 1306SOL    HW115377   1.075   0.101   8.665 -1.1121  0.3087 -1.8682
 1306SOL    HW215378   0.961   0.017   8.717  1.6314  1.6162  1.3789
 1307SOL     OW15379   2.427   1.777  17.118  0.1468  0.2529  0.7184
 1307SOL    HW115380   2.420   1.695  17.167 -1.9556 -0.8223 -1.3520
 1307SOL    HW215381   2.384   1.840  17.175  1.3701 -0.1515  2.0844
 1308SOL     OW15382   2.662   1.763   7.966 -0.4596 -0.1581  0.7020
 1308SOL    HW115383   2.727   1.822   7.926 -2.5592  1.3747 -0.4260
 1308SOL    HW215384   2.621   1.721   7.890 -1.2781  0.5658  0.7544
 1309SOL     OW15385   0.828   3.841   7.824 -0.1396  0.2194  0.1324
 1309SOL    HW115386   0.788   3.926   7.846 -0.9987 -0.1589  0.0177
 1309SOL    HW215387   0.923   3.848   7.824 -0.2265  1.4441 -0.3529
 1310SOL     OW15388   4.576   2.901   2.836 -0.1407  0.3935 -0.0712
 1310SOL    HW115389   4.553   2.993   2.827 -2.4330 -0.0902  0.7476
 1310SOL    HW215390   4.509   2.860   2.781 -0.8518 -0.0141  1.1035
 1311SOL     OW15391   3.693   2.500   7.941  0.1649 -0.0869 -0.8932
 1311SOL    HW115392   3.629   2.442   7.983  1.1355 -0.0754  0.5660
 1311SOL    HW215393   3.694   2.476   7.848 -0.7170  0.2322 -0.9833
 1312SOL     OW15394   1.583   0.378  11.645 -0.5882  0.5323  0.6832
 1312SOL    HW115395   1.608   0.348  11.557 -0.8265 -0.7717  1.0654
 1312SOL    HW215396   1.488   0.375  11.638 -0.5610 -3.0099  2.3339
 1313SOL     OW15397   1.632   0.308   2.586 -0.1585  0.5179  0.0659
 1313SOL    HW115398   1.665   0.373   2.647 -1.8313  1.0305  0.4095
 1313SOL    HW215399   1.688   0.334   2.513  1.4476  2.5287  2.0218
 1314SOL     OW15400   0.038   2.700   7.718 -0.2496 -0.0648  0.7599
 1314SOL    HW115401   4.715   2.783   7.729  0.2719 -0.0191  2.5813
 1314SOL    HW215402   4.688   2.643   7.695  0.3860 -0.5868  0.0005
 1315SOL     OW15403   1.692   2.435   4.999 -0.3734 -0.1648 -0.5669
 1315SOL    HW115404   1.728   2.520   5.022  0.0887 -0.9502  1.5706
 1315SOL    HW215405   1.759   2.378   5.037 -1.2970 -1.0181 -0.2138
 1316SOL     OW15406   0.320   0.701   7.953  0.1968 -0.8355 -0.0538
 1316SOL    HW115407   0.285   0.747   8.030  2.5886  0.4944  0.2383
 1316SOL    HW215408   0.270   0.620   7.964  0.0035 -0.7399 -0.2357
 1317SOL     OW15409   0.180   3.490  16.195  0.1005 -0.3617  0.4365
 1317SOL    HW115410   0.093   3.449  16.199 -0.6751  1.1944 -0.6445
 1317SOL    HW215411   0.179   3.547  16.271  1.8568  0.7200 -0.3502
 1318SOL     OW15412   1.807   3.094   2.981 -0.3607  0.5014 -0.3635
 1318SOL    HW115413   1.853   3.155   2.924  2.4897 -1.7563 -0.5278
 1318SOL    HW215414   1.839   3.011   2.944 -0.9403  1.8712 -3.9808
 1319SOL     OW15415   1.707   0.598   4.192 -0.5172  0.6261  0.1747
 1319SOL    HW115416   1.614   0.577   4.193 -0.4925  0.4435 -0.9066
 1319SOL    HW215417   1.723   0.576   4.100 -2.4714  0.8983 -0.2285
 1320SOL     OW15418   2.973   1.266   4.904  0.1475  0.5083 -0.4782
 1320SOL    HW115419   2.978   1.340   4.843 -0.7463  2.2747  1.6224
 1320SOL    HW215420   2.960   1.314   4.985 -0.9066  1.4374 -1.2046
 1321SOL     OW15421   4.529   1.694   4.389  0.2334 -0.0760 -0.4748
 1321SOL    HW115422   4.556   1.760   4.326  2.0870  1.3159  1.7914
 1321SOL    HW215423   4.535   1.616   4.333 -1.1005 -1.3749  1.1576
 1322SOL     OW15424   2.960   4.110   6.912 -0.1146  0.6685  0.6134
 1322SOL    HW115425   3.016   4.036   6.886 -1.2739  0.1880 -0.4939
 1322SOL    HW215426   2.916   4.078   6.990  1.5633  0.4219  1.4693
 1323SOL     OW15427   3.098   3.100   6.421  0.3532  0.0399 -0.8741
 1323SOL    HW115428   3.026   3.162   6.434  2.6698  1.9273  2.9085
 1323SOL    HW215429   3.063   3.022   6.461 -1.6174  0.2447 -2.2103
 1324SOL     OW15430   2.130   2.061   8.429 -0.4525 -0.2854 -0.3640
 1324SOL    HW115431   2.092   2.090   8.346 -0.4472 -1.0530 -0.6360
 1324SOL    HW215432   2.059   2.090   8.486 -0.4561  1.4689 -1.2477
 1325SOL     OW15433   4.193   3.332  14.096  0.1586 -0.3466  0.1204
 1325SOL    HW115434   4.234   3.250  14.067  0.9849 -0.1137  0.6094
 1325SOL    HW215435   4.236   3.390  14.033 -0.0611 -0.5312 -0.1967
 1326SOL     OW15436   2.414   1.151   9.682  0.1204  0.1286  0.3641
 1326SOL    HW115437   2.432   1.239   9.650 -2.2625  0.6570  0.4253
 1326SOL    HW215438   2.394   1.168   9.774 -2.2429  0.0807 -0.1335
 1327SOL     OW15439   0.296   3.554   3.449  0.4916  0.5639 -0.4104
 1327SOL    HW115440   0.324   3.469   3.481  0.4195 -0.7462 -3.8279
 1327SOL    HW215441   0.278   3.599   3.531 -0.5792 -0.2647 -0.1901
 1328SOL     OW15442   3.241   3.353  15.160  0.2828 -0.2479 -0.1152
 1328SOL    HW115443   3.291   3.293  15.215 -1.3443 -0.4539  1.1408
 1328SOL    HW215444   3.252   3.432  15.214 -1.4367 -0.0607 -0.0655
 1329SOL     OW15445   1.301   3.976   8.256 -0.6930 -0.0001 -0.3811
 1329SOL    HW115446   1.378   3.925   8.280 -1.0973 -1.1961 -1.6440
 1329SOL    HW215447   1.237   3.906   8.238 -2.1079  1.2196 -0.1311
 1330SOL     OW15448   0.233   1.734  15.178  0.0494  0.0639 -0.7225
 1330SOL    HW115449   0.249   1.821  15.141 -0.9472  1.2768  1.6890
 1330SOL    HW215450   0.138   1.737  15.189  0.1598 -2.6105  0.8250
 1331SOL     OW15451   0.087   4.253  14.229 -0.2910  0.2335  0.0322
 1331SOL    HW115452   0.043   4.338  14.224  0.7921  0.6885 -1.8539
 1331SOL    HW215453   0.011   4.195  14.229  1.2502 -1.7992 -0.4456
 1332SOL     OW15454   2.174   1.919   4.278 -0.4193 -0.2280 -0.2110
 1332SOL    HW115455   2.259   1.916   4.322  0.0464  0.1473 -1.0739
 1332SOL    HW215456   2.145   1.828   4.265  0.0061 -0.6585  1.8577
 1333SOL     OW15457   0.668   2.895   2.171 -0.2398  0.3565  0.1916
 1333SOL    HW115458   0.595   2.947   2.206 -1.9983 -3.0490  1.6487
 1333SOL    HW215459   0.718   2.877   2.250  1.8724 -0.9307 -1.4616
 1334SOL     OW15460   1.192   0.744   5.794 -0.2560  0.1096  0.7115
 1334SOL    HW115461   1.251   0.813   5.763 -0.2442  0.4914  1.5830
 1334SOL    HW215462   1.264   0.690   5.826 -1.4720 -1.5582  0.6108
 1335SOL     OW15463   4.265   3.515  17.445 -0.4511  0.9724 -0.1555
 1335SOL    HW115464   4.309   3.449  17.498  2.3356  1.1638 -2.2192
 1335SOL    HW215465   4.176   3.510  17.481 -0.8367 -0.0074 -1.2212
 1336SOL     OW15466   2.357   1.543  11.235 -0.0477 -0.6897 -0.3923
 1336SOL    HW115467   2.448   1.520  11.221 -0.0497 -0.5863 -0.5740
 1336SOL    HW215468   2.310   1.496  11.166 -1.1816  1.1205 -0.8444
 1337SOL     OW15469   4.271   4.314   2.110  0.2318 -1.0421  0.3102
 1337SOL    HW115470   4.290   4.228   2.148  0.2963 -1.3308 -0.3741
 1337SOL    HW215471   4.351   4.364   2.126 -1.4836  1.3847  1.2463
 1338SOL     OW15472   4.319   3.940  11.507 -0.1336 -0.3453 -0.0457
 1338SOL    HW115473   4.274   4.021  11.483  0.1530 -0.2555 -0.2742
 1338SOL    HW215474   4.341   3.955  11.599  0.6146 -3.8751  0.3454
 1339SOL     OW15475   2.364   0.825   9.219  0.2555  0.0537  0.6236
 1339SOL    HW115476   2.275   0.821   9.251 -0.6334  2.8833 -1.4264
 1339SOL    HW215477   2.391   0.741   9.256 -1.8455 -0.5883  0.6701
 1340SOL     OW15478   0.276   1.715   3.080 -0.2691 -0.4608 -0.1325
 1340SOL    HW115479   0.364   1.748   3.096  0.0126 -1.8213  1.0918
 1340SOL    HW215480   0.298   1.628   3.047  0.5698 -0.0089 -0.7660
 1341SOL     OW15481   0.207   3.090   0.378 -0.2757  0.5599 -0.6150
 1341SOL    HW115482   0.181   3.009   0.422 -0.2150  0.5582 -0.5825
 1341SOL    HW215483   0.300   3.070   0.372 -0.4233 -0.6194  0.8677
 1342SOL     OW15484   1.775   4.253   5.007 -0.0495  0.9512  0.1150
 1342SOL    HW115485   1.733   4.322   5.059  0.2885  0.7063  0.7077
 1342SOL    HW215486   1.863   4.287   4.992  0.3818 -0.3737 -0.3654
 1343SOL     OW15487   0.448   2.008  15.913 -0.0937  0.0081  0.7615
 1343SOL    HW115488   0.390   1.932  15.918 -1.7338  1.0503 -2.2295
 1343SOL    HW215489   0.478   1.991  15.824 -0.5318  0.0428  0.6088
 1344SOL     OW15490   1.321   2.274   1.046 -0.2553 -0.3183 -0.1290
 1344SOL    HW115491   1.293   2.362   1.073 -1.1113 -0.3177 -1.0222
 1344SOL    HW215492   1.235   2.233   1.056  0.1019 -0.5297  2.2567
 1345SOL     OW15493   4.422   1.346   2.623 -0.4697  0.3124  0.1216
 1345SOL    HW115494   4.330   1.324   2.615 -0.2147 -1.2287  1.3814
 1345SOL    HW215495   4.447   1.369   2.533  2.2978  2.6020  1.4511
 1346SOL     OW15496   4.417   2.331   2.385 -0.2140 -0.4146 -0.5068
 1346SOL    HW115497   4.475   2.369   2.452 -2.7870 -0.1711  1.5790
 1346SOL    HW215498   4.473   2.254   2.373 -1.2252 -1.7302  3.2620
 1347SOL     OW15499   1.578   2.019   4.710 -0.2597 -0.6756  0.5034
 1347SOL    HW115500   1.600   2.043   4.800 -1.4173  0.1744  0.5549
 1347SOL    HW215501   1.612   1.931   4.726  0.1359 -1.3297 -3.9202
 1348SOL     OW15502   2.519   1.176   2.611 -0.5827 -0.0504 -0.0976
 1348SOL    HW115503   2.488   1.238   2.545 -1.4740  0.7494  1.0839
 1348SOL    HW215504   2.447   1.183   2.673  0.4701  0.7595  1.0410
 1349SOL     OW15505   3.060   4.392   1.430 -0.9478 -0.6039 -0.0164
 1349SOL    HW115506   2.984   4.438   1.466  0.4937  3.0767 -1.6969
 1349SOL    HW215507   3.127   4.459   1.441  0.0369 -2.1344  3.3162
 1350SOL     OW15508   0.240   3.452   4.576 -0.0313  0.0917  0.0336
 1350SOL    HW115509   0.227   3.546   4.585  0.2227  0.2512 -1.2801
 1350SOL    HW215510   0.238   3.426   4.668  2.0612  1.7395  0.5567
 1351SOL     OW15511   2.378   1.471   4.657  0.2363 -0.3146 -0.6989
 1351SOL    HW115512   2.466   1.507   4.659  0.0161  0.0766  1.6029
 1351SOL    HW215513   2.342   1.516   4.580 -0.1622 -3.6107 -2.4351
 1352SOL     OW15514   2.287   3.596   5.135 -0.4013 -0.4751  0.3626
 1352SOL    HW115515   2.243   3.578   5.218  0.0596 -0.1510  0.6722
 1352SOL    HW215516   2.218   3.647   5.094 -1.4595 -1.3629  1.0259
 1353SOL     OW15517   0.959   1.625   9.199  0.0830 -0.4716  0.2014
 1353SOL    HW115518   0.864   1.640   9.208  0.2598 -0.5786  2.2391
 1353SOL    HW215519   0.982   1.644   9.108 -1.8229  1.7270  0.1585
 1354SOL     OW15520   0.997   1.176   2.338 -0.4989  0.4352 -0.6599
 1354SOL    HW115521   0.953   1.258   2.362 -0.0472  0.7799 -1.0032
 1354SOL    HW215522   1.005   1.132   2.422  0.0756 -1.7265 -1.8608
 1355SOL     OW15523   0.503   3.067  14.814  0.0935 -0.2754  0.1818
 1355SOL    HW115524   0.451   3.078  14.734 -2.3927  0.4893  1.9458
 1355SOL    HW215525   0.506   3.151  14.860 -0.1065 -0.1208 -0.0823
 1356SOL     OW15526   4.604   3.996   9.588  0.2470 -0.3443 -0.4124
 1356SOL    HW115527   4.663   3.997   9.664  0.9157  0.0462 -0.9266
 1356SOL    HW215528   4.632   4.073   9.538  1.0342  0.6065  1.4621
 1357SOL     OW15529   0.316   2.238   5.073 -0.1669  0.6979 -0.3316
 1357SOL    HW115530   0.364   2.155   5.071  0.4543  1.0347  0.7292
 1357SOL    HW215531   0.244   2.214   5.015 -1.4275  1.8294  0.7715
 1358SOL     OW15532   2.453   2.493   8.554  0.5624  0.0222 -0.3005
 1358SOL    HW115533   2.464   2.453   8.640  0.4042 -2.3258 -1.3806
 1358SOL    HW215534   2.373   2.454   8.520  0.8221 -1.3084  0.6193
 1359SOL     OW15535   3.852   1.894  12.181 -0.0506  0.0228  0.1690
 1359SOL    HW115536   3.799   1.872  12.258 -1.2120 -1.2981 -1.0161
 1359SOL    HW215537   3.798   1.947  12.123  1.0766  1.6625  0.6187
 1360SOL     OW15538   2.802   0.105   2.713 -0.0419 -0.2376 -0.5890
 1360SOL    HW115539   2.716   0.061   2.718  0.3068 -0.8691 -0.0601
 1360SOL    HW215540   2.847   0.060   2.784 -0.4813 -2.3128 -1.6154
 1361SOL     OW15541   3.818   1.113  13.727 -0.0150  0.5770  0.1210
 1361SOL    HW115542   3.735   1.126  13.682  0.6904  1.6658 -0.8322
 1361SOL    HW215543   3.818   1.023  13.761 -1.5456  0.3272 -0.5500
 1362SOL     OW15544   1.970   0.153   3.775  0.3126  0.2958  0.3492
 1362SOL    HW115545   1.993   0.077   3.828  0.5207  0.0582 -0.0799
 1362SOL    HW215546   2.033   0.215   3.812 -1.5424  1.2564  1.9322
 1363SOL     OW15547   3.854   0.832  14.007 -0.1389  0.1136 -0.1780
 1363SOL    HW115548   3.777   0.792  13.964  1.3552 -1.0465 -1.7870
 1363SOL    HW215549   3.811   0.898  14.060  1.2294  2.1358 -1.6004
 1364SOL     OW15550   0.494   0.838   0.372  0.2621 -0.0292 -0.1117
 1364SOL    HW115551   0.526   0.796   0.292 -0.7217  1.7460 -1.4320
 1364SOL    HW215552   0.552   0.913   0.384 -2.6150  2.1606 -0.0495
 1365SOL     OW15553   4.567   2.894   3.655 -0.1452 -0.5819  0.1019
 1365SOL    HW115554   4.567   2.964   3.720  1.8087 -0.7266  0.2561
 1365SOL    HW215555   4.476   2.882   3.628  0.6731 -0.6111 -2.6942
 1366SOL     OW15556   2.234   0.878   1.210  0.3976  0.4747  0.1679
 1366SOL    HW115557   2.186   0.808   1.255 -1.2059  0.8614 -0.9453
 1366SOL    HW215558   2.273   0.925   1.284  0.5807  0.0222  0.3574
 1367SOL     OW15559   4.645   4.582   5.809  0.3902  0.0338  0.5358
 1367SOL    HW115560   4.720   4.642   5.799  0.4590  0.1965  2.0254
 1367SOL    HW215561   4.621   4.598   5.900 -0.2536  2.0745  0.0132
 1368SOL     OW15562   2.200   4.635  11.873 -0.0934 -0.1789  0.0832
 1368SOL    HW115563   2.152   4.677  11.945  0.4797  0.0141  0.3485
 1368SOL    HW215564   2.126   4.588  11.835 -0.2887  0.1250  0.0829
 1369SOL     OW15565   2.457   3.049   7.396  0.4394  0.3317 -0.0013
 1369SOL    HW115566   2.552   3.061   7.389  0.7755 -1.6494  1.2440
 1369SOL    HW215567   2.423   3.120   7.450 -1.3990  1.2211 -2.3101
 1370SOL     OW15568   3.329   1.492   7.879  1.0077  0.0386 -0.0933
 1370SOL    HW115569   3.402   1.438   7.850  1.3335 -0.1137  0.9954
 1370SOL    HW215570   3.260   1.458   7.823  0.7406 -0.3439  0.4640
 1371SOL     OW15571   0.823   2.440   4.184 -0.2477 -0.0401  0.4269
 1371SOL    HW115572   0.816   2.351   4.220  2.4340 -0.4456 -0.0719
 1371SOL    HW215573   0.908   2.439   4.140 -0.9878 -1.8217 -0.9891
 1372SOL     OW15574   0.145   4.677  15.874 -0.0192  0.2950  0.1386
 1372SOL    HW115575   0.217   4.653  15.815  0.8522 -0.2270  1.4080
 1372SOL    HW215576   0.155   0.048  15.885 -3.0095  0.6990 -0.7794
 1373SOL     OW15577   2.103   0.573   5.269 -0.7775 -0.0545  0.1658
 1373SOL    HW115578   2.074   0.535   5.186  0.7305  1.2335 -0.9493
 1373SOL    HW215579   2.195   0.547   5.279 -0.3349  1.0004 -1.0568
 1374SOL     OW15580   0.705   3.114   8.941 -0.5847  0.4008 -0.0859
 1374SOL    HW115581   0.644   3.107   8.868 -1.1971  3.7138  0.0989
 1374SOL    HW215582   0.726   3.207   8.941 -1.9074  0.6809  3.7114
 1375SOL     OW15583   4.600   1.346   7.988  0.7963  0.0794 -0.2741
 1375SOL    HW115584   4.526   1.292   8.017  1.2811 -0.9519 -0.9640
 1375SOL    HW215585   4.646   1.295   7.922  3.3181  0.8652  0.8944
 1376SOL     OW15586   2.719   3.902  10.612  0.2171  0.2853 -0.2874
 1376SOL    HW115587   2.633   3.937  10.587 -0.3403  1.4492  3.2481
 1376SOL    HW215588   2.770   3.896  10.531  0.1695 -0.8177 -0.2295
 1377SOL     OW15589   3.218   2.479   8.103  0.2253 -0.1125 -0.2788
 1377SOL    HW115590   3.241   2.513   8.190  1.5424 -0.6166 -0.4314
 1377SOL    HW215591   3.138   2.429   8.119 -1.9897  3.6971  0.4158
 1378SOL     OW15592   3.373   3.655   8.489  0.2016 -0.0864  0.6619
 1378SOL    HW115593   3.433   3.673   8.417  1.1935 -1.0904  1.2472
 1378SOL    HW215594   3.287   3.650   8.446  1.4694 -0.2373 -1.8180
 1379SOL     OW15595   2.557   2.098   3.461  0.2421  0.0702  0.0687
 1379SOL    HW115596   2.624   2.149   3.416 -2.5572  4.1302  0.4639
 1379SOL    HW215597   2.494   2.170   3.468 -1.0285 -1.0677  0.3041
 1380SOL     OW15598   2.394   2.403  15.292 -0.2374 -0.1917 -0.3126
 1380SOL    HW115599   2.323   2.448  15.339 -1.7108 -1.9902 -0.8118
 1380SOL    HW215600   2.341   2.373  15.218 -2.4985  0.4698  1.0213
 1381SOL     OW15601   1.786   0.885   5.109 -0.6422 -0.2622  0.2649
 1381SOL    HW115602   1.831   0.811   5.068 -2.3358 -0.1529 -1.7844
 1381SOL    HW215603   1.696   0.851   5.105 -0.2671 -1.1176 -1.1741
 1382SOL     OW15604   2.152   1.419   9.370 -0.6421  0.0700 -0.3949
 1382SOL    HW115605   2.073   1.447   9.416 -1.0657 -2.0402  0.1293
 1382SOL    HW215606   2.202   1.491   9.409 -1.0219  0.6530 -0.9746
 1383SOL     OW15607   0.380   2.786  15.141 -0.1566  0.0963 -0.3317
 1383SOL    HW115608   0.384   2.795  15.046  0.9383  0.1871 -0.2706
 1383SOL    HW215609   0.459   2.836  15.160 -0.4457  0.1303  0.7358
 1384SOL     OW15610   1.310   1.626   6.544 -0.4955  0.1493  0.1494
 1384SOL    HW115611   1.294   1.642   6.637 -1.9294 -1.2543  0.1271
 1384SOL    HW215612   1.260   1.546   6.527 -1.4358  1.0441 -1.1994
 1385SOL     OW15613   1.729   3.975   1.401 -0.1809 -0.3622  0.4279
 1385SOL    HW115614   1.814   4.016   1.415  1.7270 -3.6381 -1.3612
 1385SOL    HW215615   1.741   3.891   1.447  0.1584 -0.9568 -0.7258
 1386SOL     OW15616   4.453   3.355  17.595  0.7537  0.1059 -0.2463
 1386SOL    HW115617   4.469   3.406  17.675 -1.9738  1.3150 -0.4897
 1386SOL    HW215618   4.544   3.354  17.564  0.6994 -1.9288 -0.2999
 1387SOL     OW15619   0.226   3.494   7.304 -0.1261  0.0239 -0.0377
 1387SOL    HW115620   0.232   3.589   7.291 -2.0286  0.2481  0.6294
 1387SOL    HW215621   0.142   3.493   7.351  0.6225 -0.2124  1.3044
 1388SOL     OW15622   4.534   2.305   7.400 -0.2696 -0.5321 -0.3427
 1388SOL    HW115623   4.479   2.265   7.468 -2.2735  0.1006 -1.6060
 1388SOL    HW215624   4.624   2.307   7.433 -0.3255 -0.6947 -0.1799
 1389SOL     OW15625   1.045   0.459   8.500  0.1234  0.1603  1.0240
 1389SOL    HW115626   0.957   0.466   8.537 -0.2892  2.5775 -0.3590
 1389SOL    HW215627   1.106   0.488   8.567  0.4019 -1.5739  1.5134
 1390SOL     OW15628   4.018   1.089   5.033 -0.0230 -0.4228 -0.2370
 1390SOL    HW115629   3.986   0.999   5.035  0.3667 -0.5744 -0.8872
 1390SOL    HW215630   4.021   1.115   5.125  0.5016 -0.7636 -0.1591
 1391SOL     OW15631   2.784   0.430   7.391 -0.0317  0.1117 -0.3883
 1391SOL    HW115632   2.695   0.416   7.424  0.5262  2.5355  2.1162
 1391SOL    HW215633   2.839   0.441   7.469 -0.3472 -1.8568  0.1094
 1392SOL     OW15634   1.795   0.118  15.206 -0.1491  0.0798  0.0132
 1392SOL    HW115635   1.831   0.184  15.266  0.0686  0.5749 -0.6570
 1392SOL    HW215636   1.812   0.044  15.264 -0.9783 -0.7449 -0.7900
 1393SOL     OW15637   0.606   1.879   4.093 -0.2254 -0.4156 -0.3803
 1393SOL    HW115638   0.565   1.961   4.067 -2.5436 -1.4464  0.0480
 1393SOL    HW215639   0.671   1.912   4.155 -0.5504  0.7458 -0.6512
 1394SOL     OW15640   1.314   2.559   3.951 -0.0160 -0.3553  0.2547
 1394SOL    HW115641   1.309   2.481   3.896 -0.1488 -1.9407  2.5006
 1394SOL    HW215642   1.276   2.513   4.026  0.1162 -1.6394 -0.4583
 1395SOL     OW15643   2.770   1.548   3.444  0.4409 -0.0012  0.2758
 1395SOL    HW115644   2.740   1.602   3.372  0.9035  1.5158  1.2310
 1395SOL    HW215645   2.729   1.471   3.405  1.0412 -0.5590  0.7444
 1396SOL     OW15646   0.689   3.044  13.015 -0.4576 -0.4523  0.4535
 1396SOL    HW115647   0.742   3.034  13.094 -1.0738  0.3966  0.9729
 1396SOL    HW215648   0.672   3.138  13.015  1.1536 -0.1651  2.3311
 1397SOL     OW15649   0.080   2.972   3.500  0.2608 -0.4007  0.5426
 1397SOL    HW115650   4.723   2.934   3.536  0.4975  1.2001  2.7392
 1397SOL    HW215651   0.074   2.949   3.407 -1.7022  0.6497  0.3999
 1398SOL     OW15652   0.276   1.308   2.331  0.2976  0.0580 -0.4497
 1398SOL    HW115653   0.347   1.257   2.291 -0.5056  0.2279 -2.0653
 1398SOL    HW215654   0.241   1.344   2.251  0.0340 -0.5162 -0.5946
 1399SOL     OW15655   1.505   2.107   2.667  0.2374 -0.5333 -0.3211
 1399SOL    HW115656   1.540   2.034   2.615  0.2671 -0.3712 -0.5286
 1399SOL    HW215657   1.585   2.149   2.701  0.2283 -0.1014 -0.8349
 1400SOL     OW15658   4.038   0.919   5.865 -0.3759 -0.2526 -0.4600
 1400SOL    HW115659   4.018   1.012   5.864  2.4272  0.3545  0.7113
 1400SOL    HW215660   4.130   0.925   5.890 -1.0070  1.4949  1.4034
 1401SOL     OW15661   3.485   0.842   7.852  0.1745  0.3679  0.0813
 1401SOL    HW115662   3.574   0.848   7.819 -0.4984 -0.5376 -1.8759
 1401SOL    HW215663   3.495   0.820   7.945 -0.8054  1.9342  0.5645
 1402SOL     OW15664   0.112   3.956   5.832  0.0643  0.3381 -0.7055
 1402SOL    HW115665   0.134   3.864   5.817  0.6454  0.6530 -1.7707
 1402SOL    HW215666   0.106   3.995   5.745 -0.7845  0.0339 -0.7848
 1403SOL     OW15667   3.655   3.636  16.444 -0.2527 -0.0397 -0.2406
 1403SOL    HW115668   3.630   3.607  16.356  0.1292  1.2535 -0.7846
 1403SOL    HW215669   3.611   3.721  16.442 -0.9545 -0.3821  0.8061
 1404SOL     OW15670   2.853   4.319  11.138 -0.2220 -0.5707  0.3946
 1404SOL    HW115671   2.868   4.302  11.231 -3.0443 -0.9073  0.8015
 1404SOL    HW215672   2.943   4.301  11.109 -0.2798 -0.7676  0.3355
 1405SOL     OW15673   4.378   4.067   7.711  0.0520 -0.1110  0.5614
 1405SOL    HW115674   4.360   3.988   7.761 -1.3861 -0.3638 -0.3679
 1405SOL    HW215675   4.413   4.128   7.775 -0.6375  1.1890 -0.3078
 1406SOL     OW15676   0.358   0.782   6.130 -0.2767 -0.2638  0.0560
 1406SOL    HW115677   0.349   0.691   6.103 -2.4824 -0.1294  0.3937
 1406SOL    HW215678   0.306   0.768   6.209 -0.4289  0.7875  0.1392
 1407SOL     OW15679   4.141   1.521  14.933 -0.2817 -0.1638  0.5609
 1407SOL    HW115680   4.184   1.441  14.963  1.0737  0.3550  0.0577
 1407SOL    HW215681   4.207   1.561  14.875  0.4551 -2.1681  0.0272
 1408SOL     OW15682   2.480   3.628   2.710 -0.2582  0.5306 -0.0317
 1408SOL    HW115683   2.525   3.543   2.709 -1.6993 -0.2101 -1.9302
 1408SOL    HW215684   2.390   3.600   2.698  0.1717 -0.2333 -1.4654
 1409SOL     OW15685   2.974   1.020   2.930  0.0251 -0.4591 -0.1486
 1409SOL    HW115686   2.987   1.105   2.888 -1.1412 -0.0435  0.3277
 1409SOL    HW215687   2.878   1.016   2.940  0.2000  0.9041  2.1009
 1410SOL     OW15688   2.542   1.752   1.823 -0.1319 -0.2281  0.2221
 1410SOL    HW115689   2.556   1.709   1.738 -1.6248  0.4980 -0.4041
 1410SOL    HW215690   2.578   1.686   1.883  3.0187  0.9421 -0.4305
 1411SOL     OW15691   3.894   0.350   5.253 -0.3581 -0.5799 -0.0416
 1411SOL    HW115692   3.825   0.319   5.312  1.1279 -1.6285  1.1274
 1411SOL    HW215693   3.957   0.387   5.315  0.2249 -3.0602  0.8193
 1412SOL     OW15694   3.245   1.267   6.180  0.4493  0.2633 -0.1777
 1412SOL    HW115695   3.204   1.291   6.097  1.3219  1.4738 -0.2700
 1412SOL    HW215696   3.194   1.188   6.196  1.6012 -0.5468 -0.5232
 1413SOL     OW15697   4.063   1.450   4.000  0.3082 -0.0579 -0.5683
 1413SOL    HW115698   4.145   1.492   3.976  1.1210 -0.3317  1.7461
 1413SOL    HW215699   4.036   1.506   4.073 -0.9071 -1.1659 -0.1745
 1414SOL     OW15700   0.625   3.468  11.074  0.0384  0.2967  0.2530
 1414SOL    HW115701   0.638   3.397  11.137 -0.4567 -1.4876 -1.6376
 1414SOL    HW215702   0.708   3.513  11.090  0.2966 -0.4936  1.1330
 1415SOL     OW15703   4.269   2.152   6.249 -0.6448 -0.0800 -0.2063
 1415SOL    HW115704   4.284   2.214   6.178  0.3990  0.2620  0.3098
 1415SOL    HW215705   4.339   2.091   6.227 -1.8015 -1.1368 -0.9648
 1416SOL     OW15706   2.048   2.133   5.539 -0.2742  0.7406  0.0756
 1416SOL    HW115707   2.008   2.076   5.473 -1.1108 -0.5357  1.6828
 1416SOL    HW215708   2.126   2.079   5.554 -0.5878  1.3284  3.9918
 1417SOL     OW15709   1.093   3.127   0.091 -0.4390 -0.2170  0.0617
 1417SOL    HW115710   1.038   3.115   0.013  0.5145 -0.3559 -0.5983
 1417SOL    HW215711   1.168   3.077   0.059  0.2709  2.4978 -2.5525
 1418SOL     OW15712   4.439   2.843   6.802  0.6368 -0.3010 -0.5602
 1418SOL    HW115713   4.492   2.767   6.778 -0.3362 -0.4060 -2.4003
 1418SOL    HW215714   4.501   2.903   6.843  1.6184 -3.2386  2.2324
 1419SOL     OW15715   4.622   0.232   3.873 -0.1238 -0.2947  0.0947
 1419SOL    HW115716   4.649   0.244   3.964 -1.9568  0.1753  0.5715
 1419SOL    HW215717   4.528   0.226   3.886 -0.4325  0.5010 -1.7602
 1420SOL     OW15718   4.016   1.723  15.860  0.1171  0.2501 -0.2975
 1420SOL    HW115719   3.951   1.684  15.802 -2.2493  2.5709  0.7500
 1420SOL    HW215720   4.020   1.818  15.853 -1.2204  0.2529 -0.9596
 1421SOL     OW15721   3.618   1.673   4.587 -0.4007  0.5698 -0.2846
 1421SOL    HW115722   3.531   1.656   4.624  1.0119 -2.0051  1.8203
 1421SOL    HW215723   3.679   1.666   4.660 -1.0343 -0.6973  0.1289
 1422SOL     OW15724   0.942   2.608   8.422  0.0943  0.1149  0.0311
 1422SOL    HW115725   1.012   2.558   8.379  0.9545  0.5252  0.9665
 1422SOL    HW215726   0.992   2.656   8.487  0.6005 -1.9821  1.1850
 1423SOL     OW15727   2.201   0.055  14.198  0.1707 -0.1850 -0.3587
 1423SOL    HW115728   2.272   0.034  14.138  1.5512  0.4544  1.0689
 1423SOL    HW215729   2.243   0.023  14.278  1.6590 -0.1138 -1.1187
 1424SOL     OW15730   0.136   1.872  11.311  0.1798 -0.5104  0.0761
 1424SOL    HW115731   0.147   1.966  11.325 -0.5127 -0.4321  0.0730
 1424SOL    HW215732   0.184   1.839  11.387  2.1163  0.5152 -0.6973
 1425SOL     OW15733   2.413   2.880  17.110 -0.4057 -0.2959  0.0953
 1425SOL    HW115734   2.443   2.862  17.021  0.4557 -0.9980  0.5153
 1425SOL    HW215735   2.436   2.798  17.153  1.8336  0.0140 -0.4701
 1426SOL     OW15736   4.221   0.935   5.224  0.2137 -0.1762 -0.0015
 1426SOL    HW115737   4.209   0.858   5.168 -1.9428  0.5337 -0.5262
 1426SOL    HW215738   4.228   0.890   5.308  1.9436  1.0237  0.4859
 1427SOL     OW15739   3.530   3.067  10.208  0.3971  0.5324  0.2085
 1427SOL    HW115740   3.587   3.071  10.131 -0.4386 -0.8921 -0.4816
 1427SOL    HW215741   3.512   2.973  10.214  1.7681  0.3043  0.6501
 1428SOL     OW15742   2.844   3.838   6.970  0.8336  0.2539 -0.1167
 1428SOL    HW115743   2.795   3.810   7.047 -1.4629  1.5231 -1.1378
 1428SOL    HW215744   2.892   3.760   6.941  1.8532  0.9739 -0.3708
 1429SOL     OW15745   2.773   2.151   4.445  0.1071 -0.4402  0.1919
 1429SOL    HW115746   2.811   2.158   4.357 -3.4293  0.0688 -1.2668
 1429SOL    HW215747   2.739   2.240   4.444  2.7004  0.5401 -0.6014
 1430SOL     OW15748   0.962   1.598   4.367  0.3538  0.2341 -0.2156
 1430SOL    HW115749   0.970   1.640   4.453 -1.1657  0.8343 -0.3621
 1430SOL    HW215750   0.901   1.657   4.322  0.5760 -1.0934 -2.2395
 1431SOL     OW15751   3.967   2.727   6.980 -0.1680 -0.1248 -0.6280
 1431SOL    HW115752   3.956   2.732   6.885  1.8882 -2.3821 -0.9838
 1431SOL    HW215753   3.940   2.638   7.002  2.0376 -0.4667  0.6461
 1432SOL     OW15754   1.862   3.919   5.511  0.3531 -0.0678  0.3242
 1432SOL    HW115755   1.848   4.009   5.480 -0.2222 -0.0370  0.6677
 1432SOL    HW215756   1.956   3.901   5.504 -0.1996 -2.2151 -1.6916
 1433SOL     OW15757   1.260   4.079  17.504 -0.1632 -0.0103 -0.2714
 1433SOL    HW115758   1.188   4.135  17.476  1.4170  2.1604 -0.0187
 1433SOL    HW215759   1.326   4.142  17.535  0.7434 -0.8643 -0.4425
 1434SOL     OW15760   3.388   0.165   4.283  0.3799 -0.1139 -0.5152
 1434SOL    HW115761   3.397   0.073   4.260  1.2998 -0.3505  0.7694
 1434SOL    HW215762   3.350   0.159   4.371  0.8432  0.9701 -0.2410
 1435SOL     OW15763   0.933   4.415   7.668 -0.3503 -0.1176  0.3307
 1435SOL    HW115764   0.963   4.445   7.753  1.1592  2.6539 -1.1623
 1435SOL    HW215765   0.957   4.489   7.612  0.1722 -0.1589  0.5009
 1436SOL     OW15766   4.229   0.521   3.061 -0.6201 -0.5271 -0.1474
 1436SOL    HW115767   4.284   0.530   3.138 -2.4738 -1.1321  1.2609
 1436SOL    HW215768   4.248   0.608   3.026 -0.4516 -1.1209 -1.5123
 1437SOL     OW15769   1.040   1.156  15.792  0.0833 -0.0966 -0.6218
 1437SOL    HW115770   1.041   1.156  15.696 -1.3564  0.7651 -0.6345
 1437SOL    HW215771   0.953   1.193  15.807  1.1039  1.6411  1.0747
 1438SOL     OW15772   2.270   1.695   9.407 -0.3070 -0.0784  0.1462
 1438SOL    HW115773   2.266   1.706   9.502  1.0527 -0.2900  0.2361
 1438SOL    HW215774   2.206   1.758   9.375 -0.7398 -0.8007 -0.3975
 1439SOL     OW15775   3.871   3.047   6.409  0.0477 -0.4225 -0.2204
 1439SOL    HW115776   3.846   3.124   6.357  0.4217 -2.1797 -2.9714
 1439SOL    HW215777   3.960   3.072   6.431 -0.1132  1.9460 -2.2935
 1440SOL     OW15778   3.134   1.464   8.088 -0.4699 -0.0158  0.1577
 1440SOL    HW115779   3.086   1.488   8.008  0.2893  2.1616  0.3591
 1440SOL    HW215780   3.216   1.425   8.059 -1.0736  0.0912 -1.7501
 1441SOL     OW15781   3.379   4.287   3.345 -0.3137 -0.6313 -0.1723
 1441SOL    HW115782   3.285   4.277   3.334 -0.7535  0.5374  2.4949
 1441SOL    HW215783   3.377   4.363   3.404 -1.4274 -1.1405  0.4514
 1442SOL     OW15784   4.101   0.413   5.697  1.0625  0.3111 -0.1323
 1442SOL    HW115785   4.078   0.505   5.706 -0.9258 -0.4651  2.5728
 1442SOL    HW215786   4.034   0.373   5.752  1.4160 -2.0387 -1.3776
 1443SOL     OW15787   0.386   2.216   7.287 -0.1168 -0.2827 -0.1554
 1443SOL    HW115788   0.335   2.168   7.221 -2.7627  0.2907  1.5082
 1443SOL    HW215789   0.336   2.297   7.296  1.8601  0.8806  0.2429
 1444SOL     OW15790   0.683   2.181   6.084 -0.5784 -0.7604 -0.1664
 1444SOL    HW115791   0.643   2.179   6.171  0.2422 -2.1044  0.1957
 1444SOL    HW215792   0.778   2.181   6.101 -0.9932 -0.8310  2.1444
 1445SOL     OW15793   4.384   2.257   3.735  0.8565  0.2702 -0.1979
 1445SOL    HW115794   4.400   2.164   3.753 -0.3713 -0.0527 -0.7211
 1445SOL    HW215795   4.410   2.296   3.818 -1.1659 -2.6338  1.8220
 1446SOL     OW15796   2.732   4.444   3.817 -0.4448  0.3537 -0.0745
 1446SOL    HW115797   2.669   4.373   3.807 -0.5066  0.3740  0.1596
 1446SOL    HW215798   2.802   4.405   3.870  0.7033  1.9561 -0.3880
 1447SOL     OW15799   1.785   3.218   0.641 -0.2814 -0.0496  0.2871
 1447SOL    HW115800   1.739   3.193   0.721  0.4682 -4.6428 -0.7116
 1447SOL    HW215801   1.714   3.224   0.577 -0.7928  0.2826  0.8945
 1448SOL     OW15802   2.697   2.211   7.561 -0.4672  0.0664 -0.2287
 1448SOL    HW115803   2.671   2.202   7.652  0.2660  0.9961  0.0785
 1448SOL    HW215804   2.708   2.123   7.527  1.7806 -0.0293  0.7035
 1449SOL     OW15805   0.532   2.767   5.726  0.6616  0.3690 -0.3244
 1449SOL    HW115806   0.440   2.780   5.701  0.8009  0.6137 -0.6962
 1449SOL    HW215807   0.514   2.716   5.805 -1.0005  1.6404  0.1181
 1450SOL     OW15808   1.276   4.025  15.774 -0.6148  0.0508  0.8872
 1450SOL    HW115809   1.247   3.936  15.794 -2.0746  0.5025  0.7790
 1450SOL    HW215810   1.196   4.052  15.728 -0.4625 -0.7323  0.1489
 1451SOL     OW15811   2.795   3.540   8.088  0.5112  0.4148  0.0922
 1451SOL    HW115812   2.819   3.604   8.154  1.5598  1.4024 -1.2379
 1451SOL    HW215813   2.748   3.473   8.137  0.7376  0.6414  0.6156
 1452SOL     OW15814   0.888   0.252  11.077 -0.5110  0.1577 -0.2182
 1452SOL    HW115815   0.943   0.230  11.001  2.2379  2.3130  1.1416
 1452SOL    HW215816   0.888   0.174  11.133 -2.2232 -0.1318 -0.6269
 1453SOL     OW15817   0.944   3.614   1.026  0.1236  0.2747 -0.3870
 1453SOL    HW115818   1.034   3.583   1.036  0.5970  1.9366  0.6410
 1453SOL    HW215819   0.955   3.698   1.071  1.9072 -0.4434  0.5338
 1454SOL     OW15820   1.904   4.358   6.294  0.2895 -0.4951  0.5683
 1454SOL    HW115821   1.918   4.351   6.389  0.0529  1.6653  0.7718
 1454SOL    HW215822   1.898   4.454   6.292  1.6474 -0.3743  2.0807
 1455SOL     OW15823   4.539   1.077   4.771  0.0232  0.0637 -0.2624
 1455SOL    HW115824   4.562   0.985   4.760  1.0706  0.2499  0.3933
 1455SOL    HW215825   4.473   1.073   4.841  2.7131 -2.7123  2.1167
 1456SOL     OW15826   3.543   3.147   5.823  0.3953  0.5624 -0.5489
 1456SOL    HW115827   3.496   3.228   5.845  0.2574  0.1828  0.5313
 1456SOL    HW215828   3.495   3.086   5.878  1.0503  0.8698  0.3568
 1457SOL     OW15829   0.341   0.941   3.514 -0.3414 -0.8170  0.1003
 1457SOL    HW115830   0.309   1.031   3.505  0.6770 -0.6405 -1.7968
 1457SOL    HW215831   0.337   0.925   3.419 -1.1260  0.0108  0.0006
 1458SOL     OW15832   2.724   0.903   6.499 -0.5174  0.2353  0.1590
 1458SOL    HW115833   2.712   0.992   6.465  1.2852  1.0808  1.7339
 1458SOL    HW215834   2.650   0.884   6.556 -1.6482  0.9687 -1.0629
 1459SOL     OW15835   1.848   2.024   8.257 -0.2588  0.8957  0.8403
 1459SOL    HW115836   1.785   2.059   8.319 -1.3631  0.2187  0.0903
 1459SOL    HW215837   1.795   2.046   8.181 -0.1774 -3.9706 -0.5976
 1460SOL     OW15838   2.363   0.590   8.617  0.6025  0.3408  0.5335
 1460SOL    HW115839   2.279   0.578   8.661  0.6253  2.4459  1.1044
 1460SOL    HW215840   2.417   0.524   8.661  0.8337  1.4383  1.9051
 1461SOL     OW15841   4.126   3.860   8.648 -0.2368  0.7083 -0.1675
 1461SOL    HW115842   4.090   3.860   8.559 -2.7862  2.1793  0.8580
 1461SOL    HW215843   4.211   3.899   8.629 -0.8272  0.0217 -4.1379
 1462SOL     OW15844   4.377   3.901   8.295  0.6244  0.3469 -0.3255
 1462SOL    HW115845   4.296   3.863   8.329 -0.1831  0.6058 -1.9924
 1462SOL    HW215846   4.439   3.876   8.363  1.2604  1.2614 -0.5719
 1463SOL     OW15847   4.010   1.248   8.326 -0.4013  0.2882  1.0004
 1463SOL    HW115848   4.061   1.170   8.306  1.0451  1.3009  0.6604
 1463SOL    HW215849   4.027   1.263   8.419 -1.4625 -1.3909  1.4458
 1464SOL     OW15850   3.562   0.722   5.901  0.2612  0.3230 -0.2660
 1464SOL    HW115851   3.572   0.765   5.816  2.7213  0.6694  0.1971
 1464SOL    HW215852   3.557   0.795   5.963 -1.6522  0.8063 -0.9917
 1465SOL     OW15853   4.617   2.582   4.367 -0.3763 -0.3102  0.5404
 1465SOL    HW115854   4.666   2.618   4.292  0.6748  0.0107  1.3866
 1465SOL    HW215855   4.526   2.580   4.337 -0.4364  0.4292  0.6763
 1466SOL     OW15856   1.752   1.114  16.791  0.4006  0.0614  0.0687
 1466SOL    HW115857   1.737   1.155  16.706  0.0415  2.1162  1.1137
 1466SOL    HW215858   1.817   1.168  16.837  1.1762 -0.6045 -0.2626
 1467SOL     OW15859   4.496   1.238  13.684 -0.2075  0.0073 -0.2765
 1467SOL    HW115860   4.430   1.301  13.713  0.5738 -0.5478  2.6775
 1467SOL    HW215861   4.530   1.300  13.619  1.8786 -0.2692  0.5598
 1468SOL     OW15862   0.772   1.579   5.778  0.5356  0.0743 -0.2750
 1468SOL    HW115863   0.803   1.669   5.781 -2.0465  0.9278  1.5717
 1468SOL    HW215864   0.689   1.589   5.731  0.3951  1.6772  0.3012
 1469SOL     OW15865   1.006   0.302   2.754 -0.4424 -0.1773  0.3988
 1469SOL    HW115866   0.973   0.390   2.731  3.0549  1.3517  1.2554
 1469SOL    HW215867   1.073   0.294   2.687  0.5065 -0.0856  1.3344
 1470SOL     OW15868   3.866   3.585   0.334  0.1383 -0.6513 -0.2979
 1470SOL    HW115869   3.918   3.655   0.374  0.7108  0.0828 -2.3700
 1470SOL    HW215870   3.836   3.549   0.418 -2.5729  1.9012 -0.1510
 1471SOL     OW15871   3.366   3.565  14.064 -0.3160 -0.1388 -0.1180
 1471SOL    HW115872   3.366   3.509  13.986  1.1627  2.8842 -2.2991
 1471SOL    HW215873   3.307   3.638  14.044  0.4828  0.3706 -0.5803
 1472SOL     OW15874   1.983   4.560   4.689  0.2164  0.1461 -0.6599
 1472SOL    HW115875   1.976   4.644   4.644 -0.9219  0.6602  0.4953
 1472SOL    HW215876   2.039   4.520   4.622  1.8829 -1.6308  1.7567
 1473SOL     OW15877   1.069   0.483   4.789  0.6040 -0.0371  0.0857
 1473SOL    HW115878   1.068   0.578   4.793 -1.8381 -0.0645  0.0189
 1473SOL    HW215879   1.111   0.477   4.704  1.3982 -0.3421  0.5020
 1474SOL     OW15880   2.033   2.195  12.907  0.6253 -0.4406 -0.2957
 1474SOL    HW115881   1.983   2.277  12.908  1.8819  0.3285 -0.7254
 1474SOL    HW215882   2.063   2.195  12.817 -0.4788  0.3815 -0.6658
 1475SOL     OW15883   2.036   1.471  10.441  0.2447 -0.2102  0.2732
 1475SOL    HW115884   1.945   1.442  10.451 -0.6752  3.1564  1.7046
 1475SOL    HW215885   2.058   1.418  10.364  2.3359  2.0456 -0.6473
 1476SOL     OW15886   1.542   1.656   7.834  0.2551 -0.4081  0.3004
 1476SOL    HW115887   1.490   1.578   7.815  0.4336 -1.1546  2.8109
 1476SOL    HW215888   1.620   1.609   7.864  1.5559  0.8144 -1.1460
 1477SOL     OW15889   3.274   1.039   2.714 -0.1843  0.3078  0.3796
 1477SOL    HW115890   3.363   1.003   2.713  0.2284  1.4724 -2.6578
 1477SOL    HW215891   3.282   1.095   2.791  0.8562 -0.0012  0.5057
 1478SOL     OW15892   2.615   3.522   1.314  0.0014  0.3219  0.0195
 1478SOL    HW115893   2.615   3.436   1.355  0.8967 -0.1918 -1.0557
 1478SOL    HW215894   2.646   3.575   1.387  1.6704 -2.3280  1.2264
 1479SOL     OW15895   1.452   0.501   6.209  0.5345 -0.1801 -0.5837
 1479SOL    HW115896   1.532   0.472   6.165  0.5449 -1.0671  0.0172
 1479SOL    HW215897   1.479   0.496   6.301  1.5931 -0.3127 -0.8998
 1480SOL     OW15898   0.592   3.651  10.581  0.0255 -0.6741 -0.2578
 1480SOL    HW115899   0.606   3.626  10.490 -0.1405  2.2307 -1.0840
 1480SOL    HW215900   0.523   3.592  10.612 -3.1958  2.4374 -1.4839
 1481SOL     OW15901   0.101   4.628  12.945 -0.0815 -0.0631  0.4662
 1481SOL    HW115902   0.016   4.652  12.909  0.1613 -0.7307 -0.5395
 1481SOL    HW215903   0.167   4.672  12.891 -1.1001  2.2061  1.0774
 1482SOL     OW15904   2.321   3.035   9.862 -0.1443 -0.3685 -0.0624
 1482SOL    HW115905   2.334   2.944   9.836 -2.3362 -0.2503 -1.4821
 1482SOL    HW215906   2.314   3.072   9.774  1.0296 -1.0730 -0.4636
 1483SOL     OW15907   0.892   3.792   5.683 -0.1444 -0.1503 -0.0597
 1483SOL    HW115908   0.827   3.859   5.706  0.3262  0.7691 -1.4082
 1483SOL    HW215909   0.971   3.845   5.670 -0.8201  0.4991 -1.5675
 1484SOL     OW15910   0.375   3.877   7.890  0.1063  0.2190  0.6232
 1484SOL    HW115911   0.391   3.922   7.808 -2.6126 -0.2568 -0.1566
 1484SOL    HW215912   0.304   3.818   7.866  2.1299 -1.9940 -0.0052
 1485SOL     OW15913   1.799   2.094   2.578  0.5129 -0.1715  0.1592
 1485SOL    HW115914   1.748   2.095   2.497  0.0579  1.6088  0.4673
 1485SOL    HW215915   1.785   2.185   2.602  1.9392  0.1391 -0.1805
 1486SOL     OW15916   0.105   1.286  12.964  1.2325 -0.3588  0.1959
 1486SOL    HW115917   0.162   1.264  12.891  0.7732  0.5765 -0.4563
 1486SOL    HW215918   0.056   1.205  12.978  1.8496 -0.5421  1.2727
 1487SOL     OW15919   4.362   3.217   5.453 -0.1294  0.0948 -0.6286
 1487SOL    HW115920   4.407   3.207   5.369 -0.3766 -1.2736 -0.6108
 1487SOL    HW215921   4.379   3.128   5.484  0.5929  0.3306 -0.3443
 1488SOL     OW15922   4.322   0.577  11.188 -0.2828 -0.6868 -0.0146
 1488SOL    HW115923   4.302   0.613  11.274 -1.3480 -1.3012 -0.0082
 1488SOL    HW215924   4.239   0.576  11.140 -1.0855 -1.5234  1.3839
 1489SOL     OW15925   3.634   2.977   3.193 -0.2128 -0.0305  0.2870
 1489SOL    HW115926   3.717   2.930   3.201 -0.9831 -1.3363  0.5364
 1489SOL    HW215927   3.657   3.052   3.249 -1.5708 -0.0236  0.8488
 1490SOL     OW15928   1.038   1.338   0.868  0.2246 -0.4799 -0.6364
 1490SOL    HW115929   0.986   1.272   0.915 -1.2057  0.4219 -0.9595
 1490SOL    HW215930   0.998   1.421   0.894 -0.8838 -0.6255 -1.8852
 1491SOL     OW15931   1.177   3.736   8.659  0.0371 -0.2415 -0.3687
 1491SOL    HW115932   1.168   3.811   8.718 -0.3529  0.1542 -0.9324
 1491SOL    HW215933   1.169   3.666   8.723 -0.3303  0.1779  0.0395
 1492SOL     OW15934   0.872   0.769   8.104 -0.7535  0.4867  0.4182
 1492SOL    HW115935   0.912   0.682   8.105 -0.0592  0.8243  2.7234
 1492SOL    HW215936   0.951   0.805   8.064  0.0663 -0.9862  0.7270
 1493SOL     OW15937   3.765   3.749   5.100 -0.4535 -0.5040  0.2563
 1493SOL    HW115938   3.710   3.749   5.022 -0.9755  0.2623  0.6184
 1493SOL    HW215939   3.704   3.701   5.156 -0.7412  0.6976  0.9728
 1494SOL     OW15940   1.755   2.357   6.864 -0.1122 -0.3035 -0.3077
 1494SOL    HW115941   1.695   2.391   6.797  2.8805  2.1561 -1.7644
 1494SOL    HW215942   1.692   2.334   6.932 -0.6609  0.1800 -0.6521
 1495SOL     OW15943   3.631   4.356   4.047  0.8776  0.3969  0.5796
 1495SOL    HW115944   3.687   4.279   4.043  0.3603 -0.0669  2.6634
 1495SOL    HW215945   3.547   4.327   4.083  2.1450 -0.3716  2.8933
 1496SOL     OW15946   1.954   4.276   3.712 -0.0911  0.2319  0.2991
 1496SOL    HW115947   1.877   4.259   3.767  0.2420  1.6249  1.1946
 1496SOL    HW215948   1.910   4.257   3.629  1.1511  0.9722 -0.5208
 1497SOL     OW15949   0.890   3.176  15.533  0.1878 -0.2635 -0.5324
 1497SOL    HW115950   0.976   3.139  15.511  1.4348  2.3448 -0.0662
 1497SOL    HW215951   0.902   3.264  15.497  0.4852  0.1561  0.5860
 1498SOL     OW15952   1.168   0.202   0.138  0.3981 -0.0818  0.6187
 1498SOL    HW115953   1.084   0.220   0.180 -0.5094  0.3008 -1.3765
 1498SOL    HW215954   1.142   0.156   0.059  0.2368  1.8144 -0.4431
 1499SOL     OW15955   3.468   2.193  17.142 -0.1072  0.7897 -0.7535
 1499SOL    HW115956   3.456   2.098  17.151 -1.9371  1.2832  1.7703
 1499SOL    HW215957   3.502   2.209  17.053  2.4417 -1.2878 -0.1491
 1500SOL     OW15958   1.966   2.728  15.452  0.5535 -0.4506  0.4949
 1500SOL    HW115959   1.982   2.757  15.541 -1.3963 -2.5349  1.5381
 1500SOL    HW215960   1.941   2.810  15.410  1.5175 -0.3649  0.1089
 1501SOL     OW15961   2.463   0.336   6.194 -0.1291  0.2577 -0.0592
 1501SOL    HW115962   2.395   0.278   6.160  0.5671 -1.6397  1.7287
 1501SOL    HW215963   2.478   0.299   6.281  0.5556  0.4431 -0.0984
 1502SOL     OW15964   0.627   0.679   7.623  0.0261 -0.1762  0.2701
 1502SOL    HW115965   0.695   0.738   7.658  0.6071 -1.2878  1.0285
 1502SOL    HW215966   0.548   0.730   7.639 -0.4918 -0.6690 -0.7823
 1503SOL     OW15967   1.480   4.258   4.350 -0.4120  0.2138 -0.9711
 1503SOL    HW115968   1.499   4.252   4.443  0.4149 -2.6919 -1.3309
 1503SOL    HW215969   1.480   4.348   4.316 -1.3520  0.1699 -1.1101
 1504SOL     OW15970   3.936   2.267  10.286 -0.6399 -0.8550 -0.5078
 1504SOL    HW115971   4.012   2.214  10.309  0.0452  0.2499 -0.2444
 1504SOL    HW215972   3.891   2.283  10.369 -0.3887  0.8997 -0.7234
 1505SOL     OW15973   4.249   4.432  12.105 -0.2179  0.6095  0.1038
 1505SOL    HW115974   4.190   4.507  12.113 -2.2931 -0.8997 -1.0552
 1505SOL    HW215975   4.335   4.473  12.109  0.2789 -0.4514  0.3409
 1506SOL     OW15976   0.603   0.565   0.378  0.1260  0.6547 -0.2257
 1506SOL    HW115977   0.621   0.535   0.467  1.8176 -2.4655 -1.6122
 1506SOL    HW215978   0.581   0.656   0.398 -0.4147  0.3834  0.4019
 1507SOL     OW15979   2.637   1.995   0.302 -0.0163  0.2094 -0.0228
 1507SOL    HW115980   2.649   1.901   0.309 -0.3430  0.0412 -1.8507
 1507SOL    HW215981   2.589   2.023   0.380  0.3872  0.4800  0.1351
 1508SOL     OW15982   4.499   2.517  13.053  0.3360  0.0173 -1.1142
 1508SOL    HW115983   4.405   2.511  13.070  0.5172  0.0713 -0.0920
 1508SOL    HW215984   4.522   2.595  13.104 -0.8743 -0.3473  0.0087
 1509SOL     OW15985   0.190   0.215  13.137  0.4652 -0.1498  0.5301
 1509SOL    HW115986   0.239   0.295  13.121  0.3299 -0.4354 -1.3615
 1509SOL    HW215987   0.222   0.159  13.066  0.6930  0.2149  0.3477
 1510SOL     OW15988   2.196   4.204   2.170  0.2489 -0.1796 -0.3562
 1510SOL    HW115989   2.168   4.162   2.088 -0.7683 -0.4015  0.1020
 1510SOL    HW215990   2.183   4.127   2.225  0.8351  0.3479  0.5095
 1511SOL     OW15991   0.057   2.082   6.293 -0.3850 -0.0773 -0.1492
 1511SOL    HW115992   0.026   2.009   6.347 -1.0878 -0.4874 -1.1262
 1511SOL    HW215993   4.721   2.150   6.327  0.5883  0.4794  0.4170
 1512SOL     OW15994   3.620   3.799   4.857 -0.5460 -0.5072  0.3975
 1512SOL    HW115995   3.633   3.747   4.778 -1.3856 -0.4286  0.2128
 1512SOL    HW215996   3.532   3.778   4.887 -0.8368 -1.7039 -1.3095
 1513SOL     OW15997   0.071   2.360   5.967 -0.1944 -0.1637  0.1862
 1513SOL    HW115998   4.705   2.329   5.983 -0.0304 -0.1339  1.1621
 1513SOL    HW215999   0.113   2.384   6.049 -1.4094 -0.5392  0.9190
 1514SOL     OW16000   4.083   3.812  12.904 -0.0843 -0.5358 -0.2768
 1514SOL    HW116001   4.133   3.831  12.825  1.3019 -1.2451  0.4294
 1514SOL    HW216002   4.148   3.789  12.971  1.0049 -0.4944 -1.3400
 1515SOL     OW16003   3.819   3.433  16.872  0.3707 -0.2818 -0.3672
 1515SOL    HW116004   3.819   3.517  16.918 -0.4379 -0.6610  0.3511
 1515SOL    HW216005   3.791   3.472  16.790 -1.2589  0.1668  0.3827
 1516SOL     OW16006   1.796   0.302   3.288  0.3095  0.4406  0.3092
 1516SOL    HW116007   1.814   0.266   3.202  2.0109  0.7176  0.5378
 1516SOL    HW216008   1.877   0.352   3.300  0.9128 -0.4138 -0.2806
 1517SOL     OW16009   0.290   3.618   6.043 -0.1224 -0.5402  0.1972
 1517SOL    HW116010   0.381   3.618   6.073  0.1934 -0.1560 -0.7483
 1517SOL    HW216011   0.302   3.686   5.976  1.8251  0.5206  1.6327
 1518SOL     OW16012   1.077   0.429  11.319  0.5786  0.1330  0.0577
 1518SOL    HW116013   1.014   0.479  11.370 -1.6822 -2.2463 -0.3445
 1518SOL    HW216014   1.132   0.381  11.381 -1.4552 -0.9627  0.9979
 1519SOL     OW16015   0.342   3.759  15.988  0.1505  0.0906 -0.2018
 1519SOL    HW116016   0.254   3.789  15.964 -0.2680 -1.3031 -0.3807
 1519SOL    HW216017   0.399   3.792  15.919 -0.5399  1.0305 -0.3200
 1520SOL     OW16018   4.368   2.247   4.592 -0.3963 -0.1105  0.2572
 1520SOL    HW116019   4.312   2.289   4.657 -2.4522 -0.9748 -0.9470
 1520SOL    HW216020   4.307   2.189   4.547 -0.3919  0.0666  0.0254
 1521SOL     OW16021   4.221   2.136  13.441 -0.2218  0.4957  0.3146
 1521SOL    HW116022   4.247   2.226  13.462  0.7928  0.8656 -2.5334
 1521SOL    HW216023   4.212   2.138  13.346 -1.4472 -0.9489  0.3876
 1522SOL     OW16024   0.712   0.824   3.665  0.2281  0.5961  0.0288
 1522SOL    HW116025   0.644   0.820   3.732  0.8554 -0.3882  0.6033
 1522SOL    HW216026   0.789   0.830   3.722 -0.2989  1.3830  0.6696
 1523SOL     OW16027   1.408   0.665   4.690  0.2907 -0.5251 -0.4937
 1523SOL    HW116028   1.334   0.662   4.629 -0.3177 -1.0528  0.2790
 1523SOL    HW216029   1.445   0.577   4.681 -1.9280 -1.5060  0.1272
 1524SOL     OW16030   0.601   1.531   0.441  0.2311 -0.1688  0.2914
 1524SOL    HW116031   0.615   1.556   0.533  2.7598  3.4722 -1.0674
 1524SOL    HW216032   0.652   1.451   0.435 -0.8086 -0.7475 -0.7565
 1525SOL     OW16033   3.980   1.300   9.955  0.1857  0.6329  0.1412
 1525SOL    HW116034   4.074   1.309   9.940 -0.0357 -0.6995 -1.9449
 1525SOL    HW216035   3.981   1.348  10.038  2.6416 -1.5777  1.4250
 1526SOL     OW16036   0.057   2.213  12.781 -0.1844 -0.3126  0.3037
 1526SOL    HW116037   4.701   2.264  12.796  0.3193  0.4520  0.3436
 1526SOL    HW216038   0.101   2.208  12.865  0.3054 -1.2305  0.0017
 1527SOL     OW16039   3.595   0.703   9.052 -0.1763 -0.6645  0.1251
 1527SOL    HW116040   3.548   0.741   9.127  0.6111  0.7966 -0.1169
 1527SOL    HW216041   3.563   0.614   9.067 -2.6367  0.4147  1.2933
 1528SOL     OW16042   2.006   3.678  12.584  0.0125 -0.1300  0.8278
 1528SOL    HW116043   1.983   3.767  12.557  0.2183 -0.6986 -1.2733
 1528SOL    HW216044   2.090   3.671  12.539  0.5537  1.3489  1.6270
 1529SOL     OW16045   3.248   2.585   8.350 -0.5460 -0.1751  0.5446
 1529SOL    HW116046   3.282   2.580   8.440  0.3099  0.6176  0.2682
 1529SOL    HW216047   3.232   2.679   8.338  1.2384  0.0355 -0.0916
 1530SOL     OW16048   1.797   1.721   5.324  0.6648 -0.0245 -0.1870
 1530SOL    HW116049   1.819   1.681   5.240  0.5934  1.9226 -1.1465
 1530SOL    HW216050   1.738   1.657   5.363  1.5138 -1.7213 -1.6412
 1531SOL     OW16051   0.931   1.985   6.543 -0.3135  0.2092  0.2170
 1531SOL    HW116052   0.884   1.953   6.466 -1.0275  0.5410  0.5155
 1531SOL    HW216053   0.930   1.905   6.595  0.1130 -0.3642 -0.6598
 1532SOL     OW16054   4.327   0.894   8.774 -0.2604 -0.1633  0.3261
 1532SOL    HW116055   4.359   0.822   8.829  0.7436  0.0616  0.0253
 1532SOL    HW216056   4.289   0.957   8.835 -0.4733  0.1047 -0.0816
 1533SOL     OW16057   0.308   3.010   2.823 -0.3214 -0.3008  0.4771
 1533SOL    HW116058   0.343   2.981   2.739 -0.7261  0.8351 -0.0900
 1533SOL    HW216059   0.383   3.006   2.883 -0.6333  0.3070  0.9043
 1534SOL     OW16060   3.301   2.774   1.573  0.1750  0.3453  0.2244
 1534SOL    HW116061   3.221   2.827   1.564  0.8237  1.1031 -1.2026
 1534SOL    HW216062   3.312   2.701   1.512 -0.8150  0.5480 -0.2075
 1535SOL     OW16063   2.223   4.037  11.751  0.0015  0.0400  0.0457
 1535SOL    HW116064   2.148   4.090  11.722  1.0624  0.4833 -1.9015
 1535SOL    HW216065   2.296   4.097  11.734  0.8937 -0.7358  1.1312
 1536SOL     OW16066   1.655   1.433  12.118 -0.1533 -0.0054  0.1543
 1536SOL    HW116067   1.576   1.389  12.087 -0.4950  1.0833 -0.5044
 1536SOL    HW216068   1.684   1.363  12.177 -1.1084 -1.0632 -0.6352
 1537SOL     OW16069   1.724   0.984   6.247 -0.2754 -0.1385 -0.5558
 1537SOL    HW116070   1.768   1.062   6.213 -1.8528  0.8397 -0.3531
 1537SOL    HW216071   1.779   0.918   6.204 -1.9628 -1.9249  0.0141
 1538SOL     OW16072   1.988   1.264   4.116 -0.0891 -0.0728  0.1225
 1538SOL    HW116073   1.984   1.195   4.050 -3.0908 -1.2909  1.5559
 1538SOL    HW216074   2.040   1.228   4.188  0.5733 -1.2094 -0.9323
 1539SOL     OW16075   2.528   4.650   3.363 -0.5968 -0.2684  0.2164
 1539SOL    HW116076   2.515   0.022   3.353 -0.6532 -0.3693 -0.6583
 1539SOL    HW216077   2.619   4.650   3.336 -1.4559 -1.1614 -2.6984
 1540SOL     OW16078   3.858   0.802   3.456  0.2901 -0.1578 -0.0956
 1540SOL    HW116079   3.846   0.713   3.488 -3.0481  0.4140  0.2596
 1540SOL    HW216080   3.879   0.797   3.363  0.8704 -1.1253  0.0799
 1541SOL     OW16081   4.457   1.678   0.540 -0.2074 -0.2790  0.2178
 1541SOL    HW116082   4.410   1.748   0.495  0.4765 -0.3852 -0.6606
 1541SOL    HW216083   4.403   1.674   0.619 -1.3083 -1.1534 -0.5880
 1542SOL     OW16084   1.672   0.351  17.194 -0.3837 -0.7738 -0.5609
 1542SOL    HW116085   1.747   0.380  17.245 -0.3437 -1.0654 -0.4495
 1542SOL    HW216086   1.660   0.428  17.140  1.3837 -0.1762 -0.1002
 1543SOL     OW16087   1.150   4.426   2.580  0.2810 -0.3749  0.0726
 1543SOL    HW116088   1.176   4.502   2.529  2.4209  0.5689  2.6177
 1543SOL    HW216089   1.229   4.373   2.587  0.4280 -0.4455 -2.3440
 1544SOL     OW16090   2.049   0.749  10.095 -0.4962  0.0504  0.5710
 1544SOL    HW116091   2.052   0.836  10.135 -1.2738  0.5573 -0.4477
 1544SOL    HW216092   2.116   0.702  10.144 -0.7205  1.8486  2.5604
 1545SOL     OW16093   0.423   3.206  15.184 -0.0556 -0.0024  0.3912
 1545SOL    HW116094   0.377   3.212  15.100 -0.6798 -2.6048  0.5321
 1545SOL    HW216095   0.349   3.234  15.237 -1.6679  1.2620 -2.5047
 1546SOL     OW16096   4.545   2.436   4.736  0.0140 -0.3184  0.1259
 1546SOL    HW116097   4.524   2.376   4.665 -0.7682 -0.5482  0.5557
 1546SOL    HW216098   4.638   2.449   4.717 -0.2619  2.4834  0.7012
 1547SOL     OW16099   2.282   1.681  14.985 -0.1854  0.6739 -0.0203
 1547SOL    HW116100   2.352   1.743  15.005  2.6023 -2.4011 -0.2640
 1547SOL    HW216101   2.291   1.625  15.062  0.4054  2.4681  1.2271
 1548SOL     OW16102   3.106   0.585   7.326 -0.0977  0.6145  0.1088
 1548SOL    HW116103   3.021   0.629   7.319 -0.3221  0.3443  1.0968
 1548SOL    HW216104   3.161   0.632   7.263  0.7005  0.8629  0.9982
 1549SOL     OW16105   2.463   2.616  16.200 -0.3358 -0.1784  0.3788
 1549SOL    HW116106   2.556   2.603  16.180 -0.6599  0.3460 -1.4287
 1549SOL    HW216107   2.451   2.690  16.142  3.7096  0.7917  0.7655
 1550SOL     OW16108   3.010   3.489   6.119  0.1702 -0.0787 -0.2266
 1550SOL    HW116109   3.023   3.562   6.179  0.7378  0.2377 -0.7366
 1550SOL    HW216110   3.036   3.414   6.173 -1.3275 -0.7486 -0.4186
 1551SOL     OW16111   1.830   0.406  10.513 -0.2866 -0.6075 -0.2757
 1551SOL    HW116112   1.855   0.456  10.590  0.2326  0.2963 -1.0225
 1551SOL    HW216113   1.762   0.351  10.551 -1.5501  0.6147 -0.7680
 1552SOL     OW16114   3.938   2.126   7.706 -0.1510 -0.5477  0.7094
 1552SOL    HW116115   3.982   2.042   7.699  0.8079  0.1238 -1.2589
 1552SOL    HW216116   3.963   2.170   7.788  0.2865  2.3717 -0.9711
 1553SOL     OW16117   0.962   1.120   4.975  0.5409 -0.8047  0.2292
 1553SOL    HW116118   1.047   1.108   5.018  0.4294 -1.6413  0.2109
 1553SOL    HW216119   0.903   1.096   5.046  0.8078  0.0472  0.7434
 1554SOL     OW16120   2.659   2.671   3.073 -0.7380  0.2795 -0.5452
 1554SOL    HW116121   2.578   2.633   3.108 -1.2811  0.7598 -1.2486
 1554SOL    HW216122   2.709   2.591   3.055 -0.0968  0.3396  0.9834
 1555SOL     OW16123   1.478   1.927  13.416  0.3301  0.1312  0.1896
 1555SOL    HW116124   1.547   1.972  13.466 -0.9747 -0.1877  2.2682
 1555SOL    HW216125   1.536   1.868  13.368 -0.4879 -0.1878 -0.3803
 1556SOL     OW16126   0.666   2.013   2.656 -0.3356  0.1275 -0.2159
 1556SOL    HW116127   0.734   1.951   2.681 -0.3797  0.0907 -0.1862
 1556SOL    HW216128   0.599   1.949   2.632  1.8010 -0.8558 -3.5542
 1557SOL     OW16129   3.916   3.992   1.880 -0.3087  0.3645 -0.4148
 1557SOL    HW116130   3.981   4.020   1.815  0.8422 -0.8992  0.1877
 1557SOL    HW216131   3.925   4.067   1.939 -0.2065  0.3920 -0.4647
 1558SOL     OW16132   1.893   2.681   5.874  0.4104  0.1899 -0.5135
 1558SOL    HW116133   1.894   2.694   5.779  0.7353 -1.7295 -0.7619
 1558SOL    HW216134   1.894   2.586   5.883 -0.6349  0.3210  0.9107
 1559SOL     OW16135   0.609   3.786  12.928 -0.0183 -0.0937 -0.2227
 1559SOL    HW116136   0.546   3.763  12.997  1.6684  0.4863  1.5168
 1559SOL    HW216137   0.692   3.754  12.963 -0.2247 -1.0110 -0.5592
 1560SOL     OW16138   1.801   4.147  13.726 -0.7072 -0.2739 -0.3555
 1560SOL    HW116139   1.865   4.103  13.782 -0.5206  2.4081  1.5649
 1560SOL    HW216140   1.809   4.235  13.764 -0.2234 -2.1083  3.8074
 1561SOL     OW16141   0.223   0.955   4.439 -0.3431 -0.0133 -0.2335
 1561SOL    HW116142   0.308   0.947   4.481 -0.9506  1.0188  1.1774
 1561SOL    HW216143   0.235   0.906   4.357 -1.9099 -0.0204 -0.4603
 1562SOL     OW16144   2.387   2.087   1.866 -0.8089  0.3986  0.3013
 1562SOL    HW116145   2.415   2.017   1.808 -1.7736  1.2658 -1.2183
 1562SOL    HW216146   2.473   2.127   1.877 -0.8817  0.8701 -0.8665
 1563SOL     OW16147   2.202   3.833   0.685  0.5499 -0.3354 -0.3790
 1563SOL    HW116148   2.289   3.871   0.682  0.9102 -1.0660  0.5977
 1563SOL    HW216149   2.218   3.753   0.634 -1.7337 -1.0194 -0.0168
 1564SOL     OW16150   3.722   1.563   6.630 -0.3483 -0.5854  0.5220
 1564SOL    HW116151   3.783   1.555   6.557 -0.9500  0.7658 -0.1222
 1564SOL    HW216152   3.767   1.505   6.691  3.1780 -0.5197 -2.0426
 1565SOL     OW16153   2.771   3.781   2.267  0.2582 -0.4486 -0.0353
 1565SOL    HW116154   2.771   3.872   2.295 -2.1946 -1.0953  2.1139
 1565SOL    HW216155   2.757   3.788   2.173 -1.4187 -0.9419  0.1662
 1566SOL     OW16156   2.459   0.061  11.843  0.8391  0.1536  0.3324
 1566SOL    HW116157   2.458   0.047  11.748  0.0097  1.0242  0.2190
 1566SOL    HW216158   2.378   0.017  11.869  0.2430  1.8828  1.3477
 1567SOL     OW16159   1.640   1.709  17.445 -0.0860 -0.1305  0.3402
 1567SOL    HW116160   1.709   1.729  17.509  0.8095 -5.3203  0.9921
 1567SOL    HW216161   1.600   1.795  17.433 -1.0437 -0.7443 -0.8300
 1568SOL     OW16162   3.637   4.500   1.907  0.2455  0.1034  0.1988
 1568SOL    HW116163   3.640   4.503   1.811  1.5254 -0.0390  0.2434
 1568SOL    HW216164   3.594   4.586   1.915 -0.8753 -0.3438 -0.8856
 1569SOL     OW16165   1.796   2.453   4.006 -0.1162 -0.1431 -0.1867
 1569SOL    HW116166   1.846   2.526   3.969 -1.6470  1.3079  0.5959
 1569SOL    HW216167   1.868   2.394   4.027 -1.4144 -1.0017  1.8947
 1570SOL     OW16168   4.559   3.466  12.782  0.2927  0.4634 -0.0919
 1570SOL    HW116169   4.630   3.502  12.728  1.3331 -1.1043  0.2411
 1570SOL    HW216170   4.521   3.391  12.736  0.1513 -0.2746  1.2444
 1571SOL     OW16171   2.609   4.197   6.008  0.4351 -0.0988 -0.2295
 1571SOL    HW116172   2.598   4.292   6.016  1.1013  0.0087 -0.5862
 1571SOL    HW216173   2.702   4.177   5.993  1.3301  1.7025  2.8354
 1572SOL     OW16174   1.218   2.999   8.673  0.0155  0.3822  0.3809
 1572SOL    HW116175   1.278   2.926   8.691 -0.1551  0.3057  0.6500
 1572SOL    HW216176   1.156   2.957   8.613 -0.4560  2.7854 -0.8101
 1573SOL     OW16177   3.841   2.799   3.131 -0.7223  0.2553  0.3759
 1573SOL    HW116178   3.831   2.720   3.185 -3.3312  1.4686  1.6880
 1573SOL    HW216179   3.878   2.773   3.047  0.2363 -1.7532  1.4106
 1574SOL     OW16180   1.604   0.347   7.139  0.6963 -0.3702  0.0989
 1574SOL    HW116181   1.526   0.372   7.189 -0.7034  0.9896 -2.7224
 1574SOL    HW216182   1.584   0.393   7.057 -1.0309 -0.0962  0.6733
 1575SOL     OW16183   2.733   2.125   1.480 -0.5059  0.5867  0.2884
 1575SOL    HW116184   2.730   2.192   1.412  2.4271  0.3109 -0.1266
 1575SOL    HW216185   2.680   2.058   1.437  0.1891 -0.5043  1.1349
 1576SOL     OW16186   0.779   4.536   5.566 -0.1750  0.8480 -0.0026
 1576SOL    HW116187   0.817   4.459   5.524  1.1039  0.5069  1.7628
 1576SOL    HW216188   0.791   4.600   5.495 -0.5710 -0.2838 -1.0844
 1577SOL     OW16189   2.412   2.802   3.636  0.2572  0.7318  0.2446
 1577SOL    HW116190   2.411   2.875   3.573  0.7331  0.4114 -0.1324
 1577SOL    HW216191   2.319   2.779   3.646  0.2936  1.0869  1.2974
 1578SOL     OW16192   3.398   2.071  11.427  0.3488 -0.6282 -1.0049
 1578SOL    HW116193   3.469   2.134  11.419  0.8092 -1.3331 -2.6208
 1578SOL    HW216194   3.447   1.995  11.396  0.9484  0.3384 -2.4093
 1579SOL     OW16195   1.948   1.871   5.060 -0.1609 -0.7396 -0.0212
 1579SOL    HW116196   1.997   1.950   5.038  1.4572 -1.3746  1.3052
 1579SOL    HW216197   1.939   1.878   5.155 -0.0859  0.7406 -0.1212
 1580SOL     OW16198   0.807   1.716   2.585  0.1739  0.7149 -0.1320
 1580SOL    HW116199   0.733   1.706   2.645 -0.4351  2.5594 -0.5698
 1580SOL    HW216200   0.860   1.783   2.629 -0.8240  1.1441  0.4140
 1581SOL     OW16201   3.410   4.155   8.811 -0.3256 -0.1610 -0.1349
 1581SOL    HW116202   3.479   4.215   8.784  0.0796 -0.3837  0.3915
 1581SOL    HW216203   3.365   4.214   8.872 -1.0814 -1.1814  0.2987
 1582SOL     OW16204   0.199   1.424   2.104 -0.2005  0.5208  0.2315
 1582SOL    HW116205   0.106   1.412   2.086  0.0625 -0.2084 -0.6462
 1582SOL    HW216206   0.223   1.449   2.015 -0.4341 -2.6351 -0.7205
 1583SOL     OW16207   2.476   4.246   2.123 -0.2400 -0.8717  0.3101
 1583SOL    HW116208   2.380   4.240   2.124 -0.4545  1.8129 -1.9619
 1583SOL    HW216209   2.506   4.180   2.185 -1.6827  1.3705  3.3872
 1584SOL     OW16210   3.310   0.091   4.524 -0.2619 -0.4538 -0.4607
 1584SOL    HW116211   3.295   0.153   4.595  0.0575 -0.0575 -0.7358
 1584SOL    HW216212   3.288   0.012   4.573  1.4238  0.1506  1.2472
 1585SOL     OW16213   0.351   4.119  13.044  0.5078  0.1840  0.7973
 1585SOL    HW116214   0.306   4.034  13.051 -0.2698  0.2937 -2.6477
 1585SOL    HW216215   0.295   4.179  12.994 -0.4650 -0.1599  1.4868
 1586SOL     OW16216   2.808   3.310   9.000 -0.5272  0.0481  0.2014
 1586SOL    HW116217   2.868   3.253   9.048 -0.9302 -0.9580 -0.4896
 1586SOL    HW216218   2.857   3.356   8.932 -0.7967 -0.9737 -0.6830
 1587SOL     OW16219   2.653   0.085   7.987 -0.2112 -0.4282 -0.2004
 1587SOL    HW116220   2.637   0.004   8.036 -1.0178 -0.5056 -0.5982
 1587SOL    HW216221   2.595   0.080   7.911 -0.3564  0.6756 -0.1587
 1588SOL     OW16222   0.507   1.050  11.149  0.1114  0.4237 -0.0270
 1588SOL    HW116223   0.443   1.091  11.208 -0.6762 -1.0775  0.1778
 1588SOL    HW216224   0.542   0.974  11.197 -2.7135  0.2025  1.6723
 1589SOL     OW16225   4.429   0.031  10.425  0.1057  0.2921 -0.1691
 1589SOL    HW116226   4.463   0.117  10.401  1.8143 -0.0955  0.8660
 1589SOL    HW216227   4.375   0.054  10.501  1.0361 -0.6131  0.7660
 1590SOL     OW16228   4.474   2.976   7.959 -0.0625 -0.7895  0.1632
 1590SOL    HW116229   4.515   2.945   7.879  0.5657 -1.8731  0.9064
 1590SOL    HW216230   4.473   3.072   7.958  1.6671 -0.7489  1.1647
 1591SOL     OW16231   0.696   1.712  15.939  0.4652  0.2037  0.6708
 1591SOL    HW116232   0.661   1.717  16.027  1.3368 -1.2943  1.0984
 1591SOL    HW216233   0.670   1.627  15.902 -0.8949  0.6310  0.6297
 1592SOL     OW16234   4.662   4.325  11.607 -0.4617 -0.5289  0.1156
 1592SOL    HW116235   4.669   4.230  11.610  1.4801 -0.3465  1.5909
 1592SOL    HW216236   4.614   4.338  11.526  0.7134 -1.5111 -0.7279
 1593SOL     OW16237   2.907   4.699  12.489  0.0385  0.4367 -0.4982
 1593SOL    HW116238   2.963   4.623  12.475 -0.8360 -0.7713  2.5158
 1593SOL    HW216239   2.818   4.667  12.473  0.4289 -1.7844  1.7898
 1594SOL     OW16240   0.491   0.280   9.985 -0.3372  0.3684  0.1453
 1594SOL    HW116241   0.411   0.228   9.983  0.3000 -0.5789 -1.2059
 1594SOL    HW216242   0.491   0.299  10.078  1.1854 -1.2837  0.4783
 1595SOL     OW16243   2.769   1.031  14.907  0.3228 -0.2558 -0.5187
 1595SOL    HW116244   2.740   0.996  14.822 -1.3092 -0.3309  0.0838
 1595SOL    HW216245   2.708   0.990  14.968  0.7594  1.1249  0.8131
 1596SOL     OW16246   2.197   0.836  17.334 -0.3371  0.0347 -0.1001
 1596SOL    HW116247   2.110   0.832  17.373  0.1881 -1.6574  0.9097
 1596SOL    HW216248   2.171   0.812  17.246  0.1252  2.1821 -0.8197
 1597SOL     OW16249   1.892   2.935  15.274 -0.2470  0.0026 -0.1265
 1597SOL    HW116250   1.982   2.962  15.258 -0.0024  0.0794  1.4167
 1597SOL    HW216251   1.842   2.971  15.200  0.0861 -1.3396 -1.0069
 1598SOL     OW16252   1.702   1.187  17.290  0.2318  0.3601  0.0594
 1598SOL    HW116253   1.678   1.219  17.376  1.7911  0.6716  0.3702
 1598SOL    HW216254   1.779   1.136  17.315 -0.4588  0.4147  2.2835
 1599SOL     OW16255   2.107   3.058   4.283 -0.6319 -0.2990 -0.6574
 1599SOL    HW116256   2.202   3.072   4.282 -0.6809  0.1817  2.2123
 1599SOL    HW216257   2.111   2.977   4.232 -1.1738 -1.4013  1.0413
 1600SOL     OW16258   4.530   3.261  17.252  0.3763  0.2561 -0.2916
 1600SOL    HW116259   4.581   3.267  17.171 -0.9794  0.1283 -1.1477
 1600SOL    HW216260   4.581   3.230  17.327  0.3644  2.3121  0.5499
 1601SOL     OW16261   3.788   3.777   7.016 -0.0635  0.3441  0.0711
 1601SOL    HW116262   3.723   3.834   7.058 -0.6698 -1.2728  1.3462
 1601SOL    HW216263   3.759   3.689   7.040 -0.2213 -0.2954 -2.4532
 1602SOL     OW16264   3.100   4.491   6.354  0.0529  0.0895  1.1336
 1602SOL    HW116265   3.100   4.485   6.450 -0.3216  0.6129  1.1685
 1602SOL    HW216266   3.190   4.519   6.336  0.6875 -1.5113  1.8367
 1603SOL     OW16267   3.355   2.481   5.625  0.0042  0.2487 -0.0799
 1603SOL    HW116268   3.405   2.546   5.674 -0.3503  1.2083 -0.9849
 1603SOL    HW216269   3.404   2.403   5.649 -0.5394 -0.0616  0.0071
 1604SOL     OW16270   1.842   2.840   8.706 -1.0466  0.3228  0.4763
 1604SOL    HW116271   1.877   2.868   8.791  0.4426 -1.0074  0.2970
 1604SOL    HW216272   1.791   2.915   8.677 -1.0954 -0.0290 -0.3643
 1605SOL     OW16273   3.021   4.552   5.718  0.1053 -0.0468 -0.1367
 1605SOL    HW116274   2.929   4.556   5.691  0.2349 -0.4616 -0.6532
 1605SOL    HW216275   3.033   4.457   5.717  2.4626  0.2308  0.5201
 1606SOL     OW16276   3.186   4.125   7.833  0.7832  0.4590  0.4091
 1606SOL    HW116277   3.235   4.047   7.859  1.0672  0.9065  1.2099
 1606SOL    HW216278   3.124   4.097   7.766 -1.4434  1.7942  1.9344
 1607SOL     OW16279   0.752   1.813   7.763  0.1546  0.0604 -0.0812
 1607SOL    HW116280   0.727   1.881   7.824 -1.3275  1.6558 -2.4549
 1607SOL    HW216281   0.784   1.860   7.685 -0.3423  2.1679  0.9994
 1608SOL     OW16282   4.259   3.440   3.389 -0.4882 -0.0727 -0.4887
 1608SOL    HW116283   4.178   3.438   3.338 -0.7320  0.8713 -0.1308
 1608SOL    HW216284   4.225   3.443   3.478 -0.5810 -2.0462 -0.4649
 1609SOL     OW16285   2.449   1.889  10.960  0.0470 -0.4425 -0.3162
 1609SOL    HW116286   2.424   1.821  10.897 -1.2844 -1.2530  1.0627
 1609SOL    HW216287   2.531   1.917  10.920 -0.2800  0.8045 -0.1108
 1610SOL     OW16288   4.280   4.471  15.303 -0.1378  0.4076  0.0135
 1610SOL    HW116289   4.276   4.559  15.340 -1.6203  1.3986 -2.4864
 1610SOL    HW216290   4.202   4.468  15.246  1.9569  0.3136 -2.8471
 1611SOL     OW16291   3.603   3.541  16.202 -0.1874 -0.2006  0.0592
 1611SOL    HW116292   3.686   3.497  16.186 -0.5059 -0.8232  0.1208
 1611SOL    HW216293   3.563   3.505  16.123 -1.7857 -0.2986  0.9049
 1612SOL     OW16294   2.088   4.335  11.540  0.1280 -0.1654  0.0440
 1612SOL    HW116295   2.056   4.267  11.481  3.2401 -0.3535 -1.4566
 1612SOL    HW216296   2.183   4.337  11.526  0.2161 -1.3187  0.4488
 1613SOL     OW16297   4.615   3.324  14.109 -0.2041  0.1127 -0.4495
 1613SOL    HW116298   4.525   3.351  14.125 -0.8599 -3.0676  1.2837
 1613SOL    HW216299   4.642   3.323  14.201 -0.9364 -0.2476 -0.2428
 1614SOL     OW16300   1.818   4.542   8.237 -0.0831 -0.2796 -0.7480
 1614SOL    HW116301   1.850   4.492   8.312 -1.5583  1.2902  0.9213
 1614SOL    HW216302   1.863   4.626   8.236 -0.1331 -0.2441 -0.3064
 1615SOL     OW16303   1.767   1.584  13.202  0.1833 -0.2860  0.5290
 1615SOL    HW116304   1.719   1.615  13.279 -0.2481  2.7217 -0.9495
 1615SOL    HW216305   1.817   1.521  13.255 -1.3074 -0.1233  2.1168
 1616SOL     OW16306   0.420   4.528  12.261 -0.4235  0.0592  0.0601
 1616SOL    HW116307   0.490   4.471  12.294  3.1991  2.2011 -3.9447
 1616SOL    HW216308   0.391   4.487  12.179  0.3712  1.6914 -1.0398
 1617SOL     OW16309   2.915   2.370   5.482  0.3787 -1.0087 -0.4418
 1617SOL    HW116310   2.955   2.434   5.424 -0.6361 -0.7109 -0.8168
 1617SOL    HW216311   2.982   2.357   5.549 -0.2313 -1.7499  0.0296
 1618SOL     OW16312   0.569   1.278  16.793  0.5853  0.3330  0.2847
 1618SOL    HW116313   0.563   1.207  16.856  1.2372  0.6619  0.7078
 1618SOL    HW216314   0.540   1.234  16.713  0.9639  0.4461  0.0861
 1619SOL     OW16315   0.962   2.759   6.722  0.1139  0.4463  0.1502
 1619SOL    HW116316   0.888   2.733   6.777  0.8006 -0.1066  0.8207
 1619SOL    HW216317   1.037   2.790   6.774  0.5745  0.5349 -0.5705
 1620SOL     OW16318   2.566   0.041   7.737  0.1312  0.3634  0.1437
 1620SOL    HW116319   2.638   0.069   7.681  0.4643 -2.1687 -0.6656
 1620SOL    HW216320   2.545   4.681   7.694 -2.3950  2.3848 -2.5709
 1621SOL     OW16321   4.657   4.024   4.074  0.1088 -0.1096  0.0216
 1621SOL    HW116322   4.707   4.104   4.054 -1.0582  0.3297 -1.0890
 1621SOL    HW216323   4.583   4.039   4.016  0.2988  0.2602 -0.1308
 1622SOL     OW16324   2.720   1.809   9.517 -0.0710  0.1201  0.1417
 1622SOL    HW116325   2.722   1.904   9.524  1.8328  0.0476  0.3784
 1622SOL    HW216326   2.804   1.792   9.560  0.8033 -0.4831 -1.8015
 1623SOL     OW16327   4.112   2.978   5.375 -0.3562 -0.4009  0.2357
 1623SOL    HW116328   4.100   3.026   5.293 -0.4058  0.1203  0.5424
 1623SOL    HW216329   4.146   3.044   5.435  1.3528 -1.2158  0.1469
 1624SOL     OW16330   2.241   3.360  12.473 -0.4162 -0.0773  0.4472
 1624SOL    HW116331   2.153   3.346  12.437  1.1920 -1.9640 -2.7337
 1624SOL    HW216332   2.263   3.437  12.419 -2.9653  2.0304  2.3937
 1625SOL     OW16333   1.805   4.168   7.893 -0.4399  0.0130  0.0636
 1625SOL    HW116334   1.856   4.223   7.952  1.2034  0.0908 -1.4403
 1625SOL    HW216335   1.718   4.199   7.917 -0.9843  0.2907 -2.3171
 1626SOL     OW16336   3.829   1.302   7.110  0.0169  0.1013  0.0042
 1626SOL    HW116337   3.756   1.329   7.165 -0.3816  2.0351 -1.4932
 1626SOL    HW216338   3.903   1.342   7.156 -0.7246  1.4027  0.0421
 1627SOL     OW16339   3.864   1.423   3.822  0.3705  0.6286  0.3855
 1627SOL    HW116340   3.924   1.433   3.897 -0.5226  1.8185  0.9328
 1627SOL    HW216341   3.884   1.502   3.771  2.6026  0.8042  1.5147
 1628SOL     OW16342   4.036   1.440   7.188  0.2658  0.2512  0.2483
 1628SOL    HW116343   4.083   1.481   7.261  2.5865 -1.9816 -0.0217
 1628SOL    HW216344   4.091   1.362   7.184  1.0980  0.8698 -0.3597
 1629SOL     OW16345   3.273   4.447   4.095  0.5281  0.3276  0.3853
 1629SOL    HW116346   3.295   4.360   4.061 -1.1119 -0.6003  1.7070
 1629SOL    HW216347   3.315   4.506   4.032  1.0229  0.0161  0.4278
 1630SOL     OW16348   3.186   0.450   5.824 -0.2130 -0.0857  0.8939
 1630SOL    HW116349   3.255   0.463   5.759 -1.1087 -2.6844 -0.5388
 1630SOL    HW216350   3.217   0.382   5.883 -0.7821 -1.3816 -0.3062
 1631SOL     OW16351   1.120   4.408   5.492 -0.3031 -0.1069 -0.2761
 1631SOL    HW116352   1.197   4.418   5.549  0.4289 -1.8650 -0.9706
 1631SOL    HW216353   1.126   4.487   5.440  1.0680  1.1111  1.7388
 1632SOL     OW16354   3.575   1.077  13.608 -0.0165  0.1712 -1.2132
 1632SOL    HW116355   3.562   1.087  13.514 -0.3873 -0.4603 -1.2322
 1632SOL    HW216356   3.486   1.070  13.643  0.8527 -0.5122  0.8517
 1633SOL     OW16357   0.611   1.729  16.552  0.3085 -0.0008  0.4067
 1633SOL    HW116358   0.530   1.684  16.529 -0.5362  0.0142  3.3850
 1633SOL    HW216359   0.639   1.662  16.614  1.3228  0.1297  0.0886
 1634SOL     OW16360   0.579   1.598   7.323 -0.4632 -0.8182  0.6139
 1634SOL    HW116361   0.499   1.611   7.373 -1.6046 -0.7728 -1.1976
 1634SOL    HW216362   0.589   1.691   7.300  0.7190 -1.6253 -2.1810
 1635SOL     OW16363   1.892   3.610   1.695 -0.0745  0.1501 -0.2327
 1635SOL    HW116364   1.851   3.634   1.612  0.3537  2.2195  0.1507
 1635SOL    HW216365   1.953   3.684   1.704 -0.9612  1.0556 -1.7208
 1636SOL     OW16366   0.467   1.925  13.375 -0.2899  0.1053 -0.3011
 1636SOL    HW116367   0.546   1.875  13.356  0.3525  0.1485  2.2697
 1636SOL    HW216368   0.423   1.874  13.442 -2.4089  0.2836 -1.5656
 1637SOL     OW16369   0.181   2.368   4.084 -0.6035  0.6893  0.2370
 1637SOL    HW116370   0.137   2.353   4.168 -0.8177  2.4099  0.4361
 1637SOL    HW216371   0.131   2.442   4.049 -2.1962 -0.6215 -0.2738
 1638SOL     OW16372   2.325   3.636  15.114 -0.2396 -0.7271  0.7679
 1638SOL    HW116373   2.316   3.695  15.039  1.2842 -3.2053 -1.3395
 1638SOL    HW216374   2.356   3.693  15.184 -4.0515  2.3155  0.0001
 1639SOL     OW16375   3.915   0.645   2.734  0.1118 -0.2400 -0.1350
 1639SOL    HW116376   3.951   0.700   2.665 -1.3128 -0.6129 -1.1711
 1639SOL    HW216377   3.898   0.699   2.812  1.2836 -2.9905  2.0558
 1640SOL     OW16378   1.951   1.518   8.208  0.0906  0.2823  0.1562
 1640SOL    HW116379   2.013   1.452   8.176  0.4078  1.8075 -2.3963
 1640SOL    HW216380   1.876   1.477   8.164  0.0529 -0.8441  1.2698
 1641SOL     OW16381   3.841   0.586   3.032 -0.6366  0.4295 -0.2320
 1641SOL    HW116382   3.845   0.498   2.996 -2.6487 -0.0364  0.6578
 1641SOL    HW216383   3.745   0.581   3.031 -0.6457  0.7073 -1.2389
 1642SOL     OW16384   4.006   1.731  16.653 -0.2608  0.4419 -0.2017
 1642SOL    HW116385   4.021   1.825  16.644  4.3611 -0.1291  1.2451
 1642SOL    HW216386   4.093   1.700  16.627 -0.3737  0.6197 -0.7779
 1643SOL     OW16387   3.993   0.756   7.783  0.1564 -0.0225 -0.0455
 1643SOL    HW116388   4.040   0.747   7.866 -2.1549 -1.2221  1.1313
 1643SOL    HW216389   3.917   0.800   7.820 -0.5061 -1.5793  0.4490
 1644SOL     OW16390   0.506   3.889   0.741 -0.3340 -0.8292  0.3266
 1644SOL    HW116391   0.463   3.816   0.786  1.5237 -2.3899 -0.4385
 1644SOL    HW216392   0.563   3.925   0.809  2.7520 -0.9398 -2.2143
 1645SOL     OW16393   2.587   0.954  15.081  0.2406  0.7175 -0.4925
 1645SOL    HW116394   2.494   0.937  15.064 -0.0693  1.6592  0.2262
 1645SOL    HW216395   2.606   0.900  15.158 -1.8125 -0.6810 -0.9714
 1646SOL     OW16396   1.368   4.390   1.867  0.7611 -0.1235  0.3641
 1646SOL    HW116397   1.392   4.430   1.783  0.7894 -2.2411 -0.6360
 1646SOL    HW216398   1.294   4.445   1.895  0.8396 -0.4507  1.1982
 1647SOL     OW16399   3.525   0.421   8.718  0.2204 -0.0597 -0.5798
 1647SOL    HW116400   3.568   0.486   8.663  0.2908  0.2335 -0.1848
 1647SOL    HW216401   3.452   0.475   8.749  1.3057  0.2752  1.3748
 1648SOL     OW16402   3.845   1.156   4.254 -0.1138 -0.1380  0.5629
 1648SOL    HW116403   3.795   1.155   4.173 -0.6497 -1.0949  0.9121
 1648SOL    HW216404   3.861   1.062   4.267  1.7783  0.2376  1.0808
 1649SOL     OW16405   1.555   3.901   7.538 -0.2962 -0.3936 -0.3170
 1649SOL    HW116406   1.582   3.888   7.447  0.4371 -0.7550 -0.0494
 1649SOL    HW216407   1.599   3.985   7.551  0.8977 -1.0787  0.0159
 1650SOL     OW16408   3.196   1.978  16.280  0.2500  0.2519  0.6303
 1650SOL    HW116409   3.184   1.887  16.308 -2.3905  0.1633 -0.7155
 1650SOL    HW216410   3.116   2.023  16.310  0.4184  0.5179  0.6811
 1651SOL     OW16411   0.487   3.542  15.357 -0.4640 -0.4192  0.2127
 1651SOL    HW116412   0.516   3.583  15.275 -0.7427 -1.3433 -0.3563
 1651SOL    HW216413   0.552   3.473  15.369  2.6041  2.4197 -0.0065
 1652SOL     OW16414   3.528   1.575   5.184  0.4837 -0.2826  0.0709
 1652SOL    HW116415   3.466   1.535   5.122 -0.1966  1.8102 -0.6273
 1652SOL    HW216416   3.515   1.525   5.264  1.5886 -1.4033 -0.4454
 1653SOL     OW16417   0.102   3.869  11.342  0.0882 -0.3838 -0.3661
 1653SOL    HW116418   0.057   3.791  11.310 -0.6013  0.2884 -1.0590
 1653SOL    HW216419   0.092   3.933  11.271  1.5056  0.2887  0.0474
 1654SOL     OW16420   1.995   2.015   1.786  0.1718 -0.7102 -0.3488
 1654SOL    HW116421   1.933   2.058   1.728 -0.9663  0.8801  2.0836
 1654SOL    HW216422   1.962   2.042   1.872  0.1290 -1.5963 -0.0879
 1655SOL     OW16423   2.992   0.482  10.608 -0.2478  0.4121  0.0557
 1655SOL    HW116424   3.064   0.419  10.600 -1.4166 -0.6464 -2.1848
 1655SOL    HW216425   3.036   0.528  10.679 -0.2942  0.8769 -0.2178
 1656SOL     OW16426   4.358   3.488   1.622 -0.4889 -0.6392  0.4480
 1656SOL    HW116427   4.444   3.482   1.663  0.3042  1.2314 -0.9552
 1656SOL    HW216428   4.296   3.521   1.688  1.8989 -0.8089  2.7769
 1657SOL     OW16429   1.441   2.570   2.788 -0.1196 -0.3048 -0.1195
 1657SOL    HW116430   1.529   2.533   2.796 -0.4241 -1.0187 -0.0752
 1657SOL    HW216431   1.414   2.586   2.879 -1.4699 -2.4434 -0.1411
 1658SOL     OW16432   4.635   3.889   7.233 -0.0762 -0.1975  0.6889
 1658SOL    HW116433   4.575   3.933   7.294 -1.3871 -1.0127 -0.0331
 1658SOL    HW216434   4.601   3.931   7.154 -0.1176 -1.8628 -0.1683
 1659SOL     OW16435   0.018   1.371   3.787  0.0055 -0.2450 -0.5315
 1659SOL    HW116436   0.051   1.460   3.803  0.9276 -0.5128 -0.9362
 1659SOL    HW216437   4.670   1.384   3.724 -0.2524  1.4914  0.1175
 1660SOL     OW16438   3.959   2.048   3.704 -0.5517 -0.2547 -0.6045
 1660SOL    HW116439   3.897   2.034   3.776  1.8797  0.2101  1.5545
 1660SOL    HW216440   4.029   1.983   3.707  0.1475  0.4796 -1.3075
 1661SOL     OW16441   1.050   0.218   0.735 -0.4756  0.2106 -0.5091
 1661SOL    HW116442   1.057   0.298   0.787  0.9776 -1.0357  1.2188
 1661SOL    HW216443   1.044   0.148   0.800  1.6231  0.0410 -0.5136
 1662SOL     OW16444   2.844   2.591   4.676 -1.1917  0.6068  0.0154
 1662SOL    HW116445   2.928   2.551   4.697 -1.2005 -0.4725 -1.9404
 1662SOL    HW216446   2.796   2.584   4.758 -4.4704  1.6208 -1.7676
 1663SOL     OW16447   1.575   1.441   6.722 -0.5414 -0.0664  0.4520
 1663SOL    HW116448   1.627   1.520   6.740 -1.0042 -0.1813  2.3234
 1663SOL    HW216449   1.524   1.441   6.803 -0.3107 -2.5919  0.5889
 1664SOL     OW16450   3.284   3.026  17.652 -1.1112  0.3935 -0.0323
 1664SOL    HW116451   3.240   2.941  17.658  1.6787 -1.1317 -1.3528
 1664SOL    HW216452   3.371   2.994  17.630 -0.0098  3.5728 -0.3476
 1665SOL     OW16453   1.626   2.636  11.067 -0.4632  0.5535  0.3768
 1665SOL    HW116454   1.586   2.617  10.983  0.8105 -0.3194 -0.0258
 1665SOL    HW216455   1.550   2.632  11.125 -1.0000 -1.5580 -0.4904
 1666SOL     OW16456   2.593   4.512   5.281  0.1766 -0.6860  0.1628
 1666SOL    HW116457   2.616   4.545   5.367  0.4837 -1.9728  0.5799
 1666SOL    HW216458   2.499   4.501   5.300 -0.4239 -2.8420 -3.8717
 1667SOL     OW16459   4.090   4.604  14.206 -0.0219 -0.4877 -0.0854
 1667SOL    HW116460   3.998   4.579  14.196 -0.3351  0.6529 -0.0963
 1667SOL    HW216461   4.117   4.595  14.115 -1.5712  2.7195 -0.8650
 1668SOL     OW16462   0.995   1.501  13.930  0.3450 -0.0107  0.1389
 1668SOL    HW116463   1.052   1.427  13.951  1.0320  0.6447  0.5741
 1668SOL    HW216464   0.999   1.551  14.012 -0.7397  1.6671 -0.8378
 1669SOL     OW16465   2.413   3.846   2.558  0.1483  0.0048 -0.1064
 1669SOL    HW116466   2.442   3.778   2.619 -1.9392 -0.2096  0.6460
 1669SOL    HW216467   2.376   3.789   2.490  0.4871  0.7506 -0.9158
 1670SOL     OW16468   0.512   2.373   3.725  0.6847  0.5010 -0.0907
 1670SOL    HW116469   0.562   2.407   3.799 -0.0830 -0.7023  0.9969
 1670SOL    HW216470   0.552   2.392   3.641  2.8039 -0.5022  0.6824
 1671SOL     OW16471   3.921   3.948   5.695 -0.0388  0.3970  0.2612
 1671SOL    HW116472   3.932   4.042   5.680 -1.0841  0.5860  0.6527
 1671SOL    HW216473   4.006   3.909   5.674  0.6433  3.1583 -2.0398
 1672SOL     OW16474   4.560   4.598   9.628  0.5020 -0.2804 -0.2513
 1672SOL    HW116475   4.621   4.525   9.616  0.2980 -0.6476  0.9246
 1672SOL    HW216476   4.583   4.642   9.546 -1.3832  0.0169 -0.6035
 1673SOL     OW16477   2.072   3.652  15.235  0.4609 -0.6765  0.2564
 1673SOL    HW116478   2.161   3.624  15.216  0.3253 -1.4015  0.6855
 1673SOL    HW216479   2.078   3.744  15.209 -2.6905 -0.3635  0.6233
 1674SOL     OW16480   0.539   1.986   9.436 -0.3702 -0.0235 -0.0207
 1674SOL    HW116481   0.611   1.923   9.438  0.2776  0.7215  0.0627
 1674SOL    HW216482   0.559   2.044   9.363 -0.5647  1.3627  1.0329
 1675SOL     OW16483   3.185   1.442   9.690 -0.3270  0.0821  0.1592
 1675SOL    HW116484   3.150   1.443   9.780 -2.0298 -0.5545 -0.4852
 1675SOL    HW216485   3.178   1.535   9.668 -2.4478 -0.4820 -1.5327
 1676SOL     OW16486   2.383   0.336   3.648  0.5395 -0.8257  0.1494
 1676SOL    HW116487   2.341   0.375   3.725 -1.0240  0.4824 -1.3550
 1676SOL    HW216488   2.342   0.255   3.620 -0.6330 -0.6166  1.2942
 1677SOL     OW16489   0.877   3.280   9.862 -0.2897 -0.0583  0.0765
 1677SOL    HW116490   0.906   3.218   9.795 -0.2818  0.1973 -0.1544
 1677SOL    HW216491   0.876   3.364   9.817  2.9522 -0.4653 -0.7635
 1678SOL     OW16492   1.453   1.438   4.463  0.0586  0.2022  0.0419
 1678SOL    HW116493   1.515   1.504   4.430  2.0954 -1.3998  0.6881
 1678SOL    HW216494   1.506   1.369   4.502  1.6432  2.0884  1.2398
 1679SOL     OW16495   0.157   2.157   7.845 -0.1190 -0.1207 -0.1793
 1679SOL    HW116496   0.157   2.219   7.918 -1.9652 -2.7275  2.0180
 1679SOL    HW216497   0.205   2.213   7.784 -1.0593  0.9864  0.1020
 1680SOL     OW16498   0.793   4.118   1.622 -0.2869  0.2461  0.0960
 1680SOL    HW116499   0.878   4.075   1.637 -0.4395 -1.1560 -2.9907
 1680SOL    HW216500   0.808   4.199   1.573  0.4520  1.3389  2.1329
 1681SOL     OW16501   2.323   2.698  14.427 -0.1822 -0.1874  0.4062
 1681SOL    HW116502   2.283   2.756  14.361  0.3524 -1.5148 -1.0839
 1681SOL    HW216503   2.267   2.620  14.426  0.3829 -0.5825 -0.1817
 1682SOL     OW16504   4.303   2.074  11.259  0.4344 -0.6780 -0.4655
 1682SOL    HW116505   4.337   1.984  11.254  0.0035 -0.7864 -1.5793
 1682SOL    HW216506   4.236   2.062  11.191 -0.2295  3.6711 -0.5619
 1683SOL     OW16507   3.839   2.212  13.457  0.0886  0.1815 -0.0408
 1683SOL    HW116508   3.921   2.163  13.450  1.3646  2.5170 -1.7273
 1683SOL    HW216509   3.870   2.291  13.412 -1.5850  0.2979 -0.9634
 1684SOL     OW16510   2.317   0.391   4.920  0.2522 -0.0141 -0.2265
 1684SOL    HW116511   2.366   0.314   4.889 -1.2305 -0.9520 -0.2169
 1684SOL    HW216512   2.237   0.349   4.949  0.1583  0.6035  0.4088
 1685SOL     OW16513   0.378   4.215  12.404 -0.4012  0.0498 -0.3624
 1685SOL    HW116514   0.369   4.167  12.322 -0.4780  1.0523 -0.9375
 1685SOL    HW216515   0.442   4.285  12.393  0.5112 -0.8036 -0.4860
 1686SOL     OW16516   1.951   1.246  11.298 -0.0877  0.2556 -0.0740
 1686SOL    HW116517   1.875   1.189  11.301 -0.9505  1.4327  0.8688
 1686SOL    HW216518   1.926   1.329  11.340  0.5664  0.0065  0.8092
 1687SOL     OW16519   3.637   2.591   9.083  0.0615 -0.2698  0.1016
 1687SOL    HW116520   3.585   2.584   9.004 -0.3466 -0.1163  0.3541
 1687SOL    HW216521   3.643   2.684   9.107 -2.6348 -0.1159  0.2177
 1688SOL     OW16522   1.355   1.114   8.859  0.3590  0.3957  0.0136
 1688SOL    HW116523   1.265   1.134   8.834 -0.6815 -3.4341  0.6122
 1688SOL    HW216524   1.351   1.093   8.952  2.4351  2.6128  0.5743
 1689SOL     OW16525   3.476   0.386   4.512 -0.2880 -0.5699 -0.7713
 1689SOL    HW116526   3.513   0.312   4.464  2.7118 -0.5237  1.4734
 1689SOL    HW216527   3.555   0.432   4.541  0.8701 -2.2049 -1.3604
 1690SOL     OW16528   3.205   1.476   8.473  0.0024  0.0016 -0.5080
 1690SOL    HW116529   3.275   1.536   8.447 -0.2466  0.7994  0.6219
 1690SOL    HW216530   3.140   1.544   8.492 -1.0485 -1.1926  0.2128
 1691SOL     OW16531   4.386   2.932  15.322 -0.1459 -0.4029  0.5068
 1691SOL    HW116532   4.408   2.905  15.412 -1.3945  1.6060  1.4149
 1691SOL    HW216533   4.291   2.917  15.314 -0.0029 -0.3272 -1.3287
 1692SOL     OW16534   2.943   1.768   2.256 -0.0643  0.1149 -0.2347
 1692SOL    HW116535   2.892   1.698   2.299 -1.1447  0.1443 -1.4806
 1692SOL    HW216536   2.880   1.820   2.206 -0.4545 -0.9125 -0.8109
 1693SOL     OW16537   1.522   0.361  10.283  0.0413 -0.1485  0.0759
 1693SOL    HW116538   1.526   0.411  10.202 -1.0277  0.2162  0.2555
 1693SOL    HW216539   1.530   0.433  10.346 -0.3963 -0.5573  0.5976
 1694SOL     OW16540   4.471   3.990   7.468 -0.0375  0.0183  0.1963
 1694SOL    HW116541   4.405   4.024   7.408 -0.4047  0.8123  1.0647
 1694SOL    HW216542   4.450   4.025   7.554  0.6616  0.3965  0.2165
 1695SOL     OW16543   0.369   4.557   0.500  0.0768  0.0755 -0.4968
 1695SOL    HW116544   0.285   4.579   0.540 -0.9319 -2.5349 -1.2301
 1695SOL    HW216545   0.353   4.543   0.406  2.9381  1.0907 -1.1329
 1696SOL     OW16546   1.004   0.934   2.216  0.0750 -0.7030 -0.0676
 1696SOL    HW116547   0.941   1.002   2.241  0.6911  0.0936 -0.6861
 1696SOL    HW216548   1.078   0.992   2.198 -0.9882  0.7112  0.0668
 1697SOL     OW16549   2.991   1.492   7.120  0.2944  0.0003 -0.4553
 1697SOL    HW116550   3.083   1.477   7.098  0.4932 -1.8599  1.6690
 1697SOL    HW216551   3.008   1.586   7.128  0.3730 -0.1457  1.1569
 1698SOL     OW16552   2.341   1.895   8.450  0.0807 -0.3756 -0.0107
 1698SOL    HW116553   2.285   1.818   8.440  0.5399 -0.4786 -1.8524
 1698SOL    HW216554   2.279   1.961   8.420  0.2698 -0.4180 -0.4933
 1699SOL     OW16555   1.113   1.536   3.330  0.0676 -0.5249 -0.3366
 1699SOL    HW116556   1.076   1.517   3.416 -0.7443 -0.3749 -0.6492
 1699SOL    HW216557   1.102   1.455   3.280 -0.2305 -1.8333  1.8373
 1700SOL     OW16558   1.293   0.298   8.401  0.1688  0.4027 -0.0374
 1700SOL    HW116559   1.355   0.365   8.431  0.5014 -0.4511  1.2101
 1700SOL    HW216560   1.212   0.327   8.441 -0.8624 -2.6336  0.1167
 1701SOL     OW16561   0.945   4.575   9.924 -0.3112  0.1196 -0.3446
 1701SOL    HW116562   0.861   4.591   9.881 -1.6214 -3.6718  0.7641
 1701SOL    HW216563   1.007   4.596   9.853  0.8528 -0.2593  0.5525
 1702SOL     OW16564   1.531   1.200   4.593 -0.0969  0.2511 -0.1320
 1702SOL    HW116565   1.601   1.153   4.546 -2.1480 -1.9770 -0.9322
 1702SOL    HW216566   1.549   1.149   4.672 -2.7054  1.8667  1.4804
 1703SOL     OW16567   1.305   0.205   4.077 -0.3033 -0.1353 -0.0338
 1703SOL    HW116568   1.263   0.138   4.024  2.5516  0.4583 -3.0723
 1703SOL    HW216569   1.398   0.187   4.058 -0.1636 -0.1276  0.6298
 1704SOL     OW16570   2.902   0.563   2.083 -0.8120 -0.9568 -0.5867
 1704SOL    HW116571   2.844   0.579   2.009  0.3041 -0.7358 -1.4284
 1704SOL    HW216572   2.951   0.646   2.086  0.2635 -1.6316  0.6695
 1705SOL     OW16573   0.632   0.617   0.709 -0.1972  0.0212  0.2829
 1705SOL    HW116574   0.542   0.601   0.738  0.8428 -2.0099  2.4221
 1705SOL    HW216575   0.649   0.697   0.758 -0.4329  0.6037 -0.5852
 1706SOL     OW16576   4.252   4.524   4.335  0.2989  0.2160  0.3908
 1706SOL    HW116577   4.317   4.595   4.331  0.3666  0.0235 -2.1124
 1706SOL    HW216578   4.234   4.522   4.241 -0.9114 -1.3148  0.6534
 1707SOL     OW16579   2.537   0.216   0.199  0.0274 -0.1058 -0.2965
 1707SOL    HW116580   2.445   0.189   0.194 -0.1653  0.4354  0.4749
 1707SOL    HW216581   2.531   0.306   0.167  0.2852  1.3486  3.7780
 1708SOL     OW16582   2.036   1.749   6.785 -0.0060 -0.0018  0.0392
 1708SOL    HW116583   1.992   1.834   6.788  0.8103  0.3545  1.8198
 1708SOL    HW216584   2.063   1.731   6.695  0.9235  2.4984 -0.1945
 1709SOL     OW16585   2.951   3.609   4.854  0.2966 -0.4098  0.1863
 1709SOL    HW116586   2.974   3.537   4.913  1.1831 -1.1429 -1.0616
 1709SOL    HW216587   2.972   3.679   4.916  1.4349 -0.1739 -0.4731
 1710SOL     OW16588   0.509   1.111  16.982 -0.2033 -0.2309 -0.3754
 1710SOL    HW116589   0.536   1.139  17.069  0.6556 -0.3077 -0.6173
 1710SOL    HW216590   0.417   1.136  16.979 -0.7609 -1.8336  3.5565
 1711SOL     OW16591   2.087   4.697   8.567  0.6217 -0.4197  0.2835
 1711SOL    HW116592   2.019   0.033   8.600 -2.0028 -2.9251 -0.5925
 1711SOL    HW216593   2.031   4.642   8.512  0.3124  0.0602  0.1253
 1712SOL     OW16594   3.639   1.295   1.172 -0.0761 -0.0714 -0.1499
 1712SOL    HW116595   3.620   1.385   1.146  1.1473  0.0467 -0.6583
 1712SOL    HW216596   3.640   1.252   1.086  3.0294 -0.9661  0.3276
 1713SOL     OW16597   0.407   4.499   3.223  0.1574  0.3801 -0.5451
 1713SOL    HW116598   0.420   4.473   3.132  1.8028 -2.6648  0.5541
 1713SOL    HW216599   0.441   4.419   3.264 -2.4875 -0.4816 -0.0607
 1714SOL     OW16600   3.937   2.760   2.680  0.0396 -0.1652  0.0994
 1714SOL    HW116601   3.885   2.820   2.626 -1.9166 -2.0462 -0.0987
 1714SOL    HW216602   4.010   2.744   2.620 -0.2699 -0.9706 -0.0693
 1715SOL     OW16603   3.587   2.348   1.680  0.2966 -0.0718  0.4786
 1715SOL    HW116604   3.534   2.268   1.680 -1.8382  1.3492 -0.9512
 1715SOL    HW216605   3.593   2.366   1.774  1.6163 -0.7675  0.5251
 1716SOL     OW16606   2.273   2.975   1.110  0.3045 -0.4948 -0.0736
 1716SOL    HW116607   2.354   2.933   1.080  0.1157  0.5598 -2.0737
 1716SOL    HW216608   2.305   3.021   1.187 -1.1308  2.8008 -1.4293
 1717SOL     OW16609   4.101   4.365  10.367 -0.4524 -0.0149 -0.0654
 1717SOL    HW116610   4.156   4.315  10.307  3.1742 -1.2830  4.3667
 1717SOL    HW216611   4.106   4.323  10.453 -0.1270  0.7023  0.2666
 1718SOL     OW16612   4.686   1.405   4.164 -0.4519 -0.0829  0.1058
 1718SOL    HW116613   0.039   1.441   4.119  0.0053 -0.7034  0.3955
 1718SOL    HW216614   4.700   1.312   4.146  0.0976  0.4035 -1.9523
 1719SOL     OW16615   0.738   3.193  14.108  0.4873 -0.3060 -0.8418
 1719SOL    HW116616   0.707   3.190  14.199  0.1823  1.1850 -0.8914
 1719SOL    HW216617   0.788   3.112  14.101 -0.4868 -1.0011  0.0947
 1720SOL     OW16618   1.713   0.686   5.373 -0.1235  0.2038  0.3177
 1720SOL    HW116619   1.800   0.723   5.388  0.2707 -0.7929  0.5015
 1720SOL    HW216620   1.743   0.610   5.323 -0.6960  1.4465 -1.8835
 1721SOL     OW16621   3.870   2.657  14.769 -0.0216 -0.0248  0.1031
 1721SOL    HW116622   3.835   2.736  14.809  1.0401  0.3406  0.3195
 1721SOL    HW216623   3.787   2.618  14.741  0.3685 -1.1913  0.5684
 1722SOL     OW16624   3.189   3.090   7.344 -0.1254  0.0332  0.3769
 1722SOL    HW116625   3.220   3.119   7.430  0.6635 -2.2845  0.8536
 1722SOL    HW216626   3.261   3.031   7.319  0.0274  0.2740  0.2399
 1723SOL     OW16627   1.066   4.156  15.515 -0.3352 -0.4505 -0.0721
 1723SOL    HW116628   1.008   4.081  15.500 -0.3957 -0.4419  0.1169
 1723SOL    HW216629   1.049   4.182  15.606 -1.6584  0.3001 -0.5280
 1724SOL     OW16630   3.015   4.106   3.048  0.4131  0.2331 -0.1072
 1724SOL    HW116631   3.040   4.030   3.100  1.9984 -1.0707 -2.7571
 1724SOL    HW216632   2.926   4.091   3.014  1.0838 -0.3945 -1.6024
 1725SOL     OW16633   3.031   4.592   9.415  0.0167  0.4301 -0.2170
 1725SOL    HW116634   2.999   4.675   9.451  1.8463  2.1489 -2.5750
 1725SOL    HW216635   2.947   4.565   9.378 -0.7530 -0.8665  2.4271
 1726SOL     OW16636   2.977   0.716   3.307 -0.2926 -0.2565 -0.1489
 1726SOL    HW116637   3.014   0.796   3.270  1.2295 -1.3297 -0.9148
 1726SOL    HW216638   2.886   0.723   3.276 -0.9188  2.8893  2.3856
 1727SOL     OW16639   3.407   4.138   1.140 -0.4522  0.2059  0.0706
 1727SOL    HW116640   3.418   4.205   1.207 -0.6195  3.1570 -2.8588
 1727SOL    HW216641   3.499   4.136   1.111 -0.8945 -0.4073 -1.3143
 1728SOL     OW16642   1.217   0.914   6.129  0.0682 -0.3294 -0.0417
 1728SOL    HW116643   1.209   0.931   6.222 -0.2807 -0.9397  0.0388
 1728SOL    HW216644   1.265   0.992   6.100 -0.4446  0.4305  1.1675
 1729SOL     OW16645   3.349   3.417   6.686 -1.1706  0.1798 -0.3851
 1729SOL    HW116646   3.350   3.321   6.689 -1.6751  0.1248 -2.0214
 1729SOL    HW216647   3.306   3.446   6.766 -0.6023  2.2534 -0.8340
 1730SOL     OW16648   3.457   3.834   6.980  0.5507  0.1687 -0.2593
 1730SOL    HW116649   3.461   3.779   6.902 -0.0732 -0.0581 -0.1388
 1730SOL    HW216650   3.402   3.776   7.034  0.9953  0.7267  0.7943
 1731SOL     OW16651   3.861   0.366   3.875  0.3273  0.3519 -0.0810
 1731SOL    HW116652   3.804   0.443   3.882 -0.0175  0.0968 -0.0661
 1731SOL    HW216653   3.917   0.394   3.802  2.2293 -1.6718  0.6046
 1732SOL     OW16654   4.316   4.687   3.751  0.0495  0.2383  0.3621
 1732SOL    HW116655   4.346   4.656   3.665  0.8738  1.6083  0.1544
 1732SOL    HW216656   4.393   0.020   3.762  1.0946 -1.0909 -0.1764
 1733SOL     OW16657   1.500   0.439   8.485 -0.1360 -0.2121  0.1136
 1733SOL    HW116658   1.577   0.387   8.506 -0.8539 -1.6204 -0.7578
 1733SOL    HW216659   1.522   0.518   8.534 -1.1091 -0.2965  0.6891
 1734SOL     OW16660   0.218   1.320   8.090 -0.1930  0.7481  0.3677
 1734SOL    HW116661   0.240   1.413   8.082  0.0250  0.6654  0.0086
 1734SOL    HW216662   0.295   1.279   8.130  0.1621  0.3365 -0.7507
 1735SOL     OW16663   2.772   1.071   5.480 -0.5747 -0.1141  0.5447
 1735SOL    HW116664   2.788   1.117   5.562 -0.6527  1.0507 -0.0925
 1735SOL    HW216665   2.731   1.142   5.431 -0.3314 -1.8948 -2.2765
 1736SOL     OW16666   1.104   1.733   3.773 -0.4582 -0.2621  0.4232
 1736SOL    HW116667   1.078   1.641   3.769  1.8842 -0.9208  0.4693
 1736SOL    HW216668   1.141   1.748   3.859  0.0960  2.0427 -0.2207
 1737SOL     OW16669   2.054   2.052   9.019  0.5074 -0.3586 -0.1982
 1737SOL    HW116670   2.081   2.040   8.928  3.8903 -0.4373  0.7952
 1737SOL    HW216671   1.959   2.045   9.008  0.6958 -0.6268 -1.6574
 1738SOL     OW16672   1.329   0.414   7.514  0.2886  0.0585 -0.0858
 1738SOL    HW116673   1.270   0.342   7.491 -1.0289  0.5406  1.7950
 1738SOL    HW216674   1.323   0.427   7.608  1.4469  0.7176 -0.1080
 1739SOL     OW16675   4.696   0.780   7.764 -0.1268 -0.8094 -0.0997
 1739SOL    HW116676   4.601   0.785   7.756 -0.1783 -1.8381 -0.2046
 1739SOL    HW216677   0.004   0.849   7.706  1.2909 -1.3561  0.0253
 1740SOL     OW16678   3.942   4.510   7.465 -0.6620 -0.0555  0.5247
 1740SOL    HW116679   3.892   4.457   7.403 -0.5197 -1.5332  1.6719
 1740SOL    HW216680   3.887   4.587   7.451 -2.6980 -1.0051  3.3978
 1741SOL     OW16681   2.327   3.305   9.970 -0.3453 -0.3187  0.2603
 1741SOL    HW116682   2.321   3.222   9.923 -3.3551 -0.7154  1.3223
 1741SOL    HW216683   2.403   3.286  10.025 -0.1958  1.0160  0.5182
 1742SOL     OW16684   2.715   2.178   2.015 -0.4114  0.2532 -0.5650
 1742SOL    HW116685   2.754   2.252   1.969  0.2006 -0.0938 -0.6123
 1742SOL    HW216686   2.720   2.115   1.943  1.4508 -0.6111  0.3160
 1743SOL     OW16687   4.440   4.277  14.376 -0.0254  0.5599  0.3288
 1743SOL    HW116688   4.382   4.353  14.377  2.8962  2.7715  0.5603
 1743SOL    HW216689   4.511   4.330  14.411  1.5644  0.1594 -2.3159
 1744SOL     OW16690   1.006   1.295   3.914  0.1526  0.1492  0.9408
 1744SOL    HW116691   1.082   1.238   3.901  0.0759  0.1199  0.6172
 1744SOL    HW216692   0.962   1.253   3.987 -1.3925  0.3767  0.1292
 1745SOL     OW16693   3.653   4.504   5.552 -0.0798 -0.4128 -0.0129
 1745SOL    HW116694   3.678   4.451   5.476  0.2214  0.3415 -0.4378
 1745SOL    HW216695   3.594   4.448   5.601 -1.2612 -0.4520 -1.4818
 1746SOL     OW16696   2.175   4.521   6.465 -0.1893 -0.2653 -0.1835
 1746SOL    HW116697   2.084   4.540   6.443 -0.0484 -0.4384 -0.9277
 1746SOL    HW216698   2.190   4.585   6.535  1.8301 -1.9089  0.8693
 1747SOL     OW16699   4.192   4.716  16.044  0.1155 -0.0996 -0.4404
 1747SOL    HW116700   4.269   0.001  15.988  0.8157 -3.1080  0.1053
 1747SOL    HW216701   4.120   0.032  15.994  1.3451  0.9707 -1.3707
 1748SOL     OW16702   3.703   2.925  10.002  0.0858  0.5268 -0.5235
 1748SOL    HW116703   3.714   2.849   9.944 -1.8835  0.2012 -0.4816
 1748SOL    HW216704   3.778   2.914  10.060  0.3102 -0.4511 -0.9911
 1749SOL     OW16705   1.115   1.052   5.279 -0.2461  0.0308  0.2202
 1749SOL    HW116706   1.139   0.973   5.327 -0.8178 -0.8481 -0.9476
 1749SOL    HW216707   1.149   1.013   5.198  1.3547 -0.0521  0.9417
 1750SOL     OW16708   0.565   3.586  10.086 -0.0778 -0.6774  0.5408
 1750SOL    HW116709   0.553   3.511  10.027 -0.0472  0.4869 -0.9211
 1750SOL    HW216710   0.481   3.596  10.131 -1.1975 -1.7752 -1.2928
 1751SOL     OW16711   0.256   3.735   6.751 -0.4749  0.2608  0.0621
 1751SOL    HW116712   0.272   3.756   6.660 -0.5273 -2.1153 -0.4994
 1751SOL    HW216713   0.341   3.714   6.789 -0.2511  0.7511 -0.1781
 1752SOL     OW16714   3.619   1.877   5.328  0.0126  0.2316 -1.0419
 1752SOL    HW116715   3.574   1.916   5.253 -0.6959 -0.5303 -0.9989
 1752SOL    HW216716   3.708   1.892   5.295  0.0423  0.8373 -0.6841
 1753SOL     OW16717   3.210   3.990   8.768  0.1066  0.2461  0.3222
 1753SOL    HW116718   3.271   3.917   8.754 -0.0873  0.7090 -2.7597
 1753SOL    HW216719   3.276   4.057   8.786  2.3305 -1.2183 -2.3921
 1754SOL     OW16720   3.766   1.809   2.740  0.0026 -0.3795 -0.0267
 1754SOL    HW116721   3.798   1.772   2.658  0.6259 -0.4733  0.2556
 1754SOL    HW216722   3.839   1.810   2.802  0.1579  2.7227 -0.2610
 1755SOL     OW16723   1.287   0.449  17.114  0.1398  0.0718 -0.0296
 1755SOL    HW116724   1.379   0.475  17.106  0.3157  0.3032  2.7257
 1755SOL    HW216725   1.259   0.452  17.023  0.6796 -1.7487 -0.2639
 1756SOL     OW16726   3.663   0.228  14.922 -0.7010 -0.7733 -0.2350
 1756SOL    HW116727   3.594   0.238  14.857 -0.7323 -1.6838 -0.3359
 1756SOL    HW216728   3.603   0.205  14.993 -2.1682 -0.7443 -1.4811
 1757SOL     OW16729   2.441   4.532   3.587 -0.8018 -0.1034 -0.4387
 1757SOL    HW116730   2.494   4.536   3.507  0.1182  0.5454  0.2047
 1757SOL    HW216731   2.353   4.513   3.555 -1.6925  1.3886  1.1207
 1758SOL     OW16732   2.219   4.715   6.651  0.6573 -0.0874  0.0889
 1758SOL    HW116733   2.181   4.675   6.728 -2.6043  1.2962 -0.8293
 1758SOL    HW216734   2.232   0.083   6.676  2.8154 -0.0602 -1.1017
 1759SOL     OW16735   3.535   2.670   5.712 -0.5678 -0.0504  0.1634
 1759SOL    HW116736   3.520   2.754   5.670 -2.5371 -0.5831 -0.1997
 1759SOL    HW216737   3.621   2.653   5.673  0.2096  0.6380  1.5670
 1760SOL     OW16738   3.965   2.061   4.276 -0.0091  0.3358 -0.2495
 1760SOL    HW116739   3.931   2.111   4.202 -0.1169 -1.2022 -1.2465
 1760SOL    HW216740   3.938   1.972   4.253  0.6606  0.1017 -0.1084
 1761SOL     OW16741   0.532   1.870   3.078  0.3381  0.2805 -0.2229
 1761SOL    HW116742   0.473   1.942   3.057  0.4351  0.4080 -0.0628
 1761SOL    HW216743   0.614   1.899   3.038  0.5979  2.4824  1.9187
 1762SOL     OW16744   4.401   3.310  12.111  0.2560 -0.5267  0.5253
 1762SOL    HW116745   4.319   3.286  12.155 -0.3901  0.1134 -0.3269
 1762SOL    HW216746   4.429   3.220  12.096  1.3989 -0.5170  2.5008
 1763SOL     OW16747   0.534   3.112   3.091  0.3064  0.0004 -0.6891
 1763SOL    HW116748   0.569   3.095   3.179  1.3616 -0.4706 -1.1980
 1763SOL    HW216749   0.454   3.154   3.123 -0.0318 -1.6965  0.7552
 1764SOL     OW16750   0.269   1.289   4.068 -0.4029 -0.1002 -0.3614
 1764SOL    HW116751   0.186   1.243   4.053 -0.7810  0.5706 -0.3087
 1764SOL    HW216752   0.296   1.309   3.979  2.1925 -0.6115  0.3080
 1765SOL     OW16753   1.420   0.545   5.341 -0.3623  0.3094  0.0014
 1765SOL    HW116754   1.345   0.580   5.389  1.0637  1.4695  1.3899
 1765SOL    HW216755   1.474   0.624   5.342  0.8504 -0.5212  0.2130
 1766SOL     OW16756   1.303   1.289  10.882 -0.1947  0.0281  0.4222
 1766SOL    HW116757   1.374   1.340  10.920  1.0412 -1.2692 -0.1527
 1766SOL    HW216758   1.243   1.283  10.956  1.5956  1.5104  1.9792
 1767SOL     OW16759   4.369   2.678   5.704 -0.0279 -0.1658 -0.2116
 1767SOL    HW116760   4.303   2.735   5.664 -0.4813 -1.0553 -0.7487
 1767SOL    HW216761   4.345   2.683   5.796  0.3953 -0.6057 -0.0809
 1768SOL     OW16762   0.499   2.294  10.673  0.4151  0.2244  0.6064
 1768SOL    HW116763   0.431   2.231  10.695  0.1431 -0.2233 -1.5489
 1768SOL    HW216764   0.461   2.373  10.711  0.9646  0.7337  0.0978
 1769SOL     OW16765   1.755   0.453   5.222 -0.0187 -0.4361  0.3967
 1769SOL    HW116766   1.752   0.405   5.139 -1.0757 -1.1301  0.8355
 1769SOL    HW216767   1.841   0.433   5.259 -0.6094 -0.7950  1.5770
 1770SOL     OW16768   0.038   1.510   0.112  0.0794 -0.2157  0.6067
 1770SOL    HW116769   4.680   1.460   0.123  0.5898 -0.7133  2.0448
 1770SOL    HW216770   0.022   1.546   0.025 -0.3622  0.9484  1.1608
 1771SOL     OW16771   4.142   3.635   2.204  0.2201  0.1832  0.1620
 1771SOL    HW116772   4.150   3.719   2.160  1.6202  0.1369  0.3140
 1771SOL    HW216773   4.049   3.623   2.184  0.2555 -0.3419  0.3080
 1772SOL     OW16774   0.341   1.368   8.731 -0.2135  0.3717 -0.4313
 1772SOL    HW116775   0.268   1.329   8.682 -0.1490  1.6497 -1.5539
 1772SOL    HW216776   0.382   1.402   8.652 -1.1394  0.4540 -0.8841
 1773SOL     OW16777   3.169   0.996   9.495 -0.2102  0.0828  0.0230
 1773SOL    HW116778   3.077   0.990   9.523 -0.0322 -0.3034  0.5081
 1773SOL    HW216779   3.206   1.060   9.555  0.1001 -2.1197  2.1950
 1774SOL     OW16780   1.257   3.889   6.542  0.3731 -0.2273  0.5774
 1774SOL    HW116781   1.163   3.901   6.549  0.5711  1.3561  0.4427
 1774SOL    HW216782   1.288   3.977   6.564  1.6530 -0.3037 -0.8782
 1775SOL     OW16783   1.030   0.225   3.852  0.0732  0.1086  0.2719
 1775SOL    HW116784   1.086   0.149   3.867 -0.5862 -0.6843 -1.2735
 1775SOL    HW216785   1.004   0.216   3.760  0.4411  4.9087 -0.3152
 1776SOL     OW16786   2.309   4.422   3.357  0.3831  0.2053 -0.5347
 1776SOL    HW116787   2.261   4.505   3.355 -0.9440 -0.5699 -1.1437
 1776SOL    HW216788   2.239   4.370   3.318  0.3326 -0.3040  0.2273
 1777SOL     OW16789   1.858   1.998   0.251  0.0531 -0.4461  0.3498
 1777SOL    HW116790   1.792   2.053   0.295  0.0607 -0.1658  0.0046
 1777SOL    HW216791   1.936   2.035   0.292  0.9739 -1.7359 -0.2580
 1778SOL     OW16792   3.221   0.438   8.616 -0.2501 -0.6356  0.1799
 1778SOL    HW116793   3.266   0.467   8.695 -0.9839  0.6189  0.1362
 1778SOL    HW216794   3.136   0.480   8.616 -0.6529 -1.4045 -1.7160
 1779SOL     OW16795   0.510   1.385   3.343  0.0947  1.0791  0.1940
 1779SOL    HW116796   0.434   1.400   3.398 -1.1147  1.6547 -1.6688
 1779SOL    HW216797   0.507   1.289   3.334  1.1641  0.7773  2.7425
 1780SOL     OW16798   3.686   4.342   0.860  0.1347 -0.0360  0.0012
 1780SOL    HW116799   3.705   4.429   0.894  0.6294 -0.2336  0.2322
 1780SOL    HW216800   3.635   4.366   0.783  0.9131  2.6211  0.3293
 1781SOL     OW16801   4.453   2.182   5.617 -0.1028  0.3660  0.2951
 1781SOL    HW116802   4.361   2.156   5.610 -0.1011 -0.0636  1.7551
 1781SOL    HW216803   4.430   2.271   5.643 -0.8356  1.0815 -2.8972
 1782SOL     OW16804   0.323   4.075   5.563  0.4101  0.0899  0.1827
 1782SOL    HW116805   0.239   4.034   5.586  1.3096 -1.4367  0.7441
 1782SOL    HW216806   0.300   4.111   5.477  0.9787 -2.5525 -1.1128
 1783SOL     OW16807   0.254   2.831   6.574  0.0027  0.2770 -0.1878
 1783SOL    HW116808   0.221   2.843   6.485  2.2393  1.0737 -0.9143
 1783SOL    HW216809   0.205   2.752   6.597  0.3141  0.4573  1.0932
 1784SOL     OW16810   2.594   4.241  11.511  0.0657 -0.2578  0.1910
 1784SOL    HW116811   2.629   4.153  11.525  1.1687  0.3619  1.3758
 1784SOL    HW216812   2.649   4.287  11.575 -0.2541  0.6286 -0.1677
 1785SOL     OW16813   3.521   2.705   1.981  0.4320  0.2880  1.0045
 1785SOL    HW116814   3.513   2.611   1.964 -2.2229  0.7560 -0.3621
 1785SOL    HW216815   3.509   2.749   1.896  1.9648 -1.3891 -0.0915
 1786SOL     OW16816   1.378   4.165  16.020 -0.0875 -0.3708  0.4916
 1786SOL    HW116817   1.309   4.125  16.073  0.0669 -0.5178  0.5833
 1786SOL    HW216818   1.353   4.134  15.933  0.7455  2.2505 -0.6747
 1787SOL     OW16819   4.016   1.417   5.312 -0.3269 -0.2827  0.7941
 1787SOL    HW116820   4.028   1.422   5.217 -0.9281  0.4091  0.7521
 1787SOL    HW216821   4.078   1.347   5.333  0.3915  0.7888  2.3254
 1788SOL     OW16822   2.298   4.219   7.541 -0.6033  0.1953  0.1184
 1788SOL    HW116823   2.208   4.241   7.514  0.1263  1.1458 -1.5063
 1788SOL    HW216824   2.274   4.191   7.629 -1.2404 -0.5164 -0.2713
 1789SOL     OW16825   1.630   1.258   6.509  0.2766 -0.1789  0.5695
 1789SOL    HW116826   1.588   1.317   6.572 -0.9499 -1.1196  0.6278
 1789SOL    HW216827   1.709   1.237   6.559  0.4770 -0.6651  0.0420
 1790SOL     OW16828   2.198   2.710   4.278 -0.6001 -0.3340  0.1369
 1790SOL    HW116829   2.205   2.620   4.245 -1.0136 -0.4101  0.2607
 1790SOL    HW216830   2.286   2.723   4.314  0.3178  1.2747 -2.6533
 1791SOL     OW16831   3.871   1.790   5.609 -0.0245  0.2007 -0.1925
 1791SOL    HW116832   3.895   1.873   5.568 -4.1962  0.5660 -1.8417
 1791SOL    HW216833   3.871   1.816   5.701  0.4874 -0.1908 -0.0770
 1792SOL     OW16834   0.907   4.070   4.230  0.1420  0.6944 -0.2577
 1792SOL    HW116835   0.991   4.044   4.269 -0.0504 -2.3742 -1.8418
 1792SOL    HW216836   0.850   4.093   4.303  0.8319  1.2267  0.1120
 1793SOL     OW16837   2.414   0.455  12.904 -0.1685 -0.0170  0.3429
 1793SOL    HW116838   2.397   0.545  12.876  0.6950  0.0079 -0.1075
 1793SOL    HW216839   2.489   0.463  12.964 -0.8603  0.8990  1.0966
 1794SOL     OW16840   3.334   3.526   1.820  0.5685  0.2794  0.0576
 1794SOL    HW116841   3.265   3.558   1.763  0.9740  1.0739  0.0087
 1794SOL    HW216842   3.276   3.490   1.887 -0.7477  0.5430 -0.9368
 1795SOL     OW16843   4.590   1.129   7.778  0.0628 -0.3525  0.1323
 1795SOL    HW116844   4.515   1.183   7.756  0.8871  0.6733 -0.1587
 1795SOL    HW216845   4.561   1.084   7.858 -1.3815  0.8058  0.2537
 1796SOL     OW16846   3.803   0.741   7.098 -0.0803 -0.5681 -0.3759
 1796SOL    HW116847   3.837   0.763   7.011  0.2848  2.6244  0.5848
 1796SOL    HW216848   3.709   0.732   7.086 -0.2959  1.9235 -0.4344
 1797SOL     OW16849   0.530   2.275   4.334  0.5057 -0.6970  0.4253
 1797SOL    HW116850   0.603   2.215   4.348  0.8626 -0.1621  0.8645
 1797SOL    HW216851   0.468   2.243   4.400 -0.3077 -0.5908 -0.2770
 1798SOL     OW16852   1.459   3.189   8.514  0.3343  0.3710 -0.0938
 1798SOL    HW116853   1.460   3.251   8.441 -4.7002  1.6656  0.9107
 1798SOL    HW216854   1.376   3.143   8.505  0.8298  0.2361 -3.9266
 1799SOL     OW16855   0.917   2.831   4.974  0.1518 -0.0729 -0.1426
 1799SOL    HW116856   0.917   2.790   4.887  0.3681  1.3788 -0.8157
 1799SOL    HW216857   0.830   2.806   5.005 -1.2694  0.8590 -3.2855
 1800SOL     OW16858   0.130   0.004  10.304 -0.4244  0.7319  0.1487
 1800SOL    HW116859   0.076   0.014  10.225 -0.0986  0.4366 -0.1114
 1800SOL    HW216860   0.079   4.666  10.358  1.2372 -0.3760  0.4310
 1801SOL     OW16861   2.453   3.347   2.922 -0.0503  0.7302 -0.3640
 1801SOL    HW116862   2.450   3.252   2.913 -3.0392  0.7223  0.6096
 1801SOL    HW216863   2.509   3.367   2.997 -0.6049  1.7887 -0.2401
 1802SOL     OW16864   2.174   0.410   7.510 -0.3052 -0.2134 -0.4033
 1802SOL    HW116865   2.170   0.314   7.503 -1.4737 -0.0664 -1.7607
 1802SOL    HW216866   2.189   0.448   7.424  1.6774 -0.9690 -0.3832
 1803SOL     OW16867   3.222   3.360   7.952 -0.5325 -0.2894  0.4118
 1803SOL    HW116868   3.260   3.273   7.949 -0.0503 -0.0520 -0.2770
 1803SOL    HW216869   3.261   3.410   7.881  1.3533 -1.4855  0.6173
 1804SOL     OW16870   0.989   3.082   2.914 -0.4415 -0.3986 -0.0881
 1804SOL    HW116871   1.002   3.130   2.996  1.8346  0.5712 -1.0200
 1804SOL    HW216872   1.083   3.063   2.906 -0.6969 -2.0281  0.7086
 1805SOL     OW16873   4.127   3.375   2.049  0.1765 -0.4922  0.3868
 1805SOL    HW116874   4.120   3.464   2.085 -1.0397 -0.4170 -0.0381
 1805SOL    HW216875   4.037   3.350   2.026 -0.2752 -0.4665  2.1318
 1806SOL     OW16876   1.794   1.937   9.085  0.4989  0.3270  0.1446
 1806SOL    HW116877   1.775   2.022   9.045 -0.0575 -0.0703 -0.4381
 1806SOL    HW216878   1.816   1.956   9.176 -0.7312 -1.6533  0.8544
 1807SOL     OW16879   3.127   0.388  11.667  0.0238 -0.0794 -0.2928
 1807SOL    HW116880   3.086   0.376  11.581  0.8157 -2.4693 -0.3579
 1807SOL    HW216881   3.201   0.329  11.650  0.8932  1.3129 -1.2632
 1808SOL     OW16882   2.427   0.743   3.508 -0.5146 -0.3192  1.2457
 1808SOL    HW116883   2.380   0.735   3.425  0.2782  1.3808  0.6050
 1808SOL    HW216884   2.492   0.674   3.497  0.8473  0.9866  1.0756
 1809SOL     OW16885   2.590   1.120   1.046 -0.9505 -0.4743 -0.1651
 1809SOL    HW116886   2.509   1.115   0.995 -0.2196 -1.5548 -1.2049
 1809SOL    HW216887   2.627   1.040   1.008  0.2654  0.2731 -0.5263
 1810SOL     OW16888   4.689   1.204   6.369  0.2630  0.2780 -0.1143
 1810SOL    HW116889   4.614   1.153   6.399 -1.2084  1.6376 -1.4806
 1810SOL    HW216890   4.693   1.204   6.274 -2.5731  1.5680 -0.2279
 1811SOL     OW16891   3.380   1.951   8.825 -0.1982 -0.4142 -0.1994
 1811SOL    HW116892   3.322   1.913   8.890  1.4328 -0.3092  1.3001
 1811SOL    HW216893   3.462   1.919   8.862 -1.2330  0.0692  2.4785
 1812SOL     OW16894   1.957   2.890   2.878 -0.0324 -0.8393  0.1063
 1812SOL    HW116895   1.986   2.876   2.788 -2.2981  0.9441 -0.8940
 1812SOL    HW216896   2.034   2.936   2.911 -0.8532  0.5602  0.0643
 1813SOL     OW16897   3.236   3.769   9.067  0.2330 -0.1579  0.3941
 1813SOL    HW116898   3.293   3.846   9.066  2.6531 -1.9955 -1.9449
 1813SOL    HW216899   3.151   3.805   9.039  0.7753 -0.0393 -1.1205
 1814SOL     OW16900   2.055   2.251   8.217 -0.4261  0.7207  0.6017
 1814SOL    HW116901   1.984   2.188   8.229 -0.9531  1.2365  0.1922
 1814SOL    HW216902   2.014   2.327   8.258 -1.9591 -0.4252  1.1939
 1815SOL     OW16903   3.778   4.023   4.917 -0.1022 -0.4428 -0.3978
 1815SOL    HW116904   3.729   3.944   4.892 -0.7510  0.1774 -1.0928
 1815SOL    HW216905   3.810   3.990   5.000 -0.1081  1.0507  0.2022
 1816SOL     OW16906   2.182   0.933   8.060 -0.1406 -0.2324 -0.0487
 1816SOL    HW116907   2.168   0.887   8.143  0.4704 -1.0614 -0.4022
 1816SOL    HW216908   2.263   0.893   8.027  1.0925  1.3526  1.0292
 1817SOL     OW16909   3.683   2.403   8.500  0.1554  0.3022 -0.0450
 1817SOL    HW116910   3.683   2.488   8.457  0.6189 -0.3288 -1.2869
 1817SOL    HW216911   3.699   2.426   8.592  2.2711  2.5078 -0.9980
 1818SOL     OW16912   4.111   0.160   5.137  0.3789  0.5921  0.0049
 1818SOL    HW116913   4.078   0.084   5.090  1.8440 -1.3930  2.1758
 1818SOL    HW216914   4.030   0.203   5.163 -0.5346 -0.6970 -0.7075
 1819SOL     OW16915   4.251   4.134   5.092  0.4027 -0.0323 -0.6117
 1819SOL    HW116916   4.283   4.079   5.164  0.3289  1.6075  0.6614
 1819SOL    HW216917   4.337   4.172   5.074  0.7888 -0.0575  1.1816
 1820SOL     OW16918   2.923   2.973   1.910 -0.6042  0.1216  0.5227
 1820SOL    HW116919   2.881   3.043   1.960  0.6729  2.1735 -1.2568
 1820SOL    HW216920   2.911   2.899   1.969 -0.8794 -0.9906 -0.9245
 1821SOL     OW16921   0.738   1.082   1.177 -0.6858  0.2348 -0.2385
 1821SOL    HW116922   0.717   1.113   1.265 -0.5360  1.4859 -0.6423
 1821SOL    HW216923   0.738   0.990   1.203 -0.4320  0.8618  2.0091
 1822SOL     OW16924   3.122   2.484   1.513  0.3284  0.4687 -0.2226
 1822SOL    HW116925   3.115   2.391   1.490 -2.9841  0.8029 -0.5199
 1822SOL    HW216926   3.214   2.497   1.489  0.1709  1.3764 -0.2991
 1823SOL     OW16927   4.334   4.633   7.192 -0.2589 -0.7436  0.2520
 1823SOL    HW116928   4.376   4.589   7.118 -0.4032  0.5332 -0.5805
 1823SOL    HW216929   4.304   4.707   7.139 -0.6651 -0.9272  0.2270
 1824SOL     OW16930   2.506   4.094   2.539  0.3865  0.1190 -0.8416
 1824SOL    HW116931   2.443   4.024   2.520 -2.6187  2.6516 -0.1018
 1824SOL    HW216932   2.449   4.140   2.601 -0.2215 -2.2634  0.3679
 1825SOL     OW16933   1.712   3.916   4.392 -0.0412  0.1708  0.2753
 1825SOL    HW116934   1.777   3.970   4.437  2.7162 -1.5445 -1.6489
 1825SOL    HW216935   1.686   3.846   4.452 -2.6218  0.3472 -0.6186
 1826SOL     OW16936   3.118   1.145   7.055 -0.2172 -0.0474  0.6309
 1826SOL    HW116937   3.068   1.171   6.977 -1.0387 -1.1756  0.7705
 1826SOL    HW216938   3.201   1.122   7.013 -0.7854 -0.5442 -0.2325
 1827SOL     OW16939   4.601   3.305   4.994 -0.3441  0.2760  0.4726
 1827SOL    HW116940   4.536   3.285   4.926 -0.4618 -0.0096  0.6688
 1827SOL    HW216941   4.684   3.274   4.959 -0.1486  2.9796 -1.4637
 1828SOL     OW16942   4.016   0.510   5.046 -0.0136  0.5237  0.3768
 1828SOL    HW116943   4.025   0.448   5.118 -0.7652  1.5866  1.3949
 1828SOL    HW216944   3.920   0.505   5.036  0.3067 -1.5186 -1.6433
 1829SOL     OW16945   2.956   3.572  17.348  0.3520  0.1063  0.0069
 1829SOL    HW116946   2.955   3.668  17.347  0.9134  0.1539  2.1073
 1829SOL    HW216947   2.992   3.558  17.260 -0.9605 -0.2682 -0.4654
 1830SOL     OW16948   3.169   4.064  10.687 -0.1130 -0.0717 -0.2131
 1830SOL    HW116949   3.175   4.061  10.591 -1.1409  2.3693 -0.3533
 1830SOL    HW216950   3.223   4.141  10.700  3.1690 -2.3452 -0.3248
 1831SOL     OW16951   3.944   2.454   0.581  0.3520 -0.1760 -0.9008
 1831SOL    HW116952   3.885   2.470   0.654  0.9595  3.2675 -1.1226
 1831SOL    HW216953   3.976   2.367   0.605 -1.5790 -0.3626  0.9194
 1832SOL     OW16954   0.960   0.345   5.889 -0.0469  0.4978  0.1643
 1832SOL    HW116955   0.898   0.273   5.892 -0.3251  0.6321 -2.7979
 1832SOL    HW216956   1.043   0.309   5.920 -0.4834 -1.5487 -1.0966
 1833SOL     OW16957   1.228   1.364   8.062 -0.4275 -0.2882  0.1094
 1833SOL    HW116958   1.146   1.388   8.104 -2.0066 -1.5305 -2.2420
 1833SOL    HW216959   1.229   1.422   7.985 -2.3549  0.1209  0.3884
 1834SOL     OW16960   0.606   3.818   4.546 -0.1856 -0.3827  0.3383
 1834SOL    HW116961   0.594   3.907   4.579  0.1966  0.1163 -0.8716
 1834SOL    HW216962   0.596   3.836   4.452  3.5948  0.1830  0.0317
 1835SOL     OW16963   4.007   1.671   3.734 -0.5831 -0.7282 -0.3466
 1835SOL    HW116964   3.953   1.705   3.805  2.4828  0.1391  1.6089
 1835SOL    HW216965   3.988   1.733   3.664  1.0761 -0.8058 -0.8568
 1836SOL     OW16966   4.146   0.939   3.168 -0.5076 -0.4936  0.6015
 1836SOL    HW116967   4.201   0.897   3.103 -1.7342 -1.2110  0.0160
 1836SOL    HW216968   4.082   0.869   3.183 -1.1880  0.2861  1.3477
 1837SOL     OW16969   2.285   1.072   3.538 -0.2842  0.2150  0.1518
 1837SOL    HW116970   2.212   1.043   3.594 -1.1781  0.4537 -0.8978
 1837SOL    HW216971   2.290   1.004   3.471  4.2141 -2.2372  2.9057
 1838SOL     OW16972   1.557   2.679   5.324  0.8084 -0.0216  0.1914
 1838SOL    HW116973   1.644   2.658   5.291  1.1761  1.0221  0.5051
 1838SOL    HW216974   1.517   2.746   5.269 -1.9303 -1.3068  0.6235
 1839SOL     OW16975   3.571   3.686   2.234  0.2104  0.2851 -0.5093
 1839SOL    HW116976   3.656   3.675   2.191  0.7243 -2.4231  1.1876
 1839SOL    HW216977   3.601   3.747   2.302  0.1054 -0.9003  0.6075
 1840SOL     OW16978   2.978   2.496  15.517  0.1430 -0.2609 -0.5698
 1840SOL    HW116979   3.043   2.428  15.535  0.6264  0.6640  1.2448
 1840SOL    HW216980   3.005   2.531  15.433 -1.4727  2.4829  0.0530
 1841SOL     OW16981   2.421   4.688  12.773  0.4138  0.0602 -0.0809
 1841SOL    HW116982   2.406   0.059  12.769  1.1009  0.1009 -1.9756
 1841SOL    HW216983   2.355   4.652  12.713  0.4128 -0.3821  0.1855
 1842SOL     OW16984   0.760   0.595   1.232 -0.7660  0.0183 -0.6480
 1842SOL    HW116985   0.671   0.562   1.243 -0.2725 -1.1102 -0.0340
 1842SOL    HW216986   0.805   0.511   1.225  1.2003  0.8595  1.9763
 1843SOL     OW16987   1.639   0.795   3.351  0.4623  0.0479  0.2298
 1843SOL    HW116988   1.652   0.705   3.324  1.3264  0.3606 -0.3918
 1843SOL    HW216989   1.672   0.835   3.270 -1.6309  1.4461  0.0686
 1844SOL     OW16990   1.262   3.057   3.520 -0.1176  0.5775  0.1436
 1844SOL    HW116991   1.248   3.035   3.428  1.0303  0.4802 -0.0079
 1844SOL    HW216992   1.218   2.980   3.557  1.2211 -0.2943 -0.0716
 1845SOL     OW16993   2.367   2.096  10.006 -0.8449  0.2592  0.2031
 1845SOL    HW116994   2.335   2.097   9.916  1.9344 -0.6189 -0.7972
 1845SOL    HW216995   2.425   2.020   9.998  2.2932  2.5411  1.2807
 1846SOL     OW16996   3.495   1.190  13.349 -0.0845 -0.4562 -0.4282
 1846SOL    HW116997   3.402   1.212  13.351 -0.0908 -0.6528  1.5261
 1846SOL    HW216998   3.493   1.095  13.337 -2.2137 -0.6490  1.5245
 1847SOL     OW16999   3.007   0.896   7.470  0.1108  0.3980  1.0498
 1847SOL    HW117000   2.966   0.922   7.387  0.0180 -0.2894  0.8851
 1847SOL    HW217001   3.088   0.947   7.472 -1.3012  2.6755  0.8843
 1848SOL     OW17002   3.894   3.563   2.411  0.2689 -0.4283  0.0641
 1848SOL    HW117003   3.866   3.655   2.409  2.0933  0.1884  2.9900
 1848SOL    HW217004   3.867   3.546   2.321  3.5444  0.5590 -1.1121
 1849SOL     OW17005   1.426   1.547   8.390  0.1626 -0.0540 -0.0939
 1849SOL    HW117006   1.489   1.542   8.319  3.2558  1.5936  2.5621
 1849SOL    HW217007   1.381   1.630   8.373 -0.8497 -0.7219 -0.7043
 1850SOL     OW17008   1.006   3.290   7.442  0.1761 -0.5948  0.1843
 1850SOL    HW117009   1.076   3.323   7.498  0.0967 -1.3160  0.7026
 1850SOL    HW217010   0.999   3.196   7.459 -0.5793 -0.5308  0.2348
 1851SOL     OW17011   4.418   0.174  16.434  0.1302 -0.3622 -0.1663
 1851SOL    HW117012   4.459   0.095  16.398  1.5385 -0.1132  0.8835
 1851SOL    HW217013   4.366   0.145  16.509  2.1234 -0.9618  0.9932
 1852SOL     OW17014   0.691   1.680   9.240  0.2944 -0.1961 -0.0178
 1852SOL    HW117015   0.644   1.598   9.257  1.1365 -0.9358 -1.2561
 1852SOL    HW217016   0.714   1.701   9.331 -2.7139 -0.7140  0.8430
 1853SOL     OW17017   0.512   1.788   3.366  0.0303 -0.2790  0.4944
 1853SOL    HW117018   0.592   1.823   3.407 -0.5381 -0.4063  1.6970
 1853SOL    HW217019   0.532   1.784   3.273 -0.8769  2.3987  0.1674
 1854SOL     OW17020   1.920   3.071   7.950  0.2364  0.2675 -0.2796
 1854SOL    HW117021   1.879   3.016   7.883 -1.1776 -1.0742  1.7117
 1854SOL    HW217022   2.012   3.055   7.929  0.2505 -1.5399  1.2203
 1855SOL     OW17023   2.465   2.021  13.383  0.2075 -0.2513 -0.1264
 1855SOL    HW117024   2.560   2.024  13.376  0.3462  1.5674  2.7150
 1855SOL    HW217025   2.445   1.985  13.470 -1.9963 -0.6003 -0.7641
 1856SOL     OW17026   1.553   0.851   7.043  0.1219  0.6943  0.0498
 1856SOL    HW117027   1.549   0.944   7.066 -0.8101  0.1853  1.9613
 1856SOL    HW217028   1.460   0.828   7.045  0.9323 -2.7989 -2.4183
 1857SOL     OW17029   0.642   0.919   2.842  0.0377 -0.0620  0.0832
 1857SOL    HW117030   0.552   0.924   2.810  0.4488 -0.5118 -1.1531
 1857SOL    HW217031   0.670   0.837   2.800  0.9320  0.7976 -1.0383
 1858SOL     OW17032   0.654   3.577   3.485  0.0823 -0.7316  0.2578
 1858SOL    HW117033   0.651   3.533   3.399 -1.1894  0.1596 -0.1662
 1858SOL    HW217034   0.710   3.518   3.536  0.8683  0.8735  1.2286
 1859SOL     OW17035   2.480   1.604   8.415  0.1234 -0.0743  0.0182
 1859SOL    HW117036   2.400   1.607   8.362 -0.2123  2.2156  0.6326
 1859SOL    HW217037   2.525   1.687   8.396 -0.0785  0.1674  0.5958
 1860SOL     OW17038   1.862   1.739   4.063 -0.4984 -0.2491  0.1683
 1860SOL    HW117039   1.936   1.719   4.006  0.1617 -1.2142  1.3658
 1860SOL    HW217040   1.830   1.823   4.030 -0.1424 -0.6274 -1.1172
 1861SOL     OW17041   4.486   1.723   8.049 -0.3710  0.4081  0.1287
 1861SOL    HW117042   4.513   1.718   8.141 -0.3293 -2.0106  0.0016
 1861SOL    HW217043   4.556   1.674   8.006 -0.6122 -1.1598  1.5288
 1862SOL     OW17044   4.402   4.588   7.525 -0.1882  0.4538  0.1044
 1862SOL    HW117045   4.460   4.564   7.453  0.1601 -1.9773  1.1890
 1862SOL    HW217046   4.450   4.664   7.556  0.4169  0.6999 -1.4349
 1863SOL     OW17047   2.284   2.098  15.311  0.8757  0.6939 -0.4656
 1863SOL    HW117048   2.311   2.105  15.403 -0.8423  1.7390 -0.0314
 1863SOL    HW217049   2.263   2.189  15.289 -1.7897 -0.1606 -1.4791
 1864SOL     OW17050   2.945   0.212  12.367 -0.4234  0.5140 -0.2409
 1864SOL    HW117051   2.878   0.192  12.300  1.5908  2.3166 -2.8013
 1864SOL    HW217052   2.927   0.132  12.416  1.2501  0.0731 -0.3581
 1865SOL     OW17053   2.719   4.440   7.148 -0.5823  0.0236 -0.1381
 1865SOL    HW117054   2.754   4.416   7.234 -0.3840 -1.5244 -0.6501
 1865SOL    HW217055   2.754   4.527   7.133  1.7203 -0.4495  2.4296
 1866SOL     OW17056   3.685   0.571   3.922  0.2656  0.0317 -0.5914
 1866SOL    HW117057   3.650   0.658   3.943 -1.2664 -0.1340 -2.4829
 1866SOL    HW217058   3.614   0.512   3.947  0.5711 -0.3954 -0.7351
 1867SOL     OW17059   2.882   2.414   2.468  0.5440  0.1672 -0.0327
 1867SOL    HW117060   2.801   2.447   2.429 -0.2835 -0.6137  1.0443
 1867SOL    HW217061   2.930   2.416   2.385  1.2166 -0.4867  0.3380
 1868SOL     OW17062   1.885   0.394   1.270  0.1187  0.2185 -0.1707
 1868SOL    HW117063   1.862   0.479   1.309  1.5250  1.4525 -2.0321
 1868SOL    HW217064   1.812   0.341   1.301 -0.0282 -0.1786 -1.2149
 1869SOL     OW17065   0.013   0.591  17.400 -0.0118  0.2340  0.2749
 1869SOL    HW117066   0.011   0.683  17.372 -0.1462 -0.0392 -0.5972
 1869SOL    HW217067   0.020   0.548  17.315 -1.2689 -0.3683  0.4759
 1870SOL     OW17068   0.841   1.523   0.996  0.0924 -0.1781 -0.0877
 1870SOL    HW117069   0.890   1.581   0.937 -0.2143  0.6795  0.5049
 1870SOL    HW217070   0.765   1.507   0.940  1.1118 -1.0488 -1.2217
 1871SOL     OW17071   2.425   1.407   1.441 -0.5066  0.0874 -0.5103
 1871SOL    HW117072   2.442   1.360   1.523 -2.2171 -0.3212 -0.3804
 1871SOL    HW217073   2.423   1.329   1.386 -1.3589 -0.5827  0.4650
 1872SOL     OW17074   3.451   1.632   9.681 -0.3735  0.2072  0.4011
 1872SOL    HW117075   3.383   1.595   9.738  0.3024 -1.1566  0.3096
 1872SOL    HW217076   3.486   1.546   9.662 -0.2293  0.6298 -1.2547
 1873SOL     OW17077   4.268   1.086  14.072 -0.2944  0.1134 -0.3765
 1873SOL    HW117078   4.304   1.101  13.984  0.2371  1.4454  0.0703
 1873SOL    HW217079   4.188   1.042  14.045 -0.3682  0.5358 -0.8440
 1874SOL     OW17080   3.245   0.828   6.257 -0.2993  0.2723  0.0678
 1874SOL    HW117081   3.227   0.810   6.165  1.8666  0.0967 -0.3146
 1874SOL    HW217082   3.340   0.837   6.251 -0.1576 -0.9478  0.3143
 1875SOL     OW17083   1.565   0.357  16.217  0.3280 -0.1937  0.6696
 1875SOL    HW117084   1.471   0.343  16.230 -0.2449  1.3011 -1.9122
 1875SOL    HW217085   1.607   0.281  16.258 -1.8447 -0.2057  2.8665
 1876SOL     OW17086   3.817   1.683   1.817 -0.0729 -0.5818 -0.3877
 1876SOL    HW117087   3.884   1.615   1.816 -0.7303 -1.2463  0.7206
 1876SOL    HW217088   3.759   1.655   1.888  0.7562  0.1719  0.5910
 1877SOL     OW17089   1.193   3.913   7.133 -0.6677  0.2220 -0.4577
 1877SOL    HW117090   1.161   3.991   7.180  1.4569  1.8551 -1.7124
 1877SOL    HW217091   1.111   3.864   7.133 -0.8780  0.5524 -3.1465
 1878SOL     OW17092   4.495   3.684   2.206 -0.2936 -0.1095  0.0398
 1878SOL    HW117093   4.417   3.739   2.207 -1.1685 -1.3254 -0.9927
 1878SOL    HW217094   4.498   3.648   2.117 -1.8427  1.3176 -0.5973
 1879SOL     OW17095   2.801   0.473   5.523  0.7637 -0.3475 -0.3035
 1879SOL    HW117096   2.809   0.386   5.484 -3.0630 -0.8169 -0.0681
 1879SOL    HW217097   2.888   0.506   5.543  0.7001  0.1056 -0.7699
 1880SOL     OW17098   1.087   1.190   7.190 -0.5067  0.0382  0.2248
 1880SOL    HW117099   1.117   1.178   7.280 -1.9635  1.6528  0.9147
 1880SOL    HW217100   1.091   1.097   7.167 -1.1526  0.5948 -2.2434
 1881SOL     OW17101   0.897   3.076   5.073  0.3597  0.2186  0.5351
 1881SOL    HW117102   0.843   3.108   5.000 -0.1414  2.4503  1.8810
 1881SOL    HW217103   0.908   2.985   5.047  0.3475 -0.0425  1.4653
 1882SOL     OW17104   1.372   3.904   4.399  0.4268 -0.2029 -0.2956
 1882SOL    HW117105   1.437   3.851   4.444  1.8406  0.6010 -1.4094
 1882SOL    HW217106   1.335   3.841   4.337 -1.3330  0.7547 -0.2259
 1883SOL     OW17107   3.911   0.303  10.353 -0.2813  0.4602  0.2347
 1883SOL    HW117108   3.894   0.364  10.282 -3.0140 -0.5408  0.0342
 1883SOL    HW217109   3.952   0.231  10.305 -2.1549  0.2983 -1.1350
 1884SOL     OW17110   2.283   3.840  11.409  0.0027 -0.1582  0.5507
 1884SOL    HW117111   2.322   3.845  11.322  1.7569 -1.1136  1.2844
 1884SOL    HW217112   2.338   3.910  11.444 -1.5459  0.4759  1.7223
 1885SOL     OW17113   0.207   2.304   2.755 -0.1443 -0.1820 -0.3228
 1885SOL    HW117114   0.170   2.387   2.726 -1.7208 -0.3811  1.0953
 1885SOL    HW217115   0.133   2.260   2.796  0.2720  2.0057  2.7697
 1886SOL     OW17116   3.643   4.035   5.436  0.5812  0.3583 -0.2090
 1886SOL    HW117117   3.612   4.112   5.389 -1.7762 -0.6561 -0.3142
 1886SOL    HW217118   3.708   3.998   5.377  1.6719  1.3653  0.3469
 1887SOL     OW17119   1.232   0.974   4.213  0.5656 -0.9134 -0.2505
 1887SOL    HW117120   1.322   1.004   4.221 -0.7261  2.8601  0.1281
 1887SOL    HW217121   1.213   0.976   4.307  1.1729  1.0177 -0.1595
 1888SOL     OW17122   1.503   4.361  13.269 -0.7266  0.5498  0.1924
 1888SOL    HW117123   1.533   4.414  13.343  0.7852 -1.5999  1.1230
 1888SOL    HW217124   1.430   4.410  13.231 -0.7213 -1.5457 -2.5089
 1889SOL     OW17125   4.309   2.376  11.349  0.0366 -0.1094  0.2678
 1889SOL    HW117126   4.329   2.282  11.346  0.2813  0.0317 -2.3690
 1889SOL    HW217127   4.367   2.406  11.279  2.6476 -0.9190  2.0889
 1890SOL     OW17128   0.757   0.105   3.947 -0.3733  0.6134  0.1249
 1890SOL    HW117129   0.838   0.144   3.913 -1.8445  1.2903 -2.6094
 1890SOL    HW217130   0.765   0.024   3.897  0.5567  1.2254 -0.7264
 1891SOL     OW17131   1.212   1.383   4.378  0.0039  0.3250  0.0606
 1891SOL    HW117132   1.288   1.433   4.406  0.9442 -1.2782  0.3717
 1891SOL    HW217133   1.153   1.458   4.371  0.5745  0.7498 -0.2204
 1892SOL     OW17134   0.562   1.999  16.599  0.1841  0.0970  0.4231
 1892SOL    HW117135   0.568   2.017  16.692 -0.3331  0.0201  0.4742
 1892SOL    HW217136   0.583   1.906  16.596  0.2360  0.0716  1.6806
 1893SOL     OW17137   0.111   3.089   7.300 -0.4958  0.7461 -0.4044
 1893SOL    HW117138   0.171   3.114   7.230  1.0448 -1.2544  0.1913
 1893SOL    HW217139   0.106   2.994   7.287  1.6411  0.7223 -1.0085
 1894SOL     OW17140   4.103   2.962   6.987 -0.2602 -0.5039 -0.6446
 1894SOL    HW117141   4.062   2.876   6.982 -0.8820 -0.0871 -2.8984
 1894SOL    HW217142   4.158   2.958   6.909  0.4605  1.5806 -0.2428
 1895SOL     OW17143   2.835   3.591   0.771  0.1888 -0.6240  0.1117
 1895SOL    HW117144   2.931   3.594   0.780 -0.0879  1.7196  2.2128
 1895SOL    HW217145   2.825   3.684   0.789  0.0789 -0.7775  0.8512
 1896SOL     OW17146   0.420   0.053   8.469 -0.0601  0.7197 -0.3471
 1896SOL    HW117147   0.425   0.146   8.449 -0.7373  0.5574 -1.2750
 1896SOL    HW217148   0.393   0.026   8.382 -0.2852  0.7439 -0.2858
 1897SOL     OW17149   3.582   0.666   2.997 -0.2873  0.4938  0.2374
 1897SOL    HW117150   3.570   0.687   2.904 -0.6024 -0.1901  0.1233
 1897SOL    HW217151   3.498   0.625   3.016  1.0376 -0.6310  3.7280
 1898SOL     OW17152   2.422   3.064   5.695  0.7378 -0.3068  0.2536
 1898SOL    HW117153   2.335   3.039   5.728  0.5822 -1.3930 -0.9517
 1898SOL    HW217154   2.453   2.975   5.677  0.2286 -0.6229  0.9300
 1899SOL     OW17155   0.425   3.795   5.885  0.0821 -0.1829 -0.3007
 1899SOL    HW117156   0.480   3.825   5.813  1.3185  0.3001  0.8377
 1899SOL    HW217157   0.430   3.866   5.950 -2.0358  1.8584 -2.3711
 1900SOL     OW17158   4.076   4.445   0.069  0.3725  0.5596 -0.0257
 1900SOL    HW117159   4.103   4.396  17.686 -2.4937  1.1237 -1.3776
 1900SOL    HW217160   4.157   4.487   0.098  0.5072 -0.1718  0.6662
 1901SOL     OW17161   0.742   0.940   1.970 -0.4551 -0.4931 -0.1559
 1901SOL    HW117162   0.815   0.999   1.991 -1.3843  1.1657 -1.5333
 1901SOL    HW217163   0.725   0.900   2.055  2.8713 -1.1250  0.2165
 1902SOL     OW17164   3.857   3.447   0.867  0.2430  0.3579  0.3445
 1902SOL    HW117165   3.808   3.475   0.944 -2.3110  0.3221 -1.2643
 1902SOL    HW217166   3.943   3.454   0.908  0.5986  0.7430 -0.4572
 1903SOL     OW17167   2.325   3.577  10.440 -0.7467 -0.7491 -0.0295
 1903SOL    HW117168   2.324   3.602  10.532  2.3327  1.6418 -0.6310
 1903SOL    HW217169   2.414   3.545  10.429 -1.4638 -3.0404  0.8460
 1904SOL     OW17170   4.445   3.226   4.653 -0.1831  0.0898  0.1795
 1904SOL    HW117171   4.451   3.141   4.610 -0.0446  0.7991 -1.2133
 1904SOL    HW217172   4.526   3.269   4.624  0.5033  0.0481  2.0207
 1905SOL     OW17173   1.155   3.357   0.740  0.4176  0.3641  0.3170
 1905SOL    HW117174   1.198   3.427   0.692 -2.9358  2.6589  0.6452
 1905SOL    HW217175   1.065   3.358   0.706  1.0599 -0.7608 -1.4353
 1906SOL     OW17176   3.351   0.820   7.607  0.0308 -0.5346  0.0841
 1906SOL    HW117177   3.384   0.829   7.696 -0.6116  0.2433  0.2532
 1906SOL    HW217178   3.434   0.796   7.567  1.4879 -1.5853  3.7652
 1907SOL     OW17179   0.428   0.628   3.207  0.4236 -0.0642 -0.1065
 1907SOL    HW117180   0.476   0.548   3.183 -1.7208 -1.4511  0.1854
 1907SOL    HW217181   0.458   0.663   3.290 -1.0931  0.8648  0.0489
 1908SOL     OW17182   2.427   1.899  11.787  0.0338  0.1290 -0.3840
 1908SOL    HW117183   2.461   1.828  11.731 -0.1833  1.3867 -2.0953
 1908SOL    HW217184   2.471   1.971  11.742  1.7883 -0.8612 -0.2937
 1909SOL     OW17185   1.422   0.062   8.366  0.1851  0.2194  0.6279
 1909SOL    HW117186   1.380   0.145   8.386  0.9145  0.2341  2.0351
 1909SOL    HW217187   1.505   0.096   8.333 -0.1065  1.0203  0.7296
 1910SOL     OW17188   3.369   1.412   3.786 -0.3868  0.0550 -0.3897
 1910SOL    HW117189   3.295   1.382   3.734 -0.9713  1.6018 -0.4550
 1910SOL    HW217190   3.377   1.339   3.847  3.1490  1.2055  0.5272
 1911SOL     OW17191   1.306   4.483   4.740 -0.5494  0.3934 -0.3326
 1911SOL    HW117192   1.377   4.519   4.793 -0.2967 -0.2215 -0.2600
 1911SOL    HW217193   1.318   4.389   4.751 -4.6072 -0.1171 -0.3854
 1912SOL     OW17194   4.691   2.520   1.531 -0.4939 -0.4668 -0.6590
 1912SOL    HW117195   0.028   2.593   1.516 -0.2318 -0.0570  2.3519
 1912SOL    HW217196   0.026   2.445   1.545 -0.2357 -0.0380  0.6381
 1913SOL     OW17197   2.895   1.781   5.215  0.0894  0.1745  0.1383
 1913SOL    HW117198   2.803   1.757   5.228 -0.4433  1.9343 -0.4633
 1913SOL    HW217199   2.935   1.731   5.287 -1.9880  0.7640  1.6803
 1914SOL     OW17200   4.216   0.796   2.350  0.4213  0.0855  0.6199
 1914SOL    HW117201   4.281   0.801   2.279  0.0696 -2.1451  0.1305
 1914SOL    HW217202   4.263   0.849   2.413  3.0903  2.4389 -3.3278
 1915SOL     OW17203   3.219   3.964  14.301  0.0899 -0.3503 -0.4361
 1915SOL    HW117204   3.127   3.947  14.321  0.1643 -0.9528 -0.6066
 1915SOL    HW217205   3.233   3.911  14.223 -1.2559 -0.8723 -0.3124
 1916SOL     OW17206   1.502   3.037   7.005  0.3254  0.0352 -0.0926
 1916SOL    HW117207   1.421   3.054   7.053  0.3886  0.5612 -0.1705
 1916SOL    HW217208   1.566   3.096   7.047 -0.5370  0.6116  0.4120
 1917SOL     OW17209   4.571   1.486   2.823  0.5231 -0.2509 -0.0091
 1917SOL    HW117210   4.530   1.434   2.754 -0.0417  2.0126 -1.3774
 1917SOL    HW217211   4.628   1.546   2.773 -0.9324 -0.0158 -1.3784
 1918SOL     OW17212   2.803   4.071   7.164 -0.2138 -0.0621  0.0336
 1918SOL    HW117213   2.738   4.058   7.232  1.0499 -2.1785  0.8285
 1918SOL    HW217214   2.865   4.001   7.183  0.3228 -0.0222 -1.5567
 1919SOL     OW17215   1.078   2.027  17.261  0.2656 -0.2089 -0.0218
 1919SOL    HW117216   1.011   1.970  17.222 -1.0192  0.9653  0.4657
 1919SOL    HW217217   1.134   2.027  17.184 -0.5281  0.7559 -0.5996
 1920SOL     OW17218   0.960   4.349   7.075  0.7805  0.1131 -0.2871
 1920SOL    HW117219   1.037   4.385   7.032  0.4588 -0.3946 -1.2754
 1920SOL    HW217220   0.923   4.430   7.110 -1.2232 -1.3226  0.9428
 1921SOL     OW17221   3.664   3.430   1.503  0.2971 -0.0595 -0.3691
 1921SOL    HW117222   3.760   3.422   1.508  0.3142 -0.1051 -0.7342
 1921SOL    HW217223   3.644   3.410   1.594  0.4705 -0.8419 -0.5047
 1922SOL     OW17224   1.946   0.442   4.066 -0.0657  0.3024 -0.0330
 1922SOL    HW117225   1.944   0.535   4.044  1.1285  0.5389  0.9098
 1922SOL    HW217226   1.986   0.436   4.152 -0.8703  0.2430  0.3402
 1923SOL     OW17227   2.322   2.149   0.455 -0.1265 -0.3528 -0.0520
 1923SOL    HW117228   2.305   2.055   0.467 -0.1192 -0.3385  0.0766
 1923SOL    HW217229   2.391   2.163   0.520 -0.8708  0.6104  0.5379
 1924SOL     OW17230   4.408   3.861  13.922 -0.1864 -0.0919  0.3607
 1924SOL    HW117231   4.321   3.839  13.957  0.4268 -0.4560  1.6682
 1924SOL    HW217232   4.388   3.900  13.837  0.6401 -2.2877 -0.8085
 1925SOL     OW17233   1.715   3.829   1.880 -0.6133  0.5310 -0.2808
 1925SOL    HW117234   1.666   3.763   1.830 -1.8853 -0.0496  1.7274
 1925SOL    HW217235   1.786   3.868   1.829 -0.5712 -0.3848 -0.9177
 1926SOL     OW17236   0.817   4.513   6.301 -0.0295  0.2249 -0.2894
 1926SOL    HW117237   0.810   4.422   6.331 -0.4557  0.3946  0.1348
 1926SOL    HW217238   0.732   4.533   6.265 -0.2226 -2.5128 -1.3852
 1927SOL     OW17239   0.097   1.161   4.809  0.0718  0.2971 -0.0237
 1927SOL    HW117240   0.084   1.229   4.743 -1.1912 -0.0837 -0.1796
 1927SOL    HW217241   0.008   1.126   4.800  0.3465 -0.2142 -0.6866
 1928SOL     OW17242   1.148   2.880   9.122  0.2487 -0.3254 -0.3568
 1928SOL    HW117243   1.121   2.940   9.191 -2.7747 -1.0827 -0.8584
 1928SOL    HW217244   1.114   2.795   9.151  0.5580 -0.4300 -0.3029
 1929SOL     OW17245   0.765   1.905   6.335  0.4288 -0.4231 -0.4586
 1929SOL    HW117246   0.683   1.938   6.374 -0.5504 -0.9701 -2.0490
 1929SOL    HW217247   0.722   1.851   6.268  0.2681 -0.8874  0.0178
 1930SOL     OW17248   4.675   3.778   4.185 -0.4387  0.2551 -0.4131
 1930SOL    HW117249   4.583   3.753   4.177 -0.7516  0.5426  2.2761
 1930SOL    HW217250   4.666   3.861   4.140 -1.0756 -0.3168 -1.3374
 1931SOL     OW17251   3.285   0.091   1.591 -0.3850 -0.2385 -0.1766
 1931SOL    HW117252   3.271   0.069   1.682 -1.0330 -0.9630 -0.4550
 1931SOL    HW217253   3.261   0.183   1.579 -1.0286 -0.3600  0.1379
 1932SOL     OW17254   3.170   2.577  16.339  0.1005  0.0690  0.0476
 1932SOL    HW117255   3.173   2.481  16.336  0.6969  0.1509 -1.6946
 1932SOL    HW217256   3.217   2.593  16.257  2.8592  0.7670  1.7681
 1933SOL     OW17257   4.523   2.368   0.462 -0.5434  0.2262 -0.6203
 1933SOL    HW117258   4.604   2.350   0.508 -1.3333 -1.1064  0.2484
 1933SOL    HW217259   4.461   2.361   0.534  1.3098  1.1157  1.0467
 1934SOL     OW17260   0.321   3.436   8.010  0.1301 -0.0567 -0.2416
 1934SOL    HW117261   0.392   3.417   8.070  1.1758 -0.0586 -1.4716
 1934SOL    HW217262   0.308   3.530   8.024 -0.6550  0.1332 -2.1440
 1935SOL     OW17263   0.709   0.409   3.520 -0.1001  0.3977 -0.6985
 1935SOL    HW117264   0.788   0.463   3.511  0.8378 -1.0316 -0.9767
 1935SOL    HW217265   0.743   0.337   3.466 -1.5001  0.4661 -1.6679
 1936SOL     OW17266   1.852   1.448   3.936 -0.2314  0.1664  0.0388
 1936SOL    HW117267   1.819   1.403   4.014 -0.5539 -0.5502 -0.5052
 1936SOL    HW217268   1.943   1.439   3.963  0.1361  0.5134 -1.1013
 1937SOL     OW17269   2.314   3.134   3.712  0.3208  0.2421 -0.0722
 1937SOL    HW117270   2.402   3.145   3.678 -0.3920 -1.3887 -2.4217
 1937SOL    HW217271   2.265   3.121   3.631  0.5427  3.1062 -0.6445
 1938SOL     OW17272   0.625   4.043   1.283 -0.0946  0.2876  0.3794
 1938SOL    HW117273   0.691   4.087   1.229 -2.3565  1.2292 -1.5963
 1938SOL    HW217274   0.676   3.973   1.323  0.4329  0.4309 -0.0416
 1939SOL     OW17275   0.646   0.413   2.656 -0.1287 -0.1801  0.2969
 1939SOL    HW117276   0.613   0.348   2.595  1.2045  0.1640 -0.7922
 1939SOL    HW217277   0.739   0.414   2.632 -0.2888 -0.8641 -0.3625
 1940SOL     OW17278   1.859   2.754  13.997  0.0442  0.6678 -0.6840
 1940SOL    HW117279   1.809   2.752  13.915  0.6320  0.5085 -1.0388
 1940SOL    HW217280   1.792   2.733  14.063  0.5679  0.6649 -0.1554
 1941SOL     OW17281   3.321   3.316   5.461 -0.0286 -0.0207  0.2459
 1941SOL    HW117282   3.394   3.343   5.516 -0.0567  0.2187  0.1649
 1941SOL    HW217283   3.368   3.264   5.395 -0.6736  0.6118 -0.7090
 1942SOL     OW17284   0.409   2.370   9.377  0.1197 -0.3107  0.1299
 1942SOL    HW117285   0.394   2.333   9.290  0.6980 -0.5637  0.1356
 1942SOL    HW217286   0.372   2.458   9.370  0.3902 -0.4218 -2.8026
 1943SOL     OW17287   1.061   3.913  14.063 -0.0936  0.2652 -0.4286
 1943SOL    HW117288   0.968   3.898  14.082 -0.6349  3.9624 -0.2122
 1943SOL    HW217289   1.101   3.831  14.092  1.7022  0.0157 -3.6043
 1944SOL     OW17290   2.899   1.882  14.855  0.2085  0.5821  0.7267
 1944SOL    HW117291   2.812   1.886  14.896  0.8161 -2.7884  2.3314
 1944SOL    HW217292   2.903   1.795  14.817 -1.5794  0.2748  1.2508
 1945SOL     OW17293   3.687   1.462  17.044 -0.0206  0.1407  0.4345
 1945SOL    HW117294   3.741   1.402  16.994 -1.3119  0.5631 -1.4948
 1945SOL    HW217295   3.750   1.501  17.105 -0.8108  2.7219 -0.3958
 1946SOL     OW17296   3.293   3.810   6.640 -0.5207 -0.4737 -0.3209
 1946SOL    HW117297   3.357   3.751   6.681 -0.3491 -0.8476 -1.1343
 1946SOL    HW217298   3.275   3.769   6.556 -0.2502  0.8315 -1.0129
 1947SOL     OW17299   3.899   1.745  12.486  0.5330 -0.1944  0.2531
 1947SOL    HW117300   3.931   1.835  12.481 -1.0418  0.2730 -1.6299
 1947SOL    HW217301   3.806   1.768  12.480  1.2057  1.6492 -2.7594
 1948SOL     OW17302   4.315   3.845   6.925  0.6856  0.4754  0.9487
 1948SOL    HW117303   4.225   3.872   6.908  0.5429 -1.2770 -1.1352
 1948SOL    HW217304   4.334   3.819   6.835  2.0432  0.9960  1.0855
 1949SOL     OW17305   2.290   4.016   7.779 -0.6146 -0.2096 -0.0487
 1949SOL    HW117306   2.358   3.970   7.730  0.7224  0.4551  1.1922
 1949SOL    HW217307   2.204   3.985   7.752 -1.7033  0.4739  2.6180
 1950SOL     OW17308   4.161   3.078   7.225  0.6084  0.2523  0.2003
 1950SOL    HW117309   4.181   3.171   7.214 -0.3328  0.4511  0.1783
 1950SOL    HW217310   4.134   3.054   7.137  0.3241 -1.8877  0.8710
 1951SOL     OW17311   2.470   2.194   6.302 -0.7907  1.0105  0.7299
 1951SOL    HW117312   2.493   2.103   6.319 -3.1934  0.3875  0.7147
 1951SOL    HW217313   2.379   2.189   6.272 -0.1755  0.6067 -1.0541
 1952SOL     OW17314   4.013   0.066   6.375  0.3438  0.0102  0.5824
 1952SOL    HW117315   4.075   0.104   6.313  1.8281 -0.5762  1.7110
 1952SOL    HW217316   3.975   0.145   6.414 -3.2447 -0.4113 -2.0946
 1953SOL     OW17317   0.130   1.414   3.405  0.2308  0.7646 -0.0605
 1953SOL    HW117318   0.190   1.488   3.412  0.6391  0.2846  1.5196
 1953SOL    HW217319   0.053   1.457   3.367  0.9655  2.6348  0.5619
 1954SOL     OW17320   0.019   4.192   9.218 -0.2418 -0.4195 -0.6956
 1954SOL    HW117321   0.008   4.274   9.170  1.2496  0.2739  0.1301
 1954SOL    HW217322   4.699   4.129   9.162  0.7373 -0.1322 -1.7711
 1955SOL     OW17323   4.624   0.944  14.205  0.9207 -0.3564 -0.2547
 1955SOL    HW117324   4.549   0.997  14.235  0.3125 -0.4207 -1.6420
 1955SOL    HW217325   4.693   0.965  14.268 -0.1897 -0.5428  1.0352
 1956SOL     OW17326   2.838   2.599  17.343  0.2355 -0.0138  0.2157
 1956SOL    HW117327   2.930   2.610  17.364  0.2780 -0.8472  0.4807
 1956SOL    HW217328   2.824   2.690  17.318 -1.7881  0.5137  3.2913
 1957SOL     OW17329   3.903   0.578   4.505  0.2004 -0.6565 -0.1738
 1957SOL    HW117330   3.943   0.522   4.572 -2.0691  0.8174  2.3949
 1957SOL    HW217331   3.870   0.506   4.450 -1.6489 -0.0972  0.1824
 1958SOL     OW17332   0.784   4.187   6.343  0.0797  0.3531 -0.1749
 1958SOL    HW117333   0.720   4.226   6.402 -1.0181 -1.9986  0.2122
 1958SOL    HW217334   0.754   4.210   6.255 -0.1931 -0.7155 -0.3704
 1959SOL     OW17335   2.470   0.627   2.140 -0.5220 -0.5007  0.7427
 1959SOL    HW117336   2.528   0.661   2.072  0.7641  0.0348  2.0949
 1959SOL    HW217337   2.530   0.597   2.208  0.1493 -2.7276 -0.8095
 1960SOL     OW17338   1.360   3.907   2.654 -0.1516 -0.3777  0.0267
 1960SOL    HW117339   1.388   3.854   2.580 -0.6777 -1.0534  0.3096
 1960SOL    HW217340   1.321   3.846   2.716  0.3020 -1.3447 -0.6350
 1961SOL     OW17341   1.805   0.016   7.872 -0.2129 -0.0587  0.0643
 1961SOL    HW117342   1.878   0.078   7.885  0.5455 -0.8947 -0.1955
 1961SOL    HW217343   1.739   0.077   7.838 -1.3865 -2.6606 -2.2435
 1962SOL     OW17344   1.301   4.065   2.331  0.3443  0.0181  0.1575
 1962SOL    HW117345   1.246   4.121   2.385  1.0224  0.9550 -0.1218
 1962SOL    HW217346   1.388   4.081   2.368  0.3144 -1.3644  0.8231
 1963SOL     OW17347   0.873   0.645   0.592 -0.0768  0.2487 -0.1922
 1963SOL    HW117348   0.869   0.732   0.552  1.0513  0.2970 -0.1930
 1963SOL    HW217349   0.784   0.639   0.626  0.0669 -0.0918  0.1253
 1964SOL     OW17350   2.126   0.557   5.905  0.0254  0.4065 -0.4393
 1964SOL    HW117351   2.160   0.626   5.963 -0.9583  1.1303 -0.7189
 1964SOL    HW217352   2.104   0.621   5.838  0.5468 -2.4723 -3.3345
 1965SOL     OW17353   3.233   2.390   0.602 -0.3848  0.4262  0.1381
 1965SOL    HW117354   3.287   2.332   0.548 -0.3021 -1.0836  1.8330
 1965SOL    HW217355   3.179   2.324   0.645  0.4880 -0.5091 -0.2059
 1966SOL     OW17356   0.344   3.331   3.902  0.1679  0.6171 -0.2230
 1966SOL    HW117357   0.315   3.422   3.907  0.4915  0.6589  0.9166
 1966SOL    HW217358   0.394   3.334   3.821  0.0684  3.1051 -0.1897
 1967SOL     OW17359   2.962   4.531  17.385  0.3782 -0.0363  0.2634
 1967SOL    HW117360   3.022   4.476  17.335  0.5093  0.3470  0.0046
 1967SOL    HW217361   3.009   4.614  17.377 -1.9177  1.4225  1.9257
 1968SOL     OW17362   3.896   3.008   6.092  0.0272  0.2915 -0.3198
 1968SOL    HW117363   3.809   2.968   6.091  0.7080 -1.2368  2.1819
 1968SOL    HW217364   3.894   3.071   6.163 -0.7090 -0.5113  0.3743
 1969SOL     OW17365   0.984   0.361   3.238  0.3682 -0.2187  0.2618
 1969SOL    HW117366   1.034   0.290   3.278  0.2048 -1.6424 -2.0714
 1969SOL    HW217367   0.988   0.433   3.302  0.0073  0.3539 -0.3680
 1970SOL     OW17368   0.953   2.262   0.381 -0.2829  0.1833 -0.1975
 1970SOL    HW117369   0.936   2.267   0.475  1.6266  1.1324  0.0817
 1970SOL    HW217370   1.048   2.256   0.380 -0.2706  0.3445  0.3889
 1971SOL     OW17371   0.223   1.703   3.644 -0.0373 -0.4689  0.2421
 1971SOL    HW117372   0.316   1.704   3.666  0.0387  1.1363 -0.1612
 1971SOL    HW217373   0.208   1.789   3.604  1.9987 -1.1223 -1.9462
 1972SOL     OW17374   4.189   2.995   0.087 -0.5246 -0.1625  0.2823
 1972SOL    HW117375   4.271   3.026   0.049 -2.1196 -0.6761 -3.5739
 1972SOL    HW217376   4.159   3.066   0.144 -0.6995  0.4705 -0.5886
 1973SOL     OW17377   2.715   4.412   8.274  0.0978  0.7337  0.2413
 1973SOL    HW117378   2.805   4.424   8.243  0.3607 -2.1824 -0.1622
 1973SOL    HW217379   2.711   4.401   8.369  0.0937  0.1601  0.1758
 1974SOL     OW17380   4.339   3.621   6.266 -0.3731 -0.0216  0.3038
 1974SOL    HW117381   4.412   3.635   6.326  0.6355 -0.8868 -0.7215
 1974SOL    HW217382   4.289   3.703   6.269  1.9173  1.3862  0.3423
 1975SOL     OW17383   0.039   1.448   6.491  0.2941  0.2143  0.2204
 1975SOL    HW117384   0.106   1.459   6.424  0.0071 -1.0298 -0.2677
 1975SOL    HW217385   4.722   1.367   6.460  2.4327 -1.0419  0.7825
 1976SOL     OW17386   2.910   2.762   5.192  0.1902 -0.0556 -0.4917
 1976SOL    HW117387   2.972   2.834   5.188 -0.2603  0.4250  1.5556
 1976SOL    HW217388   2.837   2.806   5.234 -0.2026 -0.9619 -0.2308
 1977SOL     OW17389   2.580   0.221   9.425 -0.2499 -0.1847 -0.0870
 1977SOL    HW117390   2.653   0.164   9.451 -0.9773 -0.5336  1.1631
 1977SOL    HW217391   2.526   0.169   9.365 -0.1361  2.6664 -2.6273
 1978SOL     OW17392   2.316   4.439   8.007  0.2923 -0.0894 -0.3832
 1978SOL    HW117393   2.249   4.464   7.943  0.7294 -0.9833 -1.1940
 1978SOL    HW217394   2.351   4.362   7.962 -0.6587 -0.9245  0.2741
 1979SOL     OW17395   4.176   4.636   6.883 -0.2085  0.4562  0.2806
 1979SOL    HW117396   4.149   4.620   6.793 -0.1328  0.1243  0.3176
 1979SOL    HW217397   4.205   4.544   6.888  0.2946  0.5342 -1.0289
 1980SOL     OW17398   1.894   3.056   5.891 -0.6437  0.4735 -0.1447
 1980SOL    HW117399   1.847   3.115   5.950  0.2385 -1.1811  2.2203
 1980SOL    HW217400   1.849   2.973   5.907  0.1232 -0.3455 -2.2248
 1981SOL     OW17401   0.771   2.892   6.027 -0.1822 -0.2454 -0.3869
 1981SOL    HW117402   0.769   2.855   5.939 -1.6802 -0.3641 -0.3076
 1981SOL    HW217403   0.805   2.980   6.009  1.2430 -1.0512 -1.6360
 1982SOL     OW17404   2.100   1.016   1.848 -0.9963 -0.1755 -0.3108
 1982SOL    HW117405   2.042   0.961   1.795  0.4988 -0.1021 -2.0131
 1982SOL    HW217406   2.119   0.959   1.922  1.0829  1.4981  0.4286
 1983SOL     OW17407   2.357   4.141   3.844  0.2724 -0.4041 -0.0451
 1983SOL    HW117408   2.269   4.137   3.881  0.3860 -1.1202  0.1694
 1983SOL    HW217409   2.338   4.141   3.751  3.4622 -0.1833 -0.7029
 1984SOL     OW17410   2.221   0.116   2.328 -0.1223  0.1046 -0.8494
 1984SOL    HW117411   2.187   0.205   2.325 -0.6890 -0.0418  1.0857
 1984SOL    HW217412   2.190   0.087   2.242 -0.3967 -2.0706 -0.0262
 1985SOL     OW17413   0.556   2.379   1.587  0.1758  0.0471 -0.3416
 1985SOL    HW117414   0.637   2.401   1.634 -1.2185 -0.6935  2.3634
 1985SOL    HW217415   0.558   2.286   1.612  0.0772  0.0118 -0.4694
 1986SOL     OW17416   0.928   3.028   2.444 -0.1780 -0.2516 -0.5873
 1986SOL    HW117417   0.895   2.947   2.405  1.8086 -0.7870 -1.1852
 1986SOL    HW217418   0.995   2.981   2.493  0.5189 -1.4886 -2.6931
 1987SOL     OW17419   0.311   0.477   5.087 -0.2274  0.0805  0.1981
 1987SOL    HW117420   0.310   0.481   5.183  1.1716  0.0448  0.2225
 1987SOL    HW217421   0.341   0.393   5.054 -1.5586  0.5504 -2.1704
 1988SOL     OW17422   3.306   3.163   9.612  0.4161  0.2980  0.4440
 1988SOL    HW117423   3.394   3.150   9.646 -0.0182 -1.7296  0.7883
 1988SOL    HW217424   3.325   3.249   9.573  2.6797  0.2085  1.3792
 1989SOL     OW17425   0.111   1.067   9.385  0.8171  0.1118  0.3613
 1989SOL    HW117426   0.077   1.155   9.404 -0.0968 -0.1931  0.1319
 1989SOL    HW217427   0.041   1.010   9.416 -0.4523  1.0466 -0.7601
 1990SOL     OW17428   1.773   3.748   4.188 -1.0869  0.1123  0.0506
 1990SOL    HW117429   1.738   3.824   4.233 -1.9216 -0.6997  0.7429
 1990SOL    HW217430   1.832   3.790   4.124 -1.2297 -1.7991 -1.3290
 1991SOL     OW17431   1.846   0.319   5.474  0.4461 -0.0996 -0.2476
 1991SOL    HW117432   1.864   0.226   5.462  1.1927  0.0064  0.0376
 1991SOL    HW217433   1.930   0.353   5.505  0.1077  0.4862  0.0270
 1992SOL     OW17434   1.778   0.143   7.193 -0.1171 -0.6203  0.2631
 1992SOL    HW117435   1.713   0.212   7.191 -0.8192 -1.2863  0.0639
 1992SOL    HW217436   1.857   0.195   7.207 -1.4366  1.8460 -1.5211
 1993SOL     OW17437   2.872   2.061   5.088 -0.0222 -0.2750 -0.4293
 1993SOL    HW117438   2.923   2.006   5.148  0.9187 -0.8699 -1.7841
 1993SOL    HW217439   2.884   2.150   5.120  0.8672  0.1044 -1.8330
 1994SOL     OW17440   3.035   0.573   9.835 -0.1707  0.0831 -0.0020
 1994SOL    HW117441   3.096   0.646   9.823  0.1172 -0.2445 -0.5635
 1994SOL    HW217442   2.965   0.609   9.890  0.5303  0.8743  0.3774
 1995SOL     OW17443   1.478   2.581   1.916 -0.2675  0.2902  0.0236
 1995SOL    HW117444   1.389   2.591   1.952  0.3524 -0.8192  1.8919
 1995SOL    HW217445   1.502   2.501   1.962  3.0021  1.1854 -0.1312
 1996SOL     OW17446   1.271   3.093   1.148 -0.1396 -0.2149  0.0371
 1996SOL    HW117447   1.192   3.147   1.148  0.4133  0.5825  1.7597
 1996SOL    HW217448   1.267   3.077   1.054  0.4777  1.5094 -0.2753
 1997SOL     OW17449   1.081   2.606   1.345  0.3713 -0.7542  0.1672
 1997SOL    HW117450   1.109   2.698   1.336 -0.9148 -0.4590 -0.8485
 1997SOL    HW217451   0.987   2.619   1.342  0.4542 -0.4693 -1.2533
 1998SOL     OW17452   0.404   2.943   4.866  0.1203 -0.2901 -0.1593
 1998SOL    HW117453   0.324   2.908   4.906  0.0519  0.4131  0.3144
 1998SOL    HW217454   0.383   2.903   4.782 -3.6578 -0.2386  0.7391
 1999SOL     OW17455   3.226   3.296   7.079 -0.2043 -0.3596 -0.1401
 1999SOL    HW117456   3.247   3.205   7.056 -1.8979 -1.0179  0.9152
 1999SOL    HW217457   3.282   3.318   7.153  1.3401 -1.5228 -0.9647
 2000SOL     OW17458   3.745   2.594   5.566  0.1249 -0.8017  0.6501
 2000SOL    HW117459   3.701   2.581   5.483  1.1531 -0.6372  0.0726
 2000SOL    HW217460   3.816   2.652   5.538 -1.3588 -0.2681 -2.0038
 2001SOL     OW17461   3.972   2.591   5.217 -0.6920 -0.1761  0.5121
 2001SOL    HW117462   3.920   2.533   5.161 -2.6458  1.6724  0.4048
 2001SOL    HW217463   4.056   2.545   5.213  0.2371  1.5247  0.2438
 2002SOL     OW17464   4.060   2.015  16.618 -0.5012  0.6961 -0.1161
 2002SOL    HW117465   4.005   2.088  16.589  0.1260  0.7814 -1.0839
 2002SOL    HW217466   4.046   2.030  16.712 -0.1566 -0.6201  0.1496
 2003SOL     OW17467   2.846   3.723   9.932 -0.2426 -0.0528  0.5874
 2003SOL    HW117468   2.869   3.764   9.848 -1.5950  0.3937  0.4467
 2003SOL    HW217469   2.874   3.636   9.905  1.5557  0.3051  1.3020
 2004SOL     OW17470   0.552   1.696  13.663  0.3745  0.0697  0.8655
 2004SOL    HW117471   0.467   1.706  13.706 -0.5053  0.8141 -1.0659
 2004SOL    HW217472   0.603   1.718  13.741  1.5740 -1.0763  0.4122
 2005SOL     OW17473   3.520   1.904   4.202 -0.1676 -0.2398  0.1926
 2005SOL    HW117474   3.479   1.991   4.205 -2.0714 -1.1546  0.5132
 2005SOL    HW217475   3.558   1.899   4.290 -0.3211 -1.0743  0.2067
 2006SOL     OW17476   2.088   4.149   6.993  0.0874  0.0512 -0.5367
 2006SOL    HW117477   2.167   4.106   6.959  0.2687 -0.6888  0.8087
 2006SOL    HW217478   2.085   4.090   7.069  0.4995 -0.0888 -0.6272
 2007SOL     OW17479   3.526   2.050  13.311  0.4808 -0.3175 -0.0649
 2007SOL    HW117480   3.524   1.956  13.293 -1.6309 -0.2399 -0.1745
 2007SOL    HW217481   3.441   2.073  13.273  0.9579  2.7606  0.7740
 2008SOL     OW17482   1.103   4.266   5.264 -0.6982 -0.6363  0.3769
 2008SOL    HW117483   1.076   4.175   5.273 -1.3766 -0.4567  0.2015
 2008SOL    HW217484   1.091   4.292   5.355 -1.3848 -2.7607  0.8976
 2009SOL     OW17485   1.013   3.178   8.813  0.5708  0.6597  0.1499
 2009SOL    HW117486   1.079   3.118   8.777  0.1664  0.9990 -1.1860
 2009SOL    HW217487   1.023   3.160   8.906 -0.9289  0.8443  0.3412
 2010SOL     OW17488   3.452   2.553   6.711  0.4891 -0.8706  0.2114
 2010SOL    HW117489   3.505   2.484   6.749  0.9728 -0.7217 -0.2028
 2010SOL    HW217490   3.364   2.523   6.737 -0.0741  0.8782  0.3309
 2011SOL     OW17491   2.397   3.719   6.586 -0.4731 -0.4265  0.2060
 2011SOL    HW117492   2.481   3.754   6.615 -0.5499  2.3459 -2.9969
 2011SOL    HW217493   2.339   3.794   6.602  0.2410  0.1020  0.3006
 2012SOL     OW17494   1.786   3.447   6.589 -0.5767 -0.3570  0.2877
 2012SOL    HW117495   1.848   3.414   6.654  1.2265 -2.4757 -2.5116
 2012SOL    HW217496   1.835   3.524   6.562 -0.5302 -1.2161 -2.0972
 2013SOL     OW17497   3.627   3.766  16.732  0.8024 -0.3105  0.3428
 2013SOL    HW117498   3.591   3.684  16.699 -0.1987  0.1291  0.3356
 2013SOL    HW217499   3.660   3.745  16.819 -0.4361  1.4240  1.2400
 2014SOL     OW17500   1.449   2.560   5.733 -0.1837 -0.5510  0.5635
 2014SOL    HW117501   1.442   2.535   5.641 -0.8708  1.4326  0.0864
 2014SOL    HW217502   1.379   2.516   5.781  0.4774  0.4124  2.4236
 2015SOL     OW17503   2.484   4.633  10.522 -0.8901 -0.2168  0.4016
 2015SOL    HW117504   2.403   4.674  10.554 -1.4494 -1.8606  1.1134
 2015SOL    HW217505   2.516   4.592  10.602 -1.4167  0.3970  0.9258
 2016SOL     OW17506   1.676   4.670  15.902 -0.2777 -0.0324 -0.7207
 2016SOL    HW117507   1.664   0.041  15.910  1.3714  0.1545 -0.4145
 2016SOL    HW217508   1.587   4.637  15.885 -0.8817  0.5558  1.2770
 2017SOL     OW17509   1.617   1.915   7.982  0.4661 -0.1422 -0.4347
 2017SOL    HW117510   1.642   1.971   7.909 -1.8905 -1.1946 -2.0345
 2017SOL    HW217511   1.650   1.832   7.947  1.0358  0.1776 -0.6429
 2018SOL     OW17512   2.605   1.525  13.182  1.0061 -0.0375  0.5211
 2018SOL    HW117513   2.581   1.591  13.117 -1.0877 -1.1264  0.1843
 2018SOL    HW217514   2.609   1.583  13.257  1.2550 -0.2507  0.6734
 2019SOL     OW17515   2.936   3.449  10.492  0.7351 -0.0974  0.2765
 2019SOL    HW117516   2.900   3.380  10.437 -2.0524  1.0585  0.6300
 2019SOL    HW217517   2.910   3.420  10.580  0.2482 -0.2571  0.0781
 2020SOL     OW17518   0.796   1.009   5.189 -0.6110 -0.2224  0.2120
 2020SOL    HW117519   0.823   0.996   5.280 -0.7758 -0.7413  0.1886
 2020SOL    HW217520   0.781   1.102   5.206 -1.1520  0.0071 -1.5464
 2021SOL     OW17521   1.410   0.245  16.869  0.3062  0.2080  0.5480
 2021SOL    HW117522   1.361   0.327  16.872  1.1962  0.7726 -0.5442
 2021SOL    HW217523   1.337   0.183  16.876 -1.4504  2.1542 -0.6203
 2022SOL     OW17524   2.926   2.378   7.503  0.2315  0.3107 -0.0702
 2022SOL    HW117525   2.950   2.380   7.595  0.2902  2.2532 -0.1191
 2022SOL    HW217526   2.848   2.322   7.502  0.5508 -0.1330 -0.1592
 2023SOL     OW17527   2.847   2.842   2.862  0.1166 -0.3167  0.2363
 2023SOL    HW117528   2.893   2.903   2.804 -0.2182 -0.5265 -0.2491
 2023SOL    HW217529   2.774   2.824   2.803 -0.0241  0.1435  0.2772
 2024SOL     OW17530   2.753   4.709   2.319  0.3990  0.0810 -0.2675
 2024SOL    HW117531   2.744   0.016   2.410  1.3243 -0.7139  0.0829
 2024SOL    HW217532   2.677   0.034   2.285  1.4719  0.1187 -2.5462
 2025SOL     OW17533   4.051   2.225   4.005 -0.2125  0.1682  0.5070
 2025SOL    HW117534   3.965   2.185   4.020 -0.3727  0.2883 -0.0917
 2025SOL    HW217535   4.103   2.147   3.985  0.6501  0.8271  0.2045
 2026SOL     OW17536   3.462   4.553   8.791 -0.3583  0.3683 -0.5249
 2026SOL    HW117537   3.501   4.535   8.705 -0.1837  1.0747 -0.5980
 2026SOL    HW217538   3.526   4.611   8.833  1.7578 -2.1453 -0.2427
 2027SOL     OW17539   1.177   1.548   7.843 -0.0285  0.5396 -0.0507
 2027SOL    HW117540   1.257   1.521   7.797 -0.4156 -1.4481  0.4271
 2027SOL    HW217541   1.133   1.574   7.761  0.1225  0.1392 -0.2601
 2028SOL     OW17542   2.510   2.034   5.600 -0.2177  0.2283 -0.0966
 2028SOL    HW117543   2.579   2.052   5.536  0.1808  0.8856  0.5250
 2028SOL    HW217544   2.515   2.114   5.653  1.1571 -0.0382  0.1877
 2029SOL     OW17545   0.994   1.573   2.797  0.0610 -0.6551 -0.6158
 2029SOL    HW117546   1.061   1.541   2.858 -2.0770 -1.6563  1.1806
 2029SOL    HW217547   0.979   1.493   2.747 -0.4845  0.6185 -2.5198
 2030SOL     OW17548   0.016   1.470  13.160  0.1561  0.0693  0.2040
 2030SOL    HW117549   0.016   1.532  13.088 -0.1266  0.0468  0.1861
 2030SOL    HW217550   0.043   1.391  13.112  0.5356 -0.7290  1.7086
 2031SOL     OW17551   2.076   1.529  15.316  0.6317 -0.1273 -0.0656
 2031SOL    HW117552   2.114   1.617  15.315  0.1725  0.0903  2.2312
 2031SOL    HW217553   2.132   1.493  15.385  2.9295 -0.3418 -2.0478
 2032SOL     OW17554   3.542   2.680   3.242  0.1480 -0.5112  0.6117
 2032SOL    HW117555   3.573   2.762   3.205  0.3596 -0.4036  1.0268
 2032SOL    HW217556   3.511   2.694   3.332 -1.1856  1.7706 -0.2085
 2033SOL     OW17557   3.338   1.409   3.185  0.3756  0.0762  0.7025
 2033SOL    HW117558   3.369   1.349   3.253  0.0310  1.1947  1.8615
 2033SOL    HW217559   3.334   1.500   3.217 -0.2268 -0.3114  1.7336
 2034SOL     OW17560   2.172   1.475   1.663  0.1460 -0.2568 -0.3495
 2034SOL    HW117561   2.081   1.447   1.678  0.6417 -0.8397  1.5271
 2034SOL    HW217562   2.165   1.570   1.664  0.8200 -0.2072 -0.9078
 2035SOL     OW17563   2.118   3.499   4.847 -0.5797 -0.6181  0.2164
 2035SOL    HW117564   2.112   3.505   4.752 -0.6621 -2.0878  0.1341
 2035SOL    HW217565   2.162   3.415   4.854  0.7921 -0.0993 -2.2644
 2036SOL     OW17566   3.639   4.644   2.683 -0.4592  0.1525 -0.1203
 2036SOL    HW117567   3.655   4.719   2.740 -0.0502 -1.8021  2.3076
 2036SOL    HW217568   3.546   4.655   2.662  0.0110  0.0222 -2.2327
 2037SOL     OW17569   3.165   0.044   2.351 -0.2055 -0.1208  0.1517
 2037SOL    HW117570   3.225   0.027   2.423 -0.7848 -1.3441  0.3518
 2037SOL    HW217571   3.115   0.120   2.380  0.0025 -0.0059  0.2058
 2038SOL     OW17572   3.689   0.192   8.591  0.0440 -0.2994  0.1702
 2038SOL    HW117573   3.615   0.230   8.638 -1.9292 -1.4302 -1.9887
 2038SOL    HW217574   3.637   0.141   8.528  0.8960 -1.0152  0.0474
 2039SOL     OW17575   3.469   0.408   3.953  0.1254 -0.1593  0.9242
 2039SOL    HW117576   3.387   0.457   3.953 -0.3537 -0.9877 -1.8605
 2039SOL    HW217577   3.444   0.350   3.881  5.2514 -1.0232 -0.1229
 2040SOL     OW17578   2.867   1.317   7.649 -0.4810  0.1349  0.5735
 2040SOL    HW117579   2.779   1.285   7.667 -0.0234 -0.9526  0.8472
 2040SOL    HW217580   2.830   1.396   7.610  0.5507  0.4473  0.2074
 2041SOL     OW17581   1.618   0.635   1.038  0.1016 -0.1654  0.4104
 2041SOL    HW117582   1.559   0.703   1.072 -0.9381 -2.1506  2.5753
 2041SOL    HW217583   1.588   0.629   0.948 -1.9108 -0.3307  1.0929
 2042SOL     OW17584   3.778   2.337  11.062 -0.2667 -0.6335  0.4507
 2042SOL    HW117585   3.810   2.275  10.997 -1.3190 -0.0231 -0.6439
 2042SOL    HW217586   3.854   2.348  11.121  1.8613 -0.0318 -2.4124
 2043SOL     OW17587   0.122   1.951  12.967  0.2021  0.1747 -0.9255
 2043SOL    HW117588   0.133   2.046  12.976 -0.8165  0.2501 -0.4556
 2043SOL    HW217589   0.210   1.915  12.967 -0.6626 -1.9685  2.9020
 2044SOL     OW17590   0.757   1.165   2.712  0.6749  0.2030 -0.0502
 2044SOL    HW117591   0.748   1.160   2.617 -1.1949  0.0172  0.1271
 2044SOL    HW217592   0.738   1.075   2.740 -1.0757  0.9057  1.0377
 2045SOL     OW17593   3.337   2.052   5.213  0.0496  0.7049  0.2338
 2045SOL    HW117594   3.357   2.009   5.297 -1.6654 -0.5152  0.0001
 2045SOL    HW217595   3.271   1.997   5.172 -0.3998  2.0091 -0.7820
 2046SOL     OW17596   4.382   1.165   8.042  0.2490 -0.2817 -0.3542
 2046SOL    HW117597   4.339   1.184   7.959  0.7720 -0.4668 -0.6693
 2046SOL    HW217598   4.388   1.069   8.043  2.2401 -0.1342  1.7564
 2047SOL     OW17599   0.954   3.342   6.677  0.2546  0.1036  0.0843
 2047SOL    HW117600   1.025   3.342   6.741  0.5481 -3.0223 -0.2660
 2047SOL    HW217601   0.970   3.428   6.637  0.1526 -0.3787 -0.9859
 2048SOL     OW17602   0.725   3.809  12.309  0.0865  0.2390 -0.0665
 2048SOL    HW117603   0.776   3.867  12.366  2.4984  0.0402 -1.9961
 2048SOL    HW217604   0.792   3.775  12.250  1.0560 -0.1408  1.2605
 2049SOL     OW17605   4.134   4.046   0.879  0.2823 -0.3241 -0.2979
 2049SOL    HW117606   4.110   4.133   0.909  1.5151 -0.2398  0.4579
 2049SOL    HW217607   4.044   4.024   0.856 -0.0407 -0.7049  1.3457
 2050SOL     OW17608   1.619   4.051   7.171 -0.1010  0.4080 -0.2254
 2050SOL    HW117609   1.625   3.961   7.200 -0.8013  0.0251 -1.2735
 2050SOL    HW217610   1.530   4.044   7.137 -0.2287 -1.3890  0.5004
 2051SOL     OW17611   2.219   3.450   2.904  0.3406  0.4816  0.0630
 2051SOL    HW117612   2.228   3.474   2.811 -0.2870 -0.8757 -0.3378
 2051SOL    HW217613   2.303   3.408   2.920 -0.3415 -0.5745  0.8217
 2052SOL     OW17614   3.665   2.813   2.869  0.0821  0.1370 -0.0327
 2052SOL    HW117615   3.743   2.852   2.831  0.9559 -0.7970  0.8115
 2052SOL    HW217616   3.658   2.860   2.952  0.2900  2.2682 -1.2115
 2053SOL     OW17617   1.002   1.443  11.201 -0.2680 -0.3365  0.3431
 2053SOL    HW117618   0.910   1.429  11.225 -0.3990  0.7721  0.4875
 2053SOL    HW217619   0.988   1.494  11.121  0.4467  1.2479  1.2300
 2054SOL     OW17620   0.053   3.981   3.695  0.1576 -0.0580  0.4051
 2054SOL    HW117621   0.089   3.915   3.635 -1.1329 -0.2138 -0.1983
 2054SOL    HW217622   0.029   4.053   3.637 -0.6767  0.6980  1.6929
 2055SOL     OW17623   2.194   1.293  17.611  0.0463 -0.2743  0.3045
 2055SOL    HW117624   2.212   1.234  17.685 -4.1295  1.1411  2.4743
 2055SOL    HW217625   2.119   1.256  17.564 -3.2833  1.7053  4.0731
 2056SOL     OW17626   0.065   1.981   5.044 -0.0692  0.4213 -0.5375
 2056SOL    HW117627   0.001   1.913   5.025 -1.2309  0.6174  2.6311
 2056SOL    HW217628   0.134   1.971   4.978 -0.4300  0.9337 -0.9909
 2057SOL     OW17629   2.214   3.121   6.477  0.3014 -0.0337  0.4224
 2057SOL    HW117630   2.154   3.067   6.528  1.1478 -0.8748  0.5215
 2057SOL    HW217631   2.226   3.196   6.535 -2.5492 -0.6750  1.8429
 2058SOL     OW17632   1.654   0.594  16.465  0.4250  0.6000 -0.0936
 2058SOL    HW117633   1.689   0.660  16.525  1.7067  0.9260 -1.2089
 2058SOL    HW217634   1.599   0.544  16.526 -1.2176  0.7770 -1.4476
 2059SOL     OW17635   1.008   0.189   9.247 -0.3524  0.2891 -0.1172
 2059SOL    HW117636   1.091   0.228   9.223  0.7559 -2.3127 -0.5164
 2059SOL    HW217637   0.960   0.271   9.235  0.7331  1.3370  2.8240
 2060SOL     OW17638   4.482   1.804  11.310  0.3552  0.2855 -0.6816
 2060SOL    HW117639   4.453   1.716  11.289  0.1975  0.2357 -0.2594
 2060SOL    HW217640   4.576   1.787  11.307  0.4401  0.5567  0.4875
 2061SOL     OW17641   2.440   3.815   5.764 -0.5309 -0.6009  0.1342
 2061SOL    HW117642   2.534   3.833   5.756 -0.8432  0.2773 -1.6239
 2061SOL    HW217643   2.437   3.737   5.820  0.6946 -0.1409  0.8462
 2062SOL     OW17644   3.122   3.774   7.665  0.5830 -0.0406  0.0263
 2062SOL    HW117645   3.066   3.712   7.619  1.6939  0.4157 -1.9653
 2062SOL    HW217646   3.067   3.847   7.638  0.0035  0.0306  1.4313
 2063SOL     OW17647   3.992   0.198   3.208 -0.2111  0.3783 -0.8655
 2063SOL    HW117648   3.902   0.194   3.175 -0.5567 -2.7578  0.5684
 2063SOL    HW217649   3.995   0.290   3.235 -0.5010  0.1006  0.1185
 2064SOL     OW17650   1.698   0.213   8.926 -0.3103 -0.1625  0.5552
 2064SOL    HW117651   1.653   0.289   8.962 -1.6327 -0.7048  0.0367
 2064SOL    HW217652   1.626   0.150   8.921  0.8468 -1.6223  2.4170
 2065SOL     OW17653   4.203   4.181   5.716 -0.4804  0.0515 -0.5768
 2065SOL    HW117654   4.200   4.089   5.688 -2.4413 -0.7107  2.0264
 2065SOL    HW217655   4.224   4.226   5.635 -0.8197 -0.5960 -1.0188
 2066SOL     OW17656   1.495   1.176   3.104  0.5547  0.3025  0.7098
 2066SOL    HW117657   1.490   1.181   3.199 -0.4883  1.4946  0.5882
 2066SOL    HW217658   1.490   1.268   3.080 -1.7406  0.5272  2.1139
 2067SOL     OW17659   3.516   3.990   6.631 -0.7378  0.3959  0.1211
 2067SOL    HW117660   3.457   3.938   6.686 -0.8218  0.9655  0.5633
 2067SOL    HW217661   3.521   3.939   6.550 -1.5642  1.9122 -0.8641
 2068SOL     OW17662   2.707   0.842   8.862  0.0219 -0.2239  0.1401
 2068SOL    HW117663   2.632   0.890   8.827  0.2971  0.1068  0.0075
 2068SOL    HW217664   2.745   0.903   8.925 -0.8645  0.4368  0.0345
 2069SOL     OW17665   3.574   3.946   6.331  0.4387  0.3256 -0.2640
 2069SOL    HW117666   3.514   4.014   6.300  3.1418  1.5724 -2.7077
 2069SOL    HW217667   3.651   4.001   6.347  1.0131 -0.2638 -1.0354
 2070SOL     OW17668   3.176   0.698   2.111  0.7278 -0.4153 -0.4364
 2070SOL    HW117669   3.230   0.731   2.038 -0.7037  0.3899 -1.1334
 2070SOL    HW217670   3.196   0.606   2.092 -0.2402 -0.8396  0.6260
 2071SOL     OW17671   0.955   1.338   0.098  0.1876 -0.0185 -0.3549
 2071SOL    HW117672   0.975   1.281   0.173  1.1504  1.0271  0.1749
 2071SOL    HW217673   1.033   1.393   0.100 -0.8889  1.4799  0.1091
 2072SOL     OW17674   3.925   0.655  10.034  0.0077 -0.0389  0.5569
 2072SOL    HW117675   4.006   0.642   9.984 -0.9838 -2.4118 -0.4172
 2072SOL    HW217676   3.895   0.564  10.025 -1.6115  0.4977  0.4634
 2073SOL     OW17677   4.467   1.074  13.358 -0.4787  0.8357  0.5173
 2073SOL    HW117678   4.409   1.077  13.283  0.0403 -3.4507 -0.0569
 2073SOL    HW217679   4.509   1.159  13.346  1.2952 -0.1184 -0.1035
 2074SOL     OW17680   4.068   4.265   2.325 -0.4042  0.5726  0.3240
 2074SOL    HW117681   4.116   4.289   2.246  0.9340  1.7378  1.4870
 2074SOL    HW217682   4.133   4.208   2.366 -0.3374 -0.6597 -1.5272
 2075SOL     OW17683   4.031   1.555   4.266 -0.3859  0.6224  0.5417
 2075SOL    HW117684   4.086   1.556   4.345 -0.0025 -0.2052  0.2861
 2075SOL    HW217685   3.990   1.473   4.294 -1.3241  1.2771  1.1092
 2076SOL     OW17686   3.685   3.579   6.540  0.0394 -0.4391  0.4233
 2076SOL    HW117687   3.611   3.604   6.485  0.7530  0.5102 -0.1059
 2076SOL    HW217688   3.695   3.485   6.523 -1.7058 -0.7932  1.3863
 2077SOL     OW17689   0.676   1.640   1.830 -0.1077 -0.1602  0.3110
 2077SOL    HW117690   0.699   1.547   1.824  1.5544  0.2131  0.7422
 2077SOL    HW217691   0.591   1.634   1.873 -0.6029 -0.4466 -0.6931
 2078SOL     OW17692   1.055   2.912   9.418  0.0911  0.2106  0.0615
 2078SOL    HW117693   1.120   2.845   9.440  0.3563  0.2977 -0.4421
 2078SOL    HW217694   0.975   2.876   9.457 -1.0842  2.3062 -0.4378
 2079SOL     OW17695   4.709   0.665   9.066 -0.0977 -0.3648 -0.5379
 2079SOL    HW117696   4.652   0.615   9.125 -0.5411 -0.2686 -0.8866
 2079SOL    HW217697   4.646   0.715   9.013 -0.4430 -0.9298 -0.6610
 2080SOL     OW17698   3.732   2.975  13.620 -0.5489  0.1312  0.1545
 2080SOL    HW117699   3.821   2.980  13.587 -1.4325  1.4838 -2.0501
 2080SOL    HW217700   3.707   2.890  13.585  1.3839 -0.1631 -0.4534
 2081SOL     OW17701   1.397   2.785   7.563  0.9084 -0.2065 -0.3141
 2081SOL    HW117702   1.338   2.860   7.557  0.1455 -0.7051  0.8424
 2081SOL    HW217703   1.376   2.761   7.653  1.8748 -0.3052 -0.1191
 2082SOL     OW17704   1.843   1.064  13.020  0.3018 -0.5340 -0.1334
 2082SOL    HW117705   1.912   1.130  13.016 -0.9438  0.7292 -1.1138
 2082SOL    HW217706   1.773   1.124  13.046  0.8524 -0.1673  0.4716
 2083SOL     OW17707   0.236   1.800  15.622  0.4710  0.2195  0.2561
 2083SOL    HW117708   0.165   1.825  15.562  0.1414  0.0066  0.5648
 2083SOL    HW217709   0.227   1.705  15.621  0.8462  0.1758  0.9693
 2084SOL     OW17710   3.179   1.183   4.200 -0.0586 -0.0671 -0.2272
 2084SOL    HW117711   3.219   1.205   4.116 -0.4909  0.3986 -0.3135
 2084SOL    HW217712   3.161   1.272   4.228 -0.4980 -0.1406 -0.2750
 2085SOL     OW17713   2.122   1.427   3.066  0.1430  0.1859 -0.4404
 2085SOL    HW117714   2.038   1.471   3.057  0.6594  1.1630 -0.5178
 2085SOL    HW217715   2.140   1.444   3.158  1.4391 -2.0420 -0.2882
 2086SOL     OW17716   2.069   2.943   6.659  0.0919  0.4086  0.6019
 2086SOL    HW117717   2.147   2.928   6.712  1.0913 -1.0666 -1.2709
 2086SOL    HW217718   2.014   2.988   6.723 -2.0570  0.5914 -1.3720
 2087SOL     OW17719   4.613   0.300  16.618 -0.7777 -0.7220 -0.1778
 2087SOL    HW117720   4.551   0.262  16.555  0.8759  0.6449 -2.6054
 2087SOL    HW217721   4.545   0.326  16.681  0.0288  0.5132  0.1860
 2088SOL     OW17722   2.492   1.573   2.848 -0.1798 -0.0786 -0.5829
 2088SOL    HW117723   2.488   1.584   2.753 -0.2408  0.6765 -0.4901
 2088SOL    HW217724   2.513   1.481   2.861 -0.4399 -0.3784 -2.3067
 2089SOL     OW17725   2.413   2.950   3.374  0.0096  0.0135 -0.6271
 2089SOL    HW117726   2.414   3.045   3.363 -0.0378 -0.0661 -1.2899
 2089SOL    HW217727   2.504   2.933   3.349 -0.0782 -1.4964  0.0634
 2090SOL     OW17728   2.723   3.183   0.618  0.0496 -0.0066  0.4140
 2090SOL    HW117729   2.801   3.135   0.590 -0.6905 -1.6437  1.1911
 2090SOL    HW217730   2.730   3.256   0.556  1.7868 -1.4559 -1.0949
 2091SOL     OW17731   3.197   3.493   5.914  0.3319 -0.0829 -0.2698
 2091SOL    HW117732   3.123   3.489   5.975  3.0553  0.3752  3.0439
 2091SOL    HW217733   3.231   3.582   5.926  0.5254 -0.1167 -0.5888
 2092SOL     OW17734   4.356   2.847   2.682  0.3869 -0.5036  0.6729
 2092SOL    HW117735   4.339   2.910   2.612 -0.6434  1.0297  2.3081
 2092SOL    HW217736   4.272   2.834   2.726 -0.6475 -2.2576 -1.7488
 2093SOL     OW17737   2.661   0.082   5.872 -0.5539  0.2701  0.1236
 2093SOL    HW117738   2.689   4.718   5.899  1.0092  0.8307  0.2916
 2093SOL    HW217739   2.567   0.069   5.888 -0.6626  0.5219 -0.2855
 2094SOL     OW17740   4.139   3.138  15.803  0.1412  0.1289  0.9059
 2094SOL    HW117741   4.117   3.057  15.756 -0.3522  1.4687 -1.1553
 2094SOL    HW217742   4.107   3.210  15.749 -2.5615 -1.5513  0.2279
 2095SOL     OW17743   1.799   4.256   3.474 -0.0302  0.2452 -0.2739
 2095SOL    HW117744   1.708   4.261   3.502 -0.1972 -2.3089 -0.3599
 2095SOL    HW217745   1.801   4.343   3.434 -1.2884  0.2346 -0.3310
 2096SOL     OW17746   1.016   4.001   5.327 -1.0508  0.1459  0.2433
 2096SOL    HW117747   0.989   3.917   5.290 -0.6367  0.6019 -1.0999
 2096SOL    HW217748   0.937   4.029   5.372  0.2030  0.9692  1.9258
 2097SOL     OW17749   3.743   4.212  16.925  0.5667 -0.3366  0.2054
 2097SOL    HW117750   3.782   4.205  16.838 -0.0763  1.9991 -0.2532
 2097SOL    HW217751   3.765   4.124  16.957 -3.5029 -1.2802  0.4136
 2098SOL     OW17752   0.293   0.628  10.684  0.3220  0.0618 -0.5890
 2098SOL    HW117753   0.211   0.627  10.634 -0.5434 -3.2094  0.8935
 2098SOL    HW217754   0.266   0.681  10.758 -2.1017  0.0651 -1.4684
 2099SOL     OW17755   2.737   2.185   0.683 -0.7343  0.0041  0.1852
 2099SOL    HW117756   2.783   2.235   0.750  0.2009 -0.5684 -0.0336
 2099SOL    HW217757   2.806   2.130   0.646 -0.8538 -0.2248  0.2968
 2100SOL     OW17758   0.588   0.883   6.026 -0.0032 -0.2032  0.4614
 2100SOL    HW117759   0.648   0.815   6.058  1.4276  1.3649  1.0953
 2100SOL    HW217760   0.504   0.851   6.060 -0.9264 -1.4025 -2.9686
 2101SOL     OW17761   0.950   1.721   7.497 -0.1083  0.0202 -0.2547
 2101SOL    HW117762   1.044   1.736   7.484 -0.1111  0.6061  0.4045
 2101SOL    HW217763   0.914   1.807   7.474 -2.2333  0.2783  4.1339
 2102SOL     OW17764   0.555   3.694  10.898  0.0840 -0.0341 -0.2448
 2102SOL    HW117765   0.639   3.704  10.854  0.8396  1.3211  1.4985
 2102SOL    HW217766   0.494   3.699  10.824  0.6792  0.5108 -0.6943
 2103SOL     OW17767   2.747   1.000   7.879  0.2405  0.1060 -0.1089
 2103SOL    HW117768   2.822   1.059   7.894 -0.1035 -0.3257  3.3129
 2103SOL    HW217769   2.792   0.940   7.820  0.6308  1.1878 -0.9195
 2104SOL     OW17770   4.349   1.255   7.772  0.3415  0.3933 -0.1756
 2104SOL    HW117771   4.328   1.344   7.744  0.3211  0.6929  0.8029
 2104SOL    HW217772   4.298   1.202   7.711 -1.1038  1.8698 -0.2488
 2105SOL     OW17773   1.081   1.935   2.294 -0.6693  0.4656  0.0535
 2105SOL    HW117774   1.003   1.978   2.258  0.6784  4.1593  1.5442
 2105SOL    HW217775   1.127   2.006   2.339 -1.6060  0.9110  0.3072
 2106SOL     OW17776   3.966   3.990   0.628 -0.2645 -0.0418 -0.0049
 2106SOL    HW117777   4.004   4.078   0.625  0.0726 -0.1992 -0.2946
 2106SOL    HW217778   3.872   4.004   0.637 -0.5841 -2.2539  0.0404
 2107SOL     OW17779   0.957   3.743   5.264  0.0640  0.1950  0.4548
 2107SOL    HW117780   0.877   3.693   5.247  0.7485 -1.0951  1.0662
 2107SOL    HW217781   1.004   3.712   5.187 -1.9731  0.4609 -0.8908
 2108SOL     OW17782   3.865   1.005   9.229 -0.7835  0.1936 -0.3849
 2108SOL    HW117783   3.885   0.947   9.156 -0.9025 -0.8983  0.4447
 2108SOL    HW217784   3.826   0.942   9.289  1.3231 -0.1720  0.5925
 2109SOL     OW17785   0.930   0.711  12.038 -0.0865  0.0542  0.0656
 2109SOL    HW117786   0.850   0.667  12.067  0.3502  0.1102  1.3783
 2109SOL    HW217787   0.894   0.758  11.963 -2.5510 -2.8333 -0.5157
 2110SOL     OW17788   0.686   0.395  10.933 -0.1064 -0.2872  0.0216
 2110SOL    HW117789   0.755   0.357  10.987 -0.6261 -1.3069 -0.0166
 2110SOL    HW217790   0.639   0.323  10.890 -1.1349  0.2255  0.2817
 2111SOL     OW17791   3.287   3.395   7.331 -1.2387  0.5855  0.1153
 2111SOL    HW117792   3.231   3.376   7.406 -0.1942 -0.5797  0.6047
 2111SOL    HW217793   3.348   3.322   7.337  0.5364  1.7639 -2.8346
 2112SOL     OW17794   0.115   4.681  14.556 -0.0492 -0.3404 -0.3483
 2112SOL    HW117795   0.103   4.586  14.561  0.6237 -0.5592 -2.8686
 2112SOL    HW217796   0.210   4.689  14.558 -0.0397 -0.2137 -1.3400
 2113SOL     OW17797   4.294   2.665   8.784  0.2796 -0.3969  0.0930
 2113SOL    HW117798   4.352   2.670   8.708 -2.1259 -2.2210 -1.8490
 2113SOL    HW217799   4.357   2.659   8.857  2.9209  0.2301 -2.1352
 2114SOL     OW17800   3.745   4.008   0.268 -0.1747  0.3495  0.4625
 2114SOL    HW117801   3.680   4.076   0.256 -1.1732 -0.8426 -0.8967
 2114SOL    HW217802   3.696   3.926   0.274  0.1968  0.1422  0.7029
 2115SOL     OW17803   0.525   1.734  12.537 -0.1038 -0.5125  0.1995
 2115SOL    HW117804   0.441   1.707  12.574 -0.5490 -0.8433 -1.0513
 2115SOL    HW217805   0.567   1.775  12.613 -1.5642 -0.9909  1.2807
 2116SOL     OW17806   2.741   4.051   5.085 -0.4121 -0.1154  0.0678
 2116SOL    HW117807   2.724   4.021   4.996 -2.0311 -2.1651  1.0903
 2116SOL    HW217808   2.736   4.146   5.068  0.3690  0.3149  2.1951
 2117SOL     OW17809   2.828   1.234  16.490 -0.0302 -0.4131 -0.1962
 2117SOL    HW117810   2.742   1.274  16.477 -0.3226 -0.7292  0.7517
 2117SOL    HW217811   2.884   1.301  16.450 -0.7882  0.0761 -0.4277
 2118SOL     OW17812   0.862   3.885   1.344 -0.1342  0.2123  0.2930
 2118SOL    HW117813   0.923   3.821   1.308 -0.8026 -0.6507  0.6865
 2118SOL    HW217814   0.913   3.922   1.416  1.5605 -1.3050 -0.1346
 2119SOL     OW17815   0.679   2.275   2.545 -0.6122  0.4662 -0.2626
 2119SOL    HW117816   0.659   2.184   2.567  1.5200  0.2188  0.6202
 2119SOL    HW217817   0.774   2.286   2.551 -0.4678 -0.6647 -0.6030
 2120SOL     OW17818   1.621   1.199   8.436  0.0934 -0.0851  0.4702
 2120SOL    HW117819   1.528   1.188   8.456 -0.2648 -0.8621 -1.5435
 2120SOL    HW217820   1.659   1.111   8.427  1.2463  0.4873 -0.2108
 2121SOL     OW17821   0.230   0.204   3.887 -0.0072  0.6446  0.2956
 2121SOL    HW117822   0.228   0.218   3.982 -1.6176 -1.3064  0.5500
 2121SOL    HW217823   0.157   0.259   3.860  0.0544  0.2481 -0.6740
 2122SOL     OW17824   3.017   3.990   1.191  0.0810  0.0062  0.2398
 2122SOL    HW117825   2.936   3.973   1.240 -1.1853  1.0954 -1.4492
 2122SOL    HW217826   3.017   4.085   1.188  0.3641  0.0031  0.1887
 2123SOL     OW17827   1.989   1.021   9.063  0.1151  0.1739 -0.6545
 2123SOL    HW117828   2.000   1.116   9.060  1.7454 -0.0628 -2.4983
 2123SOL    HW217829   2.029   0.986   8.983  2.3715 -2.0491  1.4549
 2124SOL     OW17830   2.837   0.965   0.731  0.0959  0.1911 -0.3576
 2124SOL    HW117831   2.799   0.940   0.816  0.9061  2.8461  0.7994
 2124SOL    HW217832   2.869   1.051   0.760  1.3277 -0.3026 -0.2250
 2125SOL     OW17833   2.091   4.562   8.958 -0.0672 -0.2499 -0.0520
 2125SOL    HW117834   2.135   4.574   8.874  0.0580  1.0925  0.2013
 2125SOL    HW217835   2.094   4.467   8.956 -0.1100 -0.2739  1.0170
 2126SOL     OW17836   0.646   2.717   5.399  0.0606  0.7924 -0.8330
 2126SOL    HW117837   0.626   2.632   5.360 -0.8705  0.5675  0.1269
 2126SOL    HW217838   0.572   2.722   5.459 -0.1883 -0.2076 -1.0474
 2127SOL     OW17839   0.162   3.897  11.794 -0.4110 -0.4018 -0.2318
 2127SOL    HW117840   0.219   3.874  11.720 -0.5151  0.1111 -0.4701
 2127SOL    HW217841   0.185   3.988  11.816  0.2144 -0.8088  0.8008
 2128SOL     OW17842   3.540   1.972  10.472 -0.4875 -0.1723  0.3654
 2128SOL    HW117843   3.486   1.919  10.530  0.9151  0.4230  2.1922
 2128SOL    HW217844   3.538   2.048  10.529  1.3997  0.0749  0.0984
 2129SOL     OW17845   0.579   2.457   6.543  0.3402  0.4933 -0.0961
 2129SOL    HW117846   0.654   2.439   6.486  2.2970  2.2140  1.9246
 2129SOL    HW217847   0.513   2.393   6.519 -0.6519  1.3357  0.4121
 2130SOL     OW17848   3.489   2.146  16.120 -0.7853  0.0568  0.1716
 2130SOL    HW117849   3.476   2.051  16.121 -2.1304  0.2433 -0.0179
 2130SOL    HW217850   3.482   2.164  16.026 -2.3620 -0.4527  0.1946
 2131SOL     OW17851   0.917   3.951   3.631  0.0907  0.2003 -0.1492
 2131SOL    HW117852   0.839   3.969   3.683  0.5140 -0.1763  0.6217
 2131SOL    HW217853   0.919   3.856   3.642 -0.6549  0.2271  0.2253
 2132SOL     OW17854   1.328   2.835   3.880 -0.4117  0.0602 -0.2125
 2132SOL    HW117855   1.305   2.823   3.788  1.8802  0.6604 -0.8743
 2132SOL    HW217856   1.311   2.747   3.913 -0.9636  1.3639  3.0321
 2133SOL     OW17857   4.586   1.410   5.846 -0.0530  0.3862 -0.7753
 2133SOL    HW117858   4.514   1.351   5.866 -1.3620  1.9440 -0.9039
 2133SOL    HW217859   4.530   1.480   5.812  0.3721 -0.0683 -2.4134
 2134SOL     OW17860   2.463   0.143   4.891 -0.1278 -0.4102 -0.3755
 2134SOL    HW117861   2.394   0.079   4.874 -1.2795  1.5743 -3.1467
 2134SOL    HW217862   2.530   0.079   4.917  1.6364  0.8493 -1.8199
 2135SOL     OW17863   2.357   0.935   9.527  0.4594 -0.1073 -0.1782
 2135SOL    HW117864   2.384   1.014   9.575 -0.0019 -0.6592  0.9937
 2135SOL    HW217865   2.296   0.973   9.464 -1.5344 -2.6581  0.2392
 2136SOL     OW17866   2.974   2.680   2.626  0.2055 -0.3279  0.0925
 2136SOL    HW117867   2.961   2.586   2.638  1.6275 -0.3542  1.3268
 2136SOL    HW217868   2.889   2.710   2.593  0.8354  2.5306  1.0579
 2137SOL     OW17869   0.023   2.932  11.544  0.0534  0.3079  0.1280
 2137SOL    HW117870   0.069   2.856  11.509  1.3733  1.1385  0.0827
 2137SOL    HW217871   0.086   2.973  11.603 -2.4594 -0.6972  3.5169
 2138SOL     OW17872   0.457   2.078  12.952  0.5974 -0.0934 -0.1146
 2138SOL    HW117873   0.409   2.015  12.899  1.8450 -0.9652 -0.2040
 2138SOL    HW217874   0.526   2.110  12.894  0.8129 -0.9880 -0.3513
 2139SOL     OW17875   3.082   2.053   7.669 -0.0641 -0.5704  0.4213
 2139SOL    HW117876   3.058   2.093   7.753 -1.1164 -2.1614  0.8796
 2139SOL    HW217877   3.157   2.004   7.703 -0.0701  0.0925  1.4009
 2140SOL     OW17878   1.052   4.683   7.550 -0.4845  0.7307 -0.4115
 2140SOL    HW117879   1.096   4.599   7.537 -0.2938  0.5386  1.4494
 2140SOL    HW217880   0.984   4.657   7.488  0.0870 -0.5248 -0.5294
 2141SOL     OW17881   4.310   1.189   0.621  0.4764  0.1190 -0.2648
 2141SOL    HW117882   4.373   1.223   0.685  0.1878  2.2088 -1.0864
 2141SOL    HW217883   4.271   1.274   0.598  1.6135  0.9211  0.7656
 2142SOL     OW17884   3.565   3.659   8.048  0.0052 -0.6106  0.4121
 2142SOL    HW117885   3.652   3.681   8.014 -1.1867  0.2112 -2.1412
 2142SOL    HW217886   3.520   3.611   7.978 -0.4584 -0.7509  0.8060
 2143SOL     OW17887   4.215   2.012   3.952  0.0270  0.0316  0.3283
 2143SOL    HW117888   4.182   1.981   3.867  2.1573 -2.0196  0.2408
 2143SOL    HW217889   4.307   2.032   3.934  0.4290 -1.6056  0.6314
 2144SOL     OW17890   3.836   2.977  16.048 -0.1536 -0.1782  0.1758
 2144SOL    HW117891   3.829   2.934  16.133  1.5014 -0.4388  0.1775
 2144SOL    HW217892   3.913   2.931  16.015  0.1372  0.7680 -0.4689
 2145SOL     OW17893   2.479   2.230  11.031  0.6828 -0.1545 -0.7277
 2145SOL    HW117894   2.485   2.200  11.122  0.5751  0.1893 -0.6091
 2145SOL    HW217895   2.480   2.143  10.990 -2.4431 -0.5498  0.0476
 2146SOL     OW17896   1.417   3.069   3.180 -0.4925 -0.1074 -0.1999
 2146SOL    HW117897   1.506   3.067   3.215 -0.8977 -0.2204  0.8141
 2146SOL    HW217898   1.435   3.128   3.106  0.1594  2.9352  2.3593
 2147SOL     OW17899   1.638   3.803   6.367 -0.0111  0.1365 -0.4444
 2147SOL    HW117900   1.619   3.778   6.276 -2.7929  0.4088  0.0487
 2147SOL    HW217901   1.699   3.742   6.408 -3.3754 -2.0386  1.3277
 2148SOL     OW17902   2.967   2.797  15.644 -0.1496  0.2641  0.6638
 2148SOL    HW117903   2.948   2.860  15.574 -0.2730 -0.9225 -0.3843
 2148SOL    HW217904   3.041   2.847  15.679 -1.0031  2.4452 -0.6139
 2149SOL     OW17905   2.435   4.473  14.132 -0.3008  1.0932 -0.6345
 2149SOL    HW117906   2.410   4.413  14.062 -0.3680  0.7544 -0.3211
 2149SOL    HW217907   2.441   4.405  14.199  1.1379  2.9777  1.1336
 2150SOL     OW17908   4.134   2.058   2.700 -0.0560  0.4475  0.3724
 2150SOL    HW117909   4.068   2.055   2.769 -0.3178  2.0971  0.2036
 2150SOL    HW217910   4.207   2.090   2.754  0.1929  2.7663 -1.2988
 2151SOL     OW17911   1.975   4.549   2.403 -0.4265 -0.1784  0.0629
 2151SOL    HW117912   2.040   4.485   2.431 -0.5550 -0.4222 -0.2019
 2151SOL    HW217913   1.993   4.533   2.311 -0.4906 -3.8742  0.6863
 2152SOL     OW17914   2.448   0.099  16.131  0.3039 -0.1841  0.3197
 2152SOL    HW117915   2.413   0.157  16.199  3.3047  1.1180  0.7804
 2152SOL    HW217916   2.415   0.016  16.165  0.7731 -0.8535 -0.8513
 2153SOL     OW17917   3.537   0.095   0.274 -0.3415  0.3307  0.0110
 2153SOL    HW117918   3.521   0.166   0.336 -1.9364  1.1685 -1.3737
 2153SOL    HW217919   3.605   0.136   0.219 -2.1253  3.5881  0.2183
 2154SOL     OW17920   2.146   1.246   7.015  0.5389  0.0764  0.3375
 2154SOL    HW117921   2.140   1.193   6.936 -0.4249 -1.4293  1.4268
 2154SOL    HW217922   2.238   1.275   7.015  0.6525 -0.2690 -1.2217
 2155SOL     OW17923   3.257   4.637   1.390  0.1272 -0.5061 -0.6690
 2155SOL    HW117924   3.265   4.699   1.463  3.1356  0.0938 -1.4946
 2155SOL    HW217925   3.332   4.579   1.407  0.0599 -1.1564 -2.6128
 2156SOL     OW17926   3.619   4.575   0.471 -0.3354  0.7984  0.3280
 2156SOL    HW117927   3.626   4.649   0.409  1.2812  0.3666 -0.0049
 2156SOL    HW217928   3.545   4.612   0.518 -0.3862 -1.0356  1.6537
 2157SOL     OW17929   0.249   1.924   3.459  0.4861 -0.0287  0.1507
 2157SOL    HW117930   0.278   2.015   3.459  0.6392 -0.0785 -0.8377
 2157SOL    HW217931   0.328   1.875   3.434 -0.1682 -2.9359  3.7778
 2158SOL     OW17932   4.474   3.102  10.213  0.3083 -0.1231  0.2683
 2158SOL    HW117933   4.511   3.098  10.124  2.0259 -0.1627  0.9916
 2158SOL    HW217934   4.442   3.192  10.206  0.3205 -0.3424 -2.6810
 2159SOL     OW17935   2.525   4.588  14.593  0.4006  0.0079  0.1756
 2159SOL    HW117936   2.465   4.528  14.637  0.6657  0.1317  0.7090
 2159SOL    HW217937   2.567   4.633  14.667  1.1139 -0.3592  0.0020
 2160SOL     OW17938   4.041   1.993  15.797  0.1785  0.5093  0.2986
 2160SOL    HW117939   4.123   1.968  15.753 -0.3683 -0.9812  0.1298
 2160SOL    HW217940   4.073   2.072  15.842  0.0809  0.8038 -0.1451
 2161SOL     OW17941   0.341   3.484   1.488  0.3007 -0.1873 -0.3212
 2161SOL    HW117942   0.428   3.501   1.526 -0.9008  0.9209  1.9503
 2161SOL    HW217943   0.290   3.441   1.557  0.5290 -0.2292 -0.1776
 2162SOL     OW17944   3.246   1.753   8.592 -0.9760 -0.1289  0.0897
 2162SOL    HW117945   3.310   1.820   8.567 -0.7736 -0.5571 -0.5396
 2162SOL    HW217946   3.170   1.790   8.547  0.4430 -0.1406 -2.2853
 2163SOL     OW17947   2.630   3.406   8.251 -0.0323 -0.1112  0.2260
 2163SOL    HW117948   2.547   3.393   8.205 -0.4903 -0.9099  1.2842
 2163SOL    HW217949   2.592   3.421   8.337  1.5434  0.4086  0.8110
 2164SOL     OW17950   4.191   1.411   1.560  0.0573  0.1481  0.1970
 2164SOL    HW117951   4.279   1.413   1.522 -0.6466 -1.1863 -1.5056
 2164SOL    HW217952   4.160   1.501   1.563 -2.9075 -0.9375  1.6042
 2165SOL     OW17953   4.324   4.201   3.234  0.7619 -0.0334  0.3615
 2165SOL    HW117954   4.321   4.106   3.231  0.7678  0.0417 -2.2151
 2165SOL    HW217955   4.352   4.223   3.323 -0.7431 -0.3923  0.9328
 2166SOL     OW17956   3.064   2.902   1.543  0.4550  0.5058 -0.6445
 2166SOL    HW117957   2.972   2.888   1.566  0.2911  1.1735 -0.9105
 2166SOL    HW217958   3.076   2.988   1.583 -0.2160 -0.7142  2.2091
 2167SOL     OW17959   1.308   0.488  11.498  0.2192  0.5561 -0.7585
 2167SOL    HW117960   1.342   0.505  11.411  0.1133 -1.0675 -1.1141
 2167SOL    HW217961   1.353   0.567  11.527  1.6377 -1.3897  2.3965
 2168SOL     OW17962   1.938   0.433   6.545 -0.5303 -0.1036 -0.2107
 2168SOL    HW117963   1.927   0.383   6.464 -2.2687  1.3344 -0.8667
 2168SOL    HW217964   1.853   0.478   6.543 -0.6747 -0.3785 -0.4054
 2169SOL     OW17965   3.886   2.722   3.887  0.3373 -0.1697  0.0352
 2169SOL    HW117966   3.893   2.737   3.793  0.5232  1.4968  0.3072
 2169SOL    HW217967   3.935   2.800   3.916 -0.1957  0.0839  0.2561
 2170SOL     OW17968   0.661   2.888  17.127 -0.2621 -0.3314  0.3805
 2170SOL    HW117969   0.671   2.865  17.034 -1.0302 -0.4176  0.3156
 2170SOL    HW217970   0.734   2.949  17.137 -0.3839  0.0886 -1.3296
 2171SOL     OW17971   3.666   3.194   5.593 -0.7618  0.1376 -0.3774
 2171SOL    HW117972   3.656   3.154   5.679 -1.1451  1.1986  0.0599
 2171SOL    HW217973   3.619   3.276   5.606  1.2564  1.3722 -0.8660
 2172SOL     OW17974   3.605   2.112   5.128  0.2126 -0.2109  0.4102
 2172SOL    HW117975   3.530   2.055   5.143  2.9961 -4.0163 -0.1330
 2172SOL    HW217976   3.566   2.142   5.045  1.3187 -1.3440 -0.5079
 2173SOL     OW17977   1.312   3.124   5.030 -0.2693 -0.0147 -0.3647
 2173SOL    HW117978   1.376   3.093   4.965 -0.3080 -0.5326 -0.1526
 2173SOL    HW217979   1.257   3.175   4.971 -0.2125  0.7981  0.2989
 2174SOL     OW17980   2.298   1.607   1.915  0.5627  0.3437 -0.2908
 2174SOL    HW117981   2.348   1.685   1.890  1.5744 -0.2814 -0.2072
 2174SOL    HW217982   2.234   1.642   1.976  1.1381 -2.7173  2.0846
 2175SOL     OW17983   1.635   0.103  10.256 -0.2179 -0.3205  0.3904
 2175SOL    HW117984   1.576   0.179  10.255  0.4445  0.1751 -1.2262
 2175SOL    HW217985   1.669   0.132  10.341 -0.7654  2.3618 -0.2916
 2176SOL     OW17986   3.386   1.820   0.873 -0.3082 -0.5951 -0.2078
 2176SOL    HW117987   3.473   1.781   0.866 -0.0507  0.3744 -2.1419
 2176SOL    HW217988   3.385   1.863   0.788  3.1158  1.1520  0.6368
 2177SOL     OW17989   4.393   1.240   4.603 -0.2549  0.0592  0.1917
 2177SOL    HW117990   4.454   1.176   4.641 -1.3313 -1.5502 -0.7757
 2177SOL    HW217991   4.438   1.272   4.525 -1.4868 -2.0893 -1.4050
 2178SOL     OW17992   2.019   1.426  13.810 -0.1233 -0.2616 -0.0107
 2178SOL    HW117993   1.980   1.510  13.834  1.4520  0.0051  1.6523
 2178SOL    HW217994   2.109   1.453  13.826 -1.0965  1.5644  2.4133
 2179SOL     OW17995   3.617   2.431   2.257  0.2323 -0.4725  0.3764
 2179SOL    HW117996   3.630   2.474   2.341  1.1673 -2.2476  1.1533
 2179SOL    HW217997   3.646   2.342   2.279 -0.7850 -1.8605 -3.9961
 2180SOL     OW17998   4.058   3.516   8.586  0.2214  0.4141 -0.0887
 2180SOL    HW117999   3.981   3.461   8.604 -0.7428  1.2971 -1.5126
 2180SOL    HW218000   4.016   3.599   8.564 -1.9508  0.0113  2.4838
 2181SOL     OW18001   1.252   1.146   4.004  0.5474 -0.1841 -0.2510
 2181SOL    HW118002   1.312   1.209   4.044 -0.9623  0.0572  1.6241
 2181SOL    HW218003   1.219   1.105   4.084  1.0647 -4.0491 -1.9722
 2182SOL     OW18004   1.394   1.907   3.440  0.8748  0.2477 -0.0204
 2182SOL    HW118005   1.339   1.890   3.364 -0.4691 -0.7479  1.1820
 2182SOL    HW218006   1.390   1.823   3.487  0.7819  1.1824  1.6655
 2183SOL     OW18007   3.446   2.945   2.549  0.1204  0.0748 -0.3449
 2183SOL    HW118008   3.354   2.963   2.566 -0.1328 -0.7311 -0.8937
 2183SOL    HW218009   3.491   3.013   2.600 -0.0793 -0.8972  1.1375
 2184SOL     OW18010   0.968   0.086   7.985 -1.2258  0.4964  0.1383
 2184SOL    HW118011   1.003   0.135   8.059 -2.0488 -0.0201  0.8656
 2184SOL    HW218012   0.899   0.145   7.956 -0.7958  1.6973  1.5759
 2185SOL     OW18013   3.808   2.782   6.405 -0.1725 -0.3272 -0.0036
 2185SOL    HW118014   3.894   2.786   6.362 -0.8883 -0.2185 -1.4179
 2185SOL    HW218015   3.795   2.876   6.421 -3.7207 -0.7676 -0.4787
 2186SOL     OW18016   1.069   3.435   2.415 -0.5235  0.3990 -0.0713
 2186SOL    HW118017   0.998   3.469   2.359 -1.3041  0.4787  0.9702
 2186SOL    HW218018   1.018   3.395   2.485  0.8601  0.2873  0.8513
 2187SOL     OW18019   1.430   3.242   8.139  0.1581  0.1572 -0.0723
 2187SOL    HW118020   1.414   3.293   8.060  1.7158  0.0322 -0.4645
 2187SOL    HW218021   1.507   3.286   8.174 -0.5756  0.6184  0.9818
 2188SOL     OW18022   3.817   0.538   1.004  0.5071 -0.3356  0.1627
 2188SOL    HW118023   3.842   0.502   1.089  2.0041  1.7133  0.5913
 2188SOL    HW218024   3.889   0.503   0.951 -0.2265 -0.4379 -0.7584
 2189SOL     OW18025   2.900   3.779  13.578  0.1615  0.4993  0.8507
 2189SOL    HW118026   2.848   3.728  13.516  0.8093  1.3177 -0.3649
 2189SOL    HW218027   2.925   3.851  13.520  1.2757  0.1115  0.8458
 2190SOL     OW18028   0.666   4.096  12.501 -0.1352 -0.2033  0.2657
 2190SOL    HW118029   0.751   4.051  12.504  0.3470  0.6947  0.1691
 2190SOL    HW218030   0.635   4.080  12.590  0.7207 -3.1315  0.0643
 2191SOL     OW18031   2.738   4.446   8.980 -0.5713 -0.3254  0.3595
 2191SOL    HW118032   2.724   4.479   8.891 -0.1240 -0.1330  0.3634
 2191SOL    HW218033   2.653   4.459   9.023 -1.0403 -0.4983 -0.5102
 2192SOL     OW18034   2.640   3.511  15.116  0.3195 -0.0797  0.2772
 2192SOL    HW118035   2.594   3.476  15.193 -0.5808  0.8113  0.1523
 2192SOL    HW218036   2.583   3.585  15.096  2.9092  1.6786 -0.6251
 2193SOL     OW18037   1.265   0.388   5.160  0.2340  0.1472 -0.1876
 2193SOL    HW118038   1.313   0.437   5.227 -2.5790  1.1751  1.0694
 2193SOL    HW218039   1.195   0.444   5.127 -1.1508 -1.7751 -0.4850
 2194SOL     OW18040   0.400   3.552   6.462 -0.7414  0.5158  0.0873
 2194SOL    HW118041   0.313   3.587   6.444 -0.7763  2.0377  3.2001
 2194SOL    HW218042   0.439   3.619   6.519  1.6983 -0.7371 -0.1141
 2195SOL     OW18043   3.316   0.975   3.965  0.0006 -0.5401 -0.4805
 2195SOL    HW118044   3.350   1.057   4.000 -0.0165 -0.1681 -1.3226
 2195SOL    HW218045   3.282   1.010   3.882 -0.0642  2.2502  0.7120
 2196SOL     OW18046   0.077   3.442   5.627  1.0358 -0.3378 -0.3748
 2196SOL    HW118047   4.714   3.446   5.585  1.6001  0.4966 -1.4501
 2196SOL    HW218048   0.072   3.361   5.679  2.1036 -0.8368 -1.0550
 2197SOL     OW18049   3.113   4.546   4.284  0.1250  0.3609 -0.4808
 2197SOL    HW118050   3.178   4.511   4.223 -1.2541  0.1794 -1.8456
 2197SOL    HW218051   3.040   4.567   4.225 -1.5428 -1.6080  0.9136
 2198SOL     OW18052   2.097   1.743   8.546  0.3464  0.0760  0.0344
 2198SOL    HW118053   2.067   1.652   8.544 -1.9928  0.9058 -2.5290
 2198SOL    HW218054   2.071   1.770   8.458  1.2477 -1.2739 -0.6441
 2199SOL     OW18055   0.800   2.310   3.692  0.0145 -0.0085  0.2313
 2199SOL    HW118056   0.784   2.233   3.746 -1.4439  0.8792  1.0572
 2199SOL    HW218057   0.812   2.280   3.602  1.0320 -1.1849  0.7594
 2200SOL     OW18058   4.261   0.125   7.044 -0.2827 -0.7595 -0.2061
 2200SOL    HW118059   4.209   0.085   6.975  0.3174  0.3946 -1.3411
 2200SOL    HW218060   4.227   0.215   7.046 -0.1765 -0.7280  0.2433
 2201SOL     OW18061   3.726   3.731  17.230 -1.2334 -0.4199  0.3008
 2201SOL    HW118062   3.751   3.815  17.269 -0.5586 -0.1783 -0.6461
 2201SOL    HW218063   3.702   3.676  17.304 -0.1651 -0.0036  0.9512
 2202SOL     OW18064   0.470   3.423   8.226  0.4808  0.1268 -0.3879
 2202SOL    HW118065   0.518   3.501   8.198  0.9694  0.3943  1.1957
 2202SOL    HW218066   0.544   3.381   8.270  0.0124  0.4377  0.6992
 2203SOL     OW18067   1.312   0.128   6.812 -0.1688  0.0801 -0.3615
 2203SOL    HW118068   1.320   0.218   6.844  2.7925  0.6034 -2.5660
 2203SOL    HW218069   1.401   0.097   6.829 -0.4425 -1.5395 -1.9419
 2204SOL     OW18070   3.190   1.851   5.102  0.0278 -0.3676  0.7564
 2204SOL    HW118071   3.217   1.765   5.070  1.1317  0.4469 -0.5041
 2204SOL    HW218072   3.121   1.819   5.160 -1.0358  1.4363  0.4751
 2205SOL     OW18073   3.669   2.862   9.153 -0.0769  0.7584 -0.3738
 2205SOL    HW118074   3.640   2.940   9.106 -0.3428  0.7780 -0.1745
 2205SOL    HW218075   3.748   2.884   9.202 -1.4804  3.2784  0.7459
 2206SOL     OW18076   2.544   2.707   8.695 -0.3581  0.4111 -0.4602
 2206SOL    HW118077   2.523   2.647   8.624  1.3663 -1.5195  0.6574
 2206SOL    HW218078   2.555   2.653   8.774  0.6281  0.6780 -0.4047
 2207SOL     OW18079   3.968   3.858   8.099  0.1819  0.4292  0.3324
 2207SOL    HW118080   3.901   3.791   8.112  1.3811 -0.4692  1.9340
 2207SOL    HW218081   4.038   3.802   8.066 -0.8884  0.0228 -1.2110
 2208SOL     OW18082   1.438   0.767  10.141 -0.4370 -0.1980 -0.2659
 2208SOL    HW118083   1.521   0.814  10.137  0.6549 -2.1291 -0.6879
 2208SOL    HW218084   1.395   0.814  10.212  1.2995 -2.3577  2.1723
 2209SOL     OW18085   4.314   2.241   7.249  0.1262  0.0200  0.7658
 2209SOL    HW118086   4.289   2.333   7.241 -0.2316 -0.0254  1.3627
 2209SOL    HW218087   4.390   2.270   7.301  0.7665  1.1560 -0.8124
 2210SOL     OW18088   0.297   3.279   8.761 -0.3004  0.3291  0.0080
 2210SOL    HW118089   0.278   3.216   8.691 -1.9939 -0.2707  1.0219
 2210SOL    HW218090   0.265   3.365   8.736  0.6878  0.9262  0.7960
 2211SOL     OW18091   2.610   1.613   4.741  0.2393 -0.3244  0.4309
 2211SOL    HW118092   2.690   1.655   4.709  0.4548 -0.9396  0.1628
 2211SOL    HW218093   2.646   1.529   4.769  1.1136 -0.7963 -2.1115
 2212SOL     OW18094   3.313   4.582  11.704 -0.3070 -0.4281  1.3685
 2212SOL    HW118095   3.226   4.544  11.721  0.5869 -3.3629 -0.6985
 2212SOL    HW218096   3.350   4.517  11.645 -0.3976  0.3862  0.4196
 2213SOL     OW18097   2.343   2.453   8.848 -0.4815  0.5632  0.7654
 2213SOL    HW118098   2.301   2.394   8.910 -0.9480  0.4244  0.3188
 2213SOL    HW218099   2.421   2.471   8.901  0.4548 -1.5135  0.0980
 2214SOL     OW18100   4.013   0.119  13.523  0.7131  0.4012 -0.0484
 2214SOL    HW118101   4.098   0.122  13.481  0.6851  0.2089 -0.1163
 2214SOL    HW218102   3.989   0.027  13.510  0.1159  0.6051 -0.3927
 2215SOL     OW18103   0.757   3.312   0.249 -0.3419 -0.2145  0.2839
 2215SOL    HW118104   0.807   3.302   0.168 -1.0571  1.0829 -0.3128
 2215SOL    HW218105   0.720   3.225   0.255  0.4316 -0.6238 -0.8970
 2216SOL     OW18106   2.673   0.021   9.107  0.6059 -0.2190  0.3843
 2216SOL    HW118107   2.768   0.015   9.093  0.4959 -0.9723 -0.0338
 2216SOL    HW218108   2.632   0.027   9.021  0.7589 -1.3118  0.2231
 2217SOL     OW18109   1.607   0.678   9.305  0.0513 -0.2689  0.1760
 2217SOL    HW118110   1.534   0.736   9.328 -0.4102 -0.7461 -0.0664
 2217SOL    HW218111   1.564   0.616   9.245 -0.0509 -0.1464  0.1225
 2218SOL     OW18112   1.738   0.961   9.865 -0.2680  0.3484 -0.5604
 2218SOL    HW118113   1.799   0.898   9.827  1.0122  0.3831  1.4593
 2218SOL    HW218114   1.771   0.975   9.954  0.2730  0.0068 -0.7079
 2219SOL     OW18115   2.577   4.672  15.079 -0.1052  0.2764  0.4366
 2219SOL    HW118116   2.597   4.589  15.124 -3.3469  0.4558  2.2184
 2219SOL    HW218117   2.616   0.015  15.135  2.6102  0.6697 -1.9200
 2220SOL     OW18118   0.898   2.507   3.872  0.4434 -0.2458 -0.0635
 2220SOL    HW118119   0.873   2.451   3.798  0.2652 -1.4582  0.9153
 2220SOL    HW218120   0.965   2.456   3.918  0.1070  0.7959  1.5788
 2221SOL     OW18121   0.526   3.990  12.322 -0.3308 -0.3394 -0.3278
 2221SOL    HW118122   0.563   4.050  12.386 -1.6869  0.3368 -0.2054
 2221SOL    HW218123   0.595   3.923  12.321 -2.5045 -2.5523 -1.2005
 2222SOL     OW18124   0.117   2.062  10.637 -0.0226  0.3464  0.5104
 2222SOL    HW118125   0.211   2.045  10.632  0.0248  1.0777 -1.2853
 2222SOL    HW218126   0.110   2.154  10.610  0.2735  0.4148  0.6774
 2223SOL     OW18127   2.358   3.899   8.157 -0.1944 -0.2673  0.4268
 2223SOL    HW118128   2.278   3.859   8.123 -0.5315 -2.4221  3.8868
 2223SOL    HW218129   2.419   3.831   8.131  0.8020  1.6022 -2.1863
 2224SOL     OW18130   2.985   1.907   9.747 -0.2348  0.3296  0.1432
 2224SOL    HW118131   2.972   1.998   9.722 -1.2628 -0.0143 -0.6018
 2224SOL    HW218132   2.960   1.916   9.839  0.2577 -0.0219  0.3121
 2225SOL     OW18133   2.694   1.329   6.093 -0.0136  0.3942  1.0758
 2225SOL    HW118134   2.774   1.322   6.042 -0.6778  0.8802 -0.0414
 2225SOL    HW218135   2.640   1.373   6.027  0.2978 -1.5594 -0.4776
 2226SOL     OW18136   1.746   2.531   8.935  0.5206 -0.1172 -0.3352
 2226SOL    HW118137   1.711   2.616   8.960  2.1971  0.8246 -1.2143
 2226SOL    HW218138   1.666   2.490   8.901 -0.0451  0.6323  0.1053
 2227SOL     OW18139   2.479   3.170   5.377  0.1333  0.2766  0.1928
 2227SOL    HW118140   2.396   3.193   5.419 -0.7065 -1.2394 -0.6308
 2227SOL    HW218141   2.493   3.241   5.314  1.2698 -1.8981 -1.9818
 2228SOL     OW18142   1.410   3.742   5.358 -0.9845  0.8216  0.5115
 2228SOL    HW118143   1.361   3.796   5.420  0.2170  0.1368  2.0404
 2228SOL    HW218144   1.342   3.676   5.346 -0.0242 -0.2538  0.9769
 2229SOL     OW18145   1.103   0.794   4.067  0.5515  0.1179  0.0584
 2229SOL    HW118146   1.076   0.729   4.131 -0.8761  0.3452 -0.3064
 2229SOL    HW218147   1.132   0.871   4.115 -0.0192  0.6099 -0.3892
 2230SOL     OW18148   1.049   3.269   9.368  0.0780  0.3021 -0.5657
 2230SOL    HW118149   1.018   3.346   9.320  0.7917  0.7770 -0.2537
 2230SOL    HW218150   0.982   3.207   9.339  0.9367 -0.8488 -0.0828
 2231SOL     OW18151   3.841   2.190   1.506 -0.0645 -0.3538  0.1867
 2231SOL    HW118152   3.779   2.151   1.569 -2.0865  0.4336 -1.3153
 2231SOL    HW218153   3.920   2.143   1.532  0.5469  0.0776 -0.8840
 2232SOL     OW18154   1.961   2.036   9.305  0.0240  0.5766 -0.2060
 2232SOL    HW118155   2.016   2.027   9.228 -0.9179  1.1120 -0.9310
 2232SOL    HW218156   1.942   1.945   9.331  1.3630  0.1527 -0.7150
 2233SOL     OW18157   3.982   3.690   3.395 -0.5864  0.2624 -0.3487
 2233SOL    HW118158   3.900   3.721   3.357 -2.1175 -0.5846  2.2709
 2233SOL    HW218159   3.982   3.599   3.364  1.0230 -0.3588  1.4639
 2234SOL     OW18160   2.786   0.344   0.081  0.5665  0.4181 -0.4812
 2234SOL    HW118161   2.694   0.369   0.076 -0.2275 -1.8135  3.2742
 2234SOL    HW218162   2.779   0.253   0.051 -1.3634  0.2397  0.5533
 2235SOL     OW18163   0.872   3.335   8.222 -0.6563 -0.6745 -0.1349
 2235SOL    HW118164   0.813   3.338   8.298  0.4839  1.7494  0.6344
 2235SOL    HW218165   0.958   3.361   8.255 -0.6295  1.1197 -1.6341
 2236SOL     OW18166   2.653   4.038   7.378  0.5421  0.9415  0.0637
 2236SOL    HW118167   2.674   4.089   7.456 -2.1758  0.1136  1.3495
 2236SOL    HW218168   2.578   3.991   7.415 -0.5278  0.6059 -2.5786
 2237SOL     OW18169   1.452   3.394   0.725 -0.1853 -0.0021  0.0075
 2237SOL    HW118170   1.473   3.407   0.818 -0.0488  1.0077 -0.1654
 2237SOL    HW218171   1.382   3.333   0.748  0.2842  0.2127  2.0320
 2238SOL     OW18172   2.489   4.620   6.619 -0.5680 -0.6609  0.2986
 2238SOL    HW118173   2.552   4.650   6.554 -1.3099 -1.7503 -0.9112
 2238SOL    HW218174   2.406   4.662   6.594 -0.5578 -1.5156 -1.1347
 2239SOL     OW18175   0.492   3.453   3.692 -0.8499  0.0009  0.1619
 2239SOL    HW118176   0.472   3.509   3.767  1.8443  0.2683  0.6505
 2239SOL    HW218177   0.584   3.462   3.671 -0.7696  0.4953  0.7271
 2240SOL     OW18178   3.809   3.331   7.433  0.0516  0.5178 -0.0489
 2240SOL    HW118179   3.851   3.403   7.386 -1.1677  1.1832 -0.1019
 2240SOL    HW218180   3.828   3.351   7.525 -1.0054  3.7204 -0.5350
 2241SOL     OW18181   3.056   1.918   6.038 -0.6534  0.0582 -0.7923
 2241SOL    HW118182   3.148   1.892   6.031 -0.9769 -1.4645  0.7707
 2241SOL    HW218183   3.043   1.978   5.964  0.5718  0.2614 -0.8548
 2242SOL     OW18184   2.423   0.791   9.770  0.2022  0.7597 -0.0103
 2242SOL    HW118185   2.386   0.703   9.760  1.2080  0.3638 -0.2018
 2242SOL    HW218186   2.407   0.812   9.678 -0.5637  0.0481 -0.0494
 2243SOL     OW18187   1.807   2.737   1.980 -0.0736 -0.4903  0.0887
 2243SOL    HW118188   1.786   2.797   1.908 -0.6776 -1.8929 -0.9116
 2243SOL    HW218189   1.734   2.749   2.041 -1.4588  0.3191 -1.7223
 2244SOL     OW18190   3.781   0.121   2.425 -0.1930 -0.2469 -0.3000
 2244SOL    HW118191   3.705   0.106   2.482 -1.8085  3.6598 -1.4206
 2244SOL    HW218192   3.834   0.142   2.501 -0.9273 -0.1564  0.1858
 2245SOL     OW18193   2.559   2.089   7.797 -0.9754 -0.7430  0.4853
 2245SOL    HW118194   2.500   2.163   7.787  1.9606  1.3189 -1.8771
 2245SOL    HW218195   2.502   2.039   7.855  0.1883  0.6489  2.8027
 2246SOL     OW18196   3.403   4.451   5.889 -0.1408  0.5540 -0.5925
 2246SOL    HW118197   3.402   4.403   5.806  0.3092  0.5078 -0.5715
 2246SOL    HW218198   3.426   4.386   5.955  0.0790 -0.3793 -1.5929
 2247SOL     OW18199   3.419   4.714   3.161  0.6620 -0.0244  0.1130
 2247SOL    HW118200   3.483   0.009   3.230  0.0818  0.2193  0.5828
 2247SOL    HW218201   3.425   4.618   3.161  0.4988 -0.0336 -0.0953
 2248SOL     OW18202   4.032   4.656  15.480 -0.0845 -0.2170  0.2615
 2248SOL    HW118203   3.957   4.616  15.436 -1.0666  3.9872 -1.8799
 2248SOL    HW218204   4.068   4.719  15.417  0.3981 -1.6533 -0.9043
 2249SOL     OW18205   3.357   2.734   4.455  0.6509 -0.1678 -0.4418
 2249SOL    HW118206   3.411   2.677   4.508  0.0628 -0.9291 -0.6664
 2249SOL    HW218207   3.271   2.734   4.496  0.2613  0.8323 -1.2545
 2250SOL     OW18208   1.803   2.626   5.210 -0.0307 -0.6851 -0.2552
 2250SOL    HW118209   1.844   2.576   5.280  1.1448  2.8211  1.5431
 2250SOL    HW218210   1.867   2.698   5.206 -2.7192  1.6428 -1.5649
 2251SOL     OW18211   3.452   2.285   2.716  0.3485 -0.1209 -0.4873
 2251SOL    HW118212   3.381   2.325   2.765  0.7721  0.9128 -0.7235
 2251SOL    HW218213   3.413   2.309   2.632  1.5428 -0.5066 -1.1597
 2252SOL     OW18214   4.253   3.461   5.394  0.0654  0.1595 -0.5900
 2252SOL    HW118215   4.296   3.380   5.420  0.3536  2.2132  5.2239
 2252SOL    HW218216   4.257   3.459   5.298 -0.4393 -4.0968 -0.4883
 2253SOL     OW18217   4.600   1.100   5.178 -0.4804  0.2545  0.2577
 2253SOL    HW118218   4.547   1.048   5.117  0.9770  1.5180 -2.0418
 2253SOL    HW218219   4.596   1.048   5.259 -0.7563 -0.1253  0.0034
 2254SOL     OW18220   3.145   3.092   8.886 -0.2290  0.6102  0.2845
 2254SOL    HW118221   3.102   3.076   8.971  1.4830  0.0467  1.0435
 2254SOL    HW218222   3.181   3.180   8.897 -1.4306  1.5143 -3.0988
 2255SOL     OW18223   2.040   2.685   8.950  0.1802 -0.1282 -0.7193
 2255SOL    HW118224   1.965   2.745   8.939  1.3558  1.3885 -0.4753
 2255SOL    HW218225   2.112   2.749   8.949  0.1232 -0.0620 -0.5188
 2256SOL     OW18226   4.137   2.359   4.857 -0.3518 -0.0959  0.5112
 2256SOL    HW118227   4.159   2.267   4.873 -1.4330 -0.2286  1.1844
 2256SOL    HW218228   4.101   2.357   4.768  0.6097 -0.1589  0.1150
 2257SOL     OW18229   3.998   2.890  11.314  0.5364 -0.1584 -0.4297
 2257SOL    HW118230   4.061   2.842  11.261  0.6897 -2.1735  1.5785
 2257SOL    HW218231   4.055   2.934  11.376 -2.3043  0.1302  1.9899
 2258SOL     OW18232   4.426   0.619   6.468 -0.5520  0.5782  0.0109
 2258SOL    HW118233   4.377   0.663   6.537  2.9670  2.0277  1.5751
 2258SOL    HW218234   4.511   0.662   6.464  0.2484 -1.0446 -0.5497
 2259SOL     OW18235   0.671   0.814   2.209 -0.2180  0.3802 -0.0196
 2259SOL    HW118236   0.682   0.719   2.217  0.8683  0.4825 -0.2740
 2259SOL    HW218237   0.576   0.820   2.218 -0.1856 -0.4177  0.9752
 2260SOL     OW18238   2.589   4.062   3.704  0.6022 -0.2639  0.0932
 2260SOL    HW118239   2.512   4.053   3.761  1.2999  0.7640  1.2104
 2260SOL    HW218240   2.544   4.091   3.624 -1.3960 -2.4130  0.4379
 2261SOL     OW18241   1.909   3.719   1.421  0.3141 -0.1039 -0.3459
 2261SOL    HW118242   1.878   3.758   1.340 -0.4289  2.6434  1.2794
 2261SOL    HW218243   2.004   3.727   1.427  0.2183  0.6185  0.1765
 2262SOL     OW18244   3.057   0.185  14.734 -0.3008 -0.1631 -0.4579
 2262SOL    HW118245   3.083   0.176  14.825  1.8453 -2.6700 -1.3392
 2262SOL    HW218246   2.970   0.225  14.738  0.2648  0.8559  1.4742
 2263SOL     OW18247   1.867   0.989  10.109 -0.2828 -0.1595  0.2398
 2263SOL    HW118248   1.936   0.994  10.176 -0.2357 -0.4996  0.2161
 2263SOL    HW218249   1.807   0.928  10.152 -1.2006 -0.2906 -1.2430
 2264SOL     OW18250   4.343   1.785   7.591 -0.5687  0.2426  0.0572
 2264SOL    HW118251   4.380   1.831   7.666 -1.8895 -1.8639  2.0021
 2264SOL    HW218252   4.392   1.828   7.521 -0.6008 -0.1616 -0.2070
 2265SOL     OW18253   1.212   4.382  10.350  0.3121 -0.1033 -0.1072
 2265SOL    HW118254   1.230   4.459  10.404 -2.0547 -0.2266  0.8635
 2265SOL    HW218255   1.138   4.417  10.301  0.4417  2.2274  1.3650
 2266SOL     OW18256   2.823   3.651   8.882 -0.2475 -0.1117 -0.7695
 2266SOL    HW118257   2.906   3.614   8.912 -0.5735 -0.3145 -0.1097
 2266SOL    HW218258   2.786   3.696   8.958 -0.0379 -0.9477 -0.1668
 2267SOL     OW18259   2.957   2.381   8.741  0.4334  0.1599  0.7804
 2267SOL    HW118260   3.010   2.322   8.688  2.6558  0.9462  2.1491
 2267SOL    HW218261   2.937   2.313   8.806 -0.6906 -1.4579 -1.2596
 2268SOL     OW18262   2.625   3.944   8.812  0.4751  0.2637  0.1615
 2268SOL    HW118263   2.674   3.950   8.729 -0.1621 -0.9831 -0.2968
 2268SOL    HW218264   2.695   3.931   8.876  0.8846 -4.1283 -1.1929
 2269SOL     OW18265   3.168   2.371  16.087 -0.8826 -0.2685 -0.2246
 2269SOL    HW118266   3.235   2.360  16.155 -0.3975  0.8105 -0.5221
 2269SOL    HW218267   3.227   2.382  16.013 -1.7418  1.6900 -0.6091
 2270SOL     OW18268   4.164   3.067   2.987  0.3134 -0.3302 -0.1237
 2270SOL    HW118269   4.249   3.031   3.013  0.3040  0.0114  0.3967
 2270SOL    HW218270   4.120   3.051   3.071  0.3512 -0.7811 -0.1883
 2271SOL     OW18271   3.663   2.322   6.912 -0.1820 -0.7800 -0.0978
 2271SOL    HW118272   3.653   2.237   6.954  3.1134 -0.0291  2.2317
 2271SOL    HW218273   3.571   2.342   6.891 -0.0822 -2.0498 -1.7256
 2272SOL     OW18274   1.915   2.422   1.728  0.3489 -0.5136  0.6136
 2272SOL    HW118275   1.835   2.475   1.724  0.4485 -0.5154 -1.8275
 2272SOL    HW218276   1.879   2.334   1.718  1.3291 -0.7867 -0.4704
 2273SOL     OW18277   4.497   1.298   0.828 -0.4972  0.0868  0.1085
 2273SOL    HW118278   4.521   1.348   0.906 -1.0514 -1.0664  1.0083
 2273SOL    HW218279   4.506   1.210   0.865 -1.8793  0.7766  2.1041
 2274SOL     OW18280   2.896   0.688   1.831 -0.4371 -0.4779  0.5510
 2274SOL    HW118281   2.991   0.691   1.826 -0.7092  0.0429 -4.0231
 2274SOL    HW218282   2.884   0.705   1.738 -1.5294 -0.6198  0.6661
 2275SOL     OW18283   3.093   2.191   3.087 -0.4767  0.3217  0.0970
 2275SOL    HW118284   3.187   2.171   3.078 -0.5957 -0.0120 -0.4367
 2275SOL    HW218285   3.084   2.255   3.158  0.5833 -0.1039  0.6268
 2276SOL     OW18286   3.799   2.783   1.092 -0.6687  0.5067 -0.5984
 2276SOL    HW118287   3.748   2.817   1.019 -2.7979  0.3349  0.7966
 2276SOL    HW218288   3.728   2.752   1.149 -0.7491  0.4695 -0.7187
 2277SOL     OW18289   4.353   0.535   5.644  0.0816  0.7159  0.4996
 2277SOL    HW118290   4.398   0.510   5.563 -1.3729 -0.5153  0.0683
 2277SOL    HW218291   4.282   0.470   5.648 -1.3053  2.1257 -1.2322
 2278SOL     OW18292   4.039   0.398   2.644  0.2523 -0.9290 -0.0079
 2278SOL    HW118293   4.019   0.487   2.672 -1.0126 -1.1741 -0.1301
 2278SOL    HW218294   4.117   0.425   2.596  0.6300  0.9340  1.6522
 2279SOL     OW18295   4.151   3.963  15.024  0.3753  0.0194  0.9361
 2279SOL    HW118296   4.151   3.902  15.097 -0.7546 -3.8576 -2.2878
 2279SOL    HW218297   4.220   3.917  14.976 -1.4697 -1.5586 -0.1950
 2280SOL     OW18298   1.282   2.195   6.931 -0.3870  0.1278 -0.5733
 2280SOL    HW118299   1.216   2.127   6.943  0.9304 -1.4202 -2.1005
 2280SOL    HW218300   1.238   2.267   6.976  0.8503  1.0634 -0.8598
 2281SOL     OW18301   3.761   4.553   6.576 -0.3952 -0.7218 -0.0602
 2281SOL    HW118302   3.723   4.612   6.511 -1.0847  0.9020  1.8250
 2281SOL    HW218303   3.832   4.517   6.522  2.5719  3.2146  1.2265
 2282SOL     OW18304   1.203   2.465   2.028 -0.5619 -0.2875 -0.4289
 2282SOL    HW118305   1.133   2.498   2.084 -0.3876  1.0337 -0.9763
 2282SOL    HW218306   1.164   2.487   1.944  0.1222  2.6364  0.0181
 2283SOL     OW18307   1.101   4.060   1.941  0.6540 -0.5520  0.5444
 2283SOL    HW118308   1.094   4.155   1.953  2.8805 -0.4067  0.8178
 2283SOL    HW218309   1.174   4.044   2.001  2.9911  1.8224 -1.6301
 2284SOL     OW18310   1.654   3.397   8.917 -0.2822 -0.0617 -0.1075
 2284SOL    HW118311   1.693   3.354   8.993 -1.2065  0.7572  0.8411
 2284SOL    HW218312   1.560   3.382   8.929 -0.5944  1.4722 -0.5518
 2285SOL     OW18313   3.565   3.414   4.881  0.5011  0.3417 -0.5612
 2285SOL    HW118314   3.497   3.355   4.916  0.3993  0.8344  0.0675
 2285SOL    HW218315   3.561   3.485   4.945  1.4209  1.4076 -1.6969
 2286SOL     OW18316   4.370   1.742  10.606 -0.5260 -0.1683 -0.3137
 2286SOL    HW118317   4.429   1.818  10.602 -0.9241  0.0789 -1.4094
 2286SOL    HW218318   4.377   1.703  10.693  2.4778  0.5987 -0.2102
 2287SOL     OW18319   2.013   2.670   3.409 -0.1477  0.4037 -0.1011
 2287SOL    HW118320   1.921   2.653   3.428  0.5679 -1.6018  1.5613
 2287SOL    HW218321   2.047   2.582   3.395  1.2414  0.9596 -0.2518
 2288SOL     OW18322   0.064   0.780   3.033  0.2918 -0.3737 -0.0115
 2288SOL    HW118323   0.010   0.816   2.963  0.2496 -0.3989  0.0076
 2288SOL    HW218324   0.117   0.855   3.060 -2.0227  1.0174  0.6809
 2289SOL     OW18325   1.572   2.931   7.929  0.0534 -0.3884 -0.4807
 2289SOL    HW118326   1.559   3.016   7.886  0.0065 -1.3917 -2.4297
 2289SOL    HW218327   1.601   2.880   7.854 -0.6992 -1.4101 -0.0869
 2290SOL     OW18328   3.029   0.352   6.705  0.5891  0.0005  0.4214
 2290SOL    HW118329   3.051   0.444   6.695 -4.4815  1.2227  0.4592
 2290SOL    HW218330   2.972   0.355   6.783  1.0610 -1.5393  0.8317
 2291SOL     OW18331   3.263   3.374   1.235  0.4019  0.1491  0.3165
 2291SOL    HW118332   3.287   3.291   1.194 -0.4272  1.1742 -2.2200
 2291SOL    HW218333   3.344   3.408   1.272  1.7608 -1.5928 -1.1077
 2292SOL     OW18334   2.855   0.425  13.357 -0.3726  0.1192  0.3824
 2292SOL    HW118335   2.834   0.333  13.338 -0.5377  0.2127  0.1188
 2292SOL    HW218336   2.946   0.422  13.387 -0.7420  0.6376  1.5211
 2293SOL     OW18337   2.991   3.120   3.687  0.3631 -0.6340  0.5899
 2293SOL    HW118338   2.942   3.041   3.711 -0.6985 -0.0035  0.5268
 2293SOL    HW218339   2.984   3.110   3.592 -2.6825  2.2282  0.5076
 2294SOL     OW18340   2.385   3.621  14.686 -0.1421 -0.2490 -0.1500
 2294SOL    HW118341   2.377   3.532  14.722 -0.6433 -0.3776 -0.5796
 2294SOL    HW218342   2.299   3.639  14.649  0.1359 -1.6636 -1.4987
 2295SOL     OW18343   3.323   3.498   7.731  0.3955 -0.1573 -0.2293
 2295SOL    HW118344   3.324   3.589   7.701 -0.3749  0.0723  0.4268
 2295SOL    HW218345   3.410   3.467   7.707  0.4340 -0.0376 -0.2440
 2296SOL     OW18346   0.551   3.094   4.697  0.7351  0.0652  0.0343
 2296SOL    HW118347   0.569   3.039   4.621  0.2733 -1.3514  0.9475
 2296SOL    HW218348   0.495   3.031   4.742 -0.7163  0.5134 -1.1526
 2297SOL     OW18349   1.595   4.544  10.622 -0.5542  0.0639 -0.0090
 2297SOL    HW118350   1.682   4.583  10.618 -1.3990  2.0723  1.0076
 2297SOL    HW218351   1.622   4.456  10.598 -1.2189  0.1003 -0.8877
 2298SOL     OW18352   1.609   4.677   0.461  0.2618  0.0593  0.2234
 2298SOL    HW118353   1.602   4.642   0.372 -0.3467  0.6789  0.0330
 2298SOL    HW218354   1.595   4.596   0.511 -1.2863  0.3924  0.3057
 2299SOL     OW18355   1.407   2.601  12.501 -0.0224  0.3703  0.0096
 2299SOL    HW118356   1.338   2.632  12.560  2.8998 -0.7394  3.9596
 2299SOL    HW218357   1.429   2.526  12.556  1.4609  1.0985  0.3838
 2300SOL     OW18358   3.014   2.069  10.581 -0.0231  0.1055  0.3441
 2300SOL    HW118359   3.082   2.096  10.519 -0.9189 -0.0533 -0.6938
 2300SOL    HW218360   3.039   2.133  10.648 -1.6734 -1.1000  2.1264
 2301SOL     OW18361   4.057   1.374   7.780  0.1004  0.2697  0.3094
 2301SOL    HW118362   4.104   1.320   7.844 -1.4116 -2.0974 -0.5877
 2301SOL    HW218363   4.114   1.449   7.768  2.1535 -1.1034  1.3838
 2302SOL     OW18364   3.614   3.427   1.787 -0.2594  0.2173 -0.1180
 2302SOL    HW118365   3.523   3.456   1.789 -0.4204 -0.3095  0.7866
 2302SOL    HW218366   3.622   3.366   1.861  1.4432  0.6337  0.0341
 2303SOL     OW18367   2.941   3.038   7.242  0.1737  0.6410 -0.3461
 2303SOL    HW118368   2.935   2.943   7.239 -1.6925  0.7148  0.7072
 2303SOL    HW218369   3.026   3.052   7.282 -0.3283  1.2232  0.5282
 2304SOL     OW18370   3.597   2.217   4.653  0.6867  0.0438  0.8048
 2304SOL    HW118371   3.534   2.272   4.606 -0.9247 -0.4509  2.3872
 2304SOL    HW218372   3.634   2.161   4.585  1.0588  1.7390 -0.3800
 2305SOL     OW18373   4.224   0.328   2.850 -0.1286  0.4742  0.0550
 2305SOL    HW118374   4.150   0.357   2.796  2.1541 -0.0208 -3.3369
 2305SOL    HW218375   4.225   0.395   2.918 -0.7600  1.0804 -0.5430
 2306SOL     OW18376   1.203   0.463   9.237  0.5542  0.5559  0.3576
 2306SOL    HW118377   1.173   0.553   9.224  1.7218  0.7871 -0.7069
 2306SOL    HW218378   1.191   0.455   9.332 -2.6052  0.8863  0.0119
 2307SOL     OW18379   2.756   0.257  16.758 -0.2417  0.6046  0.0592
 2307SOL    HW118380   2.761   0.252  16.854 -3.5731  0.8923  0.2408
 2307SOL    HW218381   2.849   0.251  16.739 -0.0588 -1.6410  1.6775
 2308SOL     OW18382   0.029   2.132  13.249  0.2570 -0.3302 -0.3331
 2308SOL    HW118383   0.104   2.132  13.308  0.1346 -1.6106 -0.1816
 2308SOL    HW218384   4.678   2.137  13.309 -0.4947 -0.7068 -1.2272
 2309SOL     OW18385   2.237   1.475  14.428 -0.2508  0.0217  0.2496
 2309SOL    HW118386   2.249   1.539  14.498  0.3813 -1.2106  1.2724
 2309SOL    HW218387   2.191   1.412  14.482  1.7559 -1.2497  0.4820
 2310SOL     OW18388   4.081   1.259   4.663 -0.3174  0.3343  0.3934
 2310SOL    HW118389   4.173   1.234   4.663 -0.5005 -0.3562  0.6904
 2310SOL    HW218390   4.064   1.255   4.569  2.4896 -2.8362  0.0117
 2311SOL     OW18391   3.037   0.950   3.191  0.4369  0.5537 -0.1140
 2311SOL    HW118392   2.997   0.943   3.104 -0.0925  1.1933  0.0852
 2311SOL    HW218393   3.080   1.034   3.183  0.3403  0.5888 -0.2847
 2312SOL     OW18394   1.182   4.493  13.992  0.1378  0.1224 -0.2731
 2312SOL    HW118395   1.105   4.516  14.044 -0.7900 -3.6451 -0.0142
 2312SOL    HW218396   1.231   4.444  14.057  1.4639 -0.8002 -1.9722
 2313SOL     OW18397   3.695   2.480  14.959  0.3373  0.0243 -0.8306
 2313SOL    HW118398   3.710   2.419  14.887 -0.9659 -2.2265  0.8294
 2313SOL    HW218399   3.603   2.504  14.950  0.8010  1.8971 -0.5633
 2314SOL     OW18400   4.054   1.477   8.773 -0.3213 -0.3497 -0.4523
 2314SOL    HW118401   3.979   1.511   8.725 -0.9549 -1.4332 -0.2252
 2314SOL    HW218402   4.053   1.389   8.736 -0.9531  0.7214 -2.9224
 2315SOL     OW18403   4.124   0.006  17.277 -0.3776  0.2334  0.3188
 2315SOL    HW118404   4.056   4.696  17.218  1.5410 -0.5903 -1.4289
 2315SOL    HW218405   4.101   0.099  17.278 -0.7401  0.1469  0.0662
 2316SOL     OW18406   3.361   3.092   1.602  0.0685 -0.1607 -0.1144
 2316SOL    HW118407   3.267   3.103   1.616  0.1419 -1.0364  1.0473
 2316SOL    HW218408   3.369   3.059   1.512 -2.8374  1.4697 -0.9816
 2317SOL     OW18409   2.259   1.279   6.099  0.5072 -0.0610 -0.5940
 2317SOL    HW118410   2.186   1.341   6.092 -0.1060 -0.5585  1.2803
 2317SOL    HW218411   2.331   1.341   6.104 -1.0071  1.5230  1.4786
 2318SOL     OW18412   4.552   4.524   9.204  0.0317  0.0645  0.2831
 2318SOL    HW118413   4.548   4.480   9.289  2.4931 -0.6866  0.0156
 2318SOL    HW218414   4.457   4.536   9.195  0.1286  0.3716 -0.3718
 2319SOL     OW18415   1.132   0.976   1.413  0.5445  0.1668  0.1352
 2319SOL    HW118416   1.077   1.053   1.401 -0.7208 -0.5281  1.3372
 2319SOL    HW218417   1.131   0.979   1.509 -0.0395 -0.4106  0.1451
 2320SOL     OW18418   3.543   4.607  10.964 -0.4027 -0.3138 -0.2084
 2320SOL    HW118419   3.531   4.591  11.058  0.0215 -1.4400 -0.3478
 2320SOL    HW218420   3.632   4.642  10.966  0.5117 -2.6314 -0.1584
 2321SOL     OW18421   2.382   1.903   7.068 -0.1861  0.2919 -0.0831
 2321SOL    HW118422   2.376   1.989   7.027  3.7696  0.7318  0.2210
 2321SOL    HW218423   2.299   1.869   7.035 -0.2230  0.5558 -0.2665
 2322SOL     OW18424   4.234   2.477  13.827  0.7759 -0.1867  0.3435
 2322SOL    HW118425   4.253   2.460  13.919  0.0478 -0.1879  0.4974
 2322SOL    HW218426   4.316   2.447  13.788  0.4903 -0.5939  0.0540
 2323SOL     OW18427   2.779   1.759  10.357 -0.3385  0.1803  0.2274
 2323SOL    HW118428   2.736   1.778  10.274  0.3911  1.4154  0.1354
 2323SOL    HW218429   2.851   1.823  10.356  1.5080 -1.9121 -1.8206
 2324SOL     OW18430   3.884   2.823  10.406 -0.1796 -0.4537 -0.8832
 2324SOL    HW118431   3.924   2.846  10.323  1.0916 -0.5055 -0.2784
 2324SOL    HW218432   3.807   2.773  10.379 -0.0499 -1.1931  0.1116
 2325SOL     OW18433   3.122   1.380   7.732  0.1830  0.1435  0.0185
 2325SOL    HW118434   3.026   1.373   7.737  0.2938 -2.0115 -0.9719
 2325SOL    HW218435   3.151   1.290   7.723  2.4990  1.1417 -2.6144
 2326SOL     OW18436   3.444   0.943  15.587 -0.5650  0.3873 -0.6288
 2326SOL    HW118437   3.448   0.854  15.620 -1.4330  1.3885  2.1929
 2326SOL    HW218438   3.516   0.938  15.524 -0.7485  3.9084 -1.1462
 2327SOL     OW18439   0.405   0.881   7.733  0.2150  0.0223  0.0094
 2327SOL    HW118440   0.340   0.833   7.682 -0.9670  0.6415  0.9308
 2327SOL    HW218441   0.367   0.872   7.821  0.2344  0.7842  0.0956
 2328SOL     OW18442   0.951   3.308   4.622 -0.0616  0.2442 -0.8016
 2328SOL    HW118443   0.948   3.226   4.573 -0.2432 -0.8357  1.0115
 2328SOL    HW218444   1.024   3.350   4.577  1.7502  0.4604  2.3980
 2329SOL     OW18445   0.276   3.844   2.641  0.0767  0.2058 -0.0435
 2329SOL    HW118446   0.368   3.852   2.666  0.2527 -0.4236 -0.4838
 2329SOL    HW218447   0.249   3.932   2.667  0.0163  0.5923 -1.4126
 2330SOL     OW18448   0.581   3.858  15.296  0.0830 -0.0552 -0.5307
 2330SOL    HW118449   0.571   3.783  15.238 -0.3946 -0.7736  0.4770
 2330SOL    HW218450   0.660   3.891  15.253 -0.6645  0.4861 -1.4846
 2331SOL     OW18451   1.205   0.947  15.875 -0.5230  0.4976  0.6368
 2331SOL    HW118452   1.143   1.019  15.865  0.7817  1.6915  1.0721
 2331SOL    HW218453   1.220   0.926  15.783  1.1851  1.1665  0.7599
 2332SOL     OW18454   0.524   2.405   6.046  0.0611 -0.1205 -0.1176
 2332SOL    HW118455   0.593   2.343   6.069  0.0778 -0.2179 -0.4350
 2332SOL    HW218456   0.499   2.436   6.134  0.6896 -0.5938  0.2242
 2333SOL     OW18457   3.026   0.265   8.312  0.1918 -0.9973 -0.0764
 2333SOL    HW118458   2.971   0.198   8.272 -2.8312  0.4176  1.6788
 2333SOL    HW218459   2.972   0.294   8.385 -0.8972 -0.0720 -1.2508
 2334SOL     OW18460   1.592   3.277   6.478  0.0858  0.0207 -0.0105
 2334SOL    HW118461   1.536   3.351   6.499  0.0691 -0.8401  3.0180
 2334SOL    HW218462   1.672   3.320   6.510 -0.4039 -0.6153  2.1018
 2335SOL     OW18463   3.505   4.391   0.654 -0.3156  0.7313 -0.0171
 2335SOL    HW118464   3.547   4.439   0.583 -0.5489 -2.4717 -2.3365
 2335SOL    HW218465   3.429   4.369   0.599  0.0462  0.7426 -0.5218
 2336SOL     OW18466   3.973   1.921  10.089  0.1877  0.1520 -0.0151
 2336SOL    HW118467   4.048   1.900  10.144 -1.6197 -0.3017  2.2631
 2336SOL    HW218468   4.019   1.973  10.023 -1.1623  3.6199  1.7827
 2337SOL     OW18469   3.643   0.006   6.411  0.2856  0.1342 -0.1317
 2337SOL    HW118470   3.702   0.068   6.369  0.8298  0.0541  0.5233
 2337SOL    HW218471   3.573   0.069   6.431  0.4929  1.2356 -2.7727
 2338SOL     OW18472   1.302   0.653   8.050 -0.0420  0.0145  0.0009
 2338SOL    HW118473   1.222   0.606   8.028  0.5812  0.1973 -2.6498
 2338SOL    HW218474   1.298   0.719   7.981  2.2085  1.8503  1.6404
 2339SOL     OW18475   3.442   1.899  16.166  0.6469 -0.1605 -0.2595
 2339SOL    HW118476   3.356   1.929  16.199  1.4232 -0.3599  1.9537
 2339SOL    HW218477   3.465   1.836  16.235  0.1535  0.7465  0.7470
 2340SOL     OW18478   0.170   0.591   9.263  0.0796  0.0082  0.1372
 2340SOL    HW118479   0.245   0.549   9.220 -0.2556 -0.2128 -0.2289
 2340SOL    HW218480   0.136   0.645   9.192  0.3259  0.3681  0.2928
 2341SOL     OW18481   1.513   0.983   6.643 -0.0033  0.3200 -0.3961
 2341SOL    HW118482   1.439   0.933   6.676 -0.1053  0.4514 -0.4224
 2341SOL    HW218483   1.546   1.015   6.727 -0.7035  0.7573 -0.2795
 2342SOL     OW18484   2.284   3.834  11.885 -0.3696  0.2439  0.0660
 2342SOL    HW118485   2.255   3.906  11.829 -0.1626  0.9395  0.8602
 2342SOL    HW218486   2.362   3.873  11.925 -0.4720  2.3081 -1.7580
 2343SOL     OW18487   2.159   3.006   5.822 -0.5986  0.0373  0.2184
 2343SOL    HW118488   2.154   2.948   5.898 -1.0334 -0.6580 -0.3374
 2343SOL    HW218489   2.085   3.063   5.842 -0.8047  0.0510 -0.5824
 2344SOL     OW18490   1.168   4.404  13.429 -0.0681  0.2291  0.4883
 2344SOL    HW118491   1.185   4.488  13.386 -0.4926 -0.2705 -0.6867
 2344SOL    HW218492   1.088   4.384  13.380  2.0532 -0.9484 -2.5420
 2345SOL     OW18493   3.303   4.532  14.413  0.0836  0.4039 -0.2645
 2345SOL    HW118494   3.234   4.470  14.390 -1.5216  1.7920  0.8728
 2345SOL    HW218495   3.263   4.584  14.482 -1.0828 -0.9801  0.1143
 2346SOL     OW18496   0.490   0.606  10.489 -0.6479  0.2039 -0.1335
 2346SOL    HW118497   0.407   0.578  10.530 -0.6946  2.5563  1.3480
 2346SOL    HW218498   0.509   0.677  10.550 -1.1152 -0.3722  0.6944
 2347SOL     OW18499   1.169   1.885   1.130  1.0180  0.4156 -0.1481
 2347SOL    HW118500   1.220   1.912   1.206 -0.2030 -0.6108  1.0323
 2347SOL    HW218501   1.104   1.825   1.166  0.6245 -0.1206 -1.7704
 2348SOL     OW18502   0.601   0.946   9.841 -0.3175  0.2708 -0.0602
 2348SOL    HW118503   0.571   0.871   9.893 -0.8430  1.8894  1.9752
 2348SOL    HW218504   0.691   0.959   9.871  0.3151 -0.1010 -1.8141
 2349SOL     OW18505   0.305   1.691   8.594 -0.0043  0.0626  0.3862
 2349SOL    HW118506   0.343   1.774   8.566 -1.4498  1.0467  1.3192
 2349SOL    HW218507   0.260   1.679   8.510  0.1209 -0.0033  0.3277
 2350SOL     OW18508   3.882   1.366   6.753 -0.3138  0.1733  0.0708
 2350SOL    HW118509   3.934   1.402   6.825 -1.9315  1.3005  0.6922
 2350SOL    HW218510   3.933   1.295   6.714 -0.3521  1.2536 -1.9362
 2351SOL     OW18511   2.814   1.186   6.629  0.0020 -0.2522 -0.6987
 2351SOL    HW118512   2.865   1.205   6.550  0.6094 -0.8613 -0.4512
 2351SOL    HW218513   2.725   1.221   6.619  0.4821  1.4069  0.7066
 2352SOL     OW18514   2.101   2.989   2.074 -0.0924 -0.1412  0.1784
 2352SOL    HW118515   2.110   2.894   2.066  2.2009  0.1147 -0.2442
 2352SOL    HW218516   2.152   3.023   2.001  0.2168 -0.4204  0.2670
 2353SOL     OW18517   3.069   0.304   9.724  0.1234  0.0890  0.6135
 2353SOL    HW118518   3.148   0.267   9.766  0.1373  0.5512  1.0015
 2353SOL    HW218519   3.061   0.386   9.772  1.1242  0.0509  0.8551
 2354SOL     OW18520   2.795   1.452  15.236 -0.6320  0.0214 -0.4750
 2354SOL    HW118521   2.800   1.362  15.203  0.3982  0.5942 -1.8614
 2354SOL    HW218522   2.777   1.494  15.152 -0.4759  0.3184 -0.3588
 2355SOL     OW18523   4.358   4.519   3.527  0.0376  0.1152  0.0229
 2355SOL    HW118524   4.347   4.585   3.459 -0.0835 -1.7705 -1.7908
 2355SOL    HW218525   4.442   4.481   3.503 -0.9312 -0.4675 -2.4535
 2356SOL     OW18526   1.905   2.044   4.556 -0.1563  0.2418 -0.0716
 2356SOL    HW118527   1.990   2.051   4.600 -0.9090  0.3360  1.3870
 2356SOL    HW218528   1.853   2.089   4.623  2.0699  0.6265  1.3690
 2357SOL     OW18529   0.739   3.296   3.037 -0.3788  0.2904  0.6510
 2357SOL    HW118530   0.677   3.329   2.972  1.8151 -0.1978 -1.6689
 2357SOL    HW218531   0.703   3.209   3.052  1.3012 -1.0999 -3.3882
 2358SOL     OW18532   3.653   1.658   7.214  0.3736  0.0017 -0.4449
 2358SOL    HW118533   3.646   1.569   7.249 -0.4310 -0.1037 -0.8777
 2358SOL    HW218534   3.726   1.694   7.264 -0.1443  0.5137 -0.0552
 2359SOL     OW18535   0.965   2.750   3.701  0.3308 -0.1488  0.3864
 2359SOL    HW118536   0.947   2.699   3.623  1.3722  1.5721 -0.9667
 2359SOL    HW218537   0.963   2.676   3.762  0.1034 -1.6338 -1.4302
 2360SOL     OW18538   2.895   2.284   9.339 -0.2474 -0.1113 -0.0042
 2360SOL    HW118539   2.976   2.238   9.317  0.6768  1.5008 -0.0055
 2360SOL    HW218540   2.922   2.344   9.408  0.7744 -0.7261  0.1153
 2361SOL     OW18541   3.114   0.950  12.618 -0.5907 -0.1587  0.2030
 2361SOL    HW118542   3.054   0.888  12.660  1.1090 -1.7767  0.2385
 2361SOL    HW218543   3.085   0.947  12.526 -1.5450  1.5711  0.4553
 2362SOL     OW18544   1.326   3.839   8.954  0.3962  1.0184  0.2034
 2362SOL    HW118545   1.313   3.900   9.026  1.8403  2.0906 -0.4551
 2362SOL    HW218546   1.345   3.762   9.009 -0.6541 -1.3948 -2.8103
 2363SOL     OW18547   3.993   4.248   1.030  0.0776  0.0903 -0.3553
 2363SOL    HW118548   3.932   4.320   1.044  0.0958 -0.0583  0.4856
 2363SOL    HW218549   3.967   4.179   1.091 -0.0029  2.0529  1.8255
 2364SOL     OW18550   3.401   2.794   0.610 -0.0087 -0.5427  0.0815
 2364SOL    HW118551   3.342   2.755   0.546  0.6958  0.9284 -1.4492
 2364SOL    HW218552   3.344   2.813   0.685 -0.7088  1.4892 -0.9600
 2365SOL     OW18553   2.785   2.805  13.723 -0.3087  0.3598  0.2499
 2365SOL    HW118554   2.760   2.894  13.749  1.6347  1.3452 -1.2430
 2365SOL    HW218555   2.743   2.801  13.638 -0.5153  0.6288  0.3404
 2366SOL     OW18556   2.880   2.431   5.874  0.2314  0.1691 -0.7450
 2366SOL    HW118557   2.844   2.497   5.815 -2.1384  0.5404  1.1209
 2366SOL    HW218558   2.936   2.377   5.818 -1.3352 -0.2622 -1.8830
 2367SOL     OW18559   2.031   2.273  12.200  0.2072  0.3124 -0.1238
 2367SOL    HW118560   1.958   2.214  12.220 -2.6541  3.3488 -1.6279
 2367SOL    HW218561   2.041   2.260  12.106  0.6976  1.1803 -0.1890
 2368SOL     OW18562   4.539   4.288   5.080  0.3836 -0.2806  0.3072
 2368SOL    HW118563   4.538   4.382   5.060  2.1690 -0.3346 -0.0316
 2368SOL    HW218564   4.588   4.247   5.009  0.9325 -0.4959  0.8080
 2369SOL     OW18565   1.235   2.181   8.922 -0.0614 -0.2112  0.3648
 2369SOL    HW118566   1.191   2.104   8.957 -0.1000  0.9784  2.9410
 2369SOL    HW218567   1.214   2.171   8.829 -1.5607  0.3739  0.6462
 2370SOL     OW18568   3.482   2.678   2.436  0.0561 -0.1879  0.2657
 2370SOL    HW118569   3.443   2.762   2.458  1.4598  0.7883 -0.9987
 2370SOL    HW218570   3.479   2.698   2.343  0.7500 -1.0530  0.0550
 2371SOL     OW18571   2.872   2.925   7.635  0.1697  0.0297  0.4312
 2371SOL    HW118572   2.953   2.974   7.648 -0.0727  0.2951  0.9175
 2371SOL    HW218573   2.873   2.938   7.540  2.4627 -0.9096  0.3217
 2372SOL     OW18574   2.863   1.187   8.193  0.2056 -0.1757  0.1496
 2372SOL    HW118575   2.928   1.228   8.250  0.5695  0.3732 -0.6589
 2372SOL    HW218576   2.825   1.125   8.256  0.6208 -2.0105 -1.3876
 2373SOL     OW18577   2.437   4.443   2.624 -0.0334  0.3239 -0.5445
 2373SOL    HW118578   2.381   4.401   2.558  1.3115  0.1684 -1.5675
 2373SOL    HW218579   2.385   4.427   2.703 -0.7339  0.1986 -1.0307
 2374SOL     OW18580   3.615   1.760   8.401  0.8877 -0.5024 -0.1089
 2374SOL    HW118581   3.705   1.727   8.389  0.8735 -0.6594  0.2244
 2374SOL    HW218582   3.623   1.852   8.378 -0.0340 -0.5086 -0.4263
 2375SOL     OW18583   2.000   4.398   4.931  0.1082  0.4824  0.0163
 2375SOL    HW118584   2.094   4.382   4.938  0.1072 -1.1436 -3.2043
 2375SOL    HW218585   1.996   4.452   4.852 -1.1306 -0.2110 -0.4009
 2376SOL     OW18586   2.401   2.130   4.198  0.4032  0.1174 -0.1136
 2376SOL    HW118587   2.423   2.211   4.245 -3.6572  0.3710  1.4019
 2376SOL    HW218588   2.378   2.066   4.266  3.7457  1.3386  2.1870
 2377SOL     OW18589   1.806   3.016   3.618 -0.0828 -0.5572  1.1003
 2377SOL    HW118590   1.805   3.051   3.529 -2.7643 -0.8807  0.9957
 2377SOL    HW218591   1.727   2.962   3.612 -1.4074  1.2471  2.2745
 2378SOL     OW18592   0.381   0.107   0.393  0.4901 -0.4595 -0.0925
 2378SOL    HW118593   0.374   0.035   0.456 -1.2825  1.2496  1.6865
 2378SOL    HW218594   0.331   0.053   0.332  1.3430  0.6947 -1.7871
 2379SOL     OW18595   2.974   1.497  11.859 -0.1782  0.0352  0.6759
 2379SOL    HW118596   2.960   1.513  11.953 -0.7582 -0.8056  0.7402
 2379SOL    HW218597   2.955   1.586  11.830  0.7641  0.8284  2.5382
 2380SOL     OW18598   0.232   3.254  14.662 -0.3809  0.4476  0.1028
 2380SOL    HW118599   0.255   3.187  14.598 -2.2026  1.5099 -1.6618
 2380SOL    HW218600   0.212   3.334  14.614 -0.4141  0.8026  0.7089
 2381SOL     OW18601   2.124   1.401   5.707 -0.1531 -0.6424 -0.6795
 2381SOL    HW118602   2.206   1.450   5.700 -0.7898  0.6018  0.5296
 2381SOL    HW218603   2.075   1.450   5.641 -3.7014 -0.3012  2.2147
 2382SOL     OW18604   0.915   3.513   5.598  0.3175  0.2746  0.1213
 2382SOL    HW118605   0.829   3.520   5.556  1.0542  0.2359 -1.4105
 2382SOL    HW218606   0.915   3.598   5.642  0.8289  0.9226 -1.1414
 2383SOL     OW18607   3.727   0.943  14.506  0.1964  0.6767 -0.2779
 2383SOL    HW118608   3.793   0.905  14.448 -0.5644  2.1998 -2.1435
 2383SOL    HW218609   3.673   0.984  14.439 -0.8025 -1.1385 -0.5717
 2384SOL     OW18610   1.073   4.533   1.252  0.2198 -0.2485  0.3634
 2384SOL    HW118611   1.116   4.612   1.285 -0.3909  0.0673  0.3950
 2384SOL    HW218612   0.981   4.547   1.275  1.0137 -0.8472  3.9618
 2385SOL     OW18613   1.624   4.108  12.972 -0.3628 -0.3174  0.7998
 2385SOL    HW118614   1.563   4.174  12.939  0.8490 -1.0351 -2.8533
 2385SOL    HW218615   1.633   4.126  13.066 -0.5387 -0.6324  0.8747
 2386SOL     OW18616   0.864   0.289  12.008 -0.4111  0.2072 -0.3979
 2386SOL    HW118617   0.919   0.364  11.986 -1.7001  1.2334 -0.1096
 2386SOL    HW218618   0.930   0.222  11.991  1.2997  1.6431  0.4997
 2387SOL     OW18619   1.758   1.122  11.550 -0.1632 -0.2748  0.4527
 2387SOL    HW118620   1.733   1.178  11.476 -1.2866 -1.5452 -0.1237
 2387SOL    HW218621   1.731   1.172  11.626  0.9003  1.1750 -0.1155
 2388SOL     OW18622   3.576   0.389   4.191 -0.3200 -0.5057  0.1510
 2388SOL    HW118623   3.568   0.389   4.095  0.8528 -0.3464  0.0576
 2388SOL    HW218624   3.519   0.312   4.201 -1.8265  0.5549 -0.2104
 2389SOL     OW18625   2.461   4.143   8.214  0.0301  0.0188 -0.1951
 2389SOL    HW118626   2.459   4.177   8.124  0.2972 -1.6133 -0.8058
 2389SOL    HW218627   2.410   4.064   8.201  0.9912 -0.9962  2.1353
 2390SOL     OW18628   3.175   3.006   2.496 -0.4237  0.1369  0.3847
 2390SOL    HW118629   3.158   2.953   2.418  0.4437  1.7208 -0.8746
 2390SOL    HW218630   3.212   3.090   2.469  4.8416 -2.2540  0.1764
 2391SOL     OW18631   4.089   3.899   8.370  0.8358  0.2927  0.0252
 2391SOL    HW118632   4.067   3.939   8.286 -0.9082  0.7037  0.6771
 2391SOL    HW218633   4.020   3.833   8.380  2.1326 -0.8816  1.3228
 2392SOL     OW18634   0.942   4.705   0.861  0.3253 -0.4797  0.1178
 2392SOL    HW118635   1.017   4.654   0.891 -0.5474 -1.5586  0.4215
 2392SOL    HW218636   0.889   4.700   0.940 -2.6596  1.3404 -1.7346
 2393SOL     OW18637   4.104   1.223   8.000 -0.7981  0.2100  0.6657
 2393SOL    HW118638   4.122   1.177   8.082  0.7367  1.3217  0.9445
 2393SOL    HW218639   4.012   1.245   8.017 -0.1378  2.6284  0.9713
 2394SOL     OW18640   2.195   0.757   2.604  0.2664 -0.7715 -0.1077
 2394SOL    HW118641   2.211   0.779   2.512 -1.4962 -0.4475 -0.3335
 2394SOL    HW218642   2.182   0.842   2.646  0.2613 -0.7330 -0.1868
 2395SOL     OW18643   2.372   1.045   4.302  0.4326  0.2606  0.1663
 2395SOL    HW118644   2.464   1.020   4.293  0.3837  0.1298  0.0339
 2395SOL    HW218645   2.329   0.977   4.251 -0.1446  0.3313  0.5601
 2396SOL     OW18646   1.608   1.726  17.154 -0.0910 -0.2494  0.7529
 2396SOL    HW118647   1.589   1.818  17.136  0.0319 -0.1518  1.1234
 2396SOL    HW218648   1.637   1.729  17.245  3.4193 -1.5920 -0.2843
 2397SOL     OW18649   0.780   0.485   8.572 -0.4774  0.0743 -0.3452
 2397SOL    HW118650   0.712   0.486   8.639  0.7810 -0.2241  0.9323
 2397SOL    HW218651   0.748   0.415   8.514  0.3513 -2.6680  2.5409
 2398SOL     OW18652   2.923   1.395   2.964  0.2324 -0.3029  0.5495
 2398SOL    HW118653   2.943   1.486   2.986  1.3457 -0.3307 -0.3545
 2398SOL    HW218654   2.894   1.407   2.874  2.2247  1.2774  0.0958
 2399SOL     OW18655   2.714   2.367  10.957 -0.2844 -0.5909  0.0159
 2399SOL    HW118656   2.784   2.333  11.013 -2.0276  0.2526  2.7499
 2399SOL    HW218657   2.657   2.291  10.973 -1.9815  0.0910 -2.9317
 2400SOL     OW18658   0.816   2.545   2.606 -0.3668 -0.2594  0.5643
 2400SOL    HW118659   0.741   2.595   2.636 -1.5277 -0.2694 -2.2903
 2400SOL    HW218660   0.812   2.530   2.511 -2.4596  1.8782  0.3271
 2401SOL     OW18661   3.117   1.630   7.600  0.5216 -0.1103 -0.5197
 2401SOL    HW118662   3.108   1.535   7.591 -1.9331  0.3653 -3.0356
 2401SOL    HW218663   3.212   1.639   7.610  0.2801  0.9916  0.7701
 2402SOL     OW18664   1.138   3.409   8.157  0.4692 -0.1252  0.2717
 2402SOL    HW118665   1.181   3.334   8.196  0.3157 -1.1283 -1.5014
 2402SOL    HW218666   1.182   3.480   8.204 -2.0142  0.1320  2.2562
 2403SOL     OW18667   4.343   3.275   4.220 -0.1239 -0.2759  0.6159
 2403SOL    HW118668   4.409   3.344   4.224  0.5691 -0.9541  0.8551
 2403SOL    HW218669   4.343   3.265   4.125 -1.8522 -0.8234  0.6552
 2404SOL     OW18670   1.124   0.109   5.587 -0.9304  0.3422 -0.1993
 2404SOL    HW118671   1.096   0.088   5.676  1.9415 -1.5876  0.2329
 2404SOL    HW218672   1.159   0.029   5.548 -0.4703 -0.7599  2.4505
 2405SOL     OW18673   3.741   2.302   6.202  0.0720 -0.1563  0.0595
 2405SOL    HW118674   3.671   2.315   6.138 -0.5002  1.1826  0.9675
 2405SOL    HW218675   3.701   2.266   6.282  1.0745  1.4082  1.2651
 2406SOL     OW18676   4.567   2.753   2.412 -0.2925 -0.7733  0.0904
 2406SOL    HW118677   4.573   2.742   2.318 -1.1015  4.1210 -0.5358
 2406SOL    HW218678   4.501   2.822   2.423 -0.5563 -1.0109  0.0015
 2407SOL     OW18679   3.396   1.367   5.783 -0.0979  0.2723  0.5243
 2407SOL    HW118680   3.408   1.272   5.787  0.1871  0.3766  2.1475
 2407SOL    HW218681   3.348   1.372   5.865  1.6075  1.0969  1.4753
 2408SOL     OW18682   1.632   4.151   7.617 -0.1638  0.0025 -0.1683
 2408SOL    HW118683   1.692   4.185   7.684 -0.4364  1.4679 -0.6708
 2408SOL    HW218684   1.660   4.201   7.540  2.2913 -1.5776 -0.2927
 2409SOL     OW18685   3.742   1.096   8.611  0.0156 -0.1121 -0.0244
 2409SOL    HW118686   3.798   1.049   8.672  0.4848 -0.0415 -0.4072
 2409SOL    HW218687   3.658   1.050   8.608 -0.0665  0.0273  0.0783
 2410SOL     OW18688   0.846   1.747   4.051 -0.3292 -0.3566 -0.2103
 2410SOL    HW118689   0.767   1.799   4.037  0.9263  1.3777 -0.8078
 2410SOL    HW218690   0.803   1.661   4.052  2.3812 -1.7423 -3.5273
 2411SOL     OW18691   0.387   0.413   9.134  0.2519 -0.6303 -0.1588
 2411SOL    HW118692   0.374   0.370   9.218 -0.3482  2.0040  1.1055
 2411SOL    HW218693   0.474   0.376   9.118  0.0931 -2.0573  2.4215
 2412SOL     OW18694   1.525   2.089   0.595 -0.6474  0.4903  0.3862
 2412SOL    HW118695   1.485   2.176   0.600 -0.1686  0.8386 -2.0647
 2412SOL    HW218696   1.609   2.097   0.640 -0.5300 -0.2543  0.2981
 2413SOL     OW18697   3.937   2.627   2.904 -0.5034 -0.5408  0.1299
 2413SOL    HW118698   3.946   2.543   2.859  0.0137 -1.3795  1.7836
 2413SOL    HW218699   3.926   2.680   2.826 -0.3915  0.3031  0.6836
 2414SOL     OW18700   2.455   1.224   5.648  0.4773 -0.1741  0.0662
 2414SOL    HW118701   2.472   1.247   5.557 -1.8162 -0.1027 -0.3330
 2414SOL    HW218702   2.515   1.152   5.669  2.2394  1.3033  0.1108
 2415SOL     OW18703   0.323   3.739  12.844  0.4414 -0.4178 -0.1567
 2415SOL    HW118704   0.332   3.746  12.939  0.5128  0.9756 -0.2773
 2415SOL    HW218705   0.323   3.833  12.829  0.9309 -0.2452  0.9337
 2416SOL     OW18706   0.645   3.307  15.351  0.4739 -0.5655  0.4221
 2416SOL    HW118707   0.739   3.324  15.337  0.0781  0.7773 -0.6180
 2416SOL    HW218708   0.615   3.257  15.275 -1.1975  0.7675  0.2115
 2417SOL     OW18709   1.923   4.047   2.911 -0.2394  0.0645 -0.2928
 2417SOL    HW118710   1.933   4.020   3.002 -3.5337  0.2345  0.0931
 2417SOL    HW218711   1.994   4.005   2.863 -1.4433 -1.7962 -0.4527
 2418SOL     OW18712   1.013   1.355   7.518  0.6034 -0.2574  0.4300
 2418SOL    HW118713   1.016   1.382   7.427  1.9456 -4.4069 -0.7860
 2418SOL    HW218714   1.087   1.294   7.514 -0.3557 -1.3864 -0.1260
 2419SOL     OW18715   4.429   4.719  15.908  0.2655 -0.0332 -0.6539
 2419SOL    HW118716   4.455   0.077  15.866 -2.4209  0.4928 -1.2939
 2419SOL    HW218717   4.448   4.653  15.842 -2.2403  1.2826 -2.6827
 2420SOL     OW18718   1.545   1.490   3.141 -0.3382 -0.4314  0.1572
 2420SOL    HW118719   1.594   1.493   3.223  2.5083 -1.0921 -1.5293
 2420SOL    HW218720   1.477   1.558   3.144  0.3342  0.2337  0.1680
 2421SOL     OW18721   1.480   0.493   6.499 -0.0770 -0.5667  0.3784
 2421SOL    HW118722   1.395   0.503   6.542 -1.8895 -2.3897 -2.7982
 2421SOL    HW218723   1.483   0.398   6.495 -0.9938 -0.6126  1.0886
 2422SOL     OW18724   0.907   0.561   2.114 -0.0030  0.0215  0.5844
 2422SOL    HW118725   0.836   0.590   2.170 -0.0101 -1.3779  1.2884
 2422SOL    HW218726   0.952   0.489   2.159 -1.2872 -1.8731 -1.2000
 2423SOL     OW18727   2.911   4.034  10.032  0.5081 -0.5360  0.1150
 2423SOL    HW118728   2.856   4.087  10.090  1.5072  1.1395 -0.4863
 2423SOL    HW218729   3.003   4.042  10.058  0.7959 -0.4515 -0.9347
 2424SOL     OW18730   2.242   2.584   5.109 -0.2461  0.2708 -0.3319
 2424SOL    HW118731   2.166   2.532   5.135  0.1251 -0.2962 -0.3548
 2424SOL    HW218732   2.245   2.653   5.174 -2.7655 -0.5667  0.6793
 2425SOL     OW18733   2.404   4.529   0.329 -0.1610 -0.5745  0.1395
 2425SOL    HW118734   2.428   4.440   0.303  0.7080 -0.2178 -0.2624
 2425SOL    HW218735   2.430   4.576   0.250 -0.8122  1.3239  1.0710
 2426SOL     OW18736   0.884   2.366   7.506 -0.3947  0.0697  0.6097
 2426SOL    HW118737   0.799   2.321   7.502 -0.0696 -0.3584 -1.6007
 2426SOL    HW218738   0.886   2.404   7.419 -2.4557  1.6543  1.2650
 2427SOL     OW18739   2.878   3.642   8.482  0.1600 -0.4400 -0.1312
 2427SOL    HW118740   2.853   3.661   8.391 -0.9268  0.0682  0.2798
 2427SOL    HW218741   2.796   3.655   8.529 -0.6984 -2.5925 -1.0418
 2428SOL     OW18742   1.292   2.580   8.851 -0.2670  0.2889  0.1889
 2428SOL    HW118743   1.362   2.550   8.793 -0.4042 -1.2860  0.8423
 2428SOL    HW218744   1.305   2.529   8.931 -1.2676  1.9006  1.3920
 2429SOL     OW18745   1.842   3.314   2.749  0.3032  0.3713  0.3512
 2429SOL    HW118746   1.894   3.257   2.692  0.0539  1.0308 -0.5439
 2429SOL    HW218747   1.834   3.393   2.694 -0.7209 -1.2350 -1.8205
 2430SOL     OW18748   1.189   1.267   8.717 -0.0830  0.3942  0.6678
 2430SOL    HW118749   1.175   1.311   8.633 -1.4109  1.9364  1.7072
 2430SOL    HW218750   1.104   1.286   8.756 -0.6410  1.7407 -1.2089
 2431SOL     OW18751   4.242   1.950   7.118  0.4517 -0.3196  0.1585
 2431SOL    HW118752   4.234   1.950   7.214 -1.4974 -2.5198 -0.0074
 2431SOL    HW218753   4.320   2.006   7.118  0.1457  0.1529  3.4387
 2432SOL     OW18754   2.560   2.638  17.187  0.0552 -0.2461  0.4006
 2432SOL    HW118755   2.552   2.667  17.278 -3.2585 -0.9315  0.3266
 2432SOL    HW218756   2.616   2.562  17.201 -0.4467 -0.9852 -1.6336
 2433SOL     OW18757   1.614   4.367   9.810  0.0450  0.3992  0.0244
 2433SOL    HW118758   1.566   4.311   9.750  0.8717 -0.6455  0.3427
 2433SOL    HW218759   1.543   4.416   9.852 -2.2884 -1.8324 -1.3031
 2434SOL     OW18760   4.237   2.968   6.683  0.3362  0.6409 -0.0597
 2434SOL    HW118761   4.248   2.910   6.607  0.4435  0.1863  0.2993
 2434SOL    HW218762   4.298   2.921   6.741  0.3876  1.0382  0.2092
 2435SOL     OW18763   2.440   4.224   5.338  0.4572  0.3803 -0.3732
 2435SOL    HW118764   2.430   4.150   5.277 -0.5467  0.9153 -0.8422
 2435SOL    HW218765   2.433   4.187   5.426  0.1212 -0.0939 -0.5952
 2436SOL     OW18766   0.362   4.001   5.222  0.2355 -0.5007 -0.2523
 2436SOL    HW118767   0.367   3.910   5.251 -0.9625 -1.1188 -1.9696
 2436SOL    HW218768   0.428   4.017   5.155  3.2381 -2.9150  2.1222
 2437SOL     OW18769   0.754   0.631   5.185  0.3501  0.0287  0.2379
 2437SOL    HW118770   0.803   0.657   5.263  2.0640  0.9837 -1.1637
 2437SOL    HW218771   0.677   0.589   5.223 -0.8493  1.3169 -0.7643
 2438SOL     OW18772   3.417   3.782   3.247  0.0617 -0.0770  0.0374
 2438SOL    HW118773   3.439   3.716   3.313 -1.6898  1.2312  1.9281
 2438SOL    HW218774   3.341   3.829   3.281  1.6192  3.1984 -0.9553
 2439SOL     OW18775   2.035   3.737   3.192 -0.5185  0.1125  0.4000
 2439SOL    HW118776   1.971   3.692   3.137 -1.0941  0.0182  1.1365
 2439SOL    HW218777   2.025   3.826   3.160  2.2274  0.6953  1.1612
 2440SOL     OW18778   2.833   0.110   5.638  0.1054 -0.0675  0.1080
 2440SOL    HW118779   2.822   0.026   5.591 -1.7428 -0.9984  2.2073
 2440SOL    HW218780   2.784   0.100   5.719 -1.3440 -1.8769 -0.9858
 2441SOL     OW18781   0.328   3.265   5.564  0.0552  0.0540  0.5127
 2441SOL    HW118782   0.270   3.319   5.619 -1.6281  0.4424 -1.6287
 2441SOL    HW218783   0.414   3.308   5.563  0.2497 -0.3710 -1.7464
 2442SOL     OW18784   2.414   0.204   3.094 -0.0083 -0.0099 -0.0565
 2442SOL    HW118785   2.462   0.216   3.176  2.2483 -0.6564 -1.2729
 2442SOL    HW218786   2.479   0.186   3.025 -0.8925 -2.2010 -0.3092
 2443SOL     OW18787   0.475   2.899  15.675 -0.2308  0.9231 -0.3893
 2443SOL    HW118788   0.506   2.978  15.630  2.4886  0.7773  1.2276
 2443SOL    HW218789   0.537   2.833  15.644 -1.8207 -0.8379  0.1950
 2444SOL     OW18790   0.439   0.197   4.971  0.3042  0.3637 -1.0951
 2444SOL    HW118791   0.392   0.208   4.888 -0.4895 -3.1233 -1.1221
 2444SOL    HW218792   0.525   0.161   4.947 -0.2836 -1.2096 -0.8120
 2445SOL     OW18793   2.971   3.140   4.127  0.4283  0.0509  0.0680
 2445SOL    HW118794   3.006   3.229   4.130  1.9143 -0.4958 -1.3215
 2445SOL    HW218795   3.032   3.093   4.183 -0.2361 -0.5766  0.2653
 2446SOL     OW18796   0.674   1.731   8.103  0.1556 -0.3680 -0.6423
 2446SOL    HW118797   0.701   1.666   8.038  2.2013  1.0187 -1.1779
 2446SOL    HW218798   0.735   1.711   8.174  2.1648 -1.0233 -2.5530
 2447SOL     OW18799   4.181   2.236  15.926 -0.2146  0.4804  0.1337
 2447SOL    HW118800   4.096   2.280  15.923 -0.3480  0.3018  1.2961
 2447SOL    HW218801   4.209   2.295  15.856 -0.9529  0.1426 -0.4549
 2448SOL     OW18802   2.407   1.869   7.497 -0.5413 -0.6333  0.2039
 2448SOL    HW118803   2.399   1.961   7.476  3.2234  0.0213  1.5490
 2448SOL    HW218804   2.330   1.844   7.548  0.2897 -2.0817  0.7688
 2449SOL     OW18805   0.416   3.114   5.981 -0.1833  0.3291 -0.1930
 2449SOL    HW118806   0.410   3.029   6.025  0.8415  1.1954  1.6154
 2449SOL    HW218807   0.323   3.135   5.970 -0.4826 -0.0099  1.7266
 2450SOL     OW18808   2.977   0.655   3.746  0.1247  0.5510  0.2598
 2450SOL    HW118809   2.896   0.612   3.719 -1.5088  3.6893  0.0945
 2450SOL    HW218810   3.015   0.691   3.665 -0.3220  0.4482  0.0062
 2451SOL     OW18811   4.482   3.957   3.187 -0.4138 -0.2062  0.1938
 2451SOL    HW118812   4.482   3.865   3.160 -1.6329 -0.3038  0.5228
 2451SOL    HW218813   4.565   3.974   3.143 -1.7424  2.4672 -1.2357
 2452SOL     OW18814   1.320   0.694   8.565 -0.5620 -0.0607 -0.5118
 2452SOL    HW118815   1.322   0.699   8.470  1.5254  1.4595 -0.4046
 2452SOL    HW218816   1.328   0.787   8.586 -0.7145  0.6727 -3.7293
 2453SOL     OW18817   4.347   2.017   2.023  0.2415 -0.4616  0.0136
 2453SOL    HW118818   4.352   1.946   2.087 -0.0932  0.8585  1.4759
 2453SOL    HW218819   4.347   2.097   2.075  3.3036 -1.8188  2.1055
 2454SOL     OW18820   3.060   4.258   7.477  0.5045 -0.5056  0.2134
 2454SOL    HW118821   3.023   4.321   7.539 -1.6459 -0.1275 -1.4706
 2454SOL    HW218822   2.985   4.241   7.421  1.2446 -1.0374 -0.6178
 2455SOL     OW18823   0.659   3.181   0.553  0.6411  0.0731 -0.2298
 2455SOL    HW118824   0.592   3.140   0.498 -0.2028  0.1511  0.7454
 2455SOL    HW218825   0.609   3.216   0.627 -0.7230  0.9449 -1.5506
 2456SOL     OW18826   2.323   1.950   6.692  0.4853  0.0362  0.2796
 2456SOL    HW118827   2.318   2.031   6.641  0.9604 -0.8876 -1.2433
 2456SOL    HW218828   2.306   1.880   6.628 -1.0812  1.9868 -1.4416
 2457SOL     OW18829   2.019   3.944   7.180  0.5661  0.1907  0.5671
 2457SOL    HW118830   2.033   3.868   7.236  1.4307 -0.1355 -0.0806
 2457SOL    HW218831   1.969   3.911   7.105 -1.2714 -0.2034  1.9704
 2458SOL     OW18832   1.115   2.572   4.597 -0.2450 -0.7058 -0.2224
 2458SOL    HW118833   1.054   2.594   4.667  0.3099 -0.1794  0.0919
 2458SOL    HW218834   1.192   2.580   4.654  0.6420 -1.4132 -1.3191
 2459SOL     OW18835   3.229   1.725   2.232  0.1710 -0.5143  0.0441
 2459SOL    HW118836   3.220   1.631   2.250  0.3553 -0.2830  1.3691
 2459SOL    HW218837   3.135   1.746   2.235  0.4100  0.2274  2.5829
 2460SOL     OW18838   0.735   3.521   3.219  0.3513 -0.3046 -0.3865
 2460SOL    HW118839   0.747   3.438   3.173 -2.4856 -1.8695  1.7237
 2460SOL    HW218840   0.785   3.589   3.174  0.2598  2.1319  3.2000
 2461SOL     OW18841   3.428   4.454   4.358  0.4207  0.2844 -0.7342
 2461SOL    HW118842   3.349   4.442   4.305  0.6408  1.9026 -1.4231
 2461SOL    HW218843   3.470   4.526   4.310 -2.4784  2.2299 -0.3828
 2462SOL     OW18844   1.408   4.462   3.915 -0.2072  0.2249 -0.0419
 2462SOL    HW118845   1.414   4.370   3.889 -0.3338 -0.3929  2.1868
 2462SOL    HW218846   1.367   4.506   3.840  0.1486  0.7239  0.0538
 2463SOL     OW18847   0.839   2.031   2.220  0.5808  0.5194  0.3568
 2463SOL    HW118848   0.772   1.983   2.171  0.2327  0.0861  1.2543
 2463SOL    HW218849   0.862   2.103   2.161  0.2587  0.6555  0.3977
 2464SOL     OW18850   1.780   1.731   6.177  0.6500  0.3287  0.0458
 2464SOL    HW118851   1.746   1.756   6.090 -3.0819  0.4287  1.5541
 2464SOL    HW218852   1.695   1.713   6.216  2.0621 -0.3729  2.7411
 2465SOL     OW18853   4.035   1.837   8.013 -0.2290 -0.3655  0.0771
 2465SOL    HW118854   4.025   1.872   8.102 -1.3647 -1.4602  0.3825
 2465SOL    HW218855   4.094   1.767   8.039  2.3657  1.9691  0.5441
 2466SOL     OW18856   0.846   0.761   7.173  0.3458 -0.2189  0.1324
 2466SOL    HW118857   0.766   0.769   7.121  0.0391 -1.3994  0.4203
 2466SOL    HW218858   0.823   0.802   7.257  0.7810 -3.1307  1.6509
 2467SOL     OW18859   3.671   2.682   4.519  0.3834 -0.0924  0.3620
 2467SOL    HW118860   3.622   2.727   4.588  0.3776  1.0452 -0.3783
 2467SOL    HW218861   3.738   2.749   4.505  1.7521 -1.8218 -1.2365
 2468SOL     OW18862   0.116   1.612  11.174  0.0075  0.3640  0.4242
 2468SOL    HW118863   0.113   1.577  11.263  1.5135 -1.5108 -0.2534
 2468SOL    HW218864   0.127   1.707  11.185 -0.8374  0.7891 -2.4489
 2469SOL     OW18865   1.285   4.182   4.625 -0.4933  0.1168 -0.2076
 2469SOL    HW118866   1.374   4.216   4.623 -0.5666  0.2647 -0.9425
 2469SOL    HW218867   1.287   4.109   4.687 -0.6623 -1.6470 -2.2774
 2470SOL     OW18868   2.099   1.699   6.527  0.3924 -0.2726 -0.5073
 2470SOL    HW118869   2.145   1.708   6.443 -0.9181  0.8458 -1.1166
 2470SOL    HW218870   2.007   1.712   6.503  0.4976 -0.3231 -0.9439
 2471SOL     OW18871   0.748   1.161  14.574  0.2681  0.1781  0.0770
 2471SOL    HW118872   0.811   1.089  14.579  1.1405  0.9848  0.6457
 2471SOL    HW218873   0.668   1.116  14.604 -0.1503  0.4067 -0.7111
 2472SOL     OW18874   2.766   1.256   2.450 -0.0779  0.2671 -0.2623
 2472SOL    HW118875   2.831   1.211   2.396 -0.4600  0.8785 -1.2141
 2472SOL    HW218876   2.809   1.260   2.536 -1.2963 -1.8254  0.4531
 2473SOL     OW18877   3.970   1.732   2.132  0.1296  0.4033 -0.5053
 2473SOL    HW118878   3.878   1.725   2.159 -0.3363 -0.9911 -2.4516
 2473SOL    HW218879   3.972   1.680   2.052  3.5749 -0.0871 -0.1030
 2474SOL     OW18880   1.418   3.572   7.656 -0.5329 -0.3447 -0.0058
 2474SOL    HW118881   1.508   3.582   7.624 -0.1088  4.1648  2.6419
 2474SOL    HW218882   1.397   3.656   7.696  1.0951  1.1311 -2.2596
 2475SOL     OW18883   2.716   3.471   4.148  0.3442 -0.5650  0.7631
 2475SOL    HW118884   2.711   3.386   4.192  2.2042 -0.9895  0.1238
 2475SOL    HW218885   2.802   3.501   4.178  0.4310  0.2662 -0.3157
 2476SOL     OW18886   0.010   0.283   4.861  0.1310  0.2111 -0.4245
 2476SOL    HW118887   4.645   0.260   4.830  0.7200 -1.0430 -1.1816
 2476SOL    HW218888   4.714   0.368   4.899  0.0774 -0.3470  0.7956
 2477SOL     OW18889   2.597   0.900   7.056  0.6694 -0.4053 -0.2022
 2477SOL    HW118890   2.519   0.904   7.111  2.2891  1.8852  1.8918
 2477SOL    HW218891   2.642   0.982   7.077  0.1901  0.1032 -1.1677
 2478SOL     OW18892   3.530   0.788   7.025  0.6926 -0.2285 -0.4259
 2478SOL    HW118893   3.560   0.814   6.939  0.1780 -1.0483 -0.8515
 2478SOL    HW218894   3.453   0.739   6.997  0.2998  0.7694 -1.0841
 2479SOL     OW18895   0.922   2.776  12.693  0.4780 -0.2010  0.0020
 2479SOL    HW118896   0.834   2.747  12.716  0.3567  0.0496 -0.1495
 2479SOL    HW218897   0.938   2.849  12.753 -1.3938  0.9626 -0.9400
 2480SOL     OW18898   4.389   2.824  15.596  0.3317  0.5674 -0.3309
 2480SOL    HW118899   4.483   2.811  15.585  0.0399 -1.6736 -0.0655
 2480SOL    HW218900   4.345   2.744  15.567  0.4185  0.5787 -0.4935
 2481SOL     OW18901   2.455   0.242   4.090  0.5473  0.1411 -0.0773
 2481SOL    HW118902   2.484   0.253   3.999 -1.1204 -3.1614 -1.0210
 2481SOL    HW218903   2.412   0.157   4.081 -0.1370  0.6107 -1.2299
 2482SOL     OW18904   3.123   0.961   7.933  0.4018  0.2238  0.3142
 2482SOL    HW118905   3.058   1.032   7.936  0.1480  0.1027 -1.8919
 2482SOL    HW218906   3.186   0.986   8.000  0.3807  0.7270  0.1467
 2483SOL     OW18907   4.218   2.086   4.413 -0.3272 -0.0358  0.0709
 2483SOL    HW118908   4.148   2.090   4.348  0.4541 -1.6268 -0.8797
 2483SOL    HW218909   4.198   1.996   4.440 -0.3861 -0.3540 -1.0547
 2484SOL     OW18910   0.595   0.380   6.543  0.0876 -0.4330 -0.3553
 2484SOL    HW118911   0.641   0.462   6.563  0.1619 -0.1369 -1.7517
 2484SOL    HW218912   0.637   0.321   6.606 -2.7387 -0.3245  1.5883
 2485SOL     OW18913   3.149   2.351  15.685 -0.7483 -0.0243  0.2628
 2485SOL    HW118914   3.188   2.309  15.761  1.2583  2.2995  0.5458
 2485SOL    HW218915   3.201   2.432  15.680  0.3930 -0.6319  2.2097
 2486SOL     OW18916   4.027   2.240   7.993  0.1179  0.1215 -0.1082
 2486SOL    HW118917   4.030   2.335   7.985  1.4104  0.1722  1.0213
 2486SOL    HW218918   3.978   2.231   8.074  2.1014  3.2683  1.4200
 2487SOL     OW18919   0.541   3.171  17.121 -0.3234  0.3429  0.7488
 2487SOL    HW118920   0.480   3.155  17.049  2.8782  0.6320 -2.0020
 2487SOL    HW218921   0.544   3.087  17.168 -0.0924 -0.5558 -0.8683
 2488SOL     OW18922   2.955   1.665   2.975 -0.2776 -0.1553 -0.4549
 2488SOL    HW118923   2.899   1.707   2.910  1.4672  2.1192 -0.4746
 2488SOL    HW218924   3.024   1.731   2.972 -1.2869  0.8542 -1.1226
 2489SOL     OW18925   1.340   0.754  12.256  0.0350  0.1290  0.3118
 2489SOL    HW118926   1.352   0.659  12.259  2.2328  0.4041  0.8132
 2489SOL    HW218927   1.374   0.773  12.343  2.8052 -2.0424 -0.2588
 2490SOL     OW18928   0.725   2.973   9.763  0.7337 -0.1956  0.2702
 2490SOL    HW118929   0.659   2.907   9.740  0.5111  0.1101  0.0228
 2490SOL    HW218930   0.758   2.932   9.843  0.6978  0.7810  0.7897
 2491SOL     OW18931   0.810   1.368   4.351  0.2287 -0.7107  0.0808
 2491SOL    HW118932   0.790   1.369   4.444  0.4208 -0.3859  0.1181
 2491SOL    HW218933   0.859   1.450   4.344  2.1891 -1.9909 -1.5475
 2492SOL     OW18934   2.050   1.007  15.778 -0.0804  0.4639 -0.0654
 2492SOL    HW118935   2.069   0.918  15.806 -1.4927  0.0773 -0.3226
 2492SOL    HW218936   1.986   0.988  15.709  0.0004 -1.1501  0.3257
 2493SOL     OW18937   0.906   4.160   9.879  0.5788 -0.1245 -0.5685
 2493SOL    HW118938   0.994   4.125   9.865 -0.6285 -2.1195 -3.1028
 2493SOL    HW218939   0.891   4.214   9.802 -1.5423 -0.8754 -0.6838
 2494SOL     OW18940   2.344   4.338  11.505  0.5501 -0.6531  0.1181
 2494SOL    HW118941   2.439   4.330  11.506  0.6448  0.5475  1.1502
 2494SOL    HW218942   2.320   4.337  11.413 -1.7356 -2.2606  0.7067
 2495SOL     OW18943   4.347   0.968   6.134  0.2035  0.0896  0.5006
 2495SOL    HW118944   4.389   0.950   6.050  0.0191 -2.1030  0.8808
 2495SOL    HW218945   4.269   0.912   6.132  0.2863 -0.0342  0.6474
 2496SOL     OW18946   3.041   0.071   0.750 -0.3308  0.1303 -0.3075
 2496SOL    HW118947   3.013   0.072   0.842 -1.2383  0.7663 -0.5897
 2496SOL    HW218948   2.971   0.112   0.698 -0.0978  0.5606 -0.2804
 2497SOL     OW18949   2.132   1.916  15.132  0.5357  0.1538 -0.3692
 2497SOL    HW118950   2.055   1.972  15.137  0.9964  0.8687 -1.2504
 2497SOL    HW218951   2.111   1.857  15.060 -2.2947 -1.6136  1.9395
 2498SOL     OW18952   1.830   2.396   6.075  0.2523  0.3183 -0.5592
 2498SOL    HW118953   1.762   2.419   6.139  1.2910  0.5403  0.4713
 2498SOL    HW218954   1.837   2.304   6.098  0.5731  0.1218 -1.4343
 2499SOL     OW18955   2.745   2.024   6.959  0.3548 -0.0634  0.3345
 2499SOL    HW118956   2.745   1.954   7.024  1.3032  0.3926  0.8314
 2499SOL    HW218957   2.706   2.092   7.015  0.0001  0.6893 -0.8216
 2500SOL     OW18958   3.881   2.137   4.546 -0.3375  0.0341  0.3337
 2500SOL    HW118959   3.807   2.144   4.486 -0.8184 -3.2186  0.5610
 2500SOL    HW218960   3.950   2.088   4.501  0.9811  0.6164  1.6931
 2501SOL     OW18961   3.156   1.725   9.646  0.0848 -0.0839  0.0547
 2501SOL    HW118962   3.111   1.777   9.712  0.6156 -1.1438  1.2359
 2501SOL    HW218963   3.089   1.729   9.577 -1.7629 -0.6767  1.8283
 2502SOL     OW18964   3.413   2.537  14.859  0.0118  0.2062 -0.3821
 2502SOL    HW118965   3.320   2.541  14.881  0.6306 -1.8386  2.6271
 2502SOL    HW218966   3.430   2.604  14.793  2.2047  0.6447  0.6181
 2503SOL     OW18967   2.598   3.368   9.202  0.1031  0.3423  0.3566
 2503SOL    HW118968   2.663   3.334   9.263  1.0543  0.7280 -0.4323
 2503SOL    HW218969   2.648   3.369   9.120 -0.3089  0.1474  0.1011
 2504SOL     OW18970   3.433   3.170   1.851 -0.0452  0.3974  0.3882
 2504SOL    HW118971   3.353   3.134   1.889  0.9047 -0.3188  1.7199
 2504SOL    HW218972   3.431   3.146   1.758  0.5166 -0.9311  0.7122
 2505SOL     OW18973   3.863   1.176  11.799 -0.1997 -0.0105  0.2422
 2505SOL    HW118974   3.936   1.227  11.764 -0.3115 -0.2016 -0.2734
 2505SOL    HW218975   3.891   1.086  11.780 -0.6890 -0.1056 -0.0383
 2506SOL     OW18976   3.212   2.118   7.423 -0.4574  0.4803 -0.0401
 2506SOL    HW118977   3.146   2.108   7.491  1.1786 -1.6142  1.2301
 2506SOL    HW218978   3.266   2.190   7.456 -0.3174 -0.8013  2.4591
 2507SOL     OW18979   3.794   0.035   5.494  0.0692  0.1733 -0.0379
 2507SOL    HW118980   3.741   4.680   5.507 -0.1965  0.0630 -1.7146
 2507SOL    HW218981   3.748   0.091   5.431 -1.4056 -0.2620  0.6615
 2508SOL     OW18982   3.316   4.016  14.852  0.2876  0.2724 -0.1632
 2508SOL    HW118983   3.294   4.016  14.759 -0.5872  1.2735  0.0397
 2508SOL    HW218984   3.389   4.077  14.844 -0.7297  1.2991 -1.8531
 2509SOL     OW18985   2.983   3.900   2.558 -0.5847  0.1763  0.4849
 2509SOL    HW118986   3.026   3.921   2.641 -0.5378 -0.0271  0.5132
 2509SOL    HW218987   2.917   3.842   2.595 -0.4020 -0.2998  0.0759
 2510SOL     OW18988   1.668   3.957   5.702 -0.0338  0.2359 -0.1966
 2510SOL    HW118989   1.603   3.973   5.633 -0.3601 -4.1172 -0.8944
 2510SOL    HW218990   1.735   3.913   5.648  2.9272  3.3416  0.9739
 2511SOL     OW18991   2.977   4.028  16.087  0.1426  0.2123  0.4929
 2511SOL    HW118992   2.976   4.109  16.137  1.0299  0.9211 -0.6538
 2511SOL    HW218993   2.989   4.056  15.996 -2.7140  0.8967  0.3403
 2512SOL     OW18994   0.447   2.951   9.104  0.2004  0.1120 -0.5783
 2512SOL    HW118995   0.393   2.988   9.034  0.6218  0.3396 -0.7830
 2512SOL    HW218996   0.479   3.031   9.147 -0.3458 -0.7764  1.4675
 2513SOL     OW18997   2.792   2.847   0.897 -0.0748 -0.2208 -0.5324
 2513SOL    HW118998   2.708   2.892   0.898  0.1561  0.2017  0.2927
 2513SOL    HW218999   2.769   2.779   0.834 -1.9410 -0.5529  0.4937
 2514SOL     OW19000   0.488   1.230   9.900 -1.1722 -0.1737  0.0607
 2514SOL    HW119001   0.396   1.239   9.874 -1.6712 -2.6220  0.9153
 2514SOL    HW219002   0.514   1.138   9.891 -1.7551 -0.2057 -1.2956
 2515SOL     OW19003   3.794   0.357   4.365  0.0566  0.1428 -0.2278
 2515SOL    HW119004   3.820   0.271   4.396  1.2431  0.1203 -1.2773
 2515SOL    HW219005   3.719   0.335   4.311  0.1426 -0.0088 -0.2835
 2516SOL     OW19006   1.979   0.774   5.405  0.1419  0.2366 -0.2563
 2516SOL    HW119007   2.001   0.696   5.354 -4.7511 -0.6095 -1.0416
 2516SOL    HW219008   2.050   0.837   5.391 -0.3876  0.8919  0.0038
 2517SOL     OW19009   0.617   0.082   8.172 -0.4594  0.0955 -0.3401
 2517SOL    HW119010   0.677   0.012   8.200 -0.1943 -0.1380 -1.4729
 2517SOL    HW219011   0.528   0.052   8.191  0.5690 -2.1423  0.9541
 2518SOL     OW19012   0.668   2.691  10.026 -0.2473  0.3468 -0.6039
 2518SOL    HW119013   0.742   2.749  10.013  0.6730 -0.3137  1.7138
 2518SOL    HW219014   0.640   2.717  10.114 -1.1140 -0.7005 -0.5583
 2519SOL     OW19015   3.288   0.006   7.805 -0.0005 -0.1233 -0.2273
 2519SOL    HW119016   3.356   0.058   7.848  0.3283 -2.1289  1.6786
 2519SOL    HW219017   3.294   4.666   7.876 -2.1112  0.6097  0.6065
 2520SOL     OW19018   0.017   4.477   7.027 -0.2043  0.2341 -0.1739
 2520SOL    HW119019   0.005   4.385   7.050  1.3486 -0.1117 -0.7392
 2520SOL    HW219020   0.112   4.469   7.035 -0.4957 -1.6023  1.2033
 2521SOL     OW19021   4.603   1.920  10.530 -0.1234 -0.4271 -0.3924
 2521SOL    HW119022   4.681   1.963  10.565 -0.1433 -1.1736  0.5771
 2521SOL    HW219023   4.570   1.966  10.452 -1.7633  1.0874  1.1987
 2522SOL     OW19024   3.389   3.630   4.984 -0.4766  0.2939 -0.4371
 2522SOL    HW119025   3.387   3.600   5.075  1.7997 -2.9456 -1.4650
 2522SOL    HW219026   3.299   3.632   4.953 -0.3589 -2.5786 -1.0244
 2523SOL     OW19027   1.279   3.660  10.874  0.3261 -0.4626 -0.2778
 2523SOL    HW119028   1.210   3.723  10.892 -0.4514 -1.4447  0.1492
 2523SOL    HW219029   1.291   3.669  10.779 -1.4273 -2.4388 -0.6828
 2524SOL     OW19030   3.752   3.150   6.875 -0.1380 -0.2145 -0.1216
 2524SOL    HW119031   3.828   3.110   6.834  2.4803  0.9324  3.6040
 2524SOL    HW219032   3.780   3.239   6.896 -0.9964  0.2464 -0.9081
 2525SOL     OW19033   4.633   1.980  15.682  0.5109  0.6608  0.4217
 2525SOL    HW119034   4.630   1.888  15.709  1.0128  0.4003 -0.3948
 2525SOL    HW219035   4.712   1.956  15.633  0.9388  2.3932  0.2788
 2526SOL     OW19036   4.605   2.989   9.089  0.4718  0.9402 -0.0753
 2526SOL    HW119037   4.567   2.928   9.152  1.3910  1.5495  1.0612
 2526SOL    HW219038   4.574   3.076   9.114 -2.1598 -0.1044  0.3056
 2527SOL     OW19039   0.829   0.012  10.183 -0.1506  0.1567  0.2040
 2527SOL    HW119040   0.828   4.665  10.119 -2.1592  1.4069 -1.1276
 2527SOL    HW219041   0.743   0.002  10.224 -0.0270  1.8532  0.8754
 2528SOL     OW19042   3.868   2.311   5.436  0.1768 -0.1929 -0.0703
 2528SOL    HW119043   3.804   2.312   5.508  0.4868 -0.9594  0.2116
 2528SOL    HW219044   3.941   2.370   5.455 -1.1598  1.7744 -1.0219
 2529SOL     OW19045   3.228   1.493   9.374  0.0014  0.5617  0.0895
 2529SOL    HW119046   3.273   1.414   9.403 -2.0914 -1.2164 -1.4815
 2529SOL    HW219047   3.138   1.463   9.361  0.4409 -0.1127 -1.3967
 2530SOL     OW19048   2.060   3.103   4.946  0.2152  0.0857  0.0259
 2530SOL    HW119049   2.081   3.011   4.965 -1.0210 -0.6584 -2.1500
 2530SOL    HW219050   2.099   3.141   5.025  0.6620 -0.2372 -0.0391
 2531SOL     OW19051   4.120   2.530   3.145 -0.4568 -0.5422 -0.1156
 2531SOL    HW119052   4.065   2.458   3.173 -0.4849 -0.9889 -1.3253
 2531SOL    HW219053   4.058   2.587   3.099  0.2144 -1.9988 -2.8061
 2532SOL     OW19054   3.216   2.489   2.045 -0.2621 -0.3117  0.3239
 2532SOL    HW119055   3.183   2.403   2.019 -0.1068 -0.1507 -0.4308
 2532SOL    HW219056   3.224   2.536   1.962  3.8568  1.0652  1.4981
 2533SOL     OW19057   0.855   0.851   1.328  0.0289 -0.2653 -0.2901
 2533SOL    HW119058   0.827   0.762   1.308  1.6575 -0.1876 -2.9885
 2533SOL    HW219059   0.935   0.830   1.377  1.3112  2.2193 -1.3098
 2534SOL     OW19060   4.012   3.250  11.670 -0.3598 -0.0467 -0.6641
 2534SOL    HW119061   4.025   3.177  11.611  0.6495 -0.8284  0.5116
 2534SOL    HW219062   3.916   3.255  11.668 -0.4200 -1.0480 -0.2054
 2535SOL     OW19063   0.658   0.064   5.682 -0.0353 -0.7192  0.6073
 2535SOL    HW119064   0.646   4.693   5.667  0.3285 -0.9722  1.8484
 2535SOL    HW219065   0.691   0.087   5.596 -2.5259  0.0558 -0.1482
 2536SOL     OW19066   2.739   0.560  13.154 -0.5836  0.6207  0.1449
 2536SOL    HW119067   2.793   0.522  13.223 -0.7335  1.0365  0.4837
 2536SOL    HW219068   2.757   0.653  13.169 -2.0761  0.7622  1.0938
 2537SOL     OW19069   0.328   0.126   8.969 -0.4474  0.3880  0.1918
 2537SOL    HW119070   0.395   0.058   8.964 -1.7546 -0.9411  0.8605
 2537SOL    HW219071   0.361   0.164   9.051  1.7098 -1.3802  0.1368
 2538SOL     OW19072   2.260   3.841   8.559 -0.2173  0.3237 -0.2697
 2538SOL    HW119073   2.221   3.928   8.557 -3.0078 -0.9423 -1.9614
 2538SOL    HW219074   2.299   3.852   8.646 -2.5437 -0.6586  0.9015
 2539SOL     OW19075   1.014   1.869   2.760  0.4534  0.0517 -0.3753
 2539SOL    HW119076   1.017   1.774   2.746 -0.1342  0.3087 -2.2668
 2539SOL    HW219077   1.104   1.901   2.751  1.0078 -1.3381  0.3215
 2540SOL     OW19078   0.173   2.220  13.031  0.2430 -0.1254  0.1557
 2540SOL    HW119079   0.144   2.180  13.113 -0.8102 -0.0115 -0.1565
 2540SOL    HW219080   0.232   2.286  13.067  1.9814 -1.4097 -0.3500
 2541SOL     OW19081   2.583   0.452  10.045 -0.3518  1.0185  0.4166
 2541SOL    HW119082   2.522   0.380  10.029 -0.6004  1.1706  0.6803
 2541SOL    HW219083   2.659   0.436   9.988  0.3520 -0.0237  1.6478
 2542SOL     OW19084   4.153   4.408   4.972  0.1234 -0.2817 -0.1601
 2542SOL    HW119085   4.154   4.391   4.878  0.3977  0.4842 -0.2991
 2542SOL    HW219086   4.080   4.352   4.996  0.8416 -1.6338 -1.1148
 2543SOL     OW19087   0.561   1.924   6.861  0.3144 -0.2938  0.0263
 2543SOL    HW119088   0.567   1.847   6.805  1.4801 -1.5044  1.8019
 2543SOL    HW219089   0.527   1.879   6.938 -1.5627  1.7537  0.3831
 2544SOL     OW19090   2.860   1.821   1.982 -0.1193 -0.3664 -0.3753
 2544SOL    HW119091   2.824   1.887   1.922  0.6909 -0.1975 -0.6718
 2544SOL    HW219092   2.818   1.738   1.959 -0.6633 -0.6268  1.5718
 2545SOL     OW19093   2.794   3.403   6.913  0.7831 -0.0387  0.1382
 2545SOL    HW119094   2.842   3.346   6.853 -0.3345 -0.2445 -0.5478
 2545SOL    HW219095   2.831   3.372   6.995  2.2086 -0.0661 -0.5157
 2546SOL     OW19096   0.470   0.423  16.882 -0.2238 -1.1239  0.1314
 2546SOL    HW119097   0.408   0.401  16.813  0.1820 -0.2304 -0.5276
 2546SOL    HW219098   0.552   0.402  16.837 -0.2967 -0.6910 -0.2000
 2547SOL     OW19099   4.362   4.543   4.016  0.3116  0.2847  0.2396
 2547SOL    HW119100   4.327   4.617   3.967  2.3538 -0.6947 -2.7060
 2547SOL    HW219101   4.327   4.470   3.965  5.3767 -0.9955 -1.4336
 2548SOL     OW19102   3.480   2.339  17.372 -0.4007  0.2489 -0.1482
 2548SOL    HW119103   3.389   2.343  17.399 -0.7430  2.5535 -1.6788
 2548SOL    HW219104   3.477   2.292  17.288  0.5906 -1.9695  1.0384
 2549SOL     OW19105   1.144   0.586  16.429  0.1392  0.0145  0.1630
 2549SOL    HW119106   1.069   0.640  16.454  1.3325  1.6142  0.2108
 2549SOL    HW219107   1.137   0.521  16.499 -0.0269  1.1748  1.2081
 2550SOL     OW19108   4.166   4.231  12.314 -0.1991 -0.0684  0.1935
 2550SOL    HW119109   4.090   4.288  12.326  0.0406  0.6102 -1.4944
 2550SOL    HW219110   4.212   4.286  12.250  0.3016 -1.5232 -0.7033
 2551SOL     OW19111   1.461   1.839   5.352 -0.0057 -0.2751  0.0797
 2551SOL    HW119112   1.497   1.751   5.343 -0.0122 -0.1784 -0.9603
 2551SOL    HW219113   1.489   1.874   5.437 -0.8210 -2.6748  1.3197
 2552SOL     OW19114   2.974   0.560   5.724  0.0834  0.3300 -0.2867
 2552SOL    HW119115   3.036   0.505   5.773 -0.9508 -1.3346 -0.8665
 2552SOL    HW219116   2.905   0.570   5.789 -0.0180 -0.7734 -0.2250
 2553SOL     OW19117   0.309   2.621   1.399 -0.5193  0.4401 -0.1717
 2553SOL    HW119118   0.236   2.657   1.449 -0.2396  2.7489 -1.4367
 2553SOL    HW219119   0.340   2.702   1.359  0.7778  0.5065  0.9761
 2554SOL     OW19120   3.440   0.891   8.161  0.1236  0.9000 -0.2826
 2554SOL    HW119121   3.362   0.836   8.171 -0.1212  1.3158  0.0863
 2554SOL    HW219122   3.398   0.974   8.140  0.5494  1.0787 -0.4126
 2555SOL     OW19123   0.404   2.935   6.884  0.1309 -0.2066 -0.3493
 2555SOL    HW119124   0.493   2.959   6.908  0.6556 -0.2585 -2.2893
 2555SOL    HW219125   0.411   2.954   6.791  2.4241 -0.3727 -0.2012
 2556SOL     OW19126   4.019   1.227   8.617  0.1666 -0.2414 -0.1021
 2556SOL    HW119127   4.091   1.167   8.598  0.8010 -0.3575  2.6802
 2556SOL    HW219128   3.944   1.182   8.579 -0.8764  1.2992  0.0989
 2557SOL     OW19129   3.721   0.368   7.137  0.3511  0.0155 -0.8525
 2557SOL    HW119130   3.776   0.309   7.188  0.6417  1.3655  0.3932
 2557SOL    HW219131   3.692   0.426   7.207  2.9984  0.4528 -0.1457
 2558SOL     OW19132   4.629   0.481   5.005  0.0089  0.0908 -0.0593
 2558SOL    HW119133   4.604   0.556   5.058  1.4096  0.7750 -0.3809
 2558SOL    HW219134   4.654   0.423   5.076  2.5653 -0.1796 -1.1960
 2559SOL     OW19135   3.508   2.464   7.177  0.2404  0.0652 -0.0885
 2559SOL    HW119136   3.482   2.374   7.195  1.3928  0.1229  1.8243
 2559SOL    HW219137   3.602   2.452   7.165  0.8262  2.9922  1.5123
 2560SOL     OW19138   4.139   2.804   2.892 -0.0491  0.1377  0.3827
 2560SOL    HW119139   4.056   2.756   2.889 -1.3057  2.2986  0.0615
 2560SOL    HW219140   4.111   2.896   2.892 -0.3425  0.0452 -0.0922
 2561SOL     OW19141   4.637   2.644   3.755  0.5627  0.5272 -0.2415
 2561SOL    HW119142   4.641   2.738   3.738  0.6850  0.7902  1.2204
 2561SOL    HW219143   4.639   2.612   3.665 -0.9675 -0.0060 -0.0754
 2562SOL     OW19144   3.145   1.929   3.739 -0.2381  0.0313  0.1798
 2562SOL    HW119145   3.228   1.927   3.691 -0.6884 -0.6942 -0.5565
 2562SOL    HW219146   3.134   1.836   3.758 -0.6915  0.3620  1.5835
 2563SOL     OW19147   2.773   0.697   5.871  0.5970  0.3048 -0.0909
 2563SOL    HW119148   2.686   0.726   5.900 -0.4380 -2.0640 -0.8379
 2563SOL    HW219149   2.819   0.671   5.951 -0.5604 -0.5577  0.3061
 2564SOL     OW19150   3.576   3.548  13.415 -0.6670 -0.2757 -0.1675
 2564SOL    HW119151   3.619   3.467  13.440  1.7665  1.1984  0.4412
 2564SOL    HW219152   3.539   3.583  13.496 -0.7524  0.0348 -0.3363
 2565SOL     OW19153   2.058   0.527   9.417 -0.7032 -0.4035  0.4560
 2565SOL    HW119154   1.984   0.469   9.433  0.2521 -2.5689 -2.9195
 2565SOL    HW219155   2.082   0.566   9.501 -0.4188  1.2889 -0.4180
 2566SOL     OW19156   0.730   0.026   2.762  0.2656  0.3391 -0.3626
 2566SOL    HW119157   0.659   4.685   2.762 -0.0942  0.7052  2.6093
 2566SOL    HW219158   0.697   0.076   2.837 -0.9123  2.8642 -2.5966
 2567SOL     OW19159   1.144   3.293   2.064  0.8690  0.2079  0.1027
 2567SOL    HW119160   1.116   3.372   2.109  0.8604  0.5447 -0.4960
 2567SOL    HW219161   1.086   3.230   2.109  2.7778 -1.0798  0.7587
 2568SOL     OW19162   1.380   2.111   3.636 -0.0193 -0.5364  0.4399
 2568SOL    HW119163   1.288   2.086   3.641 -0.0554 -0.3207  0.8898
 2568SOL    HW219164   1.401   2.045   3.571  1.4663  0.7793 -0.4309
 2569SOL     OW19165   2.645   4.124   4.701 -0.0571  0.2624  0.1145
 2569SOL    HW119166   2.720   4.143   4.643  0.9257  1.8922  1.9436
 2569SOL    HW219167   2.681   4.079   4.777  0.9579 -0.8604 -1.0136
 2570SOL     OW19168   2.731   1.944   6.685  0.0904  0.1597  0.0636
 2570SOL    HW119169   2.713   1.850   6.697 -0.4716  0.5158  1.9637
 2570SOL    HW219170   2.718   1.984   6.771  1.5607 -0.3830  0.5452
 2571SOL     OW19171   2.464   2.057   1.564  0.0961 -0.2605 -0.1865
 2571SOL    HW119172   2.383   2.098   1.596  1.0416  1.5669 -0.1394
 2571SOL    HW219173   2.421   1.977   1.535 -1.5438  0.1438  1.0551
 2572SOL     OW19174   2.763   4.055   2.945 -0.0490  1.2794 -0.1988
 2572SOL    HW119175   2.759   4.073   2.852 -0.3062  1.7082 -0.1020
 2572SOL    HW219176   2.690   3.994   2.954  1.6580 -0.7991 -0.3613
 2573SOL     OW19177   0.492   4.280   2.717  0.0435  0.1794 -0.2975
 2573SOL    HW119178   0.550   4.273   2.793 -1.0274 -0.5622  0.4587
 2573SOL    HW219179   0.521   4.205   2.666 -0.6939  0.1128 -0.6133
 2574SOL     OW19180   3.128   3.544   1.079 -0.1509 -0.6960  0.6698
 2574SOL    HW119181   3.082   3.582   1.155 -0.4988  3.2180 -1.4986
 2574SOL    HW219182   3.157   3.460   1.116 -0.0518 -1.3868 -1.0121
 2575SOL     OW19183   3.518   3.680   6.337 -0.1445 -0.2468  0.7186
 2575SOL    HW119184   3.423   3.672   6.349 -0.0666 -2.3622  0.0347
 2575SOL    HW219185   3.524   3.774   6.326  0.2962 -0.2816  0.6775
 2576SOL     OW19186   4.620   4.486   7.373  0.3262 -0.4517  0.4726
 2576SOL    HW119187   4.672   4.566   7.383 -1.5273  0.9080 -0.5958
 2576SOL    HW219188   4.686   4.424   7.343 -0.0992 -0.0084 -1.4429
 2577SOL     OW19189   1.553   1.670   4.931 -0.3931 -0.1696 -0.8578
 2577SOL    HW119190   1.546   1.602   4.863  2.3546  0.8505 -2.1819
 2577SOL    HW219191   1.628   1.722   4.904  0.8627 -0.9558  1.1724
 2578SOL     OW19192   3.436   1.941   8.561  0.3463 -0.4861  0.0774
 2578SOL    HW119193   3.416   1.947   8.654 -2.0170 -2.7275 -0.2780
 2578SOL    HW219194   3.525   1.975   8.562  0.3197 -0.4100 -0.0825
 2579SOL     OW19195   0.001   0.267   3.061  0.1304  0.1129  0.2569
 2579SOL    HW119196   4.673   0.347   3.047  0.0789  0.3895  1.9274
 2579SOL    HW219197   0.003   0.231   2.973 -0.3694 -2.5099  1.3103
 2580SOL     OW19198   4.594   1.083  13.902  0.4544 -0.0115 -0.3330
 2580SOL    HW119199   4.602   1.160  13.958 -1.7135 -1.1309  1.5178
 2580SOL    HW219200   4.560   1.112  13.818  0.3291 -1.3742 -0.7572
 2581SOL     OW19201   2.124   3.560   5.819 -0.1911  0.0299 -0.2720
 2581SOL    HW119202   2.143   3.651   5.797  0.0173  0.0843  0.1261
 2581SOL    HW219203   2.206   3.526   5.856  0.5356  1.3735 -0.6477
 2582SOL     OW19204   3.535   2.705  10.684 -0.3893 -0.5607 -0.3029
 2582SOL    HW119205   3.471   2.654  10.733  0.3295 -2.6351 -1.5282
 2582SOL    HW219206   3.595   2.727  10.756 -0.5362  2.7243 -1.1829
 2583SOL     OW19207   2.458   1.440  14.024 -0.1453 -0.0173 -0.0096
 2583SOL    HW119208   2.498   1.461  14.108 -0.2062  1.1586 -0.2872
 2583SOL    HW219209   2.447   1.345  14.027 -0.4551  0.0110 -0.2994
 2584SOL     OW19210   4.193   4.419   0.917  0.8349 -0.4495 -0.6321
 2584SOL    HW119211   4.122   4.457   0.866  0.3700 -0.0585  0.2951
 2584SOL    HW219212   4.165   4.341   0.966 -0.9945  0.4874 -0.1791
 2585SOL     OW19213   0.849   3.519  13.146  0.6247 -0.6097  0.6226
 2585SOL    HW119214   0.848   3.493  13.238  0.3554 -1.9338  0.2393
 2585SOL    HW219215   0.847   3.613  13.160 -1.2702 -0.1366 -2.6124
 2586SOL     OW19216   2.142   3.425  10.642  0.0211 -0.3911 -0.1784
 2586SOL    HW119217   2.110   3.348  10.688  1.2371 -1.4175 -1.0685
 2586SOL    HW219218   2.211   3.453  10.702 -1.5729  1.4694  0.7896
 2587SOL     OW19219   1.832   4.568   8.667 -0.2919  0.7708 -0.2903
 2587SOL    HW119220   1.785   4.504   8.720  1.1754 -1.7260 -1.9674
 2587SOL    HW219221   1.886   4.499   8.627 -1.6145 -0.4141 -0.0526
 2588SOL     OW19222   2.833   1.612  10.061 -0.0758 -0.2910 -0.1085
 2588SOL    HW119223   2.779   1.672  10.111 -1.8541 -0.2803 -2.0248
 2588SOL    HW219224   2.785   1.594   9.980  2.1405 -3.9501 -0.6001
 2589SOL     OW19225   0.650   3.647   9.177  0.1147  0.3488 -0.2975
 2589SOL    HW119226   0.577   3.659   9.237  1.0342 -1.2776  1.1444
 2589SOL    HW219227   0.669   3.740   9.165 -0.0329  0.3233 -0.7150
 2590SOL     OW19228   0.617   2.614  15.289 -0.4972  0.3578  0.5158
 2590SOL    HW119229   0.625   2.648  15.200 -0.1310  1.4624  0.9796
 2590SOL    HW219230   0.676   2.541  15.272 -0.9285  0.3576 -0.9564
 2591SOL     OW19231   3.638   4.191  11.056 -0.3881 -0.5910 -0.2146
 2591SOL    HW119232   3.695   4.191  10.979  0.1665  0.0704  0.1991
 2591SOL    HW219233   3.690   4.258  11.100 -0.6340  0.2137 -1.1422
 2592SOL     OW19234   3.726   2.492   2.489 -0.1911  0.7455  0.1029
 2592SOL    HW119235   3.770   2.569   2.525  0.0782 -0.3171  2.0351
 2592SOL    HW219236   3.694   2.453   2.570 -0.2267 -3.2525 -1.8274
 2593SOL     OW19237   3.832   3.957   7.589  0.3834  0.0311  0.3608
 2593SOL    HW119238   3.825   3.887   7.524  2.3401 -0.0986  0.3088
 2593SOL    HW219239   3.927   3.968   7.587  0.2343  1.1650 -0.7183
 2594SOL     OW19240   0.732   0.539  12.085  0.6171  0.5524 -0.2134
 2594SOL    HW119241   0.774   0.454  12.098  1.2182  0.8712 -0.0640
 2594SOL    HW219242   0.641   0.517  12.101  1.1551 -0.5268  1.3420
 2595SOL     OW19243   4.642   3.265   7.424  0.2142  0.3397 -0.1767
 2595SOL    HW119244   4.677   3.353   7.436  3.3385 -0.9971  0.5359
 2595SOL    HW219245   4.707   3.216   7.375  0.4046  0.6382 -0.2233
 2596SOL     OW19246   3.046   0.696  13.285 -0.1555 -0.3620  0.0696
 2596SOL    HW119247   3.046   0.644  13.206  1.6893 -1.2007  0.6162
 2596SOL    HW219248   2.958   0.728  13.269 -0.5067 -1.8698 -0.9732
 2597SOL     OW19249   3.254   3.737   0.533 -0.1249 -0.9904  0.2912
 2597SOL    HW119250   3.311   3.660   0.527  1.3121 -0.0214  1.5374
 2597SOL    HW219251   3.280   3.757   0.623 -0.9535  1.8385 -0.0700
 2598SOL     OW19252   3.219   2.390   6.241 -0.7098  0.2477 -0.0137
 2598SOL    HW119253   3.124   2.392   6.257 -0.7416  0.9934 -0.3106
 2598SOL    HW219254   3.247   2.469   6.286  2.8474 -0.6922 -0.6227
 2599SOL     OW19255   4.148   4.346   7.562  0.1165  0.0011 -0.4095
 2599SOL    HW119256   4.070   4.395   7.536  0.6638  0.6264 -0.8507
 2599SOL    HW219257   4.179   4.395   7.638  0.3644  1.0162 -1.1712
 2600SOL     OW19258   4.528   2.381   5.139 -0.5733  0.3176  0.1884
 2600SOL    HW119259   4.527   2.302   5.085 -0.7995 -0.0883  0.7822
 2600SOL    HW219260   4.574   2.343   5.214  0.1553  2.1515  0.6734
 2601SOL     OW19261   0.010   2.774   5.595 -0.6076 -0.3303 -0.4017
 2601SOL    HW119262   4.666   2.783   5.527  0.7657  0.8900 -1.5808
 2601SOL    HW219263   0.021   2.863   5.627  2.4317 -1.1016  0.6869
 2602SOL     OW19264   1.521   0.351   2.152 -0.4106  0.3952  0.4933
 2602SOL    HW119265   1.555   0.440   2.165  0.3273  0.1962 -0.0535
 2602SOL    HW219266   1.518   0.348   2.056  0.5945  3.3317  0.3711
 2603SOL     OW19267   3.759   0.962   8.050  0.5463 -0.1702  0.5873
 2603SOL    HW119268   3.719   0.876   8.039 -1.6781  0.9249 -0.0931
 2603SOL    HW219269   3.695   1.019   8.007 -0.0573 -1.0291  0.3392
 2604SOL     OW19270   0.734   4.172   3.360  0.2679 -0.4032 -0.6639
 2604SOL    HW119271   0.791   4.175   3.283 -1.8581 -0.1218 -2.2118
 2604SOL    HW219272   0.729   4.079   3.384  1.3663 -0.5864 -1.1256
 2605SOL     OW19273   2.089   3.803   5.136  0.0880 -0.1328 -0.2894
 2605SOL    HW119274   2.006   3.849   5.133  0.2589  0.2871  1.2343
 2605SOL    HW219275   2.147   3.865   5.179  0.5584 -0.1657 -0.8791
 2606SOL     OW19276   3.439   2.951   7.744  0.3190 -0.2053 -0.0319
 2606SOL    HW119277   3.525   2.930   7.708  0.2512  1.7883 -1.3633
 2606SOL    HW219278   3.423   2.877   7.802 -2.1974  1.1344  0.9955
 2607SOL     OW19279   3.370   0.482   8.340  0.0235 -0.3537  0.7050
 2607SOL    HW119280   3.377   0.577   8.348 -1.4718 -0.2065  0.3045
 2607SOL    HW219281   3.325   0.447   8.416  0.7698 -0.8765  0.9048
 2608SOL     OW19282   0.221   4.697  13.522  0.1356 -0.3339  0.0848
 2608SOL    HW119283   0.280   0.039  13.484 -0.1263  1.1604  2.2516
 2608SOL    HW219284   0.285   4.634  13.553 -0.1367 -1.9372 -2.6021
 2609SOL     OW19285   2.575   4.650   1.436  0.0299 -0.4845  0.2831
 2609SOL    HW119286   2.596   0.019   1.424  1.9585 -0.9556  0.0610
 2609SOL    HW219287   2.487   4.656   1.399 -0.8676 -2.2968  2.0727
 2610SOL     OW19288   2.412   4.312  10.735  0.3154 -0.1410  0.1260
 2610SOL    HW119289   2.398   4.223  10.767 -1.3380  0.9891  2.6183
 2610SOL    HW219290   2.504   4.298  10.713  0.9288  1.8794  1.3811
 2611SOL     OW19291   4.665   4.249   5.358 -0.5857  0.1098  0.2682
 2611SOL    HW119292   4.705   4.165   5.338  0.7248  0.5196  1.1685
 2611SOL    HW219293   4.605   4.264   5.285 -0.4638  0.7454  0.3006
 2612SOL     OW19294   0.246   1.971  16.886  0.0733 -0.5591  0.4392
 2612SOL    HW119295   0.220   1.975  16.978 -0.8312 -0.1901  0.1696
 2612SOL    HW219296   0.161   1.960  16.844 -0.0494  0.1278  0.5099
 2613SOL     OW19297   2.057   1.225   7.947 -0.2331  0.3675  0.3183
 2613SOL    HW119298   1.980   1.190   7.902 -0.1935  3.1857 -1.9742
 2613SOL    HW219299   2.061   1.314   7.912  0.4074 -0.6061 -2.0576
 2614SOL     OW19300   3.860   1.985   6.262  0.4218  0.4066 -0.0070
 2614SOL    HW119301   3.859   1.948   6.350 -0.3777 -0.0241 -0.1918
 2614SOL    HW219302   3.765   1.998   6.261  0.1401 -1.5756  0.8439
 2615SOL     OW19303   1.436   3.845   6.810 -0.0926  0.4010 -0.1443
 2615SOL    HW119304   1.521   3.865   6.771  1.9220 -0.3133  3.9418
 2615SOL    HW219305   1.374   3.838   6.737  1.7703  1.0644 -1.7955
 2616SOL     OW19306   0.851   3.748  10.917 -0.3460 -0.8312  0.0872
 2616SOL    HW119307   0.871   3.675  10.976  1.6676 -0.1350  0.2922
 2616SOL    HW219308   0.933   3.796  10.929 -0.6723 -0.6243  1.5190
 2617SOL     OW19309   0.715   2.160   0.116  0.0400  0.0411 -0.2668
 2617SOL    HW119310   0.632   2.130   0.078  0.4843 -0.3641 -0.9135
 2617SOL    HW219311   0.760   2.176   0.033  1.1282  1.0085  0.5215
 2618SOL     OW19312   2.874   3.780  15.011  0.1248 -0.5093 -0.3311
 2618SOL    HW119313   2.945   3.789  14.947  1.6406 -0.2516  1.3838
 2618SOL    HW219314   2.919   3.758  15.093 -0.5869 -0.0369  0.1921
 2619SOL     OW19315   3.555   2.115   1.307  0.0424  0.1931  0.0509
 2619SOL    HW119316   3.480   2.079   1.259  1.7354 -0.9769 -1.6818
 2619SOL    HW219317   3.562   2.208   1.283  1.3692 -0.6687 -2.8776
 2620SOL     OW19318   2.088   3.372  16.860  0.2143 -0.2816  0.2776
 2620SOL    HW119319   2.096   3.278  16.844 -0.4511 -0.0956 -1.1672
 2620SOL    HW219320   2.027   3.391  16.788 -2.1874  2.2048  2.9852
 2621SOL     OW19321   2.026   2.647   1.194 -0.4815 -0.2917 -0.6351
 2621SOL    HW119322   1.944   2.620   1.152 -1.7709  3.5330 -0.5362
 2621SOL    HW219323   2.089   2.631   1.124 -0.1094  0.7051 -0.5280
 2622SOL     OW19324   3.460   3.353  12.537 -0.4917 -0.1426  0.1018
 2622SOL    HW119325   3.458   3.257  12.528 -1.5980 -0.0379 -0.7908
 2622SOL    HW219326   3.434   3.368  12.627 -1.6372  3.0510 -0.7663
 2623SOL     OW19327   4.401   1.268   5.116  0.0711  0.1677 -0.1000
 2623SOL    HW119328   4.466   1.217   5.164  0.8197 -1.7536 -3.1498
 2623SOL    HW219329   4.395   1.207   5.042 -0.8133  1.0996 -0.7953
 2624SOL     OW19330   1.677   3.501   6.860  0.1624  0.9696  0.5417
 2624SOL    HW119331   1.690   3.469   6.771 -0.1251  0.1515  0.7910
 2624SOL    HW219332   1.767   3.528   6.878 -0.0798  2.8460 -1.1357
 2625SOL     OW19333   1.928   2.725   4.349 -0.4400 -0.2179 -0.4252
 2625SOL    HW119334   2.012   2.709   4.306  0.1267 -0.3240  0.7269
 2625SOL    HW219335   1.939   2.699   4.440  0.7255  1.8544  0.0246
 2626SOL     OW19336   0.981   2.227  15.380  0.1164 -0.0905 -0.8259
 2626SOL    HW119337   0.997   2.160  15.313 -0.6335  1.1470 -2.2472
 2626SOL    HW219338   1.048   2.293  15.360  1.2522 -0.3344  2.2089
 2627SOL     OW19339   3.861   2.147  11.597  0.3087 -0.2822 -1.0988
 2627SOL    HW119340   3.944   2.108  11.571  0.2914 -2.0843  1.4428
 2627SOL    HW219341   3.824   2.073  11.647  2.7184 -2.5041 -2.5974
 2628SOL     OW19342   4.655   4.064  11.532  0.7775 -0.4090  0.4673
 2628SOL    HW119343   0.016   4.033  11.499  0.3904 -0.0518 -0.8892
 2628SOL    HW219344   4.620   3.986  11.575  0.8249 -0.4269  0.4736
 2629SOL     OW19345   0.200   4.441  14.535  0.5208  0.1226 -0.2241
 2629SOL    HW119346   0.273   4.455  14.475  0.6355 -1.4952 -0.4596
 2629SOL    HW219347   0.220   4.363  14.586 -0.7457  0.1155  0.2672
 2630SOL     OW19348   4.534   4.409   2.161  0.0789  0.2221  0.3761
 2630SOL    HW119349   4.581   4.326   2.157  2.1853  1.4391 -0.1152
 2630SOL    HW219350   4.599   4.466   2.201 -0.1290 -0.1525  1.2422
 2631SOL     OW19351   0.569   0.104  13.929 -0.3604 -0.4344 -0.7446
 2631SOL    HW119352   0.661   0.123  13.912  0.1392 -0.2528  2.2019
 2631SOL    HW219353   0.544   0.081  13.839  0.8041  0.6795 -1.3649
 2632SOL     OW19354   3.273   0.410   4.350  0.2684 -0.0924  0.7001
 2632SOL    HW119355   3.345   0.425   4.411  1.9153 -3.8698 -0.3257
 2632SOL    HW219356   3.287   0.324   4.310  0.5075 -0.2976  1.2286
 2633SOL     OW19357   2.758   2.072   9.548  0.7679 -0.0949  0.7281
 2633SOL    HW119358   2.852   2.087   9.558  0.4444  1.9783  0.6521
 2633SOL    HW219359   2.725   2.106   9.631 -0.2593  2.3180 -0.6469
 2634SOL     OW19360   1.342   2.398   9.063 -0.3941 -0.2416 -0.2122
 2634SOL    HW119361   1.295   2.343   9.000  0.5492  0.3768 -1.4597
 2634SOL    HW219362   1.415   2.343   9.091 -1.3036 -1.8353 -0.9740
 2635SOL     OW19363   0.905   4.547  12.245  0.3440  0.5873  0.1267
 2635SOL    HW119364   0.848   4.510  12.179 -1.2247  1.7670  0.8198
 2635SOL    HW219365   0.991   4.546  12.204  0.5542 -0.9207  0.5832
 2636SOL     OW19366   3.558   1.984   7.969 -0.1558  0.0450  0.1887
 2636SOL    HW119367   3.613   2.005   7.893 -1.6221  2.8029 -0.1242
 2636SOL    HW219368   3.524   1.895   7.957 -0.2530 -0.3078  3.2725
 2637SOL     OW19369   1.182   2.235   8.588 -0.0661 -0.3693  0.7230
 2637SOL    HW119370   1.113   2.201   8.531  3.4060  0.4749 -3.9712
 2637SOL    HW219371   1.211   2.314   8.544 -0.7466 -1.9058 -2.5398
 2638SOL     OW19372   4.022   1.374   3.306  0.0230 -0.0018 -0.3899
 2638SOL    HW119373   4.115   1.388   3.320 -0.2084  0.4880  0.6214
 2638SOL    HW219374   4.002   1.322   3.383  0.1712  2.1702  1.1054
 2639SOL     OW19375   2.298   3.826   9.807  0.0338  0.0915 -0.2508
 2639SOL    HW119376   2.392   3.838   9.792  0.4973 -0.9975  1.7617
 2639SOL    HW219377   2.286   3.736   9.835 -2.9610  0.2212 -1.1098
 2640SOL     OW19378   0.077   0.255  17.107  0.0830 -0.5275  0.3070
 2640SOL    HW119379   0.032   0.255  17.023  0.4458 -0.5694  0.1092
 2640SOL    HW219380   4.723   0.260  17.163 -0.2598  1.1962 -0.3168
 2641SOL     OW19381   2.455   2.675   7.953  0.3752  0.4388 -0.3743
 2641SOL    HW119382   2.548   2.660   7.934  0.5472  1.5831 -0.4463
 2641SOL    HW219383   2.461   2.767   7.978 -0.1002  0.8162 -1.6823
 2642SOL     OW19384   3.017   3.101   9.145  0.4891 -0.5848  0.3188
 2642SOL    HW119385   2.968   3.042   9.203  0.6395 -2.6092 -1.6282
 2642SOL    HW219386   3.093   3.134   9.193  1.8310 -0.8383 -1.6088
 2643SOL     OW19387   3.238   2.007   2.731  0.1927  0.3098  0.7988
 2643SOL    HW119388   3.201   1.955   2.803 -0.9368 -0.7014 -0.5117
 2643SOL    HW219389   3.330   1.982   2.745  0.0142  0.5520  2.4096
 2644SOL     OW19390   0.968   1.104   1.012 -0.4323  0.3279  0.1780
 2644SOL    HW119391   1.015   1.129   1.092  0.3971 -0.4974 -0.0457
 2644SOL    HW219392   0.882   1.080   1.047 -0.7476 -0.5611 -1.2229
 2645SOL     OW19393   3.017   0.808   7.736  0.0542  0.1574 -0.4309
 2645SOL    HW119394   3.077   0.871   7.775 -1.5489  1.9170 -0.8373
 2645SOL    HW219395   3.048   0.804   7.645 -0.1723 -0.2571 -0.4877
 2646SOL     OW19396   0.937   1.925   8.752  0.4502 -0.5220 -0.1058
 2646SOL    HW119397   0.916   2.017   8.735 -3.1916 -0.6026  3.9854
 2646SOL    HW219398   0.872   1.886   8.694  1.1478  0.7240 -1.7155
 2647SOL     OW19399   3.023   1.608  15.545 -0.1321 -0.6175  0.1372
 2647SOL    HW119400   2.982   1.690  15.571  3.5464  1.3937 -0.4620
 2647SOL    HW219401   3.012   1.618  15.451 -1.3435 -2.0476  0.1284
 2648SOL     OW19402   0.386   3.746   5.303 -0.2076  0.8772 -0.1383
 2648SOL    HW119403   0.339   3.684   5.358 -1.5151  1.8609 -0.1449
 2648SOL    HW219404   0.396   3.691   5.225 -1.1641 -2.2455  1.9450
 2649SOL     OW19405   4.446   3.498   0.130  0.5263 -0.2287 -0.7487
 2649SOL    HW119406   4.453   3.591   0.154 -1.7786 -0.4643  0.9292
 2649SOL    HW219407   4.372   3.472   0.185  0.0345 -0.1549 -1.3741
 2650SOL     OW19408   4.635   0.610   4.073 -0.2488 -0.1555 -0.3353
 2650SOL    HW119409   4.618   0.701   4.095 -1.3855 -0.3675 -0.3202
 2650SOL    HW219410   4.684   0.591   4.152  1.0070  0.0432 -1.0631
 2651SOL     OW19411   4.112   0.851   0.060 -0.2526  0.3489  0.0488
 2651SOL    HW119412   4.031   0.897   0.040  0.2911  1.7174  1.0126
 2651SOL    HW219413   4.174   0.919   0.088 -1.1178  0.5266  1.5078
 2652SOL     OW19414   3.135   0.316   8.969 -0.0351 -0.9678  0.3452
 2652SOL    HW119415   3.125   0.396   9.022  1.2390 -0.4052 -0.2379
 2652SOL    HW219416   3.050   0.274   8.967 -0.7545  0.4990 -0.5039
 2653SOL     OW19417   1.558   4.706   3.958 -0.2148  0.1490 -0.4611
 2653SOL    HW119418   1.477   4.655   3.955 -0.4054  0.4194 -0.0486
 2653SOL    HW219419   1.604   4.662   3.887 -1.7079 -0.0615 -1.2828
 2654SOL     OW19420   4.441   4.068   5.952 -0.7297 -0.4169 -0.4104
 2654SOL    HW119421   4.494   4.136   5.912  0.4203 -1.6198 -0.9179
 2654SOL    HW219422   4.432   4.086   6.045  0.8838  1.6547 -0.6774
 2655SOL     OW19423   3.130   2.766   4.933  0.9416  0.6395 -0.0253
 2655SOL    HW119424   3.220   2.741   4.915  1.0316 -1.8502  3.9787
 2655SOL    HW219425   3.110   2.742   5.023 -2.3828  0.2960 -0.8309
 2656SOL     OW19426   2.737   3.072   5.819  0.0113  0.4981  0.6189
 2656SOL    HW119427   2.707   2.991   5.862  2.4964 -1.1427 -0.7272
 2656SOL    HW219428   2.656   3.107   5.784 -0.2017 -0.7045 -0.0749
 2657SOL     OW19429   2.290   1.670   2.249 -0.1918  0.4158  0.0141
 2657SOL    HW119430   2.372   1.654   2.202 -0.5111  1.2306 -0.8132
 2657SOL    HW219431   2.266   1.752   2.207 -1.2648  0.5379  0.8923
 2658SOL     OW19432   4.622   3.858   6.178 -0.2123  0.4498  0.0758
 2658SOL    HW119433   4.529   3.871   6.161 -0.2597  0.6623  0.4941
 2658SOL    HW219434   4.643   3.770   6.145 -3.1058  0.2696 -1.2384
 2659SOL     OW19435   0.025   2.434   7.520 -0.5041  0.1846  0.2834
 2659SOL    HW119436   4.707   2.456   7.604  1.8256 -0.6735  1.6704
 2659SOL    HW219437   0.035   2.518   7.475  0.1973 -0.1084 -0.1107
 2660SOL     OW19438   0.611   3.959   6.223  0.1227 -0.0716  0.1969
 2660SOL    HW119439   0.654   4.044   6.217  1.0304 -0.5308  0.1480
 2660SOL    HW219440   0.667   3.895   6.178  1.5109  0.0320  1.8084
 2661SOL     OW19441   4.563   4.480  17.168  0.1123  0.0174 -0.2207
 2661SOL    HW119442   4.584   4.521  17.084 -0.5200  1.6522  0.4018
 2661SOL    HW219443   4.654   4.473  17.196  0.1437 -0.4788 -0.4492
 2662SOL     OW19444   0.261   1.928   2.428 -0.0725 -0.0512  0.0114
 2662SOL    HW119445   0.285   2.020   2.426  1.4474 -0.4156  0.7837
 2662SOL    HW219446   0.320   1.893   2.361 -0.1778 -1.3883  0.5969
 2663SOL     OW19447   4.192   3.617   4.021  0.0545  0.3799  0.0816
 2663SOL    HW119448   4.165   3.531   3.988 -0.6944  0.1610  1.2758
 2663SOL    HW219449   4.219   3.662   3.941 -2.4165  0.3072 -0.7955
 2664SOL     OW19450   3.735   4.522   3.877 -0.2539  0.4722  0.1368
 2664SOL    HW119451   3.824   4.485   3.878 -0.2722  0.4305  0.4614
 2664SOL    HW219452   3.687   4.469   3.941 -2.2320 -0.1097 -1.8182
 2665SOL     OW19453   3.400   3.469   3.196 -0.7992 -0.1427 -0.0974
 2665SOL    HW119454   3.322   3.424   3.165 -1.5011  0.0998  1.3214
 2665SOL    HW219455   3.401   3.532   3.124 -0.1490  1.1387  1.0265
 2666SOL     OW19456   1.516   3.035  16.019  0.0601 -0.0708  0.5597
 2666SOL    HW119457   1.555   3.026  16.106 -1.2054  2.7092  1.4223
 2666SOL    HW219458   1.438   3.085  16.043 -2.0853 -2.8597 -0.5840
 2667SOL     OW19459   3.854   4.630   2.257  0.1188  0.1035  0.1741
 2667SOL    HW119460   3.922   4.601   2.318 -0.3209  0.2056  0.7050
 2667SOL    HW219461   3.841   4.712   2.304  0.7278  0.3920 -0.1560
 2668SOL     OW19462   2.342   2.568   2.428  0.2733 -0.1213  0.6659
 2668SOL    HW119463   2.350   2.473   2.424  0.6245  0.0560 -2.3378
 2668SOL    HW219464   2.248   2.588   2.423  0.6716  0.8237 -3.1011
 2669SOL     OW19465   4.070   3.768   2.809  0.2250  0.2266  0.0264
 2669SOL    HW119466   4.131   3.742   2.739 -0.1395 -0.8878  0.1193
 2669SOL    HW219467   4.123   3.757   2.889  0.6545 -2.3462 -0.5972
 2670SOL     OW19468   0.340   4.347   1.611 -0.0977 -0.2311 -0.6194
 2670SOL    HW119469   0.316   4.397   1.534 -2.3553  1.3232  1.1029
 2670SOL    HW219470   0.350   4.256   1.583 -2.2831 -0.5145 -0.4556
 2671SOL     OW19471   0.663   2.841   3.174 -0.1593  1.0793  0.2268
 2671SOL    HW119472   0.696   2.812   3.259  0.9715  0.0702 -0.5530
 2671SOL    HW219473   0.747   2.871   3.138 -0.8855  2.3224 -0.4036
 2672SOL     OW19474   2.737   3.458   1.738  0.3250 -0.0791  0.1083
 2672SOL    HW119475   2.716   3.365   1.731 -1.6267  0.2434  1.6811
 2672SOL    HW219476   2.669   3.481   1.802 -0.9431 -1.9362 -0.5763
 2673SOL     OW19477   0.220   4.029  15.887 -0.0937  0.0386 -0.2134
 2673SOL    HW119478   0.226   4.044  15.792 -1.5072 -0.3947 -0.3791
 2673SOL    HW219479   0.305   4.067  15.908  0.2459 -1.1382  0.5366
 2674SOL     OW19480   4.497   0.899   3.456 -0.3208  0.4169  0.0270
 2674SOL    HW119481   4.418   0.953   3.442 -1.4081 -0.4965  2.6384
 2674SOL    HW219482   4.491   0.847   3.376 -0.3646  0.1178  0.2239
 2675SOL     OW19483   2.751   2.293   6.446 -0.2178 -0.1201 -0.0392
 2675SOL    HW119484   2.698   2.213   6.443 -0.1936 -0.1559  0.4267
 2675SOL    HW219485   2.789   2.276   6.532  1.1247  0.0835 -0.5959
 2676SOL     OW19486   1.896   0.394   0.096 -0.1437  0.2646  0.1590
 2676SOL    HW119487   1.873   0.382   0.004 -1.0919  1.4236  0.2380
 2676SOL    HW219488   1.988   0.369   0.088  0.5013  2.1801  1.4841
 2677SOL     OW19489   3.487   1.181   8.002  0.0163 -0.5230 -0.0812
 2677SOL    HW119490   3.546   1.252   8.023 -0.8296 -0.1877  1.1614
 2677SOL    HW219491   3.451   1.155   8.087 -1.8689  0.4783 -0.5593
 2678SOL     OW19492   0.569   3.629   7.118  0.7695 -0.4149  0.0134
 2678SOL    HW119493   0.662   3.636   7.141  0.5761  0.7903  0.4068
 2678SOL    HW219494   0.553   3.540   7.149  1.0148 -0.5190 -0.1602
 2679SOL     OW19495   4.322   0.200   5.834  0.1671  0.6126  0.1469
 2679SOL    HW119496   4.415   0.221   5.820  0.0515  0.7026 -0.4948
 2679SOL    HW219497   4.291   0.248   5.757  1.2945  1.2958  0.1097
 2680SOL     OW19498   1.823   3.950  16.377  0.2034 -0.6540  0.3344
 2680SOL    HW119499   1.891   3.979  16.439 -0.1973  0.3571  0.2967
 2680SOL    HW219500   1.867   3.977  16.297  1.1044 -1.2239  0.6262
 2681SOL     OW19501   3.296   4.193   7.569 -0.2863  0.5515  0.1058
 2681SOL    HW119502   3.265   4.167   7.655 -0.7437  2.3519  0.4856
 2681SOL    HW219503   3.215   4.212   7.523  0.7307  1.9530 -1.1277
 2682SOL     OW19504   1.332   2.429   5.950  0.2440  0.3647  0.3562
 2682SOL    HW119505   1.377   2.384   6.022  3.4534  0.5690 -1.5577
 2682SOL    HW219506   1.270   2.472   6.009  1.3411  2.2514  0.1157
 2683SOL     OW19507   4.249   3.885  12.682 -0.1759  0.0080 -0.1362
 2683SOL    HW119508   4.322   3.943  12.703 -0.0988  0.0120 -0.4168
 2683SOL    HW219509   4.292   3.807  12.648  0.2669 -0.0569  0.5792
 2684SOL     OW19510   0.920   3.742   0.460  0.1403  0.2848  0.6188
 2684SOL    HW119511   0.893   3.775   0.375 -0.4434  2.0227  1.4681
 2684SOL    HW219512   0.915   3.824   0.509  1.8824  2.5722 -3.0634
 2685SOL     OW19513   3.653   3.626   5.310  0.0402 -0.2973 -0.4459
 2685SOL    HW119514   3.704   3.595   5.385  1.1943 -1.0379 -1.5423
 2685SOL    HW219515   3.586   3.665   5.366 -0.3267  0.6946 -1.5857
 2686SOL     OW19516   3.274   3.050   8.306 -0.4315 -0.2734  0.2835
 2686SOL    HW119517   3.263   3.010   8.392  0.3557 -2.9905 -0.8783
 2686SOL    HW219518   3.367   3.073   8.302 -0.6796  0.4260 -1.6725
 2687SOL     OW19519   2.679   2.536   2.337 -0.6546 -0.4275  0.0411
 2687SOL    HW119520   2.600   2.498   2.296  0.0751  1.1649 -2.8704
 2687SOL    HW219521   2.651   2.626   2.353  0.6748 -0.0634  0.2958
 2688SOL     OW19522   0.968   2.227   5.656  0.4451  0.3411 -0.4603
 2688SOL    HW119523   0.906   2.268   5.596  0.6447 -2.3074 -2.4471
 2688SOL    HW219524   1.041   2.287   5.641  0.8437  0.0380  0.2877
 2689SOL     OW19525   1.187   0.316   9.964 -0.2467 -0.0411 -0.0470
 2689SOL    HW119526   1.195   0.362  10.047 -0.5106  0.3254 -0.2261
 2689SOL    HW219527   1.105   0.270   9.982  1.2508 -2.7771 -0.0906
 2690SOL     OW19528   1.010   0.367  12.834  0.0608  0.3417  0.4162
 2690SOL    HW119529   0.995   0.279  12.798 -0.1307 -0.0902  1.5567
 2690SOL    HW219530   1.101   0.365  12.863  0.1373  0.3343  0.1765
 2691SOL     OW19531   3.932   1.298   3.578  0.1994  0.1732  0.4262
 2691SOL    HW119532   3.902   1.313   3.668 -2.5674  0.0984 -0.4967
 2691SOL    HW219533   3.944   1.203   3.580 -1.5638 -0.0592  0.2169
 2692SOL     OW19534   2.053   0.662   7.327 -0.2722  0.2440  0.1967
 2692SOL    HW119535   2.050   0.746   7.282  0.4472  0.1527 -0.0201
 2692SOL    HW219536   1.973   0.617   7.298  0.5401 -1.4363  0.5537
 2693SOL     OW19537   4.101   3.629  16.557 -0.0486  0.5720  0.5508
 2693SOL    HW119538   4.036   3.563  16.582 -0.5061 -0.2663 -2.8361
 2693SOL    HW219539   4.155   3.635  16.635 -1.2905 -0.0272  1.4643
 2694SOL     OW19540   4.341   3.353   2.742 -0.5764 -0.0174 -0.4627
 2694SOL    HW119541   4.371   3.267   2.713  0.6720 -0.6945  2.8371
 2694SOL    HW219542   4.366   3.348   2.834 -1.6968 -2.1067 -0.2781
 2695SOL     OW19543   1.200   1.271  11.157  0.6033  0.0977  0.0344
 2695SOL    HW119544   1.118   1.311  11.186 -0.3217 -0.1143 -2.2507
 2695SOL    HW219545   1.255   1.307  11.227 -1.4686  3.0389  0.1267
 2696SOL     OW19546   0.029   0.734   8.028  0.0809  0.2516  0.1916
 2696SOL    HW119547   4.664   0.697   8.025  0.2405 -0.2157  1.1982
 2696SOL    HW219548   0.044   0.754   7.936  1.3099  0.2509  0.3892
 2697SOL     OW19549   3.853   2.144   0.399 -0.7692 -0.2725  0.6963
 2697SOL    HW119550   3.909   2.115   0.327 -1.1024 -0.5416  0.5485
 2697SOL    HW219551   3.883   2.078   0.461  1.3774 -0.4577 -0.5389
 2698SOL     OW19552   1.066   4.339   8.774 -0.6962 -0.2798 -0.4780
 2698SOL    HW119553   1.036   4.370   8.859  2.0731  3.5479 -0.8873
 2698SOL    HW219554   1.130   4.407   8.754 -1.9386  0.7833 -0.8055
 2699SOL     OW19555   4.383   1.606  10.836 -0.3449  0.3915  0.1582
 2699SOL    HW119556   4.474   1.620  10.862 -0.1401  0.3159 -0.4931
 2699SOL    HW219557   4.361   1.536  10.898  0.8517 -0.8452 -0.8030
 2700SOL     OW19558   4.189   1.704   2.272  0.4522 -0.1770  0.2861
 2700SOL    HW119559   4.108   1.706   2.221  0.3848 -1.0122  0.3594
 2700SOL    HW219560   4.170   1.639   2.339 -0.2955 -1.1560 -0.8786
 2701SOL     OW19561   0.575   0.918  16.551  0.3049  0.1998 -0.0138
 2701SOL    HW119562   0.546   0.962  16.472  0.1850 -0.4627 -0.3427
 2701SOL    HW219563   0.501   0.862  16.577  0.1776  0.9245  1.1751
 2702SOL     OW19564   2.267   1.725   3.283  0.1540 -0.0288  0.0766
 2702SOL    HW119565   2.328   1.761   3.347  1.1558 -0.7046 -0.4945
 2702SOL    HW219566   2.312   1.740   3.200  0.3593  2.7290  0.7174
 2703SOL     OW19567   0.636   0.410   7.620  0.3975  0.9370 -0.2838
 2703SOL    HW119568   0.627   0.412   7.525 -0.0383 -0.1126 -0.2700
 2703SOL    HW219569   0.654   0.501   7.643  0.6163  0.5828  0.9715
 2704SOL     OW19570   2.447   4.627   3.056 -0.1713 -0.1213 -0.4265
 2704SOL    HW119571   2.377   4.681   3.019  0.5282  2.1647  1.5857
 2704SOL    HW219572   2.419   4.628   3.147  2.0028  0.7409  0.2197
 2705SOL     OW19573   3.815   2.857  16.315 -0.2203  0.3485 -0.3808
 2705SOL    HW119574   3.736   2.849  16.368 -0.3965  0.0417 -0.6912
 2705SOL    HW219575   3.831   2.763  16.307  0.1290  0.5294 -1.9347
 2706SOL     OW19576   0.035   0.619   5.255 -0.0671 -0.2663 -0.1183
 2706SOL    HW119577   0.033   0.560   5.330  0.5614  0.8970  0.8128
 2706SOL    HW219578   0.126   0.644   5.269 -0.3493  1.7719 -1.9024
 2707SOL     OW19579   1.604   1.790   7.567  0.5741  0.2841 -0.0209
 2707SOL    HW119580   1.692   1.778   7.602 -0.0271 -1.6990  0.7987
 2707SOL    HW219581   1.550   1.757   7.639  0.2708 -0.0866 -0.4203
 2708SOL     OW19582   4.082   2.063   6.916  0.3498  0.1219  0.4820
 2708SOL    HW119583   4.003   2.025   6.955 -0.0265 -0.5340 -0.9318
 2708SOL    HW219584   4.138   2.015   6.978 -0.2301  0.5299  1.3289
 2709SOL     OW19585   1.789   0.906   2.487  0.4399 -0.0879  0.7448
 2709SOL    HW119586   1.747   0.827   2.522  3.6231 -1.1865  2.1675
 2709SOL    HW219587   1.722   0.969   2.511 -0.3826 -0.9393  0.6633
 2710SOL     OW19588   4.103   3.321  16.667 -0.2732 -0.1628 -0.0072
 2710SOL    HW119589   4.115   3.347  16.758  0.1591 -2.0174  0.4523
 2710SOL    HW219590   4.191   3.322  16.630 -1.6424  0.5104 -3.3068
 2711SOL     OW19591   3.080   2.210   4.179  0.0263  0.5311 -0.5125
 2711SOL    HW119592   3.102   2.134   4.126  1.2306 -0.2052  1.0131
 2711SOL    HW219593   2.985   2.210   4.175  0.2053  0.5123 -4.0413
 2712SOL     OW19594   4.525   3.032   3.874  0.4131 -0.7930  0.8243
 2712SOL    HW119595   4.512   2.961   3.937 -0.9752 -1.7793 -0.5789
 2712SOL    HW219596   4.481   3.107   3.915 -0.3459 -0.7340 -0.0827
 2713SOL     OW19597   2.937   1.843   3.403 -0.0907  0.1026 -0.1046
 2713SOL    HW119598   3.018   1.802   3.371 -0.8723 -0.6983 -1.0749
 2713SOL    HW219599   2.911   1.897   3.328 -0.0631  1.6120  0.9733
 2714SOL     OW19600   2.179   2.431   6.700 -0.1322  0.0295 -0.2605
 2714SOL    HW119601   2.109   2.454   6.640 -0.6332 -0.5668  0.0858
 2714SOL    HW219602   2.182   2.510   6.754  2.5038  0.6879 -1.3837
 2715SOL     OW19603   0.015   4.584   6.624  0.2681 -0.1438  0.7157
 2715SOL    HW119604   0.025   4.652   6.691 -0.7838  0.2648  0.4566
 2715SOL    HW219605   4.647   4.598   6.598  0.8489 -1.4936 -2.1452
 2716SOL     OW19606   4.131   3.671   9.631  0.2300  0.6238 -0.6908
 2716SOL    HW119607   4.205   3.727   9.609 -0.2043  1.4261 -0.1150
 2716SOL    HW219608   4.146   3.590   9.582 -0.1101  0.1835 -0.0712
 2717SOL     OW19609   4.598   2.632   3.136  0.3780 -0.0257  0.0155
 2717SOL    HW119610   4.509   2.623   3.103 -0.4207 -0.0734  2.2016
 2717SOL    HW219611   4.578   2.643   3.229  0.7506  0.4249  0.0438
 2718SOL     OW19612   0.680   3.376  13.906  0.0862 -0.6648  0.4217
 2718SOL    HW119613   0.640   3.447  13.957 -0.1047 -0.7841  0.4383
 2718SOL    HW219614   0.707   3.319  13.977  1.5978  0.6898  0.9529
 2719SOL     OW19615   0.432   0.846   4.961 -0.3748  0.0921 -0.5156
 2719SOL    HW119616   0.522   0.853   4.993  0.4119 -4.5484 -1.7242
 2719SOL    HW219617   0.383   0.919   4.998 -0.2840 -0.1041 -0.0136
 2720SOL     OW19618   0.296   0.308  16.403 -0.5809  0.5747  0.8385
 2720SOL    HW119619   0.215   0.291  16.354 -0.8935  0.4958  1.3814
 2720SOL    HW219620   0.348   0.230  16.385 -1.1043 -0.0137  1.9084
 2721SOL     OW19621   2.774   4.564   5.589 -0.0678 -0.1141 -0.1816
 2721SOL    HW119622   2.680   4.582   5.586  0.0450  0.1895 -1.9184
 2721SOL    HW219623   2.796   4.485   5.540 -1.4676 -1.0744  0.7583
 2722SOL     OW19624   1.654   2.132  15.368  0.6440  0.3636  0.2659
 2722SOL    HW119625   1.658   2.040  15.342  1.2895  0.3488  0.4211
 2722SOL    HW219626   1.601   2.164  15.294 -2.6923 -1.2038  2.0055
 2723SOL     OW19627   4.243   0.677   5.065  0.4474  0.2489 -0.1341
 2723SOL    HW119628   4.283   0.639   5.144 -0.5166 -1.7441 -0.5938
 2723SOL    HW219629   4.195   0.601   5.034 -0.9389  0.6742  0.9652
 2724SOL     OW19630   1.516   3.485   8.288  0.5411 -0.0747  0.0779
 2724SOL    HW119631   1.444   3.487   8.351  0.7676 -2.5667  0.3928
 2724SOL    HW219632   1.595   3.513   8.335  0.5253  1.3742 -0.7336
 2725SOL     OW19633   1.378   4.720   8.642 -0.3722 -0.4790 -0.9948
 2725SOL    HW119634   1.326   0.076   8.627 -2.2300 -1.3260  0.9106
 2725SOL    HW219635   1.413   4.713   8.553  0.3596  1.0436 -0.8160
 2726SOL     OW19636   0.847   3.603   8.836 -0.2360  0.0055 -0.0598
 2726SOL    HW119637   0.846   3.695   8.863 -1.2167  0.1098 -0.4556
 2726SOL    HW219638   0.942   3.592   8.837 -0.0875  1.3363  1.3170
 2727SOL     OW19639   3.615   0.447   9.484 -0.0061 -0.4641  0.2760
 2727SOL    HW119640   3.637   0.433   9.392 -0.6786 -0.5920  0.1339
 2727SOL    HW219641   3.529   0.489   9.481  0.6175  0.7964 -0.2642
 2728SOL     OW19642   2.267   2.756   3.241  0.7650 -1.1488  0.4738
 2728SOL    HW119643   2.182   2.748   3.286  1.2711  1.2125  1.8418
 2728SOL    HW219644   2.292   2.832   3.293  3.2727 -0.9033 -1.0896
 2729SOL     OW19645   1.248   0.216  11.416  0.0094  0.1052 -0.7329
 2729SOL    HW119646   1.298   0.164  11.353  2.4347  0.2018  1.1116
 2729SOL    HW219647   1.321   0.274  11.437  1.0966 -0.9358 -1.6900
 2730SOL     OW19648   0.270   2.007  15.035 -0.0864  0.3446 -0.1044
 2730SOL    HW119649   0.225   2.007  14.950 -1.3845  0.9592  0.5776
 2730SOL    HW219650   0.356   1.997  14.996  0.6194 -1.2218  1.8711
 2731SOL     OW19651   3.745   2.263   8.256 -0.1034 -0.4680  0.1199
 2731SOL    HW119652   3.731   2.307   8.340 -1.3371  1.1718 -0.9550
 2731SOL    HW219653   3.687   2.316   8.202  1.4668  0.6963 -0.4337
 2732SOL     OW19654   3.692   4.332  15.184 -0.0012 -0.7040  0.2958
 2732SOL    HW119655   3.695   4.332  15.089 -1.0861  2.1832  0.2955
 2732SOL    HW219656   3.621   4.271  15.205  0.9806 -1.6682  0.8694
 2733SOL     OW19657   3.614   4.396   7.878 -0.3872 -0.5133 -0.5604
 2733SOL    HW119658   3.591   4.463   7.813 -0.7324  0.1072  0.1944
 2733SOL    HW219659   3.709   4.390   7.870 -0.2361 -1.4074  1.8097
 2734SOL     OW19660   3.907   3.449   8.312 -0.1028  0.8035  0.2058
 2734SOL    HW119661   3.861   3.437   8.395  0.4846  1.9329  0.6878
 2734SOL    HW219662   3.839   3.502   8.270  0.9398  1.2366 -0.9316
 2735SOL     OW19663   4.659   0.752   6.485  0.3391  0.1067 -0.0700
 2735SOL    HW119664   4.634   0.824   6.544  2.2678  1.5971 -1.0773
 2735SOL    HW219665   0.029   0.775   6.484 -0.2607  2.5380 -1.5458
 2736SOL     OW19666   0.939   3.040   1.224  0.5663 -0.2005 -0.3050
 2736SOL    HW119667   0.862   3.062   1.276  2.0742  1.0136  1.4181
 2736SOL    HW219668   0.952   3.129   1.190  0.0140 -0.4621 -1.1873
 2737SOL     OW19669   2.031   3.332  17.344 -0.3159 -0.2875  0.1319
 2737SOL    HW119670   2.077   3.267  17.292 -1.6065 -2.1936  1.3898
 2737SOL    HW219671   2.005   3.394  17.275  3.3340  0.8201 -0.2398
 2738SOL     OW19672   3.655   2.852   8.831 -0.1743  0.3402 -0.6939
 2738SOL    HW119673   3.744   2.821   8.846 -0.7632 -0.9165  0.2563
 2738SOL    HW219674   3.644   2.916   8.901  0.2107 -1.2538  0.8416
 2739SOL     OW19675   1.037   4.152  16.544 -0.2624  0.9519 -0.3938
 2739SOL    HW119676   1.126   4.187  16.553 -0.4670  1.0927  1.0438
 2739SOL    HW219677   1.033   4.085  16.612  1.0844  0.1506 -1.1149
 2740SOL     OW19678   3.815   0.789  15.294  0.2807 -0.8064  0.4665
 2740SOL    HW119679   3.894   0.737  15.309  1.1639 -0.7666 -4.1726
 2740SOL    HW219680   3.830   0.823  15.206 -0.7399  1.1798  1.0533
 2741SOL     OW19681   0.091   0.101   5.852 -0.0680  0.0397  0.5646
 2741SOL    HW119682   0.113   0.101   5.945 -0.7976 -0.0206  0.7363
 2741SOL    HW219683   0.182   0.100   5.820 -0.3398 -0.5689 -0.1845
 2742SOL     OW19684   4.618   2.768   0.050  0.2486 -0.2976  0.3505
 2742SOL    HW119685   4.695   2.781   0.104 -0.5357 -0.0907  1.4100
 2742SOL    HW219686   4.569   2.727   0.122 -1.8281  1.5042 -0.0367
 2743SOL     OW19687   0.078   2.588   8.965 -0.5929 -0.0452 -0.3026
 2743SOL    HW119688   0.059   2.570   9.057 -1.0154 -0.1901 -0.4174
 2743SOL    HW219689   0.149   2.651   8.971  0.0386 -0.7062 -0.8942
 2744SOL     OW19690   2.816   0.011   7.165 -0.4310  0.5397  0.0202
 2744SOL    HW119691   2.899   4.694   7.140 -0.7045  0.0214 -0.0433
 2744SOL    HW219692   2.826   0.096   7.122  0.9994 -0.3530 -1.3981
 2745SOL     OW19693   1.300   2.889  13.172  0.1201  0.3889 -0.2552
 2745SOL    HW119694   1.318   2.869  13.080  0.9113 -0.6900  0.1270
 2745SOL    HW219695   1.261   2.975  13.160  1.7624  1.0238 -0.9657
 2746SOL     OW19696   4.317   2.230   6.898  0.1857  0.3618 -0.7583
 2746SOL    HW119697   4.375   2.167   6.941  1.0688  1.0551 -0.9346
 2746SOL    HW219698   4.231   2.187   6.892  0.9424 -1.3559  0.7321
 2747SOL     OW19699   4.059   1.216  17.131 -0.0463  0.0703 -0.5408
 2747SOL    HW119700   4.097   1.187  17.048  0.1702 -1.1937  0.0065
 2747SOL    HW219701   3.990   1.153  17.150 -1.2213  0.9269 -1.9396
 2748SOL     OW19702   0.987   2.264   4.857 -0.3190 -0.4218 -0.0199
 2748SOL    HW119703   0.945   2.351   4.855  3.0074  1.1618 -1.0126
 2748SOL    HW219704   1.078   2.292   4.848 -0.4242 -0.5013 -1.3355
 2749SOL     OW19705   1.444   0.309   3.183 -0.2182  0.2440 -0.5506
 2749SOL    HW119706   1.465   0.224   3.145 -1.7760 -0.2235 -0.3806
 2749SOL    HW219707   1.361   0.299   3.230  0.3140  0.1808  0.3838
 2750SOL     OW19708   1.102   0.292  10.567  0.1612 -0.1083  0.2010
 2750SOL    HW119709   1.088   0.357  10.635 -0.8593 -0.0482 -0.0627
 2750SOL    HW219710   1.066   0.331  10.487  0.5624  0.3079  0.2273
 2751SOL     OW19711   1.983   1.099   5.927 -0.6523  0.6515 -0.0302
 2751SOL    HW119712   2.074   1.070   5.914 -1.5073 -0.7999 -2.6933
 2751SOL    HW219713   1.933   1.019   5.910  1.2606 -0.4835 -0.3853
 2752SOL     OW19714   2.289   0.594   4.709  0.3939  0.5403  0.9469
 2752SOL    HW119715   2.364   0.560   4.660 -0.0702  1.8217 -0.6183
 2752SOL    HW219716   2.310   0.551   4.793 -0.7846  0.7747  1.3628
 2753SOL     OW19717   3.617   1.860   8.964 -0.3721  0.8193 -0.0044
 2753SOL    HW119718   3.642   1.850   9.056 -1.5643 -2.0181  0.0081
 2753SOL    HW219719   3.692   1.914   8.940  1.1308 -0.8155  0.9538
 2754SOL     OW19720   0.118   0.240   5.451 -0.0090  0.1642 -0.6257
 2754SOL    HW119721   0.179   0.227   5.379  0.2240 -0.6930 -0.2716
 2754SOL    HW219722   0.157   0.318   5.489 -0.2952 -0.1209  0.2494
 2755SOL     OW19723   2.644   0.629   0.860 -0.0274  0.2561 -0.1066
 2755SOL    HW119724   2.616   0.617   0.770 -0.2199 -1.7005  0.2027
 2755SOL    HW219725   2.668   0.537   0.873 -1.5238 -0.1228  0.0367
 2756SOL     OW19726   0.415   2.595   5.896  0.4012 -0.9170 -0.1758
 2756SOL    HW119727   0.464   2.522   5.934  0.9151 -0.9089 -0.8265
 2756SOL    HW219728   0.357   2.539   5.844  0.0862  0.2904 -1.1101
 2757SOL     OW19729   2.909   1.829   8.591 -0.5159 -0.5724  0.2839
 2757SOL    HW119730   2.817   1.822   8.618 -0.9414  0.2059 -0.9882
 2757SOL    HW219731   2.945   1.851   8.677  0.3920 -1.2739  0.0842
 2758SOL     OW19732   2.256   0.241   5.374  0.2009  0.2223  0.4001
 2758SOL    HW119733   2.344   0.239   5.336 -0.2779 -0.2198 -0.6958
 2758SOL    HW219734   2.200   0.190   5.315 -0.1927  1.5886 -0.4069
 2759SOL     OW19735   1.650   0.215   8.285  0.5635  0.1946 -0.3928
 2759SOL    HW119736   1.699   0.250   8.359  0.8899  0.5707 -0.7921
 2759SOL    HW219737   1.709   0.243   8.216  0.2561  1.8008  0.0074
 2760SOL     OW19738   2.583   0.935   3.944 -0.1761  0.2328  0.5330
 2760SOL    HW119739   2.557   1.012   3.893 -0.7388  0.8627  1.7933
 2760SOL    HW219740   2.665   0.951   3.990 -1.0163 -1.0758  2.4907
 2761SOL     OW19741   4.675   2.416  13.924 -0.5106 -0.7097 -0.3243
 2761SOL    HW119742   0.010   2.354  13.880  0.8717  1.1112 -1.0678
 2761SOL    HW219743   0.003   2.436  14.002  1.2244 -0.0372 -1.6311
 2762SOL     OW19744   4.128   3.865  12.070 -0.0071 -0.1063  0.2636
 2762SOL    HW119745   4.130   3.771  12.055  0.0641 -0.3769  2.0530
 2762SOL    HW219746   4.132   3.889  11.977  0.1697 -0.3770  0.2027
 2763SOL     OW19747   3.564   1.306  16.131 -0.1376  0.0113 -0.0185
 2763SOL    HW119748   3.600   1.305  16.220 -0.2148  0.3753  0.0133
 2763SOL    HW219749   3.605   1.384  16.094  2.0009 -1.2862 -0.3814
 2764SOL     OW19750   2.889   3.625   5.840 -0.2448  0.1568  0.9885
 2764SOL    HW119751   2.812   3.595   5.792  0.6389  1.4801 -1.2382
 2764SOL    HW219752   2.907   3.544   5.887 -0.5431  0.0193  0.8695
 2765SOL     OW19753   4.545   0.524  16.038  0.4226 -0.2974 -0.0540
 2765SOL    HW119754   4.497   0.532  15.956 -0.4747  0.3461  0.5315
 2765SOL    HW219755   4.482   0.481  16.096 -1.4233 -0.9587 -2.5451
 2766SOL     OW19756   2.607   4.071  14.887  0.2426 -0.5014 -0.8355
 2766SOL    HW119757   2.675   4.041  14.827  1.2503 -2.3161  1.1863
 2766SOL    HW219758   2.543   4.087  14.818 -0.5509  1.4421  0.3401
 2767SOL     OW19759   3.889   4.691   4.299 -0.0214  0.1080 -0.3457
 2767SOL    HW119760   3.894   0.021   4.220 -0.1564  0.5006 -0.0911
 2767SOL    HW219761   3.964   0.004   4.347  0.3499 -1.2853  0.1313
 2768SOL     OW19762   1.291   4.199   6.502 -0.3174  0.4942 -0.3531
 2768SOL    HW119763   1.336   4.258   6.562 -0.6935 -1.8944  2.2725
 2768SOL    HW219764   1.202   4.225   6.526 -1.1591 -2.8932  0.2014
 2769SOL     OW19765   4.244   0.705   6.094  0.5439  0.2109 -0.5943
 2769SOL    HW119766   4.335   0.679   6.105  0.3712 -0.8617 -1.6426
 2769SOL    HW219767   4.207   0.642   6.032  0.5341 -0.9125  0.5503
 2770SOL     OW19768   4.026   3.904  11.053  0.1521  0.6993  0.0921
 2770SOL    HW119769   4.116   3.928  11.072  0.4315 -0.7010  0.5737
 2770SOL    HW219770   3.969   3.950  11.115 -2.2739 -0.3670 -1.3371
 2771SOL     OW19771   1.293   3.176   2.460 -0.6385 -0.7548 -0.8132
 2771SOL    HW119772   1.206   3.147   2.489 -0.7340  1.9266  1.5880
 2771SOL    HW219773   1.272   3.220   2.378 -0.8344  1.2688  0.3329
 2772SOL     OW19774   2.352   1.063   4.917  0.0411  0.1012  0.1152
 2772SOL    HW119775   2.360   1.079   5.012  0.8395  0.2760  0.0228
 2772SOL    HW219776   2.388   0.976   4.899  0.8525  0.4720 -0.0804
 2773SOL     OW19777   0.405   0.544  16.373  0.0319  0.3844 -0.6139
 2773SOL    HW119778   0.354   0.465  16.355  0.5845 -0.0708 -0.1836
 2773SOL    HW219779   0.486   0.528  16.324 -0.0504 -2.2893  0.1030
 2774SOL     OW19780   3.561   3.128   4.512  0.2934  0.4373 -0.0599
 2774SOL    HW119781   3.502   3.200   4.536  1.7687  1.4189  0.6118
 2774SOL    HW219782   3.546   3.077   4.592 -0.7080  0.4397 -0.2377
 2775SOL     OW19783   2.441   0.341   2.412 -0.1116  0.2391  0.2794
 2775SOL    HW119784   2.460   0.401   2.485 -3.1655  1.1432  0.3098
 2775SOL    HW219785   2.350   0.321   2.433 -1.0362  3.0654 -1.1861
 2776SOL     OW19786   2.261   2.073  10.775  0.3256  0.3352 -0.0382
 2776SOL    HW119787   2.279   2.020  10.852  2.4433  0.8837 -0.1562
 2776SOL    HW219788   2.171   2.092  10.802  0.7986  0.5337  1.3505
 2777SOL     OW19789   4.123   1.812   2.563  0.9133 -0.2744  0.1471
 2777SOL    HW119790   4.080   1.845   2.485  2.8294 -0.6797 -1.0902
 2777SOL    HW219791   4.152   1.896   2.597  0.5768 -0.3680  0.6696
 2778SOL     OW19792   3.501   3.661   6.765 -0.0797 -0.3180 -0.1681
 2778SOL    HW119793   3.475   3.574   6.794 -1.1952  0.0769 -0.0026
 2778SOL    HW219794   3.583   3.640   6.721 -1.6634 -1.7910 -2.3931
 2779SOL     OW19795   3.192   1.234   5.450  0.3723 -0.1435  0.4181
 2779SOL    HW119796   3.124   1.194   5.396  0.0098  0.0240  0.7418
 2779SOL    HW219797   3.147   1.315   5.475 -1.2059 -0.8780 -0.0595
 2780SOL     OW19798   1.404   2.219   7.570  0.0297  0.5257 -0.3445
 2780SOL    HW119799   1.423   2.304   7.529 -1.4338 -0.4522 -3.0582
 2780SOL    HW219800   1.310   2.231   7.582 -0.1468 -1.3124  0.1297
 2781SOL     OW19801   3.528   3.295   7.469 -0.2948  0.4799  0.2504
 2781SOL    HW119802   3.550   3.380   7.431  1.3095  0.8239  1.9327
 2781SOL    HW219803   3.619   3.265   7.472 -0.5410 -0.0308  3.0745
 2782SOL     OW19804   3.933   2.785  12.620  0.2174  0.5377 -0.6607
 2782SOL    HW119805   3.931   2.721  12.691 -0.6357 -0.1924 -1.3410
 2782SOL    HW219806   3.965   2.866  12.660 -2.5810  0.4363  1.7692
 2783SOL     OW19807   1.946   4.401  16.723  0.2953  0.1660 -0.6288
 2783SOL    HW119808   2.033   4.387  16.686  0.0406 -2.1293 -0.3347
 2783SOL    HW219809   1.887   4.376  16.653  1.7624 -1.8066 -1.1702
 2784SOL     OW19810   3.341   2.619  10.858  0.0496 -0.0985  0.3149
 2784SOL    HW119811   3.347   2.550  10.924 -1.3461 -1.1029 -0.6105
 2784SOL    HW219812   3.311   2.686  10.919  1.3489  0.4805  0.3107
 2785SOL     OW19813   3.674   1.064  15.334  0.0565  0.2024  0.2348
 2785SOL    HW119814   3.727   1.144  15.334  2.8874 -1.6783 -0.2825
 2785SOL    HW219815   3.738   0.993  15.328  0.9441  0.8457  2.1686
 2786SOL     OW19816   3.942   4.666  10.746  0.0637 -0.0854 -0.6770
 2786SOL    HW119817   4.031   4.637  10.727 -0.1592 -0.6347 -0.8816
 2786SOL    HW219818   3.962   0.035  10.763 -1.4422 -0.4624  3.0827
 2787SOL     OW19819   2.590   2.446   3.375  0.5103 -0.4959 -0.1213
 2787SOL    HW119820   2.565   2.488   3.457  0.5642 -1.5225  0.4306
 2787SOL    HW219821   2.514   2.472   3.322 -0.6469 -1.8469  0.8563
 2788SOL     OW19822   3.635   4.673  13.997 -0.5410  0.4109 -0.1413
 2788SOL    HW119823   3.579   4.672  14.075 -2.8644  1.4350 -1.7940
 2788SOL    HW219824   3.618   0.034  13.955  1.3605  0.0103 -1.6964
 2789SOL     OW19825   3.323   2.565   3.159  0.2059  0.4665 -0.7717
 2789SOL    HW119826   3.349   2.541   3.070  0.5483  2.4667 -1.2211
 2789SOL    HW219827   3.391   2.630   3.180  1.6667 -1.1562 -0.4498
 2790SOL     OW19828   3.682   1.342   2.047 -0.6793  0.0047  0.4741
 2790SOL    HW119829   3.666   1.283   2.121 -0.7965 -2.0649 -1.1691
 2790SOL    HW219830   3.741   1.297   1.987 -3.8852 -0.1678 -2.5800
 2791SOL     OW19831   0.646   3.242   9.589  0.3626  0.5509 -0.6878
 2791SOL    HW119832   0.556   3.219   9.565  0.6821  0.4228 -1.7777
 2791SOL    HW219833   0.653   3.197   9.673  1.3187  1.5691 -0.2105
 2792SOL     OW19834   4.441   0.823   7.182  0.1959  0.4468  0.6864
 2792SOL    HW119835   4.359   0.844   7.225  0.2844  2.3847 -0.0680
 2792SOL    HW219836   4.427   0.729   7.194  2.3507 -0.1150 -1.1282
 2793SOL     OW19837   2.691   4.316  17.670 -0.1417  0.2133 -0.0197
 2793SOL    HW119838   2.768   4.264  17.648 -0.3294  0.0737 -0.3388
 2793SOL    HW219839   2.652   4.261   0.043 -3.3746  1.9966 -0.4450
 2794SOL     OW19840   1.291   4.557   5.085 -0.0828  0.1093  0.0592
 2794SOL    HW119841   1.379   4.536   5.055  0.2171  1.7253 -0.1821
 2794SOL    HW219842   1.232   4.517   5.021  2.6736 -0.5459 -2.0539
 2795SOL     OW19843   4.505   4.408  14.881 -0.3922 -0.0418 -0.0431
 2795SOL    HW119844   4.539   4.329  14.840 -0.5539  1.4453 -3.0730
 2795SOL    HW219845   4.482   4.375  14.968  0.8889 -0.1983  0.2275
 2796SOL     OW19846   2.221   4.481  10.642  0.2604 -0.1048 -0.7082
 2796SOL    HW119847   2.291   4.421  10.668 -0.1564  0.2441  1.2379
 2796SOL    HW219848   2.161   4.465  10.715  1.7107 -1.4967  0.1887
 2797SOL     OW19849   3.526   1.914   4.492 -0.3829 -0.0352  0.1103
 2797SOL    HW119850   3.586   1.851   4.533 -2.3494 -1.7971  0.3111
 2797SOL    HW219851   3.442   1.890   4.532 -1.0244 -0.1208 -1.2829
 2798SOL     OW19852   2.057   1.841  11.454 -0.1358 -0.0438 -0.1896
 2798SOL    HW119853   2.037   1.843  11.360  1.1688  1.1782 -0.4302
 2798SOL    HW219854   2.108   1.760  11.461  0.1183  0.1097 -0.2546
 2799SOL     OW19855   3.159   1.487   4.671  0.2326  0.1970  0.5378
 2799SOL    HW119856   3.253   1.488   4.688  1.0628 -0.8748 -3.8417
 2799SOL    HW219857   3.153   1.398   4.637 -0.5824 -0.0409  1.2984
 2800SOL     OW19858   1.763   0.965   5.460 -0.1576  0.1448 -0.2430
 2800SOL    HW119859   1.820   1.003   5.393  0.2762 -0.8521 -0.4412
 2800SOL    HW219860   1.824   0.920   5.517  3.2075  2.6224 -1.8455
 2801SOL     OW19861   1.594   3.757  13.568 -0.3810  0.3565  0.3826
 2801SOL    HW119862   1.664   3.695  13.586  0.4388  1.0801 -0.3148
 2801SOL    HW219863   1.591   3.743  13.473 -1.2266 -1.0806  0.6214
 2802SOL     OW19864   1.056   3.937   5.945  0.2420 -0.0353 -0.0650
 2802SOL    HW119865   1.007   3.855   5.941  2.1357 -1.0509 -2.2125
 2802SOL    HW219866   1.118   3.920   6.016  0.6783  0.1714 -0.3934
 2803SOL     OW19867   1.319   1.770  11.374  0.8821 -0.0090  0.7566
 2803SOL    HW119868   1.312   1.726  11.458  1.7297 -1.5842  0.0004
 2803SOL    HW219869   1.296   1.857  11.406 -0.8490 -0.0679 -0.2814
 2804SOL     OW19870   0.158   4.657   2.867 -0.3655 -0.0648  0.4751
 2804SOL    HW119871   0.225   4.686   2.804 -3.2519  2.4463 -1.4413
 2804SOL    HW219872   0.082   4.699   2.827  0.1652 -0.3516 -0.8388
 2805SOL     OW19873   2.494   0.235   8.292  0.1906 -0.4101 -0.0531
 2805SOL    HW119874   2.485   0.248   8.198 -2.9877 -1.8297  0.0500
 2805SOL    HW219875   2.407   0.258   8.326  0.5901 -2.0271  2.0750
 2806SOL     OW19876   2.467   1.817   3.445  0.2906 -0.3546  0.3455
 2806SOL    HW119877   2.476   1.818   3.540 -2.5115  1.2726  0.5982
 2806SOL    HW219878   2.521   1.891   3.419 -0.0682 -0.4429 -0.6413
 2807SOL     OW19879   3.992   4.146   3.450 -0.5553 -0.5789  0.3868
 2807SOL    HW119880   4.007   4.241   3.450  3.9947 -1.3213 -1.1540
 2807SOL    HW219881   3.903   4.144   3.415 -1.2131 -3.8344  2.2815
 2808SOL     OW19882   4.646   2.691   4.626 -0.2742 -0.4835 -0.2462
 2808SOL    HW119883   4.561   2.669   4.663  0.2038  0.0956  1.2022
 2808SOL    HW219884   4.645   2.637   4.546 -0.9642 -1.9580  0.7457
 2809SOL     OW19885   2.899   0.385   1.740 -0.2399 -0.1997 -0.0217
 2809SOL    HW119886   2.821   0.421   1.781 -0.0643  0.9047 -0.6549
 2809SOL    HW219887   2.858   0.369   1.655 -2.2125  1.3809  0.6340
 2810SOL     OW19888   1.648   0.647   5.017 -0.7959  0.1415 -0.2207
 2810SOL    HW119889   1.678   0.582   5.079  0.8659  2.8132  1.7790
 2810SOL    HW219890   1.681   0.609   4.936  0.8552  2.4625 -0.6478
 2811SOL     OW19891   1.980   3.148   0.474  0.1091 -0.4012  0.3756
 2811SOL    HW119892   1.942   3.184   0.393 -1.1932 -0.2499  1.0601
 2811SOL    HW219893   1.912   3.157   0.541 -0.2531  2.5838 -0.4154
 2812SOL     OW19894   4.536   2.640   2.657  0.0966 -0.0931  0.0889
 2812SOL    HW119895   4.564   2.658   2.567 -0.4192  0.7093  0.0924
 2812SOL    HW219896   4.449   2.678   2.655 -0.4509 -1.1533  3.2191
 2813SOL     OW19897   1.585   1.075   0.343  0.8139 -0.2484  0.0001
 2813SOL    HW119898   1.610   1.048   0.254 -0.0079  1.6874 -0.8175
 2813SOL    HW219899   1.555   1.165   0.331 -1.3153 -0.9080  0.3179
 2814SOL     OW19900   3.377   0.816   4.954 -0.3093  0.3774  0.0260
 2814SOL    HW119901   3.400   0.771   4.872 -4.4033  0.5912 -1.2294
 2814SOL    HW219902   3.443   0.885   4.959  1.8350 -1.4300 -3.4439
 2815SOL     OW19903   3.864   0.919  13.283 -0.5882 -0.2010  0.5164
 2815SOL    HW119904   3.957   0.938  13.292 -0.3877 -0.8008 -0.3017
 2815SOL    HW219905   3.852   0.891  13.374 -0.1345  1.0160  0.9594
 2816SOL     OW19906   4.075   1.251   6.211  0.5026  1.0400  0.8587
 2816SOL    HW119907   4.118   1.333   6.186 -2.0786  1.4882 -2.0980
 2816SOL    HW219908   4.029   1.274   6.292  1.0016 -0.2267  1.4991
 2817SOL     OW19909   4.331   2.409   5.677  0.1518  0.8344 -0.1128
 2817SOL    HW119910   4.372   2.494   5.661 -0.4087  1.6088  2.5313
 2817SOL    HW219911   4.294   2.419   5.765  0.7514  0.0670  0.2287
 2818SOL     OW19912   1.911   3.682   4.631 -0.0194  0.0001 -0.2110
 2818SOL    HW119913   1.964   3.761   4.616 -0.9595  0.2183 -2.4643
 2818SOL    HW219914   1.920   3.646   4.542  0.2609 -1.5969  0.4735
 2819SOL     OW19915   3.542   4.004   8.614 -0.3734  0.1750 -0.0098
 2819SOL    HW119916   3.510   4.016   8.524 -0.8625 -0.9107  0.0135
 2819SOL    HW219917   3.509   4.077   8.665 -0.0319  0.3858 -0.0920
 2820SOL     OW19918   1.892   2.608   2.903  0.6683 -0.5862  0.2265
 2820SOL    HW119919   1.901   2.703   2.913  0.3654 -0.6329  0.9627
 2820SOL    HW219920   1.920   2.613   2.811  1.0076 -3.0522  0.1946
 2821SOL     OW19921   0.893   0.281  13.570 -0.5534 -0.0993 -0.7127
 2821SOL    HW119922   0.826   0.300  13.505  0.2077 -0.3746 -1.5703
 2821SOL    HW219923   0.908   0.364  13.616 -0.1099 -0.5314 -0.0757
 2822SOL     OW19924   3.143   3.745  15.134 -0.4174 -0.7418  0.2656
 2822SOL    HW119925   3.142   3.650  15.126  1.1380 -0.6643 -0.7361
 2822SOL    HW219926   3.236   3.762  15.149 -0.8080 -0.0218  1.8911
 2823SOL     OW19927   4.647   0.617   6.821 -0.0283 -0.6023  0.2498
 2823SOL    HW119928   4.707   0.555   6.780  0.1661 -1.1780  1.3836
 2823SOL    HW219929   4.673   0.700   6.782  2.2319 -0.6114  1.7445
 2824SOL     OW19930   1.480   1.103   7.115  0.3475 -0.2826 -0.0800
 2824SOL    HW119931   1.451   1.188   7.147 -1.3913 -0.9525  0.1123
 2824SOL    HW219932   1.520   1.070   7.196 -0.5618  0.1636  0.5418
 2825SOL     OW19933   3.136   1.240   9.112  0.0992 -0.3545 -0.0555
 2825SOL    HW119934   3.066   1.237   9.177 -0.1697  0.8374 -0.2860
 2825SOL    HW219935   3.185   1.160   9.131  0.4057 -0.5402 -1.6110
 2826SOL     OW19936   3.194   2.850   5.633 -0.1228  0.3109 -0.0510
 2826SOL    HW119937   3.116   2.902   5.650  0.7481  2.3517 -2.2359
 2826SOL    HW219938   3.161   2.775   5.584 -0.3361 -0.0496  0.6364
 2827SOL     OW19939   1.588   1.821   1.621  0.1793  0.7258  0.0538
 2827SOL    HW119940   1.497   1.808   1.594  0.9288  0.9717 -2.5979
 2827SOL    HW219941   1.616   1.905   1.586 -1.1759  1.8834  1.7969
 2828SOL     OW19942   2.500   1.667   9.661  0.8196  0.3504  0.1542
 2828SOL    HW119943   2.429   1.732   9.663 -2.4494 -3.3172  2.1863
 2828SOL    HW219944   2.569   1.714   9.613 -0.1845  3.3895  1.7107
 2829SOL     OW19945   3.551   4.344   2.749  0.8286 -0.5608 -0.2888
 2829SOL    HW119946   3.545   4.318   2.657  0.5492  0.0604 -0.4439
 2829SOL    HW219947   3.564   4.439   2.752  0.1345 -0.4350 -1.1176
 2830SOL     OW19948   3.470   0.275   6.801 -0.1325  0.3840  0.1391
 2830SOL    HW119949   3.565   0.272   6.813 -0.4455 -3.3511  1.6360
 2830SOL    HW219950   3.464   0.202   6.739 -0.4973  0.5111  0.0236
 2831SOL     OW19951   1.533   1.108   5.486 -0.4863  0.2630 -0.4422
 2831SOL    HW119952   1.622   1.073   5.487 -0.8047 -0.5232  0.6861
 2831SOL    HW219953   1.540   1.166   5.410  1.3871 -1.4683 -1.5954
 2832SOL     OW19954   1.555   2.767  16.224 -0.2534  0.1342  0.0135
 2832SOL    HW119955   1.507   2.699  16.271 -0.8644 -0.9405 -2.1830
 2832SOL    HW219956   1.506   2.848  16.239  2.1333  1.6313 -0.2858
 2833SOL     OW19957   3.540   3.406   5.187  0.7404 -0.1630 -0.1671
 2833SOL    HW119958   3.566   3.326   5.233  0.1236 -0.8887 -1.0945
 2833SOL    HW219959   3.593   3.468   5.237  0.8166 -0.6408  0.3463
 2834SOL     OW19960   0.104   3.994   5.118 -0.4164 -0.5271 -0.1001
 2834SOL    HW119961   0.136   4.058   5.055  0.1258  0.8431  1.5631
 2834SOL    HW219962   0.187   3.988   5.164 -0.8354  1.2255  0.9072
 2835SOL     OW19963   3.092   3.626   2.264  0.1448 -0.8179  0.1997
 2835SOL    HW119964   3.059   3.704   2.308  1.3345  0.2018 -0.6857
 2835SOL    HW219965   3.051   3.649   2.180 -0.5395 -0.7734  0.5514
 2836SOL     OW19966   0.902   3.852   0.764 -1.1261 -0.0332 -0.0006
 2836SOL    HW119967   0.929   3.761   0.756  1.3090  0.6629  0.1240
 2836SOL    HW219968   0.989   3.890   0.749 -0.4277 -0.7432  2.2680
 2837SOL     OW19969   1.277   1.876   3.967 -0.1463 -0.3300  0.0141
 2837SOL    HW119970   1.369   1.849   3.974  0.8882  2.8123 -1.2971
 2837SOL    HW219971   1.287   1.968   3.945  2.5672 -0.5420  0.2686
 2838SOL     OW19972   2.102   1.862  12.834 -0.3109  0.4582 -0.3997
 2838SOL    HW119973   2.191   1.865  12.801 -0.0329  1.0011  0.4000
 2838SOL    HW219974   2.055   1.901  12.760 -1.1572 -2.0002 -1.1575
 2839SOL     OW19975   3.058   4.276  17.641 -0.4280  0.0344  0.0090
 2839SOL    HW119976   3.050   4.352   0.003 -0.8331 -0.0231  0.0306
 2839SOL    HW219977   3.113   4.229   0.009  0.7469 -0.1666 -1.1655
 2840SOL     OW19978   3.370   2.415  15.938 -0.0788  0.7204  0.4189
 2840SOL    HW119979   3.385   2.442  15.848  3.1020 -1.0446  0.4048
 2840SOL    HW219980   3.431   2.342  15.928 -0.4776  0.2577  1.3617
 2841SOL     OW19981   0.621   2.736  16.602 -0.3058 -0.2511  0.0624
 2841SOL    HW119982   0.570   2.747  16.522 -0.0280  0.7561  0.0290
 2841SOL    HW219983   0.702   2.715  16.555  1.0770 -1.1979  2.8505
 2842SOL     OW19984   3.213   1.702   6.843  0.5615  0.3185  0.5284
 2842SOL    HW119985   3.146   1.729   6.907 -0.0180 -0.2036  0.1456
 2842SOL    HW219986   3.164   1.696   6.761  2.3816 -2.7184 -0.3312
 2843SOL     OW19987   1.133   4.051   4.408  0.0087 -0.2164 -0.3369
 2843SOL    HW119988   1.206   3.989   4.408  0.9005  0.8290 -0.0733
 2843SOL    HW219989   1.157   4.123   4.465  0.5956  0.0486 -0.9194
 2844SOL     OW19990   2.121   3.113   3.524  0.0671 -0.0471 -0.2245
 2844SOL    HW119991   2.106   3.101   3.430 -1.6202  0.0375  0.0402
 2844SOL    HW219992   2.046   3.165   3.553  2.6317  0.7109  4.9141
 2845SOL     OW19993   2.825   3.460   2.068  0.4974  0.1788 -0.5907
 2845SOL    HW119994   2.860   3.548   2.060  0.1271  0.2845 -1.0248
 2845SOL    HW219995   2.739   3.472   2.027  0.7681  0.3154 -1.1119
 2846SOL     OW19996   0.688   2.346   6.791 -0.1174 -0.2392 -0.0905
 2846SOL    HW119997   0.768   2.398   6.796  0.6620 -1.4080 -0.2392
 2846SOL    HW219998   0.697   2.314   6.701  2.0399 -1.0718  0.4041
 2847SOL     OW19999   1.644   0.266   7.769 -0.3444  0.5150  0.2763
 2847SOL    HW120000   1.674   0.338   7.824  0.0856  0.2413  0.3950
 2847SOL    HW220001   1.676   0.298   7.685  0.8451 -0.5419  0.3306
 2848SOL     OW20002   2.070   2.099   4.981  0.6403  0.4369  0.2948
 2848SOL    HW120003   2.113   2.184   4.981 -1.8063  1.6696  2.2051
 2848SOL    HW220004   2.139   2.060   4.927 -0.9906 -1.7275 -0.2530
 2849SOL     OW20005   4.257   1.575   3.751  0.1840  0.2121  0.5005
 2849SOL    HW120006   4.163   1.590   3.737  0.3966 -1.1987 -2.4120
 2849SOL    HW220007   4.271   1.488   3.712 -0.9264  0.6334 -0.8584
 2850SOL     OW20008   0.500   2.759   6.413 -0.7580 -0.4589 -0.1456
 2850SOL    HW120009   0.568   2.820   6.384 -1.7956  0.7392 -0.0963
 2850SOL    HW220010   0.455   2.805   6.484 -2.6393 -0.4523 -1.3445
 2851SOL     OW20011   0.618   3.866   3.978  0.0447 -0.2525 -0.1447
 2851SOL    HW120012   0.580   3.939   4.027  0.3339 -0.5557  0.5248
 2851SOL    HW220013   0.712   3.883   3.982  0.4636 -2.5480 -0.2739
 2852SOL     OW20014   2.445   2.277   4.428  0.2107  0.1440 -0.6582
 2852SOL    HW120015   2.473   2.338   4.359 -2.0467 -0.3071 -1.9964
 2852SOL    HW220016   2.364   2.326   4.443 -0.5962 -1.3479 -0.1333
 2853SOL     OW20017   2.026   4.222   5.494  0.1387  0.4115  0.6556
 2853SOL    HW120018   2.087   4.189   5.429 -2.2511 -0.4368 -1.1530
 2853SOL    HW220019   2.086   4.243   5.565 -0.5366 -1.2730  1.7236
 2854SOL     OW20020   4.390   3.110   6.386  0.2530  0.3206  0.1602
 2854SOL    HW120021   4.405   3.137   6.295  1.4394 -0.1873  0.2071
 2854SOL    HW220022   4.404   3.016   6.377 -0.6255  0.3734 -1.7892
 2855SOL     OW20023   0.458   1.790   2.257  0.1882 -0.3074 -0.1521
 2855SOL    HW120024   0.465   1.801   2.162  1.1084  0.5269  0.0032
 2855SOL    HW220025   0.542   1.759   2.290 -0.5824 -1.7406  0.4246
 2856SOL     OW20026   1.116   2.835   6.966 -0.1523 -0.4140 -0.1899
 2856SOL    HW120027   1.027   2.834   7.001  0.7179 -0.2769  2.0320
 2856SOL    HW220028   1.144   2.924   6.988 -0.1714 -1.1627  2.8976
 2857SOL     OW20029   2.213   1.514   7.236 -0.1195  0.1590 -0.7074
 2857SOL    HW120030   2.265   1.537   7.158  0.2220  0.0090 -0.5253
 2857SOL    HW220031   2.148   1.459   7.193 -1.1375  1.2622 -0.5496
 2858SOL     OW20032   0.090   0.036   4.960 -0.6373  0.2350  0.5216
 2858SOL    HW120033   0.053   0.125   4.957 -0.8521  0.1302  0.1593
 2858SOL    HW220034   0.019   4.700   4.985  0.2266 -0.2753  1.7261
 2859SOL     OW20035   3.234   1.582   6.172 -0.2167 -0.5106  0.0283
 2859SOL    HW120036   3.296   1.642   6.214  0.9765 -1.0377 -0.9835
 2859SOL    HW220037   3.275   1.496   6.181  0.5937 -0.0862  0.4050
 2860SOL     OW20038   3.611   3.717   3.071  0.1326  0.2466  0.0784
 2860SOL    HW120039   3.544   3.738   3.136 -0.0913 -2.8502  0.8597
 2860SOL    HW220040   3.582   3.769   2.997  0.9660 -0.6294 -0.8663
 2861SOL     OW20041   1.559   1.545   2.860  0.2230 -0.2794  0.2330
 2861SOL    HW120042   1.627   1.574   2.921  0.0307 -0.0256  0.3276
 2861SOL    HW220043   1.515   1.489   2.924 -0.3307 -0.2529 -0.1236
 2862SOL     OW20044   4.489   1.253   3.585  0.1201 -0.3956 -0.3326
 2862SOL    HW120045   4.447   1.223   3.665 -1.4661  1.4296 -0.4538
 2862SOL    HW220046   4.443   1.191   3.527 -1.6595 -0.3879  1.0643
 2863SOL     OW20047   0.210   3.769   0.878  0.2420  0.0979 -0.4294
 2863SOL    HW120048   0.253   3.771   0.963  1.9028 -1.5762 -1.2278
 2863SOL    HW220049   0.135   3.828   0.890 -0.0399 -0.2538 -0.4658
 2864SOL     OW20050   2.055   2.022  16.053  0.1755  0.2608  0.4836
 2864SOL    HW120051   2.086   1.932  16.054 -1.1606 -0.2260 -2.0785
 2864SOL    HW220052   2.102   2.048  15.973  2.1323  0.0908  1.5804
 2865SOL     OW20053   0.201   3.225  12.111  0.0934 -0.2094  0.2251
 2865SOL    HW120054   0.209   3.190  12.200 -0.1038  0.1624  0.3876
 2865SOL    HW220055   0.167   3.313  12.126 -1.7642 -0.2019 -4.1828
 2866SOL     OW20056   1.311   3.961   6.265 -0.1250 -0.0370 -0.0574
 2866SOL    HW120057   1.321   3.915   6.348  0.1931  2.2277  1.1600
 2866SOL    HW220058   1.222   3.994   6.262 -0.1353 -0.0264  0.3016
 2867SOL     OW20059   2.962   1.109   2.327  0.1396 -0.0258  0.2105
 2867SOL    HW120060   3.043   1.080   2.369  2.0820  1.4989 -2.4886
 2867SOL    HW220061   2.973   1.050   2.252  2.2483  2.0237 -1.0621
 2868SOL     OW20062   3.520   0.760   2.749 -0.6479  0.4392 -0.3900
 2868SOL    HW120063   3.554   0.836   2.702 -1.7581  0.8864 -0.4672
 2868SOL    HW220064   3.458   0.718   2.689  0.5986 -1.9625  0.0006
 2869SOL     OW20065   4.016   3.175   7.886  0.1209 -0.2826  0.4484
 2869SOL    HW120066   4.087   3.142   7.832  1.1835  0.8744  1.1629
 2869SOL    HW220067   3.977   3.092   7.916 -0.1056 -0.3214  0.0454
 2870SOL     OW20068   1.189   0.932   5.039 -0.0091  0.2357  0.2056
 2870SOL    HW120069   1.107   0.900   5.001  0.6884 -1.5767  0.2367
 2870SOL    HW220070   1.251   0.861   5.021 -0.4040  0.1681 -0.9277
 2871SOL     OW20071   3.542   0.652   4.293 -0.2622  0.1200 -0.1013
 2871SOL    HW120072   3.546   0.559   4.270 -1.2884  0.5738 -2.0865
 2871SOL    HW220073   3.575   0.658   4.383  0.4976 -1.2511 -0.3014
 2872SOL     OW20074   2.608   0.123   1.791 -0.1276 -0.5349 -0.5569
 2872SOL    HW120075   2.549   0.061   1.748  0.9829 -1.8898 -0.1329
 2872SOL    HW220076   2.688   0.078   1.761  0.7265 -0.6629  1.9149
 2873SOL     OW20077   0.416   2.831   7.151  0.0327  0.4587 -0.0753
 2873SOL    HW120078   0.399   2.913   7.198  0.9134  1.2383 -1.1201
 2873SOL    HW220079   0.437   2.874   7.068  1.2558  0.5345  0.2681
 2874SOL     OW20080   2.165   3.040   4.659 -0.1897  0.2105 -0.2501
 2874SOL    HW120081   2.085   3.063   4.611 -0.7356 -0.0641  0.5317
 2874SOL    HW220082   2.202   3.127   4.676 -1.7562  0.6848  0.7686
 2875SOL     OW20083   3.432   2.725   7.051  0.0833 -0.0911  0.2587
 2875SOL    HW120084   3.477   2.645   7.080  0.0154  0.0284  0.7048
 2875SOL    HW220085   3.492   2.748   6.980 -1.6388  1.5981 -0.6586
 2876SOL     OW20086   2.351   3.238   7.558 -0.7765  0.0171  0.3378
 2876SOL    HW120087   2.265   3.274   7.537 -0.5926 -1.0806 -2.2281
 2876SOL    HW220088   2.364   3.271   7.647 -0.2048 -0.5496  0.4602
 2877SOL     OW20089   1.429   0.795   1.140  0.0758  0.2352  0.1901
 2877SOL    HW120090   1.447   0.855   1.213 -2.3384  0.9372  0.1836
 2877SOL    HW220091   1.340   0.764   1.155  1.4345 -2.3282  2.8335
 2878SOL     OW20092   0.020   0.590  13.316  0.2731  0.4089  0.5671
 2878SOL    HW120093   0.058   0.654  13.376 -0.5372 -0.3173  1.8491
 2878SOL    HW220094   4.723   0.517  13.374 -0.5770 -0.8874 -1.3496
 2879SOL     OW20095   0.798   2.775   2.385  0.0135 -0.8026 -0.0032
 2879SOL    HW120096   0.733   2.760   2.455  1.6312 -3.1578  1.0055
 2879SOL    HW220097   0.819   2.683   2.367  0.2618 -0.7240 -0.1154
 2880SOL     OW20098   0.590   0.426   5.614  0.8002 -0.1407  0.1620
 2880SOL    HW120099   0.639   0.486   5.669  0.7145  0.6457 -0.6211
 2880SOL    HW220100   0.664   0.381   5.573  1.4897  2.1014 -1.0670
 2881SOL     OW20101   3.489   3.962  10.981 -0.2871 -0.5403 -0.3213
 2881SOL    HW120102   3.560   4.025  10.991 -1.3883  0.5409  0.7372
 2881SOL    HW220103   3.491   3.913  11.063  0.2240 -0.3829 -0.2405
 2882SOL     OW20104   2.652   0.858   3.269 -0.6458 -0.3263  0.2371
 2882SOL    HW120105   2.621   0.794   3.332 -3.1412 -0.4443 -1.1031
 2882SOL    HW220106   2.666   0.933   3.327  1.1898  0.8528 -1.7121
 2883SOL     OW20107   1.862   1.139   0.143 -0.4727  0.0873  0.2684
 2883SOL    HW120108   1.814   1.222   0.141  0.9068  0.7819 -4.0989
 2883SOL    HW220109   1.919   1.152   0.219  0.4858 -2.6188 -0.0120
 2884SOL     OW20110   1.541   2.040   5.905 -0.1867 -0.6991 -0.0939
 2884SOL    HW120111   1.448   2.028   5.926  0.2710 -3.4597  0.4710
 2884SOL    HW220112   1.553   2.126   5.867  1.1425 -0.4148  0.9798
 2885SOL     OW20113   4.151   0.724   8.007  0.0304 -0.1498  0.0300
 2885SOL    HW120114   4.115   0.636   8.020  0.8649 -0.8203 -2.2028
 2885SOL    HW220115   4.110   0.771   8.080  0.1683 -0.6442  0.4286
 2886SOL     OW20116   1.904   2.090   2.034  0.8986 -0.2502  0.3349
 2886SOL    HW120117   1.818   2.079   1.993  1.1698 -1.0357 -0.0294
 2886SOL    HW220118   1.898   2.182   2.059 -1.5366 -0.6846  1.4214
 2887SOL     OW20119   0.524   4.376   4.941  0.3679 -0.3559 -0.1179
 2887SOL    HW120120   0.559   4.439   4.878 -0.1786  0.9567  0.8643
 2887SOL    HW220121   0.438   4.412   4.966  1.8908  3.4783 -0.3291
 2888SOL     OW20122   1.226   0.672   9.643 -0.1459 -0.1162 -0.0855
 2888SOL    HW120123   1.202   0.760   9.617 -0.5983  0.0644  0.9278
 2888SOL    HW220124   1.276   0.681   9.725 -0.8876  2.2181  0.0962
 2889SOL     OW20125   4.158   1.507  13.587  0.1936  0.0427 -0.1548
 2889SOL    HW120126   4.071   1.469  13.594 -0.9261  2.3683 -1.4077
 2889SOL    HW220127   4.162   1.552  13.503  3.5234  0.6143  0.2917
 2890SOL     OW20128   3.365   2.538  17.625  0.4681 -0.0740 -0.2618
 2890SOL    HW120129   3.428   2.584  17.569 -1.8058  1.1652 -1.7933
 2890SOL    HW220130   3.425   2.498  17.688  0.9561 -0.8219 -1.1949
 2891SOL     OW20131   1.658   3.804   7.275 -0.2803 -0.5460  0.1521
 2891SOL    HW120132   1.580   3.750   7.260 -1.1471  0.5647  0.6897
 2891SOL    HW220133   1.726   3.737   7.272  0.3614  0.0817  0.6420
 2892SOL     OW20134   1.602   1.998   6.693 -0.1967  0.2859 -0.6835
 2892SOL    HW120135   1.558   2.045   6.622  0.3422  2.5054  0.4225
 2892SOL    HW220136   1.551   1.918   6.694  1.6824 -0.9123 -0.9924
 2893SOL     OW20137   0.284   4.374   9.903 -0.0577  0.2162 -0.0497
 2893SOL    HW120138   0.333   4.323   9.967  1.3530  0.8098 -0.6466
 2893SOL    HW220139   0.246   4.440   9.961  0.2781 -0.2875  0.7398
 2894SOL     OW20140   3.863   3.700   4.749  0.0771 -0.2556 -0.4385
 2894SOL    HW120141   3.918   3.764   4.794 -0.3543  0.6951 -1.2672
 2894SOL    HW220142   3.857   3.743   4.665  1.8969 -0.4572 -0.6769
 2895SOL     OW20143   2.759   3.039   6.891 -0.1803 -0.1563  0.5099
 2895SOL    HW120144   2.837   3.091   6.873 -0.1208  0.5517  2.7067
 2895SOL    HW220145   2.800   2.954   6.875 -1.3399 -0.5614 -0.3013
 2896SOL     OW20146   1.561   0.028   5.475 -0.2772  0.1503  0.1324
 2896SOL    HW120147   1.649   4.713   5.473 -0.4914 -0.2653 -1.3474
 2896SOL    HW220148   1.574   0.110   5.427  0.7974 -0.6600 -0.9758
 2897SOL     OW20149   1.403   1.925  12.148 -0.4169 -0.9445 -0.4780
 2897SOL    HW120150   1.474   1.864  12.127 -0.1293 -1.0214  0.7650
 2897SOL    HW220151   1.411   1.926  12.243 -2.4451  3.1354 -0.3527
 2898SOL     OW20152   0.571   1.358   5.649  0.0677  0.6008  0.8208
 2898SOL    HW120153   0.564   1.320   5.562  1.0067 -2.6445  2.1741
 2898SOL    HW220154   0.666   1.358   5.657  0.0054  1.9085  1.6066
 2899SOL     OW20155   2.114   2.139  12.640  0.0902 -0.1539 -0.8453
 2899SOL    HW120156   2.207   2.131  12.621  0.4894  1.8382  0.2070
 2899SOL    HW220157   2.086   2.048  12.637 -0.7780  0.1413 -1.9566
 2900SOL     OW20158   3.300   1.936   5.458  0.4657  0.1594  0.3306
 2900SOL    HW120159   3.340   1.929   5.545 -0.0015  1.0693  0.6170
 2900SOL    HW220160   3.302   1.842   5.439  2.1516  0.3211 -0.2730
 2901SOL     OW20161   0.105   0.177  10.525  0.3601  0.1147  0.0832
 2901SOL    HW120162   0.132   0.131  10.605  1.7931 -1.5979 -1.3837
 2901SOL    HW220163   0.129   0.106  10.465  0.0405 -2.0623  2.5153
 2902SOL     OW20164   3.029   2.685  13.811 -0.2019  0.1874  0.0705
 2902SOL    HW120165   2.989   2.608  13.852 -2.4817  0.2773 -1.9450
 2902SOL    HW220166   2.955   2.745  13.798  0.2505  0.4718 -1.2295
 2903SOL     OW20167   3.456   0.020   6.094 -0.8786 -0.4867 -0.0958
 2903SOL    HW120168   3.528   4.699   6.048 -2.1799 -0.9152 -1.7141
 2903SOL    HW220169   3.498   0.101   6.122 -1.0883 -0.8446  1.2900
 2904SOL     OW20170   1.129   1.897   4.263  0.2177 -0.4062 -0.0432
 2904SOL    HW120171   1.222   1.881   4.244  0.4590  0.0798  0.7394
 2904SOL    HW220172   1.129   1.921   4.356 -0.5690  1.3282 -0.5115
 2905SOL     OW20173   3.079   2.520  13.347  0.6244  0.3692 -0.0317
 2905SOL    HW120174   3.170   2.526  13.377  1.0162 -1.6979 -0.8341
 2905SOL    HW220175   3.023   2.520  13.425  1.1515 -1.3669  0.3390
 2906SOL     OW20176   2.646   0.224  12.225  0.0904  0.3770  0.1388
 2906SOL    HW120177   2.688   0.142  12.200 -1.2763  0.0291 -0.9977
 2906SOL    HW220178   2.598   0.203  12.305  1.5681  0.6805  1.0997
 2907SOL     OW20179   2.454   0.377   4.602 -0.0583  0.4100  0.0054
 2907SOL    HW120180   2.407   0.295   4.616  0.5568 -0.2429 -1.7232
 2907SOL    HW220181   2.505   0.387   4.682 -4.0609  1.1621  2.4305
 2908SOL     OW20182   0.823   4.423   1.238 -0.0067 -0.0655  0.2688
 2908SOL    HW120183   0.854   4.335   1.215 -2.8245 -0.9641 -0.0752
 2908SOL    HW220184   0.731   4.423   1.210  0.2117  0.4919 -0.4610
 2909SOL     OW20185   0.465   4.620   2.481 -0.0618 -0.2340  0.2622
 2909SOL    HW120186   0.373   4.594   2.478 -0.4454  0.9713  1.6609
 2909SOL    HW220187   0.501   4.535   2.456  1.6651  0.0799  1.6860
 2910SOL     OW20188   2.757   1.543   7.531  0.4203  0.3111  0.1556
 2910SOL    HW120189   2.702   1.605   7.579  1.0359 -0.1647  1.5039
 2910SOL    HW220190   2.828   1.603   7.507  1.8696 -1.8477 -0.8938
 2911SOL     OW20191   3.588   0.884   4.171  0.3518 -0.5098  0.6166
 2911SOL    HW120192   3.557   0.813   4.227  0.6360  0.3754  1.8683
 2911SOL    HW220193   3.580   0.835   4.089 -1.2508  2.9439 -1.3045
 2912SOL     OW20194   1.561   3.191   7.800  0.1745 -1.1365  0.3314
 2912SOL    HW120195   1.542   3.170   7.708 -0.2193  0.7842 -0.0278
 2912SOL    HW220196   1.477   3.228   7.828 -0.1327  0.7448 -2.9646
 2913SOL     OW20197   0.251   2.778   6.077  0.6725  0.2099 -0.2489
 2913SOL    HW120198   0.278   2.716   6.009  1.0159  0.5750 -0.4529
 2913SOL    HW220199   0.341   2.799   6.103  0.7711 -1.4313  0.6847
 2914SOL     OW20200   4.135   2.064  10.329 -0.1283  0.0593 -0.2608
 2914SOL    HW120201   4.127   2.091  10.238  1.2372 -2.1276 -1.0446
 2914SOL    HW220202   4.196   1.990  10.326  0.1117  0.3572 -2.2894
 2915SOL     OW20203   2.943   2.578   8.046 -0.3135 -0.0580 -0.2182
 2915SOL    HW120204   2.921   2.583   8.139 -1.5110 -2.0962 -0.3940
 2915SOL    HW220205   3.038   2.593   8.044 -0.2093 -0.9029 -1.6232
 2916SOL     OW20206   0.729   1.148   4.598  0.2891  0.3274  0.6585
 2916SOL    HW120207   0.692   1.083   4.658 -0.1281  0.3714  0.4526
 2916SOL    HW220208   0.820   1.147   4.627  0.7381 -0.1357 -0.7540
 2917SOL     OW20209   1.174   3.893   3.114 -0.1683  0.3495  0.3877
 2917SOL    HW120210   1.229   3.954   3.164  1.7546  1.0554 -2.5932
 2917SOL    HW220211   1.176   3.830   3.186  2.6094  0.4132  0.3929
 2918SOL     OW20212   3.852   0.094   4.057  0.0375 -0.0145 -0.2923
 2918SOL    HW120213   3.915   0.140   4.000  0.3107  1.1383  0.9385
 2918SOL    HW220214   3.782   0.080   3.993 -0.8182  0.2731  0.5789
 2919SOL     OW20215   3.967   3.676   3.674  0.9367  0.3466 -0.0113
 2919SOL    HW120216   3.976   3.695   3.581 -1.5369  4.4048  0.5585
 2919SOL    HW220217   4.017   3.751   3.709 -0.5888  1.0597  0.6464
 2920SOL     OW20218   2.643   2.020   6.416  0.7879  0.2387  0.2132
 2920SOL    HW120219   2.694   1.954   6.369  0.0612 -0.7962  0.8862
 2920SOL    HW220220   2.680   2.019   6.504  1.0784  0.1961  0.0907
 2921SOL     OW20221   3.934   2.738   1.641  0.3549 -0.5211 -0.1647
 2921SOL    HW120222   3.893   2.652   1.640 -0.8325  0.0275  0.8431
 2921SOL    HW220223   3.989   2.730   1.564  2.1883 -3.2347  1.4264
 2922SOL     OW20224   0.546   4.629   9.049 -0.4588 -0.7202  0.1677
 2922SOL    HW120225   0.480   4.617   8.981  0.4790  0.6257 -0.9701
 2922SOL    HW220226   0.576   4.541   9.074  0.7688 -0.4276 -0.2469
 2923SOL     OW20227   0.610   0.442   6.224 -0.0266  0.4966 -0.1310
 2923SOL    HW120228   0.623   0.430   6.318  1.6829 -1.8466 -0.6843
 2923SOL    HW220229   0.600   0.353   6.190  2.8031  0.1973 -0.1546
 2924SOL     OW20230   4.296   2.812   3.628 -0.1481  0.3105  0.0409
 2924SOL    HW120231   4.288   2.775   3.716  1.8319 -1.3615 -0.4883
 2924SOL    HW220232   4.229   2.762   3.580  0.3722  0.6400 -1.0215
 2925SOL     OW20233   3.906   0.302  13.697 -1.0100  0.3775  0.2199
 2925SOL    HW120234   3.944   0.231  13.645 -0.0274  2.8439 -2.4080
 2925SOL    HW220235   3.923   0.275  13.787  1.9253  1.7592  0.0850
 2926SOL     OW20236   0.005   2.128   5.537 -0.0076 -0.0622 -0.0730
 2926SOL    HW120237   0.040   2.106   5.623  0.0059  2.9984  0.6909
 2926SOL    HW220238   4.635   2.137   5.555 -0.1596 -0.3504 -0.6945
 2927SOL     OW20239   3.646   1.275   3.949 -0.0795  0.6300 -0.4125
 2927SOL    HW120240   3.705   1.200   3.949  1.4769  1.8672 -0.8626
 2927SOL    HW220241   3.697   1.341   3.902  0.9495 -0.9087 -1.4324
 2928SOL     OW20242   4.338   1.678   6.349  0.3366  0.3232 -0.0303
 2928SOL    HW120243   4.352   1.583   6.345 -0.2783  0.2454 -0.3336
 2928SOL    HW220244   4.363   1.694   6.440  0.5087 -0.7291  0.1107
 2929SOL     OW20245   1.249   2.418   4.184  0.1327 -0.3434 -0.1992
 2929SOL    HW120246   1.312   2.385   4.249 -0.9348 -2.5918 -0.3294
 2929SOL    HW220247   1.196   2.487   4.225 -1.1894 -0.2693 -2.0500
 2930SOL     OW20248   0.612   4.254   5.194 -0.0810 -0.1775 -0.1575
 2930SOL    HW120249   0.564   4.323   5.239  2.6357  0.4681  1.7883
 2930SOL    HW220250   0.587   4.272   5.103  0.4115  0.2344 -0.2088
 2931SOL     OW20251   4.510   3.711   7.799 -0.1732 -0.1395 -0.2569
 2931SOL    HW120252   4.572   3.678   7.864 -1.4184  0.6535  1.3487
 2931SOL    HW220253   4.434   3.741   7.850  0.6776  2.9840 -0.8170
 2932SOL     OW20254   3.117   4.618   3.489 -0.0185 -0.0255  0.6536
 2932SOL    HW120255   3.040   4.674   3.487 -0.6698 -1.0516 -3.2937
 2932SOL    HW220256   3.119   4.589   3.397 -1.7883 -1.4654  1.0700
 2933SOL     OW20257   2.742   0.094  12.744 -0.4703 -0.3483  0.1320
 2933SOL    HW120258   2.695   0.153  12.803  3.4365  2.1830  0.6255
 2933SOL    HW220259   2.717   0.008  12.779  2.9355 -0.4156  2.3396
 2934SOL     OW20260   1.266   1.643  14.094 -0.2187 -0.2445  0.0745
 2934SOL    HW120261   1.301   1.579  14.156  1.6918  1.1733  0.4621
 2934SOL    HW220262   1.174   1.638  14.118 -0.3641 -0.5597 -0.5508
 2935SOL     OW20263   1.832   2.622   6.786 -0.1701 -0.1349 -0.0689
 2935SOL    HW120264   1.830   2.527   6.795  0.1087 -0.2054 -0.7656
 2935SOL    HW220265   1.790   2.652   6.866  0.3933 -0.1835  0.2459
 2936SOL     OW20266   4.222   2.459  15.790  0.2997 -0.2573  0.5758
 2936SOL    HW120267   4.286   2.466  15.719 -1.7254 -1.0215 -1.3167
 2936SOL    HW220268   4.212   2.552  15.810 -0.2322  0.0479 -1.1342
 2937SOL     OW20269   3.094   0.305  16.358 -0.2746  0.6415 -0.1102
 2937SOL    HW120270   3.168   0.256  16.322  0.6113  1.3968  0.7291
 2937SOL    HW220271   3.127   0.320  16.446 -0.2313 -0.2147  0.0247
 2938SOL     OW20272   1.390   2.341  10.410 -0.1439  0.1275 -0.2076
 2938SOL    HW120273   1.470   2.290  10.395 -2.1788 -3.0155 -0.4274
 2938SOL    HW220274   1.372   2.379  10.324  0.7498 -0.0709 -0.4881
 2939SOL     OW20275   2.220   2.237   8.667  0.0470  0.1765 -0.5159
 2939SOL    HW120276   2.215   2.304   8.735 -1.7449 -0.1966 -0.2635
 2939SOL    HW220277   2.191   2.294   8.595 -1.8843  2.3941  2.0365
 2940SOL     OW20278   0.533   1.495   8.916 -0.2311  0.9261 -0.6225
 2940SOL    HW120279   0.468   1.553   8.956 -0.9961 -0.6990  0.4713
 2940SOL    HW220280   0.478   1.446   8.855  0.9828  0.3450 -1.2354
 2941SOL     OW20281   1.011   3.582   2.773  0.4322  0.1774  0.0565
 2941SOL    HW120282   1.036   3.512   2.833  0.4831  1.3350  1.4087
 2941SOL    HW220283   0.975   3.538   2.697 -2.0588  1.0198  0.7370
 2942SOL     OW20284   4.240   0.753   6.628 -0.2363 -0.5887  0.6560
 2942SOL    HW120285   4.272   0.843   6.635  1.4464 -1.1858  0.6460
 2942SOL    HW220286   4.151   0.756   6.664 -0.1277 -0.4296  0.9112
 2943SOL     OW20287   2.648   0.695   1.964 -0.1133  0.2251 -0.6639
 2943SOL    HW120288   2.651   0.675   1.870 -2.3127 -2.5418 -0.1427
 2943SOL    HW220289   2.704   0.772   1.966  0.4710 -0.2223 -0.0283
 2944SOL     OW20290   0.839   2.407  11.634  0.7074  0.3461  0.0572
 2944SOL    HW120291   0.905   2.425  11.567  0.9880 -1.3764 -0.1289
 2944SOL    HW220292   0.769   2.462  11.599  0.9875  0.0624 -0.9549
 2945SOL     OW20293   4.449   1.765   3.726  0.5570  0.0798  0.3324
 2945SOL    HW120294   4.390   1.710   3.777  2.5749 -0.9453  1.5735
 2945SOL    HW220295   4.495   1.699   3.674 -0.8214  0.1713 -0.9832
 2946SOL     OW20296   0.906   1.821   5.872  0.1929  0.3792  0.3896
 2946SOL    HW120297   0.903   1.829   5.967 -3.1021 -0.9733  0.3947
 2946SOL    HW220298   0.848   1.895   5.855  0.6964  0.2635 -1.8714
 2947SOL     OW20299   3.142   2.998   8.646 -0.2730 -0.1982  0.0813
 2947SOL    HW120300   3.052   2.983   8.618  0.3876 -3.3070 -0.3864
 2947SOL    HW220301   3.138   3.037   8.734  1.0401 -1.5385  0.7376
 2948SOL     OW20302   2.067   3.431   0.410 -0.4142  0.0058 -0.4106
 2948SOL    HW120303   2.103   3.397   0.328  1.0848  2.1266 -0.6134
 2948SOL    HW220304   2.097   3.356   0.463 -0.7458  1.0991  1.3193
 2949SOL     OW20305   3.897   3.668  14.345  0.3478  0.0854  0.3798
 2949SOL    HW120306   3.888   3.721  14.266 -0.4227 -0.8279 -0.1493
 2949SOL    HW220307   3.947   3.727  14.401 -1.9038  0.3598  2.0926
 2950SOL     OW20308   4.240   3.978  11.217  0.2550  0.1908 -0.2337
 2950SOL    HW120309   4.181   4.045  11.252 -3.6799 -3.1215 -0.4032
 2950SOL    HW220310   4.314   3.994  11.275 -1.5810 -0.2164  2.2150
 2951SOL     OW20311   0.672   2.812   4.002 -0.2358  0.8126  0.6688
 2951SOL    HW120312   0.731   2.867   3.951  2.3469 -3.2039 -0.6643
 2951SOL    HW220313   0.596   2.863   3.971 -0.6074 -1.2654 -1.8458
 2952SOL     OW20314   1.203   1.904   5.292  0.0274  0.1038  0.2041
 2952SOL    HW120315   1.294   1.890   5.316 -0.5166 -0.7329  1.7475
 2952SOL    HW220316   1.153   1.934   5.368 -0.2507  1.2585 -0.4381
 2953SOL     OW20317   4.383   2.695   3.882 -0.2693  0.2165 -0.1437
 2953SOL    HW120318   4.320   2.628   3.911  1.2697 -1.6207 -1.0380
 2953SOL    HW220319   4.459   2.651   3.843 -1.4234 -1.5708 -0.3931
 2954SOL     OW20320   1.401   2.298   2.466 -0.2616 -0.1428 -0.3766
 2954SOL    HW120321   1.407   2.390   2.494 -0.6721 -0.1254 -0.3497
 2954SOL    HW220322   1.447   2.267   2.544  0.2961  1.0472 -0.2237
 2955SOL     OW20323   4.581   2.289   6.705  0.0281 -0.2262  0.2799
 2955SOL    HW120324   4.572   2.249   6.619 -3.4606  0.7274  0.2099
 2955SOL    HW220325   4.494   2.284   6.743 -0.1995  0.4434 -0.1502
 2956SOL     OW20326   4.685   2.503   3.969 -0.5882 -0.2087  0.2976
 2956SOL    HW120327   4.601   2.459   3.979 -1.3775  1.1478 -0.2194
 2956SOL    HW220328   4.660   2.555   3.892  1.0966  2.0913  1.2902
 2957SOL     OW20329   4.348   3.420   4.845  0.3773  0.5928 -0.5037
 2957SOL    HW120330   4.378   3.343   4.795  2.2672 -1.1655  3.3159
 2957SOL    HW220331   4.287   3.457   4.781  0.3729  2.5494  0.6682
 2958SOL     OW20332   1.285   0.183  10.285 -0.3458 -0.7738 -0.5969
 2958SOL    HW120333   1.274   0.161  10.193 -2.0464 -0.6731 -0.4160
 2958SOL    HW220334   1.336   0.264  10.281  0.2717 -1.1464 -0.1960
 2959SOL     OW20335   0.215   2.291   0.465 -0.4018 -0.0444 -0.1508
 2959SOL    HW120336   0.149   2.328   0.524 -0.5478  2.1610 -1.7066
 2959SOL    HW220337   0.294   2.332   0.499 -0.5630 -0.4900  0.7610
 2960SOL     OW20338   0.605   1.278   7.800  0.0039 -0.1524 -0.1689
 2960SOL    HW120339   0.618   1.241   7.713 -2.7414 -2.2517  0.3034
 2960SOL    HW220340   0.663   1.220   7.850  3.2266  2.3899 -0.9787
 2961SOL     OW20341   1.909   1.817   1.525 -0.4691 -0.1610  0.6923
 2961SOL    HW120342   1.854   1.765   1.583 -1.8361 -0.1715 -0.6186
 2961SOL    HW220343   1.984   1.758   1.516  1.0255  1.4942  2.3119
 2962SOL     OW20344   1.014   0.906   6.852 -0.5936  0.2229  0.0504
 2962SOL    HW120345   1.058   0.922   6.769  1.1530 -1.8098  0.5881
 2962SOL    HW220346   0.927   0.900   6.813 -0.0198 -0.4990 -1.0993
 2963SOL     OW20347   0.033   0.780   4.572  0.0324  0.1446  0.6015
 2963SOL    HW120348   0.071   0.751   4.655  0.8140  0.3613  0.3253
 2963SOL    HW220349   0.105   0.835   4.541 -1.1479  1.2681 -0.0989
 2964SOL     OW20350   1.683   1.243  16.554  0.1718  0.2655 -0.1510
 2964SOL    HW120351   1.667   1.335  16.576 -1.0436  0.2720 -1.0649
 2964SOL    HW220352   1.592   1.218  16.536  0.1490 -0.2444  0.6843
 2965SOL     OW20353   3.767   1.216   8.249 -0.7961 -0.6068  0.4342
 2965SOL    HW120354   3.724   1.133   8.268  1.5072 -1.5979  1.4006
 2965SOL    HW220355   3.859   1.203   8.273 -0.4419  0.2430 -0.4872
 2966SOL     OW20356   3.915   2.082  13.977  0.4423 -0.0630 -0.2183
 2966SOL    HW120357   3.821   2.091  13.965  0.3309 -1.5269 -0.4215
 2966SOL    HW220358   3.943   2.111  13.891 -2.5876  1.9865 -0.5079
 2967SOL     OW20359   0.385   4.597  10.085 -0.3650 -0.8070  0.4589
 2967SOL    HW120360   0.449   4.527  10.101  1.0923  0.5944  0.7845
 2967SOL    HW220361   0.389   4.650  10.164 -4.0293  0.0411  0.0404
 2968SOL     OW20362   0.092   4.529   2.555  0.2522 -0.3975 -0.1884
 2968SOL    HW120363   0.126   4.479   2.629  1.3266  2.7430  1.4605
 2968SOL    HW220364   0.136   4.614   2.559 -2.7978  1.2527 -1.3085
 2969SOL     OW20365   3.242   1.080   7.367 -0.0676 -0.0453 -0.4839
 2969SOL    HW120366   3.309   1.028   7.410 -0.1746 -1.2446 -1.7523
 2969SOL    HW220367   3.263   1.059   7.276  0.9351 -0.0472 -0.2527
 2970SOL     OW20368   4.629   3.838  11.683 -0.0761 -0.0541  0.2455
 2970SOL    HW120369   4.585   3.814  11.765 -0.1420  0.8418  0.4729
 2970SOL    HW220370   4.721   3.841  11.711 -0.0962  0.9097  0.2292
 2971SOL     OW20371   2.553   2.072  16.261 -0.3566  0.2473  0.0126
 2971SOL    HW120372   2.481   2.134  16.267 -1.1230 -0.5257 -0.9443
 2971SOL    HW220373   2.628   2.131  16.259 -1.3390  1.5962  3.3377
 2972SOL     OW20374   2.258   1.701  11.439  0.7841  0.4437  0.1382
 2972SOL    HW120375   2.340   1.698  11.488  0.9943  1.1619 -0.1688
 2972SOL    HW220376   2.292   1.670  11.355 -2.6430 -1.6342 -0.4760
 2973SOL     OW20377   4.455   4.646   5.620 -0.4076 -0.9054 -0.2735
 2973SOL    HW120378   4.491   4.722   5.576  0.5753 -0.0480  1.9973
 2973SOL    HW220379   4.520   4.626   5.689 -1.1713  2.8238  1.4936
 2974SOL     OW20380   0.438   4.595   5.973  0.1068  0.4580  0.4429
 2974SOL    HW120381   0.349   4.562   5.965  0.7407 -0.8166 -1.5152
 2974SOL    HW220382   0.486   4.513   5.964 -2.9197 -0.9640 -2.3321
 2975SOL     OW20383   3.509   2.078   1.752  0.3578 -0.9460 -0.1237
 2975SOL    HW120384   3.461   2.002   1.718  2.0887 -1.6597 -0.9459
 2975SOL    HW220385   3.599   2.047   1.757  1.6326  2.2543 -3.5405
 2976SOL     OW20386   3.519   2.449  10.219 -0.3727 -0.1411 -0.2308
 2976SOL    HW120387   3.572   2.521  10.251 -0.0716 -0.4716  0.0120
 2976SOL    HW220388   3.464   2.493  10.153 -0.4156 -0.9427 -0.7406
 2977SOL     OW20389   3.796   0.571   5.870  0.2342  0.2677 -0.1026
 2977SOL    HW120390   3.768   0.612   5.788  1.7207 -0.0971 -0.7741
 2977SOL    HW220391   3.740   0.614   5.935  1.1750  1.0019  0.2260
 2978SOL     OW20392   4.678   0.318   6.122 -0.0234 -0.7876 -0.3551
 2978SOL    HW120393   0.034   0.283   6.163  0.5894  0.4659 -0.4586
 2978SOL    HW220394   4.718   0.360   6.046 -1.2054 -0.7608 -0.9650
 2979SOL     OW20395   0.823   1.559   3.515  0.1643 -0.1295  0.1196
 2979SOL    HW120396   0.755   1.510   3.469 -1.2061  0.0726  1.9835
 2979SOL    HW220397   0.794   1.550   3.605  0.9577  1.1258  0.4955
 2980SOL     OW20398   0.835   1.228  15.111  0.2622 -0.0451  0.0434
 2980SOL    HW120399   0.770   1.285  15.151 -1.7366 -0.7086 -2.2583
 2980SOL    HW220400   0.894   1.296  15.079 -0.6904  0.8569  0.1995
 2981SOL     OW20401   2.452   4.506   2.208 -0.5154  0.2679  0.4651
 2981SOL    HW120402   2.435   4.500   2.114 -1.1639 -0.4493  0.6238
 2981SOL    HW220403   2.519   4.438   2.221 -0.9573 -0.0453  1.1349
 2982SOL     OW20404   2.742   1.598   5.984  0.2417  0.5370 -0.6010
 2982SOL    HW120405   2.804   1.618   6.055  0.1516 -0.0956 -0.3475
 2982SOL    HW220406   2.672   1.660   6.004  0.6942  0.6105  0.7612
 2983SOL     OW20407   2.735   2.709  11.028  0.1845  0.3778 -0.3624
 2983SOL    HW120408   2.716   2.679  11.116  2.2898 -1.2057 -0.4503
 2983SOL    HW220409   2.755   2.799  11.054 -0.0378 -0.7028  3.4276
 2984SOL     OW20410   3.338   2.038   6.491 -0.1941  0.4200  0.0692
 2984SOL    HW120411   3.252   2.000   6.507  0.2737 -1.0474 -0.8836
 2984SOL    HW220412   3.329   2.133   6.499  0.0653  0.4541 -0.0422
 2985SOL     OW20413   3.303   3.104  13.153  0.2268  0.5305 -0.0703
 2985SOL    HW120414   3.220   3.140  13.185 -0.4329 -1.1587  0.1072
 2985SOL    HW220415   3.264   3.033  13.103  1.7372 -1.3366  1.3825
 2986SOL     OW20416   3.811   2.551  13.359  0.1132 -0.4100  0.0059
 2986SOL    HW120417   3.827   2.601  13.439  0.9332 -0.1073 -0.3418
 2986SOL    HW220418   3.892   2.501  13.352  0.6312  0.4213  0.0179
 2987SOL     OW20419   0.283   0.247  12.068  0.0301 -0.2010  0.8199
 2987SOL    HW120420   0.341   0.256  12.144  0.9086 -1.8969  0.3523
 2987SOL    HW220421   0.308   0.322  12.014  1.3751 -1.3215 -0.1375
 2988SOL     OW20422   0.767   1.974   0.371  0.3388 -0.6318  0.7407
 2988SOL    HW120423   0.679   1.972   0.408  0.5956  1.0094  1.4153
 2988SOL    HW220424   0.754   1.907   0.303 -0.3886  1.9622 -1.6501
 2989SOL     OW20425   2.165   1.523  10.739 -0.7104 -0.4204 -0.2931
 2989SOL    HW120426   2.161   1.487  10.650  0.3488 -1.7942  0.2064
 2989SOL    HW220427   2.075   1.554  10.746 -0.4045  0.8111 -1.7661
 2990SOL     OW20428   3.759   3.819   2.441  0.7214 -0.4055 -0.1290
 2990SOL    HW120429   3.756   3.911   2.418 -0.3623 -1.3142 -3.5737
 2990SOL    HW220430   3.769   3.824   2.536  1.1069 -0.1899 -0.1829
 2991SOL     OW20431   3.716   3.312  13.274  0.0878 -0.4268 -0.5102
 2991SOL    HW120432   3.758   3.383  13.226  0.5226  2.4034  3.9940
 2991SOL    HW220433   3.789   3.291  13.331 -0.4947  1.3192  0.8767
 2992SOL     OW20434   3.075   2.341   3.753  0.1076 -0.5186 -0.0060
 2992SOL    HW120435   3.151   2.398   3.768 -0.2035 -0.3099  0.7833
 2992SOL    HW220436   3.036   2.339   3.841  1.1288 -0.8503  0.4470
 2993SOL     OW20437   1.114   1.655  10.704  0.2557 -0.1581 -0.1308
 2993SOL    HW120438   1.133   1.702  10.623  2.3013 -0.5467  0.1368
 2993SOL    HW220439   1.076   1.573  10.673 -2.3447  0.7377  0.6909
 2994SOL     OW20440   2.361   1.889  12.714  0.1916 -0.3728  0.3829
 2994SOL    HW120441   2.423   1.817  12.704 -0.0307 -0.1897 -2.2391
 2994SOL    HW220442   2.398   1.952  12.653  0.2443  1.4447  2.2795
 2995SOL     OW20443   2.478   4.155   6.825  0.0935 -0.2958  0.4217
 2995SOL    HW120444   2.504   4.171   6.916  1.7637  1.3136 -0.3354
 2995SOL    HW220445   2.453   4.243   6.798 -3.2354 -1.8425 -1.5332
 2996SOL     OW20446   3.839   4.432   4.249  0.8788  0.2094  0.4976
 2996SOL    HW120447   3.876   4.520   4.257  1.0191  0.0425  1.7171
 2996SOL    HW220448   3.785   4.425   4.328 -0.4981 -0.8302 -0.5445
 2997SOL     OW20449   3.942   2.660   8.575 -0.0482 -0.2973  0.6831
 2997SOL    HW120450   3.863   2.669   8.523 -0.5481 -0.8076  1.3572
 2997SOL    HW220451   3.944   2.571   8.611  1.6677 -0.0530  1.2414
 2998SOL     OW20452   3.774   2.983   0.063 -0.3846  0.6384 -0.1411
 2998SOL    HW120453   3.688   3.011   0.031  0.1432 -0.4634 -2.5925
 2998SOL    HW220454   3.792   3.054   0.124 -1.2558 -0.2007  1.0836
 2999SOL     OW20455   0.820   4.085   6.008 -0.3419  0.4202 -0.1020
 2999SOL    HW120456   0.788   3.997   6.027  1.1475  0.2099  1.4086
 2999SOL    HW220457   0.908   4.059   5.979 -1.0696  0.0043 -1.9503
 3000SOL     OW20458   1.896   4.071  13.096  0.6352 -0.1772 -0.0525
 3000SOL    HW120459   1.819   4.106  13.052  0.6413  0.6560  0.6023
 3000SOL    HW220460   1.920   3.997  13.040 -1.1532 -0.8823  0.0968
 3001SOL     OW20461   1.732   0.144   2.775 -0.1253  0.2301 -0.0382
 3001SOL    HW120462   1.683   0.200   2.715  1.8011 -0.3661 -2.1561
 3001SOL    HW220463   1.776   0.079   2.720  2.1215  1.3167  0.4777
 3002SOL     OW20464   1.329   3.387   9.009  0.2001  1.0710  0.3668
 3002SOL    HW120465   1.344   3.319   8.943 -2.6820  2.0463 -1.2969
 3002SOL    HW220466   1.316   3.337   9.089  0.7358  0.9326  0.3704
 3003SOL     OW20467   3.041   0.647   8.370 -0.2288  0.0617  0.1990
 3003SOL    HW120468   3.055   0.626   8.463  1.8043  0.3959 -0.0139
 3003SOL    HW220469   2.946   0.644   8.368 -0.1992 -2.1419  2.1550
 3004SOL     OW20470   2.562   0.369   9.655  0.2784 -0.5195 -0.2333
 3004SOL    HW120471   2.470   0.353   9.678  1.2546 -0.8491  3.3136
 3004SOL    HW220472   2.560   0.348   9.562 -1.6171 -1.4863  0.0330
 3005SOL     OW20473   1.817   1.311   1.472  0.0287 -0.5132  0.8233
 3005SOL    HW120474   1.816   1.259   1.552  1.9759 -0.2478  1.0297
 3005SOL    HW220475   1.881   1.382   1.485  1.2963 -1.3068 -1.0231
 3006SOL     OW20476   2.557   2.303  10.154  1.0517  0.2377 -0.2103
 3006SOL    HW120477   2.478   2.249  10.143  1.3279 -0.5311  1.4710
 3006SOL    HW220478   2.621   2.234  10.172  0.4700 -0.7047 -1.7092
 3007SOL     OW20479   3.273   4.638   8.067  0.4130  0.2862  0.0595
 3007SOL    HW120480   3.331   4.697   8.116 -3.1055  1.9939  2.1495
 3007SOL    HW220481   3.326   4.559   8.079  0.6982  0.8771  2.7287
 3008SOL     OW20482   2.952   2.012   1.620 -0.1225  0.4248  0.7037
 3008SOL    HW120483   3.024   1.974   1.570 -1.0685 -0.8808  0.3393
 3008SOL    HW220484   2.902   2.061   1.555 -2.2094 -1.6276  0.7880
 3009SOL     OW20485   2.829   1.965   7.531  0.0751 -0.5226  0.6014
 3009SOL    HW120486   2.912   1.996   7.567 -0.7295  0.7620  1.3520
 3009SOL    HW220487   2.856   1.893   7.474  3.7032  1.5481 -0.2679
 3010SOL     OW20488   3.421   3.634  11.706 -0.0727  0.2231  0.4226
 3010SOL    HW120489   3.512   3.631  11.676  0.6530  3.3743  2.2980
 3010SOL    HW220490   3.423   3.707  11.768  1.7916 -0.3181  1.0119
 3011SOL     OW20491   2.283   4.326   1.868 -0.7070 -0.0615 -0.0527
 3011SOL    HW120492   2.368   4.366   1.885 -0.6384 -1.0641  1.9864
 3011SOL    HW220493   2.299   4.254   1.807 -2.8313 -0.7268  0.1773
 3012SOL     OW20494   4.219   3.944   8.999 -1.0353 -0.3285  0.0657
 3012SOL    HW120495   4.291   3.882   8.996  0.7673  1.7797 -0.5200
 3012SOL    HW220496   4.271   4.020   8.973  0.5978 -1.4026  0.1927
 3013SOL     OW20497   2.230   1.745   9.693  0.3115  0.4467  0.1158
 3013SOL    HW120498   2.159   1.718   9.752  0.9257 -0.9714  0.2103
 3013SOL    HW220499   2.239   1.836   9.720  0.4940  0.4362  0.0860
 3014SOL     OW20500   0.354   1.383  11.260 -0.4588  0.0604 -0.4987
 3014SOL    HW120501   0.400   1.440  11.322 -0.3295 -0.6085  0.0284
 3014SOL    HW220502   0.355   1.298  11.304 -0.5088 -0.1673 -0.9424
 3015SOL     OW20503   1.337   3.732   6.027  0.3385 -0.0246 -0.2028
 3015SOL    HW120504   1.415   3.715   6.080  1.3749  0.8346 -1.4175
 3015SOL    HW220505   1.284   3.659   6.058  0.9059 -0.6560 -0.7174
 3016SOL     OW20506   2.848   1.202   3.363 -0.4446  0.6455  0.2665
 3016SOL    HW120507   2.898   1.281   3.385 -1.5395  2.0732 -2.3423
 3016SOL    HW220508   2.866   1.200   3.269 -0.6267  0.5886  0.2325
 3017SOL     OW20509   0.617   2.998   5.590 -0.2302  0.4472  0.0788
 3017SOL    HW120510   0.549   3.001   5.523  2.2867 -0.3114 -2.5314
 3017SOL    HW220511   0.574   2.939   5.651  0.5840 -1.3636 -1.1052
 3018SOL     OW20512   3.476   4.091   0.149 -0.4140  0.5241  0.0473
 3018SOL    HW120513   3.382   4.107   0.145 -0.4600  0.6887  2.1836
 3018SOL    HW220514   3.516   4.178   0.149 -0.1514  0.4399 -3.8512
 3019SOL     OW20515   3.661   3.565  17.428  0.1991  0.7660  0.6275
 3019SOL    HW120516   3.582   3.534  17.472  0.5836 -3.1290 -1.4058
 3019SOL    HW220517   3.715   3.487  17.419  0.0882  0.6762  0.7446
 3020SOL     OW20518   1.054   4.050   3.987  0.4439 -0.3949 -0.4067
 3020SOL    HW120519   1.143   4.054   4.022  0.4745 -2.0075 -0.2875
 3020SOL    HW220520   1.004   4.047   4.068  0.4051  0.4962 -0.3936
 3021SOL     OW20521   4.291   4.722   3.337 -0.5423  0.1272 -0.0952
 3021SOL    HW120522   4.309   4.655   3.271 -0.4349  0.2627 -0.2032
 3021SOL    HW220523   4.360   0.062   3.317  0.2957 -1.3316 -1.8453
 3022SOL     OW20524   2.099   0.168  12.585  0.3520  0.8984  0.1264
 3022SOL    HW120525   2.079   0.239  12.524  0.7588  0.1627 -0.8818
 3022SOL    HW220526   2.153   0.213  12.649 -0.4326  2.5495 -0.3765
 3023SOL     OW20527   0.188   1.176  15.508  0.3782  0.0211  0.1842
 3023SOL    HW120528   0.276   1.199  15.479  0.8954  1.3937  2.7740
 3023SOL    HW220529   0.206   1.094  15.554  0.6487 -0.1227 -0.1865
 3024SOL     OW20530   2.495   4.554   4.300 -0.3739  0.1087  0.6312
 3024SOL    HW120531   2.552   4.521   4.230  0.4738  0.4052  1.1788
 3024SOL    HW220532   2.537   4.517   4.377 -1.3592  0.2932  1.2564
 3025SOL     OW20533   4.250   3.880  11.780  0.0883  0.6690  0.1132
 3025SOL    HW120534   4.334   3.911  11.813  0.2523  0.1346  0.1906
 3025SOL    HW220535   4.275   3.789  11.769  1.4825  1.1024 -0.3197
 3026SOL     OW20536   1.597   2.849   3.592 -0.4377 -0.6491  0.1060
 3026SOL    HW120537   1.641   2.783   3.645  0.0454  0.0529  0.5823
 3026SOL    HW220538   1.555   2.805   3.518 -0.4163  1.0539 -0.9373
 3027SOL     OW20539   0.604   4.022  12.781 -0.0015 -0.1249 -0.2949
 3027SOL    HW120540   0.622   3.946  12.836 -1.1589 -0.1341  0.0793
 3027SOL    HW220541   0.630   4.092  12.841 -0.9625  0.1658 -0.2045
 3028SOL     OW20542   0.353   4.078  15.608  0.3705  0.7027 -0.2844
 3028SOL    HW120543   0.336   4.042  15.521  0.5507  0.3987 -0.1922
 3028SOL    HW220544   0.335   4.171  15.596 -2.1978  0.4758  1.6710
 3029SOL     OW20545   0.023   2.695   8.013 -0.0346  0.0379 -0.3702
 3029SOL    HW120546   4.668   2.652   7.980  1.1974 -1.3064 -1.5082
 3029SOL    HW220547   0.078   2.700   7.935  1.1728 -0.1636  0.4634
 3030SOL     OW20548   2.200   3.374  11.462  0.5439 -0.3766 -0.0150
 3030SOL    HW120549   2.265   3.329  11.408 -1.6495 -1.9829 -1.3403
 3030SOL    HW220550   2.255   3.433  11.514  0.7925 -0.9587  0.3741
 3031SOL     OW20551   1.541   3.694   3.100 -0.3189  0.5162  0.3631
 3031SOL    HW120552   1.498   3.609   3.088 -0.3356  0.6998 -0.9161
 3031SOL    HW220553   1.509   3.707   3.189 -0.7799  0.6451  0.1759
 3032SOL     OW20554   1.569   0.960  17.485  0.6405 -0.3268 -0.1100
 3032SOL    HW120555   1.642   0.967  17.547 -2.3237  0.4119  3.3371
 3032SOL    HW220556   1.582   1.040  17.434 -0.3409  0.8961  1.5765
 3033SOL     OW20557   2.576   2.596  11.265 -0.4019 -0.4496  0.1266
 3033SOL    HW120558   2.489   2.570  11.233 -0.5366 -0.5559  0.5831
 3033SOL    HW220559   2.597   2.510  11.301  3.2954 -2.0670 -5.8260
 3034SOL     OW20560   2.813   1.729  13.505 -0.2144  0.0911  0.1797
 3034SOL    HW120561   2.862   1.810  13.517  1.7600 -1.1115  0.0581
 3034SOL    HW220562   2.869   1.674  13.451  0.3759  2.1643 -1.3228
 3035SOL     OW20563   4.167   1.680   5.202  0.8950 -0.5561 -0.1166
 3035SOL    HW120564   4.145   1.610   5.265 -1.5908 -0.4063 -0.8242
 3035SOL    HW220565   4.156   1.648   5.113 -0.4029  1.8512 -0.8077
 3036SOL     OW20566   2.024   4.536   3.035  0.3614  0.0131 -0.0199
 3036SOL    HW120567   2.032   4.444   3.012  0.7676  0.2118 -0.6553
 3036SOL    HW220568   1.934   4.568   3.021  0.6136  0.6086 -0.2922
 3037SOL     OW20569   0.872   1.099   8.519 -0.2681  0.3210  0.3260
 3037SOL    HW120570   0.931   1.037   8.475 -1.1638 -0.6356  0.4726
 3037SOL    HW220571   0.913   1.180   8.487  0.9399 -0.5483 -0.3502
 3038SOL     OW20572   0.915   0.857   8.357  0.0470  0.1071  0.3652
 3038SOL    HW120573   0.843   0.834   8.415 -1.0979  2.7813  0.0119
 3038SOL    HW220574   0.880   0.815   8.278  0.7195 -1.2454  0.7912
 3039SOL     OW20575   4.467   3.028   7.485  0.1253 -0.1425 -0.1162
 3039SOL    HW120576   4.526   3.103   7.480  1.6752 -1.4384 -1.4504
 3039SOL    HW220577   4.440   3.017   7.393 -0.2794 -0.6037  0.0562
 3040SOL     OW20578   3.856   1.436   3.098 -0.4865 -0.2698 -0.0159
 3040SOL    HW120579   3.900   1.418   3.181  1.3613  0.8214 -0.7652
 3040SOL    HW220580   3.822   1.520   3.129 -3.3880 -1.0499 -1.1252
 3041SOL     OW20581   0.480   1.319   1.964  0.2881  0.3082  0.0658
 3041SOL    HW120582   0.553   1.329   1.903  0.4365  0.5442  0.2823
 3041SOL    HW220583   0.406   1.361   1.920 -0.3797  1.1151  1.9687
 3042SOL     OW20584   4.642   1.541   1.327 -0.1631 -0.2346 -0.1622
 3042SOL    HW120585   4.547   1.541   1.318 -0.0604  1.0172 -1.2528
 3042SOL    HW220586   4.642   1.513   1.419 -2.1523  2.4267  0.6700
 3043SOL     OW20587   2.802   0.983   8.348  0.2061 -0.5817  0.6218
 3043SOL    HW120588   2.842   0.931   8.417 -0.3073 -2.4136 -0.4573
 3043SOL    HW220589   2.720   1.013   8.389  0.3646 -0.7532  1.0579
 3044SOL     OW20590   3.286   0.605   4.142 -0.3674 -0.0415  0.9728
 3044SOL    HW120591   3.361   0.652   4.179  0.4354  0.7297 -1.6500
 3044SOL    HW220592   3.275   0.531   4.202 -0.1937  1.3720  2.7436
 3045SOL     OW20593   4.169   1.668  17.642  0.1827 -0.1024 -0.4802
 3045SOL    HW120594   4.135   1.610  17.574 -0.9101 -0.7755  0.6424
 3045SOL    HW220595   4.245   1.615  17.664  0.5770  0.6887  0.0547
 3046SOL     OW20596   1.318   2.505   0.840 -0.2681 -0.1497  0.8781
 3046SOL    HW120597   1.332   2.515   0.934  1.2288 -0.1474  0.6633
 3046SOL    HW220598   1.254   2.434   0.833  1.9852 -2.0719 -0.4215
 3047SOL     OW20599   4.176   4.445   5.263  0.2740  0.9336 -0.0164
 3047SOL    HW120600   4.082   4.456   5.252  0.1150 -0.3276  0.1389
 3047SOL    HW220601   4.196   4.431   5.170 -1.2217  1.8075 -0.4773
 3048SOL     OW20602   1.849   1.210   6.153 -0.0013  0.3786 -0.3067
 3048SOL    HW120603   1.874   1.301   6.135  1.0810  0.1073 -0.1768
 3048SOL    HW220604   1.897   1.182   6.075 -2.2011 -1.9702 -0.8144
 3049SOL     OW20605   0.335   2.069  10.379  0.3894 -0.0116  0.5882
 3049SOL    HW120606   0.320   1.976  10.359 -0.9530 -0.0499  1.7820
 3049SOL    HW220607   0.382   2.062  10.462  1.5996 -0.0325 -0.0995
 3050SOL     OW20608   1.436   2.133   6.479 -0.2480 -0.0195  0.1833
 3050SOL    HW120609   1.368   2.077   6.514 -0.4542  0.1616  0.0722
 3050SOL    HW220610   1.457   2.084   6.400 -1.3986 -0.6031  0.2466
 3051SOL     OW20611   1.833   3.551   4.373 -0.0481  0.2866 -0.5510
 3051SOL    HW120612   1.777   3.473   4.375 -0.1539  0.3513 -1.0050
 3051SOL    HW220613   1.791   3.592   4.297 -1.4253  1.8799  1.0544
 3052SOL     OW20614   2.850   1.718   4.621 -0.0660 -0.7072 -0.1546
 3052SOL    HW120615   2.813   1.804   4.603  0.0380 -1.1444 -2.4815
 3052SOL    HW220616   2.882   1.694   4.534  1.5930 -2.1811  0.8644
 3053SOL     OW20617   4.159   3.568   8.318  0.6376  0.0037  0.1594
 3053SOL    HW120618   4.066   3.556   8.298  0.3395  0.4170  1.3136
 3053SOL    HW220619   4.163   3.548   8.412 -1.6054  0.5129  0.3622
 3054SOL     OW20620   0.215   2.009   5.283 -0.7157 -0.1872  0.0043
 3054SOL    HW120621   0.136   1.991   5.334 -0.9021  0.7322  0.0302
 3054SOL    HW220622   0.175   2.006   5.196 -0.7766  1.0015 -0.0037
 3055SOL     OW20623   2.747   2.699   7.909  0.2274  0.9056 -0.3620
 3055SOL    HW120624   2.786   2.627   7.959 -1.3420  1.0087  1.0031
 3055SOL    HW220625   2.774   2.773   7.963  0.5676  0.3843  0.1901
 3056SOL     OW20626   2.994   2.932   4.777 -0.2201 -0.1245  0.1964
 3056SOL    HW120627   3.049   2.870   4.825  0.0067 -1.6619 -2.0239
 3056SOL    HW220628   2.933   2.958   4.846  0.6058  0.7512  0.5987
 3057SOL     OW20629   3.276   3.117  15.545  0.1773 -0.2624 -0.1855
 3057SOL    HW120630   3.275   3.203  15.587 -3.4999 -0.6518  0.5055
 3057SOL    HW220631   3.316   3.130  15.459  0.6852  0.9063  0.2262
 3058SOL     OW20632   1.660   2.422   3.311  0.1744 -0.1542 -0.2395
 3058SOL    HW120633   1.609   2.360   3.259 -3.1976  2.4906 -0.0739
 3058SOL    HW220634   1.621   2.509   3.306  2.5380  0.9497  0.5053
 3059SOL     OW20635   3.278   0.073   7.008  0.1407  0.4706  0.5302
 3059SOL    HW120636   3.335   0.107   7.078 -0.8621  0.2316  1.4671
 3059SOL    HW220637   3.328   0.100   6.931 -0.0174  0.2945  0.3684
 3060SOL     OW20638   2.048   2.965   8.444  0.4946  0.2466  0.3058
 3060SOL    HW120639   2.141   2.983   8.457  0.9986 -1.8104 -0.5433
 3060SOL    HW220640   2.035   2.998   8.355 -0.8319  2.3878  1.3008
 3061SOL     OW20641   3.389   1.981   6.880 -0.8012 -0.2738 -0.4258
 3061SOL    HW120642   3.349   1.894   6.872  0.3289 -0.6226 -2.1811
 3061SOL    HW220643   3.324   2.022   6.937 -0.9580 -1.0695 -0.0301
 3062SOL     OW20644   1.412   1.781   7.134 -0.0734 -0.2895  0.5052
 3062SOL    HW120645   1.464   1.733   7.198  0.9833 -0.4818 -0.4952
 3062SOL    HW220646   1.356   1.826   7.197  0.0840 -0.1071  0.5178
 3063SOL     OW20647   0.628   3.217   1.202 -0.0313  0.0571 -0.5076
 3063SOL    HW120648   0.688   3.201   1.275  0.1720  2.0457 -0.2499
 3063SOL    HW220649   0.651   3.309   1.195 -2.2500  0.5803 -0.7967
 3064SOL     OW20650   3.853   4.615   9.988 -0.2253  0.3570  0.8806
 3064SOL    HW120651   3.831   4.643  10.077  0.4095  1.7899  0.5883
 3064SOL    HW220652   3.913   4.687   9.967  0.0282  0.4554  1.9242
 3065SOL     OW20653   1.048   4.339   1.926 -0.1261 -0.0603 -0.4418
 3065SOL    HW120654   1.101   4.415   1.949  0.9726 -0.2555 -2.2555
 3065SOL    HW220655   0.971   4.374   1.882 -0.2260  0.3556  0.0640
 3066SOL     OW20656   1.160   4.534   7.265 -0.3092 -0.0510 -0.1982
 3066SOL    HW120657   1.204   4.514   7.348  0.3128 -0.1524 -0.5601
 3066SOL    HW220658   1.221   4.492   7.205 -2.3611 -1.0302 -1.5977
 3067SOL     OW20659   2.088   2.529   8.722 -0.0563 -0.1897 -0.4264
 3067SOL    HW120660   2.168   2.579   8.709 -1.2391  1.7077 -0.3356
 3067SOL    HW220661   2.057   2.566   8.804  2.9607  0.0356  0.6211
 3068SOL     OW20662   4.370   2.096  15.351 -0.1943  0.2176  0.0514
 3068SOL    HW120663   4.365   2.080  15.445 -1.3401  1.1094  0.1523
 3068SOL    HW220664   4.276   2.110  15.337 -0.3464 -1.6483 -0.7379
 3069SOL     OW20665   3.976   4.173   7.069  0.0900  0.7039  0.0138
 3069SOL    HW120666   3.910   4.232   7.106  0.8853  2.2325 -0.9895
 3069SOL    HW220667   4.052   4.229   7.058  0.3831  0.2113 -0.4790
 3070SOL     OW20668   1.507   4.487   4.223 -0.8730  0.2207  0.3254
 3070SOL    HW120669   1.597   4.503   4.195 -0.4426 -1.9159  0.5057
 3070SOL    HW220670   1.471   4.430   4.155  0.5684 -0.2393 -0.0448
 3071SOL     OW20671   1.561   2.325   3.637  0.1143 -0.5582 -0.1153
 3071SOL    HW120672   1.623   2.275   3.583  0.1162 -0.6530 -0.0261
 3071SOL    HW220673   1.490   2.262   3.644  0.3862 -1.1493 -2.4561
 3072SOL     OW20674   4.165   2.075  10.839  0.0860 -0.0315  0.1718
 3072SOL    HW120675   4.118   2.028  10.770  0.2877 -1.3506  0.9181
 3072SOL    HW220676   4.224   2.111  10.773  0.7397  0.8618  1.2387
 3073SOL     OW20677   0.088   0.479  16.607 -0.1130 -0.3138 -0.2860
 3073SOL    HW120678   0.103   0.514  16.520 -1.8348  1.5643  0.1689
 3073SOL    HW220679   0.014   0.420  16.592  0.3570 -0.9731  0.0032
 3074SOL     OW20680   3.009   1.721   7.876  0.5239 -0.4925  0.2551
 3074SOL    HW120681   2.949   1.653   7.906  0.8243  0.0663  2.1195
 3074SOL    HW220682   3.031   1.697   7.786  0.5536  0.2479  0.0688
 3075SOL     OW20683   2.508   2.379   4.761  0.2931 -0.2726  0.2248
 3075SOL    HW120684   2.592   2.360   4.802  1.8777  0.3268 -2.7680
 3075SOL    HW220685   2.514   2.351   4.669  0.9929 -0.3502  0.2967
 3076SOL     OW20686   2.008   1.952   2.256 -0.7650 -0.7684  0.2493
 3076SOL    HW120687   1.978   2.019   2.195 -2.1179 -0.8485  0.8367
 3076SOL    HW220688   2.097   1.985   2.272 -0.1385 -1.9630 -0.7847
 3077SOL     OW20689   2.311   4.682   4.087  0.0756  0.2149 -0.1120
 3077SOL    HW120690   2.322   4.650   4.177  2.0072  0.0654 -0.4046
 3077SOL    HW220691   2.347   4.608   4.037  1.3261 -0.8864  2.4178
 3078SOL     OW20692   0.210   3.404  14.390  0.6621  0.3006  0.1285
 3078SOL    HW120693   0.208   3.495  14.358  0.6995  0.3451  0.2558
 3078SOL    HW220694   0.304   3.387  14.387  0.6096  0.4429 -2.6461
 3079SOL     OW20695   1.547   2.345   6.581  0.3842 -0.6203  0.4557
 3079SOL    HW120696   1.495   2.284   6.528  0.3050  0.2290 -0.4379
 3079SOL    HW220697   1.631   2.301   6.567  0.2258 -1.5818  2.5636
 3080SOL     OW20698   0.476   2.026   0.006  0.0272 -0.2089 -0.1846
 3080SOL    HW120699   0.445   2.088   0.072 -0.2732 -1.6283  1.0010
 3080SOL    HW220700   0.392   1.983  17.683  0.0669  0.3637 -1.7228
 3081SOL     OW20701   1.124   1.299   5.398 -0.4654  0.2982 -0.2732
 3081SOL    HW120702   1.143   1.210   5.371 -0.1153  1.0518 -2.5296
 3081SOL    HW220703   1.174   1.358   5.342 -1.0908  1.6160  0.5499
 3082SOL     OW20704   2.947   3.855  17.314 -0.4127  0.3420 -0.6995
 3082SOL    HW120705   2.930   3.948  17.303  1.2439  0.5697 -1.3781
 3082SOL    HW220706   3.024   3.854  17.256 -1.7468  1.6406 -2.4755
 3083SOL     OW20707   3.643   0.804   6.786 -0.5250 -0.4711  0.3554
 3083SOL    HW120708   3.599   0.808   6.702 -0.6425 -1.5705  0.3697
 3083SOL    HW220709   3.686   0.719   6.774 -2.5702 -1.1153 -2.1721
 3084SOL     OW20710   4.370   1.290  16.006  0.0087  0.3798  0.3418
 3084SOL    HW120711   4.419   1.259  16.082  1.5569  0.4520 -0.6147
 3084SOL    HW220712   4.440   1.330  15.955 -0.0331  2.7913  2.1708
 3085SOL     OW20713   1.977   0.895   0.324 -0.0080 -0.3581  0.1457
 3085SOL    HW120714   1.945   0.900   0.233  0.5988  0.1809 -0.0377
 3085SOL    HW220715   2.057   0.843   0.313  0.4826  0.6336 -0.9238
 3086SOL     OW20716   1.993   2.059   1.449 -0.3397  0.2538  0.2106
 3086SOL    HW120717   1.946   1.979   1.472 -0.1572 -0.6738 -2.7543
 3086SOL    HW220718   1.933   2.080   1.378  0.6900 -0.9949 -1.0403
 3087SOL     OW20719   1.309   2.640   4.773 -0.1611  0.0600  0.0842
 3087SOL    HW120720   1.322   2.667   4.863 -0.9823  0.2697  0.1385
 3087SOL    HW220721   1.392   2.598   4.752 -0.7503 -0.6242 -0.8919
 3088SOL     OW20722   4.250   3.378   5.106 -0.5241  0.1733 -0.0797
 3088SOL    HW120723   4.168   3.428   5.101  0.0864  1.1011 -0.7356
 3088SOL    HW220724   4.298   3.412   5.030 -1.4572 -0.5744 -1.0085
 3089SOL     OW20725   1.917   0.634   8.073  0.3323 -0.6808  0.5674
 3089SOL    HW120726   1.868   0.712   8.046  1.4094 -0.1127  0.2550
 3089SOL    HW220727   1.977   0.669   8.139  1.2872 -1.3021  0.0330
 3090SOL     OW20728   4.090   1.199   3.019 -0.2895 -0.5775  0.1193
 3090SOL    HW120729   4.098   1.126   3.081 -1.7770 -0.5614  0.3267
 3090SOL    HW220730   3.996   1.214   3.006 -0.7327 -3.8423 -0.2540
 3091SOL     OW20731   1.903   4.313   6.552  0.1630  0.1071 -0.6726
 3091SOL    HW120732   1.889   4.219   6.544  0.9502 -0.0612 -0.0631
 3091SOL    HW220733   1.973   4.310   6.617 -0.3786 -1.4646 -0.1690
 3092SOL     OW20734   0.439   0.053   6.646 -0.0097  0.5640  0.2336
 3092SOL    HW120735   0.438   0.110   6.723 -0.5834  1.5330 -0.4805
 3092SOL    HW220736   0.383   4.708   6.680  0.7048  0.0013  0.2862
 3093SOL     OW20737   2.876   4.355  14.890 -0.0156  0.2648 -0.0872
 3093SOL    HW120738   2.920   4.281  14.931  0.2675  0.1880 -0.5255
 3093SOL    HW220739   2.952   4.397  14.850 -1.4493  1.4631 -1.5611
 3094SOL     OW20740   0.340   0.895   8.189  0.4909 -0.5018 -0.8764
 3094SOL    HW120741   0.407   0.954   8.155 -1.6735  0.8577 -2.7340
 3094SOL    HW220742   0.298   0.946   8.257  1.8002  0.9209 -1.1483
 3095SOL     OW20743   2.211   2.409   4.482 -0.0775  0.1563 -0.8945
 3095SOL    HW120744   2.186   2.431   4.392 -1.0311 -1.6323 -1.0653
 3095SOL    HW220745   2.132   2.448   4.518 -1.7351 -3.4036 -0.7216
 3096SOL     OW20746   3.129   2.661  10.133 -0.2843  0.8665  0.1072
 3096SOL    HW120747   3.113   2.675  10.040 -1.7764  0.8848  0.3555
 3096SOL    HW220748   3.223   2.645  10.132 -0.5991 -0.9293 -0.4171
 3097SOL     OW20749   2.795   4.533  13.047  0.4668  0.2153  0.1648
 3097SOL    HW120750   2.780   4.442  13.072  3.2430 -0.2593  0.1729
 3097SOL    HW220751   2.769   4.524  12.955 -0.9512 -0.9896  0.6935
 3098SOL     OW20752   2.876   1.898   4.043 -0.1521  0.5836 -0.0488
 3098SOL    HW120753   2.881   1.901   3.948 -1.3192 -0.5137 -0.1416
 3098SOL    HW220754   2.966   1.902   4.075  0.0968 -1.0505 -0.5371
 3099SOL     OW20755   0.449   4.580   5.612 -0.3927  0.3754  0.1046
 3099SOL    HW120756   0.360   4.548   5.599 -0.8216  0.1565  3.6379
 3099SOL    HW220757   0.451   4.649   5.546 -1.7557 -0.5511 -0.9155
 3100SOL     OW20758   3.766   2.120  12.018 -0.4335 -0.1204 -0.2377
 3100SOL    HW120759   3.787   2.191  11.957  0.7379 -0.6063 -0.4033
 3100SOL    HW220760   3.856   2.126  12.049 -0.8364 -0.8817  1.0989
 3101SOL     OW20761   0.156   4.224   3.220 -0.2997 -0.1833  0.2212
 3101SOL    HW120762   0.132   4.291   3.155  0.1372  2.6241  2.9605
 3101SOL    HW220763   0.241   4.252   3.253  0.9843  0.0432 -3.2695
 3102SOL     OW20764   2.787   0.905   2.071  0.4425  0.2799  0.1633
 3102SOL    HW120765   2.772   0.885   2.164 -0.7799  1.7667  0.2897
 3102SOL    HW220766   2.879   0.931   2.071  1.5349 -3.5862  1.2681
 3103SOL     OW20767   0.515   1.093   1.800  0.5707 -0.3631 -0.3808
 3103SOL    HW120768   0.430   1.073   1.760  0.5066 -1.1318  0.1360
 3103SOL    HW220769   0.495   1.166   1.858 -0.5294 -2.7457  2.2201
 3104SOL     OW20770   1.315   3.500   2.488  0.0144  0.6561  0.0304
 3104SOL    HW120771   1.277   3.516   2.574  2.1874  2.6635  0.6068
 3104SOL    HW220772   1.238   3.468   2.440 -0.5553  0.3645  1.1369
 3105SOL     OW20773   3.295   1.233   2.908 -0.2238 -0.5721 -0.0121
 3105SOL    HW120774   3.367   1.296   2.908 -0.1082 -0.6928 -1.3799
 3105SOL    HW220775   3.260   1.251   2.995  0.5643  2.2361 -0.2646
 3106SOL     OW20776   4.195   2.974  11.531  0.2725 -0.6383  0.4977
 3106SOL    HW120777   4.245   3.039  11.480 -0.5620  0.5265  1.1640
 3106SOL    HW220778   4.259   2.951  11.599  0.5341 -1.4763 -0.0383
 3107SOL     OW20779   2.233   1.143  17.080 -0.2069 -0.1965 -0.8653
 3107SOL    HW120780   2.257   1.233  17.056 -1.3804  0.4197  0.2978
 3107SOL    HW220781   2.310   1.097  17.044 -1.1182 -2.3492 -0.0650
 3108SOL     OW20782   0.529   4.244   0.443  0.2614  0.6548 -0.4374
 3108SOL    HW120783   0.541   4.328   0.400 -2.9968  0.1342 -2.3808
 3108SOL    HW220784   0.438   4.220   0.427  0.0286  2.3878 -1.6138
 3109SOL     OW20785   3.562   1.703   6.801 -0.1838 -0.0432 -0.0064
 3109SOL    HW120786   3.593   1.686   6.712 -1.3710 -0.8839 -0.2723
 3109SOL    HW220787   3.552   1.616   6.841  0.3747 -0.5497 -0.9722
 3110SOL     OW20788   2.376   3.906   2.091 -1.1087  0.2901 -0.5707
 3110SOL    HW120789   2.405   3.950   2.171 -2.6161 -1.3779  0.9068
 3110SOL    HW220790   2.460   3.868   2.065 -0.6140  2.6085 -2.3899
 3111SOL     OW20791   2.431   1.971   9.621 -0.2186  0.2427 -0.3531
 3111SOL    HW120792   2.492   1.990   9.692  1.7982 -0.9718 -1.7561
 3111SOL    HW220793   2.357   2.021   9.655 -0.6845  0.5609 -1.8293
 3112SOL     OW20794   0.825   0.394   9.163  0.3586 -0.1464  0.6688
 3112SOL    HW120795   0.756   0.430   9.219 -1.9321 -2.2720 -0.8311
 3112SOL    HW220796   0.860   0.466   9.111 -0.7076  0.4853  0.8397
 3113SOL     OW20797   1.690   1.706   5.697 -0.7554  0.2249 -0.3073
 3113SOL    HW120798   1.648   1.620   5.692  0.6056 -0.2474 -3.5424
 3113SOL    HW220799   1.612   1.762   5.688 -1.2138 -0.4291 -0.3849
 3114SOL     OW20800   0.305   2.218  15.214 -0.1539  0.2853 -0.7247
 3114SOL    HW120801   0.285   2.142  15.160 -0.7316 -0.5675  0.6750
 3114SOL    HW220802   0.258   2.285  15.165  0.4337 -0.6183 -2.5072
 3115SOL     OW20803   0.669   0.881   7.818  0.4007  0.5204 -0.2546
 3115SOL    HW120804   0.675   0.897   7.912 -0.1926 -1.6761  0.1706
 3115SOL    HW220805   0.575   0.895   7.809  0.2217  0.5203  1.5782
 3116SOL     OW20806   2.912   2.862   8.553 -0.0024 -0.1213 -0.1040
 3116SOL    HW120807   2.953   2.781   8.584 -0.9451 -0.5873 -0.0860
 3116SOL    HW220808   2.911   2.854   8.457 -1.8505 -1.4215  0.0199
 3117SOL     OW20809   4.083   0.187   7.897  0.1615 -0.8017 -0.6012
 3117SOL    HW120810   4.059   0.169   7.806 -0.3197  0.9506 -0.8157
 3117SOL    HW220811   4.046   0.114   7.947  0.6035  1.7335  3.4761
 3118SOL     OW20812   0.076   2.292   3.806 -0.8289  0.5066  0.0170
 3118SOL    HW120813   0.031   2.365   3.847 -2.7244 -0.6511 -0.0158
 3118SOL    HW220814   0.151   2.279   3.864 -0.5131 -1.0427 -0.7387
 3119SOL     OW20815   4.296   0.369  11.436  0.8262 -0.4322 -0.3139
 3119SOL    HW120816   4.332   0.372  11.347 -0.5213 -1.2620 -0.8843
 3119SOL    HW220817   4.306   0.462  11.455 -0.7975 -1.0266  3.3624
 3120SOL     OW20818   3.088   1.949   1.118 -0.0790  0.6069  0.0377
 3120SOL    HW120819   3.068   2.030   1.166  1.2770  0.3657  1.0224
 3120SOL    HW220820   3.177   1.971   1.088  0.5667  1.4236  2.5397
 3121SOL     OW20821   1.776   2.215   6.537  0.3151  0.2878 -0.4661
 3121SOL    HW120822   1.794   2.137   6.484 -1.4564  0.1640 -0.8813
 3121SOL    HW220823   1.794   2.188   6.627  0.6834 -3.1174 -1.5574
 3122SOL     OW20824   1.690   4.402   8.822 -0.1391 -0.5930 -0.0658
 3122SOL    HW120825   1.708   4.378   8.913 -3.5006 -1.5646  0.3455
 3122SOL    HW220826   1.714   4.321   8.775  2.5294  1.5130 -2.3134
 3123SOL     OW20827   1.727   4.178   6.249  0.0140  0.2477  0.1049
 3123SOL    HW120828   1.748   4.148   6.160 -2.5791  0.3464 -0.5448
 3123SOL    HW220829   1.784   4.255   6.247 -0.0155  0.3172  2.4053
 3124SOL     OW20830   4.721   1.671   8.598 -0.4321  0.2237 -0.4386
 3124SOL    HW120831   0.069   1.669   8.535  0.3946 -0.2169  0.5142
 3124SOL    HW220832   0.049   1.653   8.677  0.5814 -0.4400 -1.2519
 3125SOL     OW20833   4.643   0.906   1.961  0.2099 -0.3344  0.2452
 3125SOL    HW120834   4.678   0.986   1.999  2.5970 -1.4145  0.3139
 3125SOL    HW220835   4.556   0.928   1.927  0.9555 -2.4199 -3.1148
 3126SOL     OW20836   4.256   2.728  15.864 -0.0677  0.5719  0.1040
 3126SOL    HW120837   4.317   2.752  15.933  0.1038 -1.0857  0.5146
 3126SOL    HW220838   4.302   2.748  15.782  1.5159  1.4093  1.2141
 3127SOL     OW20839   4.420   3.028   0.926  0.2360 -0.3260 -0.7764
 3127SOL    HW120840   4.459   3.094   0.983 -0.5544 -1.0460  0.6046
 3127SOL    HW220841   4.329   3.054   0.946  0.2606 -0.8465  0.0047
 3128SOL     OW20842   2.270   4.635   8.747 -0.3974 -0.1786 -0.1891
 3128SOL    HW120843   2.340   4.592   8.698  0.3141 -0.2686  0.8999
 3128SOL    HW220844   2.199   4.650   8.684 -0.0650 -2.1049 -1.0046
 3129SOL     OW20845   2.576   2.806  14.527  0.0314 -0.7504  0.2202
 3129SOL    HW120846   2.516   2.768  14.462  1.1098 -0.9000 -0.6854
 3129SOL    HW220847   2.579   2.733  14.590  2.1057 -1.6478 -0.9216
 3130SOL     OW20848   2.233   1.110   6.330 -0.1815 -0.0189 -0.0938
 3130SOL    HW120849   2.314   1.143   6.371  0.6253  0.7515 -2.3198
 3130SOL    HW220850   2.232   1.171   6.256 -0.4911  1.9180  1.4831
 3131SOL     OW20851   1.030   2.689  13.571 -0.1172 -0.1543  0.3041
 3131SOL    HW120852   1.078   2.624  13.519 -2.3221 -1.3442 -0.2459
 3131SOL    HW220853   1.078   2.770  13.560 -0.3712 -0.4245 -2.9372
 3132SOL     OW20854   4.586   4.664  16.427 -0.2437 -0.3450 -0.3164
 3132SOL    HW120855   4.595   4.697  16.338 -0.6894 -0.8984 -0.5619
 3132SOL    HW220856   4.525   4.590  16.426  0.1681 -0.7343  2.2127
 3133SOL     OW20857   4.637   4.347   2.864  0.1883 -0.2153 -0.5383
 3133SOL    HW120858   4.571   4.400   2.819 -0.7686 -0.2662  0.8062
 3133SOL    HW220859   4.572   4.280   2.886 -0.8726  1.0972  0.3210
 3134SOL     OW20860   3.769   2.077  11.202  0.2623 -0.5059  0.2985
 3134SOL    HW120861   3.710   2.005  11.180 -0.8704  0.6086 -0.3219
 3134SOL    HW220862   3.738   2.148  11.146  0.7917 -0.8783 -0.4675
 3135SOL     OW20863   1.955   1.837   5.707 -0.3360  0.1818 -0.1218
 3135SOL    HW120864   1.970   1.843   5.612 -2.2522  0.2255 -0.4251
 3135SOL    HW220865   1.887   1.773   5.725 -0.4713  0.9010  1.8688
 3136SOL     OW20866   0.425   2.089   4.066  0.1008 -0.1468  0.1009
 3136SOL    HW120867   0.377   2.112   3.986  2.2656  1.8773 -0.6275
 3136SOL    HW220868   0.496   2.154   4.056  0.2548 -0.2844  0.3052
 3137SOL     OW20869   1.156   3.180   8.389  0.3692  0.2304  0.4854
 3137SOL    HW120870   1.089   3.127   8.433 -2.8307  3.0537 -0.9632
 3137SOL    HW220871   1.189   3.110   8.333  0.6219  0.2750  0.5806
 3138SOL     OW20872   0.110   0.772  12.875 -0.4334 -0.6575  0.4842
 3138SOL    HW120873   0.159   0.797  12.796  2.0361 -2.3656  1.4972
 3138SOL    HW220874   0.128   0.852  12.925  1.8864 -0.7374 -0.2365
 3139SOL     OW20875   0.250   2.072   4.844 -0.0919  0.0005 -0.2810
 3139SOL    HW120876   0.174   2.037   4.797 -0.9153  0.9272  0.3571
 3139SOL    HW220877   0.243   2.165   4.822 -1.7363  0.0640  0.4648
 3140SOL     OW20878   1.547   3.204  14.126 -0.3146 -0.2523 -0.0725
 3140SOL    HW120879   1.466   3.180  14.171 -0.7660 -1.7716 -1.7324
 3140SOL    HW220880   1.561   3.138  14.059  0.5533 -0.0524 -0.0971
 3141SOL     OW20881   2.666   3.328   7.820 -1.0551  0.0054  0.1722
 3141SOL    HW120882   2.757   3.302   7.808 -1.7049 -0.8975 -2.7794
 3141SOL    HW220883   2.640   3.264   7.886 -1.2791 -2.0637 -1.9306
 3142SOL     OW20884   3.741   1.528  10.093 -0.2800  0.4456  0.2019
 3142SOL    HW120885   3.801   1.517  10.167 -1.4911 -2.1258  0.7799
 3142SOL    HW220886   3.660   1.512  10.142  0.7889  2.4087  2.6568
 3143SOL     OW20887   3.118   4.177   2.244  0.0955 -0.1182  0.5508
 3143SOL    HW120888   3.075   4.220   2.318 -0.3643 -0.0287  0.2281
 3143SOL    HW220889   3.102   4.239   2.172 -2.5144 -0.1738  1.1089
 3144SOL     OW20890   1.054   4.365   4.532  0.0146  0.1267 -0.0276
 3144SOL    HW120891   1.019   4.405   4.612  0.4552 -2.6617  1.5672
 3144SOL    HW220892   1.128   4.315   4.567  1.5956  2.0258 -0.6617
 3145SOL     OW20893   1.261   4.038   7.956 -0.0428 -0.1178  0.1112
 3145SOL    HW120894   1.343   3.999   7.985 -1.7106 -2.7664  1.2352
 3145SOL    HW220895   1.261   4.104   8.025 -1.3296  0.6624 -0.6432
 3146SOL     OW20896   3.599   3.969   4.076 -0.2956 -0.3541  0.7665
 3146SOL    HW120897   3.613   4.034   4.007  0.5638  0.5096  1.7685
 3146SOL    HW220898   3.562   3.891   4.035  0.6027 -0.7084  0.6344
 3147SOL     OW20899   4.115   4.680   4.077 -0.5503  0.0587 -0.0273
 3147SOL    HW120900   4.073   0.018   4.138 -1.1643 -0.2719 -0.1186
 3147SOL    HW220901   4.098   4.721   3.992 -2.4125 -1.9542 -0.6230
 3148SOL     OW20902   2.941   2.473   7.773  0.2626 -0.0583 -0.0336
 3148SOL    HW120903   2.939   2.526   7.852 -0.0031 -1.1638  0.7039
 3148SOL    HW220904   2.981   2.391   7.803  0.1619 -0.2177 -0.3275
 3149SOL     OW20905   2.270   4.108  10.587  0.3558  0.0770  0.3242
 3149SOL    HW120906   2.338   4.051  10.549  2.7352  1.1241  2.9825
 3149SOL    HW220907   2.281   4.181  10.527 -1.8887  1.5164  1.6667
 3150SOL     OW20908   3.272   3.262   0.097  0.5477  0.4829 -0.0881
 3150SOL    HW120909   3.266   3.195   0.029 -2.2641  0.1048  0.5264
 3150SOL    HW220910   3.185   3.302   0.088 -0.6013 -1.5310  1.9551
 3151SOL     OW20911   2.250   0.109   3.607  0.1117 -0.0184  0.1458
 3151SOL    HW120912   2.276   0.109   3.699 -0.5923 -0.1995  0.3409
 3151SOL    HW220913   2.289   0.025   3.584 -3.3685 -1.4781 -0.3925
 3152SOL     OW20914   1.425   0.479   8.826 -0.0956  0.5505  1.2818
 3152SOL    HW120915   1.496   0.441   8.877  1.1969 -0.6029 -1.3614
 3152SOL    HW220916   1.470   0.523   8.754  2.0016 -3.3517  0.2125
 3153SOL     OW20917   3.709   1.028   1.457 -0.8052  0.3488  0.2137
 3153SOL    HW120918   3.768   0.957   1.433 -0.8588  0.9992 -1.8361
 3153SOL    HW220919   3.638   0.978   1.495 -1.8793  2.0785  0.4755
 3154SOL     OW20920   1.203   0.777  16.772 -0.3330  0.1886 -0.1015
 3154SOL    HW120921   1.265   0.837  16.731 -0.0691  0.3363  0.5208
 3154SOL    HW220922   1.134   0.834  16.808 -0.7489  2.0699 -3.8092
 3155SOL     OW20923   2.998   3.288   1.911 -0.2559 -0.0146  0.1902
 3155SOL    HW120924   2.918   3.321   1.954 -0.5439  1.3185 -1.3857
 3155SOL    HW220925   3.059   3.327   1.974  2.4390 -2.1153 -1.1557
 3156SOL     OW20926   3.440   2.373   4.508  0.2130  0.0965  0.1303
 3156SOL    HW120927   3.380   2.319   4.457 -1.9802  1.0387  1.7517
 3156SOL    HW220928   3.488   2.417   4.438 -1.6082  0.1616 -1.0810
 3157SOL     OW20929   4.134   0.086  15.259 -0.1202  0.6392 -0.3009
 3157SOL    HW120930   4.058   0.090  15.201 -1.7687  1.5435  1.9263
 3157SOL    HW220931   4.210   0.093  15.201  0.8826  0.7055  1.0143
 3158SOL     OW20932   1.555   0.051   6.756 -0.4371  0.3290 -0.5156
 3158SOL    HW120933   1.622   0.112   6.788  1.2253 -1.9175  0.2403
 3158SOL    HW220934   1.578   0.028   6.666  1.1311  1.3605 -0.3863
 3159SOL     OW20935   2.932   4.040   5.304  0.6526 -0.0988 -0.0049
 3159SOL    HW120936   2.900   4.042   5.214 -0.0586  0.6212  0.2650
 3159SOL    HW220937   2.972   3.952   5.306  1.0480  0.0877  0.4481
 3160SOL     OW20938   0.998   3.659   4.983  0.0596  0.6090  0.1348
 3160SOL    HW120939   0.995   3.755   4.981  0.7043  0.6608  1.7845
 3160SOL    HW220940   0.942   3.628   4.911  1.3373 -1.2921 -0.0534
 3161SOL     OW20941   3.018   1.046  11.768  0.3085 -0.2819  0.4053
 3161SOL    HW120942   3.065   1.068  11.688  0.7376 -0.0513  0.7195
 3161SOL    HW220943   2.956   1.118  11.772 -2.1820 -2.3929 -0.3440
 3162SOL     OW20944   3.861   2.172   5.170 -0.3308  0.1500  0.3519
 3162SOL    HW120945   3.769   2.159   5.146 -0.2551  0.2712 -0.0014
 3162SOL    HW220946   3.864   2.247   5.230 -1.6547  1.0728 -0.7406
 3163SOL     OW20947   0.696   3.771   3.715 -0.2058 -0.2441 -0.4931
 3163SOL    HW120948   0.687   3.718   3.636  1.3051  0.0391 -0.8603
 3163SOL    HW220949   0.605   3.780   3.744 -0.3989 -3.7317 -0.0780
 3164SOL     OW20950   2.973   4.292   2.438  0.0523 -0.2269  0.3129
 3164SOL    HW120951   2.884   4.319   2.461 -0.1274 -1.8328  1.5786
 3164SOL    HW220952   2.997   4.378   2.406 -2.5453  0.0408 -0.8891
 3165SOL     OW20953   1.751   0.004  11.161 -0.3148  0.3764  0.2417
 3165SOL    HW120954   1.729   4.682  11.079 -0.0201 -2.3751  1.6901
 3165SOL    HW220955   1.688   0.076  11.149  0.1504  1.0819  2.0195
 3166SOL     OW20956   2.475   2.579   4.929 -0.3180  0.9151  0.6553
 3166SOL    HW120957   2.479   2.500   4.875  2.1724  0.8625  0.8868
 3166SOL    HW220958   2.413   2.553   4.997  0.8304 -0.2133  1.2828
 3167SOL     OW20959   2.652   1.782   2.292  0.2862 -0.8153 -0.5368
 3167SOL    HW120960   2.643   1.822   2.206  0.6048 -0.8440 -0.5813
 3167SOL    HW220961   2.649   1.689   2.269  1.1554 -0.3631 -2.4561
 3168SOL     OW20962   0.149   1.471   2.502 -0.0087  0.2148  0.0832
 3168SOL    HW120963   0.158   1.525   2.423 -0.1916  0.0181 -0.0731
 3168SOL    HW220964   0.215   1.406   2.479 -0.2483  0.7211 -2.0448
 3169SOL     OW20965   0.798   1.358   2.342  0.1148 -0.1976 -0.2556
 3169SOL    HW120966   0.718   1.395   2.378 -0.2666 -0.8322 -0.4528
 3169SOL    HW220967   0.762   1.319   2.262  1.8187  0.6108 -1.4300
 3170SOL     OW20968   4.382   4.061   6.697  0.6639  0.4725  1.2592
 3170SOL    HW120969   4.369   3.966   6.700 -3.1380  1.0047  1.8967
 3170SOL    HW220970   4.353   4.096   6.613  2.8702 -0.9764 -0.1100
 3171SOL     OW20971   2.663   3.962  12.379 -0.3584 -0.3609 -0.7458
 3171SOL    HW120972   2.691   3.871  12.388 -0.3464 -0.3174 -0.3430
 3171SOL    HW220973   2.740   4.012  12.405 -0.1912 -0.2206 -1.5107
 3172SOL     OW20974   0.095   4.021   9.777  0.2648 -0.7110  0.1307
 3172SOL    HW120975   0.189   4.032   9.762 -0.1986  0.0010 -2.3081
 3172SOL    HW220976   0.077   4.061   9.863  0.9175  1.9306 -0.9509
 3173SOL     OW20977   0.649   2.471   5.294 -0.1613  0.0054  0.2151
 3173SOL    HW120978   0.687   2.481   5.207  0.4597 -1.1654  0.3574
 3173SOL    HW220979   0.553   2.474   5.285 -0.4574  1.6537  3.6232
 3174SOL     OW20980   1.496   4.379   8.324 -0.3901  0.0421  0.1214
 3174SOL    HW120981   1.525   4.327   8.399  0.1284 -0.3431 -0.3421
 3174SOL    HW220982   1.417   4.330   8.300 -0.2340  0.8671 -2.1035
 3175SOL     OW20983   3.278   4.470   6.628  0.2573 -0.2967  0.1331
 3175SOL    HW120984   3.372   4.479   6.645  0.5833  0.3821 -2.0504
 3175SOL    HW220985   3.264   4.384   6.586 -2.3075 -0.3154  1.0139
 3176SOL     OW20986   2.374   4.166   3.561 -0.1034 -0.3314 -0.0233
 3176SOL    HW120987   2.346   4.258   3.553 -0.2757 -0.4429 -0.7031
 3176SOL    HW220988   2.292   4.116   3.559 -1.4376  1.8077  0.7610
 3177SOL     OW20989   3.389   1.282   5.247  0.2117  0.2246  0.3080
 3177SOL    HW120990   3.333   1.239   5.312  0.9878 -1.4231 -0.1281
 3177SOL    HW220991   3.456   1.304   5.310 -0.6409  1.7139  0.7058
 3178SOL     OW20992   1.823   1.030   0.498 -0.0841 -0.2907  0.4178
 3178SOL    HW120993   1.887   0.992   0.438 -0.2595 -0.1233  0.1294
 3178SOL    HW220994   1.746   1.040   0.443  1.5265  0.2329 -1.7160
 3179SOL     OW20995   0.326   4.388   3.996 -0.1010  0.6688 -0.0439
 3179SOL    HW120996   0.332   4.481   3.978 -1.4044  0.9263  0.7675
 3179SOL    HW220997   0.326   4.357   3.906  0.5213  2.0999 -0.5303
 3180SOL     OW20998   2.351   3.661  12.503  0.6347  0.3387 -0.6727
 3180SOL    HW120999   2.329   3.675  12.411  0.2463 -1.7327 -0.8916
 3180SOL    HW221000   2.395   3.745  12.519  2.9488 -1.1294  0.5684
 3181SOL     OW21001   4.028   4.247   0.637 -0.2999  0.0501 -0.1878
 3181SOL    HW121002   4.108   4.299   0.645  1.1311 -2.6494  2.8083
 3181SOL    HW221003   3.957   4.309   0.624  0.3272  0.7455 -0.3277
 3182SOL     OW21004   4.658   1.710  17.130 -0.1056  0.2490 -0.2996
 3182SOL    HW121005   4.675   1.779  17.065 -0.1878 -0.5332 -1.1489
 3182SOL    HW221006   0.021   1.672  17.146 -1.5565 -1.7171  2.9000
 3183SOL     OW21007   1.261   0.464  10.178  0.3773  0.3353 -0.2328
 3183SOL    HW121008   1.345   0.465  10.132  1.2538 -0.6629  1.3612
 3183SOL    HW221009   1.232   0.555  10.183 -0.0077  0.2230 -0.4228
 3184SOL     OW21010   3.287   0.120   1.878  0.1176  0.2920  0.2699
 3184SOL    HW121011   3.196   0.148   1.867 -0.2066 -1.0128 -0.4373
 3184SOL    HW221012   3.282   0.061   1.953 -0.4935  0.9383  0.7306
 3185SOL     OW21013   2.887   3.407   1.412 -0.5097  0.6675 -0.0146
 3185SOL    HW121014   2.969   3.418   1.461  0.3936 -0.7860 -1.1719
 3185SOL    HW221015   2.844   3.489   1.437  2.0444  1.9405  0.2497
 3186SOL     OW21016   1.473   0.924   8.659  0.9465 -0.0692  0.0415
 3186SOL    HW121017   1.463   0.968   8.743 -0.0753  0.3827 -0.3159
 3186SOL    HW221018   1.429   0.986   8.601 -2.6899 -1.2019  1.5296
 3187SOL     OW21019   2.029   2.646   8.488  0.1598  0.2554 -0.2148
 3187SOL    HW121020   2.018   2.741   8.496  1.7424  0.3325  1.1798
 3187SOL    HW221021   2.029   2.606   8.575 -0.1094  0.9444  0.1023
 3188SOL     OW21022   1.136   3.798   7.868  0.0043  0.1674 -0.1144
 3188SOL    HW121023   1.153   3.885   7.902  1.2560 -0.1794  0.1528
 3188SOL    HW221024   1.210   3.798   7.807  0.7818  2.0095  0.8410
 3189SOL     OW21025   0.338   1.229   6.121  0.1192  1.3006 -0.0039
 3189SOL    HW121026   0.266   1.188   6.074 -0.9695  1.9731  1.0823
 3189SOL    HW221027   0.383   1.256   6.041  1.2058 -2.6600 -0.7514
 3190SOL     OW21028   2.990   1.085   4.711  0.0425 -0.5403 -0.5834
 3190SOL    HW121029   2.963   1.151   4.775 -0.6026 -2.7717  1.3903
 3190SOL    HW221030   3.027   1.013   4.761  0.6867  0.2185  0.0414
 3191SOL     OW21031   2.737   3.865   5.787 -0.3210 -0.2831 -0.3037
 3191SOL    HW121032   2.793   3.789   5.805 -1.2240 -1.1756 -1.2184
 3191SOL    HW221033   2.781   3.900   5.709 -0.2575 -1.7230 -0.9321
 3192SOL     OW21034   1.102   1.012   3.040 -0.1248  0.0174  0.4676
 3192SOL    HW121035   1.062   0.933   3.005 -1.5498  1.5160 -1.2634
 3192SOL    HW221036   1.035   1.076   3.016 -0.8305 -0.6804  0.5693
 3193SOL     OW21037   4.669   2.875   8.454 -0.2569 -0.1597  0.3405
 3193SOL    HW121038   4.695   2.865   8.362  2.7460  0.6171  1.1068
 3193SOL    HW221039   4.610   2.799   8.458  0.1123 -0.2399  3.7236
 3194SOL     OW21040   0.748   0.645   2.481  0.2102 -0.4667 -0.6749
 3194SOL    HW121041   0.793   0.565   2.508 -0.8642 -0.9584 -0.3158
 3194SOL    HW221042   0.722   0.606   2.398  2.4302 -0.9056 -1.1531
 3195SOL     OW21043   3.691   1.593  14.818 -0.4529 -0.4032 -0.2466
 3195SOL    HW121044   3.764   1.634  14.864 -0.9113 -0.4929  0.5784
 3195SOL    HW221045   3.693   1.645  14.738 -0.2788  2.5787  1.6768
 3196SOL     OW21046   3.504   4.165  16.782 -0.2998 -0.4953  0.1779
 3196SOL    HW121047   3.583   4.175  16.835 -0.8999 -0.0045  0.9816
 3196SOL    HW221048   3.529   4.204  16.698 -2.2057 -2.6769 -1.4026
 3197SOL     OW21049   2.822   1.919  15.179  0.8136 -0.1371 -0.1339
 3197SOL    HW121050   2.867   1.988  15.131  0.8990  0.3073  0.5965
 3197SOL    HW221051   2.780   1.870  15.108 -0.6932  1.1378 -0.0872
 3198SOL     OW21052   0.740   4.074   7.930 -0.1838 -0.2276 -0.0991
 3198SOL    HW121053   0.707   4.159   7.904 -0.6991 -1.1021 -2.3129
 3198SOL    HW221054   0.810   4.096   7.992 -1.2476 -2.2234  1.8306
 3199SOL     OW21055   0.530   2.674   4.731 -0.2638 -0.2996 -0.0471
 3199SOL    HW121056   0.624   2.686   4.748  0.3506 -1.8385 -2.4253
 3199SOL    HW221057   0.495   2.609   4.793 -0.5327 -0.7760 -0.6978
 3200SOL     OW21058   2.376   2.998   0.277  0.5288  0.1324 -0.1190
 3200SOL    HW121059   2.469   2.982   0.294 -0.1104 -1.2946  2.0261
 3200SOL    HW221060   2.368   3.093   0.291 -0.4517  0.1321 -0.6571
 3201SOL     OW21061   2.544   2.711   1.865  0.5240  0.1119 -0.6193
 3201SOL    HW121062   2.459   2.751   1.846  0.4576  0.8566  1.1477
 3201SOL    HW221063   2.524   2.617   1.865 -0.5186  0.3356 -0.8593
 3202SOL     OW21064   1.709   2.799   2.455 -0.1103  0.2691  0.3369
 3202SOL    HW121065   1.752   2.773   2.374 -1.5985  0.7719 -0.6181
 3202SOL    HW221066   1.676   2.881   2.418  0.4431 -0.2790 -1.3806
 3203SOL     OW21067   4.119   0.320   9.226  0.1959  0.6113 -0.0518
 3203SOL    HW121068   4.043   0.363   9.188  1.7512  1.3188 -2.4201
 3203SOL    HW221069   4.108   0.229   9.198  0.4915 -0.5811  3.6973
 3204SOL     OW21070   0.799   1.087   8.790  0.9339 -0.5569  0.1795
 3204SOL    HW121071   0.750   1.022   8.840 -2.1347  1.2938 -0.4366
 3204SOL    HW221072   0.793   1.052   8.701  1.1774 -0.6375  0.1949
 3205SOL     OW21073   0.486   2.127   5.446  0.3763  0.4068 -0.7791
 3205SOL    HW121074   0.548   2.086   5.386 -1.0598 -1.2384 -1.1287
 3205SOL    HW221075   0.501   2.058   5.510  4.4109  1.9277 -0.0743
 3206SOL     OW21076   4.050   0.342   6.999  0.2754  0.2945 -0.2844
 3206SOL    HW121077   3.977   0.332   6.937 -1.3855 -0.3531  1.8073
 3206SOL    HW221078   4.079   0.430   6.974  0.5459 -0.1005 -1.3600
 3207SOL     OW21079   2.693   4.272   1.356 -0.3553  0.2477  0.0078
 3207SOL    HW121080   2.736   4.191   1.328  0.0512  1.4745 -2.9370
 3207SOL    HW221081   2.710   4.282   1.450 -1.2132 -0.8401  0.2848
 3208SOL     OW21082   3.220   4.521   8.944 -0.1461  0.1679 -0.0519
 3208SOL    HW121083   3.164   4.505   8.869  1.0310  1.0441 -1.1171
 3208SOL    HW221084   3.301   4.526   8.893 -0.0802 -0.9597 -0.0580
 3209SOL     OW21085   3.152   4.610  15.898 -0.4720 -0.7098 -0.6820
 3209SOL    HW121086   3.233   4.566  15.871 -0.6893 -1.4363 -0.1249
 3209SOL    HW221087   3.165   4.700  15.865  1.8205 -0.0998  1.8893
 3210SOL     OW21088   3.985   4.663  12.281  0.0164  0.0124  0.4839
 3210SOL    HW121089   4.065   4.713  12.294  0.1505 -0.1389  0.2543
 3210SOL    HW221090   3.958   4.687  12.192  1.4936  0.3181  0.1063
 3211SOL     OW21091   3.286   4.126   5.512  0.5201 -0.0221  0.7309
 3211SOL    HW121092   3.294   4.058   5.445 -0.4244  0.6833 -0.0979
 3211SOL    HW221093   3.238   4.186   5.456 -1.0116  0.2440  2.3356
 3212SOL     OW21094   2.576   3.912   4.332  0.3821 -0.0975 -0.5129
 3212SOL    HW121095   2.599   3.829   4.373 -1.7751 -2.0245 -3.2755
 3212SOL    HW221096   2.663   3.952   4.328 -0.5305  1.8323 -1.2745
 3213SOL     OW21097   3.719   0.112   3.099  0.5736 -0.1208 -0.2007
 3213SOL    HW121098   3.697   0.048   3.167 -0.3967 -0.4225 -0.8046
 3213SOL    HW221099   3.760   0.056   3.033  0.8017  0.1673 -0.3036
 3214SOL     OW21100   2.477   0.177   2.814  0.3310 -0.3752 -0.0755
 3214SOL    HW121101   2.491   0.141   2.726 -0.1592 -1.0805  0.1333
 3214SOL    HW221102   2.399   0.125   2.833 -0.0314 -0.8761 -2.8528
 3215SOL     OW21103   0.303   1.656  12.677 -0.1071  0.3909  0.8181
 3215SOL    HW121104   0.208   1.642  12.673 -0.2327  1.7432 -0.8665
 3215SOL    HW221105   0.328   1.606  12.755  0.4529 -0.4325  0.1126
 3216SOL     OW21106   2.135   1.268  15.834 -0.6450  0.3604  0.0007
 3216SOL    HW121107   2.093   1.187  15.808  4.1494 -2.4560  1.1313
 3216SOL    HW221108   2.229   1.257  15.822 -0.7617 -0.5955 -0.0030
 3217SOL     OW21109   0.972   4.626  11.091  0.8123  0.2716  0.0225
 3217SOL    HW121110   0.968   4.686  11.166 -0.7244 -1.7925  1.5917
 3217SOL    HW221111   1.054   4.658  11.054  2.9381 -2.2685  2.6058
 3218SOL     OW21112   3.213   2.249   2.330 -0.0900 -0.0099 -0.7078
 3218SOL    HW121113   3.172   2.318   2.278 -1.9102  0.0434  0.7929
 3218SOL    HW221114   3.284   2.213   2.277  0.3736 -0.9068  0.5252
 3219SOL     OW21115   3.181   0.952   5.704 -0.5538  0.5620 -0.0354
 3219SOL    HW121116   3.112   0.965   5.639 -0.0497  1.8306 -0.2934
 3219SOL    HW221117   3.205   0.860   5.690  2.4514  1.4405 -0.5718
 3220SOL     OW21118   0.622   4.430   4.086  0.0856  0.2638 -0.0530
 3220SOL    HW121119   0.664   4.463   4.166  0.0633 -2.3684  1.0450
 3220SOL    HW221120   0.531   4.458   4.086 -0.0759 -0.2347  4.2410
 3221SOL     OW21121   1.242   2.039   0.618 -0.0710 -0.4030 -0.4450
 3221SOL    HW121122   1.328   2.080   0.625 -1.1924  1.6382  1.3564
 3221SOL    HW221123   1.232   1.987   0.698 -2.0696  2.9872  1.4995
 3222SOL     OW21124   2.701   4.406   2.562  0.0996 -0.0356  0.3369
 3222SOL    HW121125   2.612   4.391   2.596 -0.8311  0.2685 -1.9852
 3222SOL    HW221126   2.711   4.501   2.570  0.2122  0.0760 -1.1149
 3223SOL     OW21127   3.660   0.480   2.697 -0.2883 -0.0636  0.3017
 3223SOL    HW121128   3.608   0.533   2.638  0.2498  1.4442  1.1784
 3223SOL    HW221129   3.694   0.539   2.764 -0.5265 -0.9965  1.2376
 3224SOL     OW21130   3.864   0.520   3.507  0.0096  0.0697  0.1778
 3224SOL    HW121131   3.917   0.503   3.585  1.5257  0.4273 -0.7794
 3224SOL    HW221132   3.933   0.503   3.443  0.4654 -0.4757  0.8119
 3225SOL     OW21133   1.745   3.933   5.976  0.0547  0.8290 -0.7218
 3225SOL    HW121134   1.731   3.924   5.881  1.2684 -0.4715 -0.7764
 3225SOL    HW221135   1.658   3.960   6.005 -0.6882  0.4082 -2.5145
 3226SOL     OW21136   2.806   0.466   3.620 -0.0832  0.2303  0.0447
 3226SOL    HW121137   2.745   0.399   3.650 -0.9972  1.5348  1.1320
 3226SOL    HW221138   2.879   0.416   3.583  0.3785  0.5278  0.5549
 3227SOL     OW21139   3.442   0.424   2.271  0.1176  0.0855  0.3896
 3227SOL    HW121140   3.420   0.421   2.364  0.3678 -1.7426  0.3813
 3227SOL    HW221141   3.520   0.368   2.270 -0.5092 -0.8089  1.3032
 3228SOL     OW21142   0.353   0.223  14.064 -0.3821 -0.5690 -0.1383
 3228SOL    HW121143   0.334   0.147  14.118  0.7112 -0.8860 -0.1967
 3228SOL    HW221144   0.408   0.185  13.995 -1.3536 -1.4194 -0.4427
 3229SOL     OW21145   0.899   2.948  15.720 -0.6074  0.6826 -0.1591
 3229SOL    HW121146   0.903   2.881  15.651 -0.3940  0.3246  0.2019
 3229SOL    HW221147   0.927   3.026  15.673  0.5930 -0.2471 -0.9700
 3230SOL     OW21148   3.138   4.297   4.616 -0.2959  0.4888 -0.1506
 3230SOL    HW121149   3.166   4.231   4.553 -2.0768  1.5831 -2.0774
 3230SOL    HW221150   3.215   4.353   4.611  0.0750  0.1617  1.8053
 3231SOL     OW21151   0.042   1.399   7.103  0.3533  0.0518  0.2737
 3231SOL    HW121152   4.669   1.404   7.109  0.3678  0.8566 -0.1282
 3231SOL    HW221153   0.060   1.326   7.162  2.6337  0.8538  0.5558
 3232SOL     OW21154   4.298   1.010   5.803 -0.2465 -0.1843 -0.7647
 3232SOL    HW121155   4.347   0.938   5.763 -0.6399 -2.1265  2.3092
 3232SOL    HW221156   4.305   1.070   5.728  1.2041  0.5975 -0.0166
 3233SOL     OW21157   0.729   1.459  16.325 -0.3722  0.3839 -0.0682
 3233SOL    HW121158   0.800   1.484  16.265 -1.1010 -0.6077 -1.3439
 3233SOL    HW221159   0.778   1.402  16.385 -0.0435 -1.3134 -1.9507
 3234SOL     OW21160   2.569   0.186  13.043  0.1139 -0.0711  0.0179
 3234SOL    HW121161   2.560   0.212  13.135 -1.1151 -0.7978  0.0969
 3234SOL    HW221162   2.618   0.260  13.007  0.8235 -0.6406 -0.1953
 3235SOL     OW21163   4.483   2.013   6.556  0.0472  0.0492  0.6367
 3235SOL    HW121164   4.539   1.976   6.488  0.7976  0.1953  1.1821
 3235SOL    HW221165   4.457   1.931   6.598 -1.8724  0.6642  0.6642
 3236SOL     OW21166   2.670   0.929   4.209  0.9795 -0.0393  0.1405
 3236SOL    HW121167   2.604   0.877   4.163 -2.2920  1.7658  2.7423
 3236SOL    HW221168   2.721   0.857   4.247  2.6687  2.0429  1.8263
 3237SOL     OW21169   2.802   3.831  14.264 -0.2001  0.1532 -0.1985
 3237SOL    HW121170   2.785   3.771  14.336  3.0960 -0.9602 -0.3251
 3237SOL    HW221171   2.868   3.889  14.304  2.3448 -1.8052 -1.5356
 3238SOL     OW21172   1.439   4.230  10.453 -0.2442  0.2696  0.1474
 3238SOL    HW121173   1.389   4.186  10.522 -2.8993  0.1835 -1.8508
 3238SOL    HW221174   1.371   4.279  10.408  0.3906 -0.7375 -1.8796
 3239SOL     OW21175   2.375   0.232   7.737 -0.2878 -0.2325  0.2739
 3239SOL    HW121176   2.405   0.272   7.655 -1.4611  0.2770  0.0936
 3239SOL    HW221177   2.411   0.143   7.736  0.2867  0.0164 -0.8109
 3240SOL     OW21178   4.616   1.628   6.283  0.1025 -0.1196  0.1615
 3240SOL    HW121179   4.565   1.546   6.284  0.9297 -0.6327 -0.0478
 3240SOL    HW221180   4.631   1.659   6.193 -3.5848 -1.3970 -0.9061
 3241SOL     OW21181   3.822   4.489  14.534 -1.0410 -0.0777  0.2579
 3241SOL    HW121182   3.880   4.464  14.607  0.2395 -0.8230 -1.0113
 3241SOL    HW221183   3.777   4.406  14.518 -0.7892 -0.2424  0.3904
 3242SOL     OW21184   3.331   2.447   3.403 -0.0950 -0.2868 -0.3869
 3242SOL    HW121185   3.372   2.527   3.437  0.5277 -0.3589 -0.9615
 3242SOL    HW221186   3.319   2.475   3.313  0.6751 -2.1795 -1.0876
 3243SOL     OW21187   3.895   1.352  16.923 -0.1307  0.0559 -0.0067
 3243SOL    HW121188   3.962   1.331  16.858  0.4395  1.4582  0.1229
 3243SOL    HW221189   3.934   1.304  16.996  0.8726 -1.5021 -1.5665
 3244SOL     OW21190   1.609   2.041   8.501  0.1398 -0.1873 -0.1660
 3244SOL    HW121191   1.565   1.990   8.569  0.6797  0.0516  0.3643
 3244SOL    HW221192   1.592   1.983   8.427  3.8538 -1.1411 -0.2793
 3245SOL     OW21193   3.655   2.018  15.464  0.4348  0.1116  0.2109
 3245SOL    HW121194   3.692   1.982  15.544 -0.2072  0.2433  0.5673
 3245SOL    HW221195   3.632   1.946  15.405  0.1469 -0.4153  0.9678
 3246SOL     OW21196   2.061   2.334  10.989  0.0275 -0.1584 -0.0508
 3246SOL    HW121197   2.047   2.239  10.991  3.7999 -0.7419  0.3433
 3246SOL    HW221198   2.090   2.350  11.079 -1.1615 -1.8299  0.6328
 3247SOL     OW21199   1.686   1.270  13.124  0.2842 -0.2682  0.4241
 3247SOL    HW121200   1.657   1.341  13.067 -0.8811 -0.1665  1.1299
 3247SOL    HW221201   1.719   1.315  13.201 -0.4362 -0.3241  0.7719
 3248SOL     OW21202   4.250   2.695   7.898  1.1068  0.1562 -0.4745
 3248SOL    HW121203   4.252   2.789   7.919 -1.1254 -0.3075  1.7923
 3248SOL    HW221204   4.242   2.710   7.804  1.6394 -0.3280 -0.5922
 3249SOL     OW21205   1.408   2.860  10.742 -0.4102 -0.7241 -0.0274
 3249SOL    HW121206   1.313   2.872  10.734 -0.0438  2.0655  0.0815
 3249SOL    HW221207   1.420   2.778  10.790  0.2690 -0.9713 -0.6130
 3250SOL     OW21208   1.070   0.913   7.971 -0.3887  0.1901  0.6350
 3250SOL    HW121209   1.162   0.896   7.950 -0.6107  1.0854 -1.0726
 3250SOL    HW221210   1.043   0.901   7.880  1.1865  0.1007  0.1711
 3251SOL     OW21211   0.300   0.317  16.696  0.5017  0.2753  0.3720
 3251SOL    HW121212   0.215   0.360  16.695  0.8965  1.0329 -0.5964
 3251SOL    HW221213   0.307   0.302  16.601  1.6092  0.4206  0.4261
 3252SOL     OW21214   3.012   4.123  14.822  0.4372 -0.5291 -0.6506
 3252SOL    HW121215   2.991   4.030  14.823  3.3268 -1.1475  1.9159
 3252SOL    HW221216   2.993   4.131  14.728  0.6968  0.1072 -0.6458
 3253SOL     OW21217   1.200   2.689  12.662 -0.0002  0.3869 -0.0970
 3253SOL    HW121218   1.115   2.720  12.690  0.0089  0.9293 -0.6819
 3253SOL    HW221219   1.248   2.710  12.742  0.4411  2.0317 -0.8099
 3254SOL     OW21220   3.093   2.229   1.193  0.1882 -0.0108 -0.1622
 3254SOL    HW121221   3.102   2.226   1.288 -0.1060  2.3663 -0.0750
 3254SOL    HW221222   3.058   2.317   1.197  1.7031  0.6727 -1.6574
 3255SOL     OW21223   0.207   0.284   4.173 -0.2832 -0.2724 -0.1552
 3255SOL    HW121224   0.287   0.334   4.190  0.6498 -1.4464 -1.0561
 3255SOL    HW221225   0.223   0.206   4.226 -0.2850  0.1084  0.4040
 3256SOL     OW21226   0.800   1.854  13.019  0.5875  0.2871 -0.0376
 3256SOL    HW121227   0.891   1.879  13.033  0.8475 -0.2661 -0.7524
 3256SOL    HW221228   0.797   1.792  12.946 -1.7909  1.7620 -1.2127
 3257SOL     OW21229   2.646   3.500  14.845  0.0347 -0.2168 -0.0617
 3257SOL    HW121230   2.680   3.533  14.927  0.4821 -0.9377  0.0483
 3257SOL    HW221231   2.553   3.493  14.868 -0.2107 -1.6470 -1.4439
 3258SOL     OW21232   3.388   1.392   6.372 -0.5871 -0.1122  0.0988
 3258SOL    HW121233   3.327   1.348   6.313  1.1651 -1.4792 -0.6989
 3258SOL    HW221234   3.446   1.320   6.398  0.9440  1.8115  1.9666
 3259SOL     OW21235   0.920   1.569   6.886  0.7379  0.1385 -0.4421
 3259SOL    HW121236   1.010   1.571   6.853  0.4295  1.4414 -1.1754
 3259SOL    HW221237   0.894   1.478   6.872 -2.0202  0.6427  1.5002
 3260SOL     OW21238   3.128   4.141   1.470 -0.2360  0.0951  0.5516
 3260SOL    HW121239   3.209   4.183   1.497  0.0704 -0.1415  0.0069
 3260SOL    HW221240   3.080   4.222   1.454  0.2713  0.6792  1.9392
 3261SOL     OW21241   3.627   1.536   5.835  0.6744  0.2806  0.1949
 3261SOL    HW121242   3.609   1.579   5.918 -0.0601  0.4010 -0.0284
 3261SOL    HW221243   3.544   1.492   5.818  0.0480  1.0639  1.2168
 3262SOL     OW21244   1.351   3.486   8.531 -0.1455 -0.6854  0.9722
 3262SOL    HW121245   1.352   3.556   8.595 -0.2198  0.9958 -0.8479
 3262SOL    HW221246   1.269   3.443   8.553 -1.6533  1.2682 -0.7626
 3263SOL     OW21247   0.556   3.633   4.234  0.4925  0.0426  0.2000
 3263SOL    HW121248   0.521   3.723   4.233  0.2000 -0.0427  2.8817
 3263SOL    HW221249   0.648   3.659   4.238 -0.3383  2.9950  0.2008
 3264SOL     OW21250   4.645   1.776   7.648 -0.3780 -0.0271 -0.0079
 3264SOL    HW121251   4.599   1.793   7.730 -1.7139 -0.5149 -0.6555
 3264SOL    HW221252   0.003   1.827   7.648 -1.0376  1.0198  1.5900
 3265SOL     OW21253   3.094   1.734   2.518  0.0644 -0.0145 -0.3691
 3265SOL    HW121254   3.091   1.790   2.440 -1.6969  0.3407 -0.0343
 3265SOL    HW221255   3.009   1.690   2.524  0.2097 -0.1863  0.3857
 3266SOL     OW21256   4.058   3.868  14.448 -0.2569 -0.1516 -0.5555
 3266SOL    HW121257   4.136   3.887  14.396 -0.1170  1.9891  0.4484
 3266SOL    HW221258   4.040   3.952  14.490  2.4100  0.2667 -0.2377
 3267SOL     OW21259   2.239   2.072   3.365  0.1989 -0.0374  0.2974
 3267SOL    HW121260   2.214   1.991   3.320 -0.2010 -0.6472  1.6301
 3267SOL    HW221261   2.274   2.122   3.291  0.6614 -1.5734 -0.5146
 3268SOL     OW21262   2.162   1.746   2.887 -0.1105 -0.0504 -0.4001
 3268SOL    HW121263   2.231   1.698   2.932  0.5642 -0.8148 -2.2406
 3268SOL    HW221264   2.093   1.740   2.953 -0.9201 -1.1300 -1.3277
 3269SOL     OW21265   2.306   3.687   2.361 -0.1344 -0.1497  0.0180
 3269SOL    HW121266   2.246   3.614   2.345  0.6456 -0.8444  0.2636
 3269SOL    HW221267   2.388   3.666   2.315 -0.6444 -1.4769 -0.2988
 3270SOL     OW21268   3.332   0.170   8.577 -0.9425 -0.1528  0.5095
 3270SOL    HW121269   3.303   0.261   8.584 -0.5753  0.0172 -0.2591
 3270SOL    HW221270   3.328   0.150   8.671 -0.0030  0.7947  0.7484
 3271SOL     OW21271   4.558   0.486   5.432  0.4280 -0.0767  0.5102
 3271SOL    HW121272   4.599   0.404   5.404  0.9063  0.6832 -0.9751
 3271SOL    HW221273   4.624   0.518   5.493  1.0205  0.0438 -0.2054
 3272SOL     OW21274   0.001   2.517   5.397  0.0007 -0.1633  0.5506
 3272SOL    HW121275   4.712   2.423   5.387 -1.4568  0.1598 -0.8149
 3272SOL    HW221276   0.027   2.513   5.489 -2.5583  1.2947  1.3503
 3273SOL     OW21277   1.781   3.053  13.829  0.5369  0.0834 -0.4941
 3273SOL    HW121278   1.692   3.087  13.842  1.1511  0.5784  2.4633
 3273SOL    HW221279   1.772   2.958  13.826 -1.1596  0.2471 -0.7426
 3274SOL     OW21280   4.485   1.319   4.365 -0.4544 -0.4602  0.4856
 3274SOL    HW121281   4.404   1.332   4.315 -0.5248 -0.5945  0.5662
 3274SOL    HW221282   4.551   1.351   4.304 -1.8562 -0.8840 -1.2391
 3275SOL     OW21283   1.309   4.321   8.071  0.3490 -0.3609 -0.2334
 3275SOL    HW121284   1.267   4.316   8.156  0.2528  2.0540 -0.1199
 3275SOL    HW221285   1.256   4.390   8.032  2.0907  1.7053  1.0093
 3276SOL     OW21286   3.190   1.678   3.403  0.0226  0.7154 -0.0594
 3276SOL    HW121287   3.231   1.675   3.489  1.5612  4.0711 -0.6489
 3276SOL    HW221288   3.207   1.771   3.384 -2.5308  0.9349 -1.2996
 3277SOL     OW21289   3.240   0.730   7.168 -0.4191 -0.0502 -0.2891
 3277SOL    HW121290   3.230   0.765   7.080  2.2827 -2.1089 -1.4274
 3277SOL    HW221291   3.288   0.797   7.216 -0.8161  1.1460 -1.5735
 3278SOL     OW21292   4.503   2.109   9.058 -0.4312  0.7267 -0.3432
 3278SOL    HW121293   4.559   2.173   9.013  0.4258  0.7942  0.8133
 3278SOL    HW221294   4.498   2.042   8.990  0.1837  1.5074 -1.1544
 3279SOL     OW21295   0.313   2.048   7.477  0.4028  0.0789  0.7899
 3279SOL    HW121296   0.314   2.119   7.542  1.0558  1.8718 -1.1895
 3279SOL    HW221297   0.372   2.088   7.413  1.9617 -1.0717  1.5065
 3280SOL     OW21298   0.021   2.275   3.545 -0.5597  0.0803 -0.4149
 3280SOL    HW121299   0.038   2.283   3.639  0.4556  0.0030 -0.5968
 3280SOL    HW221300   0.109   2.268   3.508 -1.0362 -0.0005 -1.5177
 3281SOL     OW21301   1.733   0.951   8.442 -0.6729 -0.1176  0.5540
 3281SOL    HW121302   1.657   0.892   8.435  0.8381 -1.9570 -0.6416
 3281SOL    HW221303   1.769   0.936   8.354  1.2612 -2.8965  1.8136
 3282SOL     OW21304   2.218   3.964   2.322  0.1850 -0.1296 -0.2528
 3282SOL    HW121305   2.224   3.888   2.263 -1.4735 -1.3840  1.2284
 3282SOL    HW221306   2.156   3.936   2.388 -0.6392  0.3550 -0.8240
 3283SOL     OW21307   1.067   3.407   3.370  0.2183  0.7792 -0.3020
 3283SOL    HW121308   0.992   3.348   3.365  0.6120  0.0977  1.5901
 3283SOL    HW221309   1.135   3.361   3.322  0.5904 -0.2611  1.2376
 3284SOL     OW21310   2.579   2.445   6.270  0.4477  0.5729  0.1436
 3284SOL    HW121311   2.643   2.439   6.341 -0.3104 -2.3828  0.5535
 3284SOL    HW221312   2.547   2.355   6.266 -1.4731  1.3373 -1.4405
 3285SOL     OW21313   3.410   2.537  17.089 -0.4976 -0.0147  0.3268
 3285SOL    HW121314   3.454   2.460  17.125 -3.1901 -0.4797  2.6028
 3285SOL    HW221315   3.341   2.505  17.030 -1.2180  0.2337  1.0373
 3286SOL     OW21316   1.361   3.681   4.750  0.0678  0.0934 -0.7636
 3286SOL    HW121317   1.331   3.663   4.839  2.2872 -0.6943 -0.1850
 3286SOL    HW221318   1.447   3.715   4.774 -0.8854  2.0514 -0.0703
 3287SOL     OW21319   1.933   3.397   4.001  0.5424 -0.2975  0.0327
 3287SOL    HW121320   2.011   3.404   4.056  1.1560  2.0337 -1.1122
 3287SOL    HW221321   1.939   3.305   3.975  1.1386 -0.5792  1.1818
 3288SOL     OW21322   2.611   3.173   3.138  0.1586  0.0230  0.2079
 3288SOL    HW121323   2.695   3.133   3.117  0.0888 -0.4437  0.8216
 3288SOL    HW221324   2.548   3.110   3.104  1.4775 -2.5473  2.4874
 3289SOL     OW21325   2.336   2.968   7.094  0.6001  0.2681  0.4492
 3289SOL    HW121326   2.277   3.017   7.036  0.1416  0.8344  1.3858
 3289SOL    HW221327   2.425   3.001   7.080  0.8397 -0.9181 -0.8313
 3290SOL     OW21328   4.443   2.700   8.465 -0.2173  0.3472 -0.0865
 3290SOL    HW121329   4.458   2.725   8.374 -0.1648  3.0166  0.6697
 3290SOL    HW221330   4.357   2.738   8.479  0.2162  0.8557  1.2787
 3291SOL     OW21331   0.114   1.350   7.511  0.2051  0.5879  0.3986
 3291SOL    HW121332   0.062   1.414   7.559  0.5648 -0.4165  2.1377
 3291SOL    HW221333   0.196   1.336   7.559  0.1470  0.6273  0.5087
 3292SOL     OW21334   2.157   3.354   7.082  0.5826  0.5883  0.2353
 3292SOL    HW121335   2.245   3.342   7.119  1.3491  2.3638 -0.9951
 3292SOL    HW221336   2.156   3.450   7.081  1.0118  0.5958  0.3293
 3293SOL     OW21337   2.177   3.055   2.923 -0.6245  0.9826  0.4117
 3293SOL    HW121338   2.158   3.107   2.845 -2.0273 -0.6080 -0.3093
 3293SOL    HW221339   2.271   3.045   2.906 -0.8981 -1.3516  0.3563
 3294SOL     OW21340   0.756   1.916   3.459  0.2421 -0.0496  0.5647
 3294SOL    HW121341   0.845   1.888   3.481  0.5662 -1.4358 -2.4341
 3294SOL    HW221342   0.770   1.978   3.388 -0.7774  0.0431  0.4525
 3295SOL     OW21343   2.637   3.618  10.603 -0.1827 -0.2746  0.3476
 3295SOL    HW121344   2.637   3.713  10.594  1.5663 -0.1967  1.1165
 3295SOL    HW221345   2.624   3.599  10.510 -1.4343 -1.6470  0.8148
 3296SOL     OW21346   2.471   1.886  15.519 -0.0919 -0.5249 -0.0302
 3296SOL    HW121347   2.554   1.867  15.477  0.8672 -0.4035  1.7986
 3296SOL    HW221348   2.489   1.978  15.538 -1.0294  0.1047 -2.1495
 3297SOL     OW21349   1.246   0.943  16.488 -0.0600  0.2414 -0.3389
 3297SOL    HW121350   1.233   0.900  16.403  0.5105  1.3044 -0.9628
 3297SOL    HW221351   1.289   0.869  16.531 -0.4414  0.0926 -0.2135
 3298SOL     OW21352   3.794   2.218   2.232 -0.5868  0.0749 -0.1175
 3298SOL    HW121353   3.833   2.139   2.269 -0.8235  0.7195  1.5092
 3298SOL    HW221354   3.854   2.247   2.164 -2.4067  2.4462 -0.7291
 3299SOL     OW21355   1.020   0.689   6.055  0.3299 -0.1340 -0.2426
 3299SOL    HW121356   1.086   0.620   6.067  1.8122  1.2916 -0.1562
 3299SOL    HW221357   1.075   0.768   6.058  1.2619 -0.7582 -0.7867
 3300SOL     OW21358   4.409   2.446   6.215  0.2721  0.5872 -0.1117
 3300SOL    HW121359   4.321   2.428   6.250 -0.3541 -0.3409 -2.1577
 3300SOL    HW221360   4.451   2.503   6.279  0.4448  0.2460  0.0778
 3301SOL     OW21361   2.559   1.294   3.509  0.3698 -0.5086  0.4136
 3301SOL    HW121362   2.569   1.341   3.427  1.0588 -1.0504  0.1917
 3301SOL    HW221363   2.471   1.321   3.537  0.1394 -1.2792  0.4389
 3302SOL     OW21364   2.428   2.363   6.982 -0.5757  0.0428  0.1816
 3302SOL    HW121365   2.393   2.292   6.928 -2.7930  1.8596 -0.8183
 3302SOL    HW221366   2.497   2.392   6.921 -1.2479  1.2066 -0.0319
 3303SOL     OW21367   0.131   3.126  12.344 -0.3193 -0.7430  0.3057
 3303SOL    HW121368   0.070   3.167  12.405  0.9899  0.4802  0.7724
 3303SOL    HW221369   0.164   3.047  12.387  0.0001 -0.8532 -0.1431
 3304SOL     OW21370   4.366   0.900   8.213 -1.0869  0.4029  0.1947
 3304SOL    HW121371   4.425   0.901   8.289 -1.1011 -1.7994  0.2295
 3304SOL    HW221372   4.392   0.825   8.161 -2.1745  0.2523 -0.1268
 3305SOL     OW21373   1.567   3.997   5.021  0.2197 -0.1096 -0.3655
 3305SOL    HW121374   1.651   3.977   5.061  0.8557  1.6388 -0.8032
 3305SOL    HW221375   1.522   4.071   5.063  0.5177 -0.5100  0.6496
 3306SOL     OW21376   3.096   2.230   1.718  0.1087 -0.1231 -0.1367
 3306SOL    HW121377   3.038   2.159   1.689 -1.1778 -0.1257  2.5088
 3306SOL    HW221378   3.089   2.215   1.812  1.1055  1.0444  0.1186
 3307SOL     OW21379   2.711   2.432  17.508 -0.6112  0.1732 -0.7763
 3307SOL    HW121380   2.736   2.502  17.447  0.3274 -0.7589 -1.4554
 3307SOL    HW221381   2.658   2.375  17.453 -1.2893  0.0708 -0.0117
 3308SOL     OW21382   1.525   4.587   6.954  0.1909  0.0014 -0.4612
 3308SOL    HW121383   1.606   4.537   6.957  0.3003  0.1398 -1.0042
 3308SOL    HW221384   1.540   4.647   6.881 -0.6065 -1.5281 -1.8775
 3309SOL     OW21385   2.786   1.960  10.614  0.2181  0.4752  0.8011
 3309SOL    HW121386   2.867   2.006  10.592  0.6958 -1.7475 -2.0393
 3309SOL    HW221387   2.747   1.943  10.528  0.4177 -0.6625  0.9358
 3310SOL     OW21388   1.702   4.275  10.862  0.2166 -0.6591 -0.1980
 3310SOL    HW121389   1.657   4.195  10.834  0.1270 -0.2880 -1.1273
 3310SOL    HW221390   1.759   4.277  10.785  0.9193  1.7777  0.3748
 3311SOL     OW21391   1.501   0.162  17.177  0.0688 -0.1865 -0.3973
 3311SOL    HW121392   1.582   0.211  17.182 -0.0134 -0.2563  1.6195
 3311SOL    HW221393   1.440   0.228  17.143 -0.3245 -0.0039  0.6538
 3312SOL     OW21394   2.998   3.133  13.158  0.3857 -0.1055 -0.2760
 3312SOL    HW121395   2.922   3.171  13.202 -0.5753 -1.7458 -0.5114
 3312SOL    HW221396   2.992   3.042  13.186 -1.2100 -0.9921 -3.4299
 3313SOL     OW21397   1.962   0.374   6.811 -0.1030  0.4317 -0.1467
 3313SOL    HW121398   1.940   0.443   6.874 -0.5966 -1.0416  1.2876
 3313SOL    HW221399   1.954   0.424   6.729  0.0121 -0.3249 -0.6140
 3314SOL     OW21400   1.011   2.310   1.451 -0.5519  0.1805  0.1128
 3314SOL    HW121401   1.068   2.382   1.421 -2.4812  2.5255  2.0241
 3314SOL    HW221402   0.932   2.359   1.427 -0.1965  0.6668 -0.0893
 3315SOL     OW21403   2.080   1.238  10.279 -0.1250 -0.3379  0.5134
 3315SOL    HW121404   2.077   1.172  10.348 -2.7282  1.2807  1.9213
 3315SOL    HW221405   2.173   1.227  10.258 -0.3391  1.7014 -1.4683
 3316SOL     OW21406   3.584   3.276   7.092 -0.3931 -0.0291 -0.1577
 3316SOL    HW121407   3.634   3.230   7.025  0.7274  1.5115 -0.3878
 3316SOL    HW221408   3.581   3.207   7.158  2.1971 -0.4314 -0.4260
 3317SOL     OW21409   0.558   1.544   0.947  0.5391  0.2517 -0.0961
 3317SOL    HW121410   0.580   1.567   1.038 -1.2525 -1.9443  0.9111
 3317SOL    HW221411   0.579   1.451   0.942 -2.1413 -0.4676  1.8555
 3318SOL     OW21412   4.243   2.228   5.987  0.2278 -0.1632  0.3547
 3318SOL    HW121413   4.215   2.316   5.962  1.0110 -0.5508 -1.8892
 3318SOL    HW221414   4.156   2.189   5.988  0.5944 -0.9702  0.7480
 3319SOL     OW21415   3.327   4.638   2.515  0.2681 -0.1326  0.1745
 3319SOL    HW121416   3.367   4.560   2.477  0.5694 -1.5895  3.5598
 3319SOL    HW221417   3.277   4.606   2.590  1.7496  0.0682  1.2449
 3320SOL     OW21418   3.098   3.216   6.169  0.1113  0.8183  0.9306
 3320SOL    HW121419   3.030   3.183   6.110  1.5620  1.4847 -1.1008
 3320SOL    HW221420   3.096   3.157   6.244 -0.5898 -2.1701 -1.4541
 3321SOL     OW21421   1.179   1.625   4.640  0.4084 -0.4411 -0.2427
 3321SOL    HW121422   1.181   1.665   4.727 -1.7573 -0.2802 -0.2672
 3321SOL    HW221423   1.263   1.662   4.612 -0.2388  1.2747  0.0278
 3322SOL     OW21424   2.912   0.654   7.978  0.0993 -0.6831 -0.5050
 3322SOL    HW121425   2.856   0.723   8.012 -0.1074 -1.1542  0.1072
 3322SOL    HW221426   2.936   0.681   7.889  0.2808 -0.6613 -0.4484
 3323SOL     OW21427   0.976   1.334   3.228  0.2282 -0.0042  0.1517
 3323SOL    HW121428   0.967   1.302   3.138  0.7762 -0.8150  0.3867
 3323SOL    HW221429   0.935   1.264   3.279  2.4995 -1.6491 -0.2735
 3324SOL     OW21430   4.325   1.881   5.523 -0.0851 -0.4060 -0.2107
 3324SOL    HW121431   4.256   1.816   5.535  0.4208 -1.1325 -1.3093
 3324SOL    HW221432   4.275   1.960   5.503  0.2668  0.2873  1.6301
 3325SOL     OW21433   1.997   1.463   2.049 -0.2863  0.8420  1.0386
 3325SOL    HW121434   2.019   1.556   2.035 -1.3096  0.9901  0.4236
 3325SOL    HW221435   2.043   1.426   1.974  0.4683  0.5251  1.6609
 3326SOL     OW21436   3.095   4.517  10.895 -0.2131  0.0393  0.5386
 3326SOL    HW121437   3.015   4.497  10.848  0.5854 -0.0834 -0.7567
 3326SOL    HW221438   3.117   4.433  10.936 -1.2817 -0.1148  0.7872
 3327SOL     OW21439   2.207   0.917   5.599  0.0998  0.5564 -0.3520
 3327SOL    HW121440   2.190   1.003   5.638 -0.6362  0.4288 -0.3890
 3327SOL    HW221441   2.221   0.948   5.509 -2.4387  2.2659 -0.1363
 3328SOL     OW21442   4.329   4.003   5.322  0.6116 -0.0304 -0.2140
 3328SOL    HW121443   4.374   3.988   5.405  2.6582 -0.3048 -1.3638
 3328SOL    HW221444   4.341   3.914   5.289  2.0258 -0.3666  1.2081
 3329SOL     OW21445   1.964   2.071   4.280 -0.8717 -0.2312 -0.1051
 3329SOL    HW121446   2.044   2.020   4.272  0.4652  1.6927  1.0784
 3329SOL    HW221447   1.933   2.044   4.367  0.4180 -1.7162 -0.0960
 3330SOL     OW21448   1.303   3.161   0.864  0.3044  0.6151 -0.6659
 3330SOL    HW121449   1.333   3.104   0.793 -1.1975 -2.4790  1.2007
 3330SOL    HW221450   1.234   3.209   0.818 -1.3065 -2.3147 -1.3526
 3331SOL     OW21451   3.849   3.976   5.977  0.1020 -0.2471 -0.5122
 3331SOL    HW121452   3.864   4.065   5.947  2.3875 -0.7636 -0.8694
 3331SOL    HW221453   3.882   3.923   5.904 -1.7183  0.5790 -1.9426
 3332SOL     OW21454   4.593   0.371   8.017  0.1264 -0.4988  0.2168
 3332SOL    HW121455   4.612   0.389   8.109 -0.7131 -0.5345  0.4029
 3332SOL    HW221456   4.539   0.292   8.024 -1.2574  0.2272 -2.0606
 3333SOL     OW21457   3.177   1.297  10.614 -0.2012 -0.0111 -0.0212
 3333SOL    HW121458   3.168   1.247  10.534 -1.1702  2.6847 -1.5909
 3333SOL    HW221459   3.086   1.309  10.643  0.8452 -2.5260  4.2252
 3334SOL     OW21460   1.879   2.147  14.304  0.2590 -0.3737 -0.2137
 3334SOL    HW121461   1.957   2.191  14.268  0.6846 -0.2505  0.8516
 3334SOL    HW221462   1.817   2.216  14.280 -2.3856 -3.1398 -1.3504
 3335SOL     OW21463   0.263   4.079   0.862  0.7859  0.1815  0.4104
 3335SOL    HW121464   0.345   4.054   0.818  0.5595 -0.2033  0.2110
 3335SOL    HW221465   0.255   4.014   0.933  1.2767  0.7652  1.0068
 3336SOL     OW21466   0.065   0.943   7.358 -0.5149 -0.0818 -0.3240
 3336SOL    HW121467   0.082   1.032   7.328 -1.1078  0.4139  0.8189
 3336SOL    HW221468   0.048   0.959   7.450 -2.8977  1.6934 -1.0829
 3337SOL     OW21469   4.529   4.261   6.841  0.0230 -0.2025 -0.1804
 3337SOL    HW121470   4.489   4.344   6.816 -0.7538 -0.6304 -0.3442
 3337SOL    HW221471   4.484   4.199   6.784  0.1875  0.1740 -0.7179
 3338SOL     OW21472   3.058   4.287  17.323 -0.2293  0.3103 -0.0466
 3338SOL    HW121473   2.977   4.242  17.300  0.2388 -1.5647  1.8937
 3338SOL    HW221474   3.084   4.250  17.408  0.6446 -1.1006 -0.9366
 3339SOL     OW21475   1.318   2.949  16.281  0.5183 -0.1991 -0.2570
 3339SOL    HW121476   1.271   2.991  16.353 -1.4106 -0.5187 -1.3344
 3339SOL    HW221477   1.300   3.007  16.207 -0.3294  1.2362  1.0749
 3340SOL     OW21478   3.228   3.955  15.345 -0.0846  0.6067 -0.1075
 3340SOL    HW121479   3.288   3.913  15.283  1.7869  4.1395 -0.6590
 3340SOL    HW221480   3.208   3.874  15.392 -0.2567  1.0536  0.5854
 3341SOL     OW21481   2.574   3.443   4.766  0.1365 -0.0202  0.2101
 3341SOL    HW121482   2.522   3.487   4.834  1.2640  1.6419  0.0099
 3341SOL    HW221483   2.564   3.350   4.783 -2.8415  0.0603 -1.1517
 3342SOL     OW21484   1.313   2.558  13.415 -0.1386 -0.2294  0.1374
 3342SOL    HW121485   1.326   2.481  13.470  1.9907 -0.5510 -0.8140
 3342SOL    HW221486   1.230   2.522  13.384  0.0893 -0.8237  0.2130
 3343SOL     OW21487   3.307   2.430   1.013  0.5395  0.0019  0.2698
 3343SOL    HW121488   3.221   2.457   1.045 -1.5258 -1.9606 -3.7522
 3343SOL    HW221489   3.368   2.502   1.033  1.3306 -0.5360 -0.2326
 3344SOL     OW21490   1.889   0.204   4.770 -0.5440  0.2458 -0.0265
 3344SOL    HW121491   1.811   0.258   4.762 -0.2320  0.8356  0.9076
 3344SOL    HW221492   1.924   0.231   4.685  0.3268  1.2957  0.6678
 3345SOL     OW21493   2.911   2.120  15.842  0.2203  0.3426  0.2492
 3345SOL    HW121494   2.927   2.128  15.936 -0.8940 -0.3415  0.4958
 3345SOL    HW221495   2.988   2.073  15.810  0.0394 -0.8748  1.6243
 3346SOL     OW21496   2.828   4.517   7.881  0.0032 -0.4405  0.2061
 3346SOL    HW121497   2.762   4.545   7.944  1.4930  0.2832  1.4595
 3346SOL    HW221498   2.904   4.565   7.914  1.0079 -0.7828 -1.5881
 3347SOL     OW21499   3.675   0.340   8.922  0.0300 -0.3672 -0.2554
 3347SOL    HW121500   3.754   0.338   8.868  0.6141 -0.1338  0.5894
 3347SOL    HW221501   3.611   0.375   8.860 -1.1081  0.0366  1.1380
 3348SOL     OW21502   3.064   3.135   7.660 -0.1313 -0.5558 -0.7204
 3348SOL    HW121503   3.032   3.212   7.613  3.8203  1.8123  0.5054
 3348SOL    HW221504   3.151   3.161   7.689 -0.0927  0.2228 -1.5551
 3349SOL     OW21505   2.088   0.405   5.523 -0.0370  0.2467 -0.2113
 3349SOL    HW121506   2.144   0.465   5.574 -0.9566  1.7908 -1.0084
 3349SOL    HW221507   2.152   0.353   5.475  0.4580 -0.0840  0.8165
 3350SOL     OW21508   1.908   4.048  12.231  0.2126  0.2996  0.1829
 3350SOL    HW121509   1.891   4.104  12.156 -0.0719  0.9273  0.7161
 3350SOL    HW221510   1.971   3.987  12.192 -0.9098  0.1518 -1.3981
 3351SOL     OW21511   2.735   3.072   7.415 -0.1984 -0.1829  0.0229
 3351SOL    HW121512   2.736   3.163   7.444  1.0833 -0.2947  0.3065
 3351SOL    HW221513   2.825   3.070   7.381 -0.0854  3.2300  0.0722
 3352SOL     OW21514   3.603   4.000  16.463 -0.3582  0.3602 -0.3503
 3352SOL    HW121515   3.686   3.955  16.480  0.0503  0.4708 -1.9958
 3352SOL    HW221516   3.621   4.086  16.502 -1.7093  2.0726 -3.4645
 3353SOL     OW21517   1.793   1.721   2.034  0.6229  0.0327  0.4237
 3353SOL    HW121518   1.767   1.635   2.064 -0.8717 -0.0918 -1.2297
 3353SOL    HW221519   1.708   1.762   2.019  0.8246 -0.5577 -2.2624
 3354SOL     OW21520   0.193   2.479   8.412  0.0155 -0.1609  0.0942
 3354SOL    HW121521   0.252   2.463   8.338  1.3512 -0.1615  1.1407
 3354SOL    HW221522   0.112   2.431   8.395  0.7347 -2.0846  2.0283
 3355SOL     OW21523   0.952   3.745  15.990  0.3400 -0.1463 -0.2579
 3355SOL    HW121524   0.868   3.724  15.951 -0.7858  0.0360  2.0470
 3355SOL    HW221525   0.951   3.698  16.074  1.2089 -1.3866 -0.9380
 3356SOL     OW21526   3.187   1.614   6.493  0.5071  0.0223 -0.3993
 3356SOL    HW121527   3.110   1.568   6.458 -1.1296  2.9595 -0.6729
 3356SOL    HW221528   3.216   1.544   6.552  0.2052  1.2993  1.2730
 3357SOL     OW21529   2.134   3.014  15.216  0.4661  0.1543 -0.0406
 3357SOL    HW121530   2.121   3.104  15.186 -0.6671 -0.5752 -1.7593
 3357SOL    HW221531   2.228   3.001  15.224  0.4193 -0.4883 -0.4946
 3358SOL     OW21532   2.414   2.707  10.929  0.1032 -0.8042  0.0348
 3358SOL    HW121533   2.367   2.774  10.978  1.0510 -0.3893  0.3789
 3358SOL    HW221534   2.338   2.650  10.915 -0.9411  0.7112 -0.4074
 3359SOL     OW21535   0.722   3.914  16.355 -0.3309  0.0721  0.0052
 3359SOL    HW121536   0.653   3.916  16.288  0.0166  0.6938 -0.3386
 3359SOL    HW221537   0.699   3.833  16.400 -1.5703 -0.2168 -1.1364
 3360SOL     OW21538   3.120   0.958  13.143 -0.1553 -0.3371 -0.1116
 3360SOL    HW121539   3.109   0.882  13.086 -1.0694  0.5343 -1.0944
 3360SOL    HW221540   3.207   0.988  13.120  0.1791  0.9814  2.8679
 3361SOL     OW21541   4.518   0.571   4.759 -0.7144 -0.0324 -0.3161
 3361SOL    HW121542   4.538   0.664   4.768  0.1908 -0.2806  0.2191
 3361SOL    HW221543   4.547   0.543   4.846  0.3896  1.8970 -0.0555
 3362SOL     OW21544   3.990   4.239   6.534  0.0100 -0.3632 -0.1893
 3362SOL    HW121545   3.969   4.277   6.620 -1.0680 -1.3242 -0.0258
 3362SOL    HW221546   4.041   4.312   6.499 -0.8819  0.3645  0.0097
 3363SOL     OW21547   2.425   1.378   8.848  0.2981 -0.3666 -0.6203
 3363SOL    HW121548   2.488   1.374   8.919 -0.9162 -0.3818  0.4648
 3363SOL    HW221549   2.373   1.299   8.863 -1.3799  1.3468  2.8303
 3364SOL     OW21550   0.193   1.077   6.492 -0.0433 -0.6209 -0.5465
 3364SOL    HW121551   0.120   1.119   6.446 -1.3377  1.3368  3.3208
 3364SOL    HW221552   0.212   1.142   6.558 -1.2461 -0.2274 -0.5908
 3365SOL     OW21553   2.043   4.663   4.234 -0.4078  0.7988  0.5682
 3365SOL    HW121554   2.039   4.592   4.171  3.9431  0.4152  0.7204
 3365SOL    HW221555   2.107   0.001   4.199  2.8123 -1.2585  2.8523
 3366SOL     OW21556   0.611   1.358   7.526 -0.3598  0.1869  0.5345
 3366SOL    HW121557   0.601   1.442   7.571 -0.4651 -1.0979  2.9149
 3366SOL    HW221558   0.598   1.382   7.434 -0.1363  0.8900  0.6823
 3367SOL     OW21559   3.945   0.691   6.750  0.4846 -0.1806 -0.8645
 3367SOL    HW121560   4.010   0.650   6.808 -0.5575 -1.9023 -0.9174
 3367SOL    HW221561   3.877   0.625   6.737 -2.4025  3.1982 -2.6643
 3368SOL     OW21562   1.283   0.038   6.545  0.1217  0.5677 -0.1807
 3368SOL    HW121563   1.324   0.045   6.632  0.9076  0.3444 -0.5385
 3368SOL    HW221564   1.316   0.118   6.503  0.5998 -0.7111 -2.2074
 3369SOL     OW21565   2.232   2.414  12.933 -0.4433 -0.2518  0.1312
 3369SOL    HW121566   2.200   2.451  12.850  0.1225  0.2518  0.1380
 3369SOL    HW221567   2.188   2.476  12.991 -0.5368 -1.2671  1.1405
 3370SOL     OW21568   4.008   2.796   0.086 -0.1448 -0.2911 -0.3296
 3370SOL    HW121569   4.072   2.862   0.059  1.1688 -1.5120 -0.2022
 3370SOL    HW221570   3.925   2.844   0.088 -0.2573 -0.4378 -1.5566
 3371SOL     OW21571   2.237   3.603   3.796  0.0440 -0.2025 -0.1569
 3371SOL    HW121572   2.198   3.517   3.782  0.1512  0.1702 -2.8047
 3371SOL    HW221573   2.317   3.600   3.743  0.8718 -0.9977  1.1291
 3372SOL     OW21574   1.082   2.487  11.496 -0.2856  0.7468 -0.5905
 3372SOL    HW121575   1.176   2.480  11.511 -0.5032  0.5729  0.6458
 3372SOL    HW221576   1.083   2.471  11.401  0.5192  0.5710 -0.5482
 3373SOL     OW21577   0.571   1.428   6.689  0.0462 -0.7129 -0.4967
 3373SOL    HW121578   0.551   1.457   6.778 -0.4879  0.4387 -0.9907
 3373SOL    HW221579   0.653   1.381   6.701 -0.0857 -0.7368  0.3506
 3374SOL     OW21580   1.906   4.479   5.472  0.3253 -0.1863 -0.4026
 3374SOL    HW121581   1.858   4.497   5.553  0.4266 -1.1681 -0.1202
 3374SOL    HW221582   1.945   4.395   5.498  0.4421 -0.6780 -2.1792
 3375SOL     OW21583   0.661   2.878  12.535  0.1351  0.8024  0.8653
 3375SOL    HW121584   0.714   2.921  12.467 -2.1033  0.9807 -0.7613
 3375SOL    HW221585   0.691   2.932  12.609  0.5618 -0.6838  1.7784
 3376SOL     OW21586   2.437   1.411   9.255 -0.0042 -0.0197  0.3706
 3376SOL    HW121587   2.391   1.434   9.335  1.4823  3.3821  0.2494
 3376SOL    HW221588   2.376   1.427   9.183  1.9367 -0.7810 -1.4649
 3377SOL     OW21589   4.390   0.503   4.087  0.0833 -0.0668  0.1725
 3377SOL    HW121590   4.370   0.504   4.180 -1.6261 -3.3837 -0.1378
 3377SOL    HW221591   4.481   0.532   4.083 -0.8006  2.7540  0.7820
 3378SOL     OW21592   1.929   2.500  12.953  0.4263 -0.3586  0.0923
 3378SOL    HW121593   1.878   2.550  12.890 -0.0611 -1.8139 -0.6595
 3378SOL    HW221594   1.873   2.475  13.026  1.3803  0.8472  1.2363
 3379SOL     OW21595   2.368   1.620   4.413 -0.0664 -0.5147  0.4874
 3379SOL    HW121596   2.300   1.629   4.347  2.1678 -0.7169 -1.8479
 3379SOL    HW221597   2.437   1.585   4.356  0.6798  0.2962  0.8906
 3380SOL     OW21598   2.776   3.964  10.343 -0.2750  0.4731  0.3777
 3380SOL    HW121599   2.792   4.048  10.301  2.2720 -0.8755 -1.4055
 3380SOL    HW221600   2.868   3.941  10.328 -0.6039 -0.1076 -0.7729
 3381SOL     OW21601   1.353   0.789   8.286  0.0394  0.1788 -0.1266
 3381SOL    HW121602   1.348   0.746   8.201  1.4779  0.4471 -0.3418
 3381SOL    HW221603   1.275   0.844   8.287  0.0184  0.1188  1.4294
 3382SOL     OW21604   3.574   1.681   5.510 -0.3130  0.8169 -0.1761
 3382SOL    HW121605   3.652   1.695   5.564 -0.5565  0.9616  0.1432
 3382SOL    HW221606   3.577   1.736   5.432  1.2065  1.6804  0.4817
 3383SOL     OW21607   1.893   1.967   5.371  0.3744 -0.3500 -0.5558
 3383SOL    HW121608   1.892   1.872   5.358 -0.1559 -0.5788  1.0832
 3383SOL    HW221609   1.805   1.990   5.403  0.3607 -3.9515  2.0589
 3384SOL     OW21610   0.208   3.578  15.576  1.3865 -0.0644  0.0197
 3384SOL    HW121611   0.164   3.661  15.597  0.1706 -0.5586 -0.6027
 3384SOL    HW221612   0.251   3.558  15.659  0.3207 -0.4208  0.4769
 3385SOL     OW21613   0.757   3.325   7.351 -0.4364  0.8459  0.4045
 3385SOL    HW121614   0.722   3.329   7.440 -1.3949 -0.5563  0.0822
 3385SOL    HW221615   0.850   3.334   7.370 -0.2161  1.0368 -0.7933
 3386SOL     OW21616   1.860   0.265  17.559 -0.4845 -0.3049  0.4600
 3386SOL    HW121617   1.801   0.209  17.610  0.2317  0.1305  1.7541
 3386SOL    HW221618   1.867   0.214  17.478  1.3508  0.6466  0.0340
 3387SOL     OW21619   4.337   0.922   2.573 -0.5229 -0.3545 -0.0945
 3387SOL    HW121620   4.407   0.979   2.606 -0.8249  0.6754 -1.2358
 3387SOL    HW221621   4.279   0.912   2.648  0.1274  2.1143  0.7384
 3388SOL     OW21622   2.883   0.538   4.804  0.0863 -0.2510  0.5379
 3388SOL    HW121623   2.885   0.634   4.805 -0.0349 -0.2564  1.3179
 3388SOL    HW221624   2.955   0.512   4.747  0.7185  1.0314  0.7581
 3389SOL     OW21625   0.012   3.057   5.960 -0.1552  0.2958  0.1299
 3389SOL    HW121626   0.055   2.975   5.984 -0.3997  0.8001  2.3866
 3389SOL    HW221627   0.021   3.103   6.044 -0.8355 -0.5491  0.6613
 3390SOL     OW21628   1.347   2.621   6.218  0.1781  0.1521 -0.2737
 3390SOL    HW121629   1.341   2.677   6.141  2.0728  0.1451 -0.4244
 3390SOL    HW221630   1.276   2.657   6.271  1.1359  1.5870  0.0338
 3391SOL     OW21631   4.482   3.082  17.583 -0.0710  0.1112  0.5948
 3391SOL    HW121632   4.410   3.043  17.533 -0.4517  0.7443  0.6532
 3391SOL    HW221633   4.444   3.170  17.587  3.4912  1.6624 -0.1470
 3392SOL     OW21634   4.413   3.301   8.373 -0.1556 -0.3498 -0.4421
 3392SOL    HW121635   4.321   3.312   8.349 -1.0854 -1.1895  2.7015
 3392SOL    HW221636   4.407   3.240   8.446 -1.9574  0.7430  0.3220
 3393SOL     OW21637   3.968   3.665   5.977 -0.1756  0.7088  0.2068
 3393SOL    HW121638   3.909   3.688   6.049  0.3905 -0.0361  0.9071
 3393SOL    HW221639   3.957   3.571   5.986  1.4055  0.6468  1.5214
 3394SOL     OW21640   0.443   0.862  14.417  0.2491 -0.4665  0.3499
 3394SOL    HW121641   0.361   0.855  14.368  0.9033 -1.6649 -0.5789
 3394SOL    HW221642   0.472   0.949  14.387 -1.5564 -0.8327 -2.5078
 3395SOL     OW21643   4.452   1.460   2.359 -0.3031  0.1997 -0.0734
 3395SOL    HW121644   4.447   1.539   2.412  1.4314 -0.0323  0.4392
 3395SOL    HW221645   4.517   1.486   2.294  1.6052  0.7760  2.0509
 3396SOL     OW21646   3.545   3.438   5.596 -0.3938  0.2898  0.1068
 3396SOL    HW121647   3.635   3.470   5.594 -0.6797  1.1465  1.2696
 3396SOL    HW221648   3.523   3.449   5.688 -1.4696 -0.5458 -0.0450
 3397SOL     OW21649   0.962   2.758   7.573  0.7631  0.0619  0.3699
 3397SOL    HW121650   0.986   2.681   7.625  1.0261 -0.1282 -0.0367
 3397SOL    HW221651   0.892   2.800   7.624  0.0291 -1.2326  0.4216
 3398SOL     OW21652   2.978   2.607   8.570  0.0105  0.4041 -0.0875
 3398SOL    HW121653   3.071   2.591   8.555 -0.0142 -0.6036  0.8618
 3398SOL    HW221654   2.951   2.536   8.628 -0.2286  0.9912  0.5225
 3399SOL     OW21655   3.897   0.407   2.166 -0.4882 -0.0308  0.0203
 3399SOL    HW121656   3.949   0.340   2.121 -2.5517 -1.8317  0.2845
 3399SOL    HW221657   3.815   0.362   2.186  0.1597 -0.9488  0.6164
 3400SOL     OW21658   1.178   4.349   9.929 -0.0026 -0.0034 -0.2970
 3400SOL    HW121659   1.153   4.277   9.870 -1.2392  0.7483 -0.6842
 3400SOL    HW221660   1.187   4.427   9.874  1.5178  0.4739  0.6442
 3401SOL     OW21661   4.489   2.163   5.310 -0.0593 -0.4722  0.0706
 3401SOL    HW121662   4.427   2.169   5.384  0.1522  0.4539  0.1722
 3401SOL    HW221663   4.455   2.104   5.243  0.8933  0.3691 -1.1412
 3402SOL     OW21664   3.869   0.848   4.108 -0.1304  0.7951 -0.1077
 3402SOL    HW121665   3.903   0.781   4.167  1.3028  1.5727 -0.0537
 3402SOL    HW221666   3.775   0.846   4.124 -0.1420 -0.9858 -0.3795
 3403SOL     OW21667   2.615   0.415  11.188  0.4184  0.1074 -0.0171
 3403SOL    HW121668   2.581   0.504  11.202  0.7133 -0.0601  1.7888
 3403SOL    HW221669   2.708   0.436  11.190  0.7924 -1.6970  1.4890
 3404SOL     OW21670   3.722   4.066   0.728 -0.3367  0.0667  0.2148
 3404SOL    HW121671   3.767   4.149   0.744 -2.1907  1.3428 -1.2121
 3404SOL    HW221672   3.631   4.093   0.741 -0.4510 -0.1338 -0.1630
 3405SOL     OW21673   3.134   2.309   4.406 -0.3958  0.0902  0.2653
 3405SOL    HW121674   3.120   2.270   4.319  0.9554 -0.0831  0.1275
 3405SOL    HW221675   3.183   2.391   4.394  1.3164 -0.9798 -0.0699
 3406SOL     OW21676   2.786   4.677   3.200 -0.5786  0.2088  0.8973
 3406SOL    HW121677   2.822   4.693   3.287 -0.1701  1.1893  0.5466
 3406SOL    HW221678   2.795   0.035   3.149  2.9424 -0.3669  0.6237
 3407SOL     OW21679   1.578   2.825   4.698 -0.3389 -0.5917 -0.0059
 3407SOL    HW121680   1.567   2.734   4.724 -2.9871  0.0499  1.2208
 3407SOL    HW221681   1.666   2.841   4.732  0.0804 -0.0646 -1.3343
 3408SOL     OW21682   3.292   3.333   3.625 -0.3936 -0.1612 -0.0691
 3408SOL    HW121683   3.314   3.301   3.538  0.5309 -0.4582  0.2717
 3408SOL    HW221684   3.240   3.411   3.609 -0.0235 -0.2673 -1.7328
 3409SOL     OW21685   3.836   3.880  16.587  0.5066  0.0988 -0.0032
 3409SOL    HW121686   3.763   3.852  16.643  0.4704  0.2601  0.0313
 3409SOL    HW221687   3.884   3.797  16.579 -0.4090 -0.3060 -1.3719
 3410SOL     OW21688   2.612   2.617   8.330  0.0646 -0.6784 -0.0932
 3410SOL    HW121689   2.574   2.579   8.409 -0.3705  1.0643  0.5406
 3410SOL    HW221690   2.584   2.559   8.259  1.5364 -1.3392 -0.1305
 3411SOL     OW21691   2.125   1.188   5.143  0.3311 -0.2965 -0.1137
 3411SOL    HW121692   2.168   1.233   5.215  0.7715 -1.5428  0.3923
 3411SOL    HW221693   2.099   1.266   5.094 -2.7823 -0.1408  1.7943
 3412SOL     OW21694   3.259   1.022   5.049 -0.2156  0.5779 -0.3149
 3412SOL    HW121695   3.235   0.947   4.994 -2.0656 -0.7536  2.3191
 3412SOL    HW221696   3.296   0.977   5.124 -0.8051  0.1836 -0.2584
 3413SOL     OW21697   0.566   4.546   5.315 -0.4375 -1.1354 -0.8456
 3413SOL    HW121698   0.618   4.578   5.242  1.7879 -0.7281  0.9412
 3413SOL    HW221699   0.519   4.625   5.339  0.7712 -0.3348 -1.1417
 3414SOL     OW21700   4.649   4.655   5.257  0.2250  0.3168 -0.4608
 3414SOL    HW121701   4.572   4.649   5.314  0.3537  1.2894 -0.1800
 3414SOL    HW221702   4.613   4.628   5.173 -0.2166  1.2017 -0.5526
 3415SOL     OW21703   1.839   1.059   4.896  0.2729 -0.2909  0.2779
 3415SOL    HW121704   1.853   1.004   4.973  2.9172 -2.9605 -2.1254
 3415SOL    HW221705   1.928   1.063   4.862  0.4063  0.9419  0.7787
 3416SOL     OW21706   0.694   3.986   9.927 -0.2363 -0.3213 -0.6929
 3416SOL    HW121707   0.738   3.930   9.990  1.0932  1.1647 -0.3157
 3416SOL    HW221708   0.766   4.046   9.913 -0.7494  0.7954  1.5185
 3417SOL     OW21709   4.639   2.753   5.096  0.0960  0.3142  0.0250
 3417SOL    HW121710   4.593   2.676   5.064 -1.4603  0.3406  2.1628
 3417SOL    HW221711   0.007   2.724   5.092 -0.5385 -1.4485 -1.4890
 3418SOL     OW21712   4.367   1.903   5.184  0.8451 -0.3930 -0.4012
 3418SOL    HW121713   4.289   1.957   5.179 -0.6143 -2.2315  1.9584
 3418SOL    HW221714   4.330   1.814   5.182 -0.3091  0.1089 -1.1201
 3419SOL     OW21715   4.413   4.578   5.345 -0.4123 -0.0596 -0.6662
 3419SOL    HW121716   4.339   4.530   5.307 -1.6901  2.0170 -0.7746
 3419SOL    HW221717   4.390   4.586   5.438  3.4215 -0.9906  0.3347
 3420SOL     OW21718   0.002   1.388   4.614 -0.3951  0.0664 -0.1711
 3420SOL    HW121719   0.094   1.413   4.605 -0.5930 -0.4699 -3.5218
 3420SOL    HW221720   0.000   1.335   4.534 -0.7009 -0.3662  0.1255
 3421SOL     OW21721   2.999   0.148   4.024  0.2394 -0.0509 -0.7689
 3421SOL    HW121722   3.085   0.188   4.041  0.4962 -0.4684 -1.0775
 3421SOL    HW221723   3.021   0.073   3.969  0.3352 -1.8849  1.7793
 3422SOL     OW21724   3.774   4.602   3.545 -0.5340  0.0397  0.2930
 3422SOL    HW121725   3.798   4.685   3.585 -0.2479 -1.2513  2.7797
 3422SOL    HW221726   3.809   4.539   3.608 -0.4915  0.6140  0.8339
 3423SOL     OW21727   3.878   4.694   8.408 -0.0824  0.4870 -0.5803
 3423SOL    HW121728   3.963   4.651   8.397 -1.3535 -2.7702  2.4941
 3423SOL    HW221729   3.820   4.621   8.386  2.7824 -1.2594 -2.4085
 3424SOL     OW21730   2.540   2.320   5.067  0.1804  0.0022 -0.3688
 3424SOL    HW121731   2.575   2.272   4.992 -0.4386  0.0688 -0.7063
 3424SOL    HW221732   2.569   2.271   5.143 -0.6407 -0.1791 -0.1657
 3425SOL     OW21733   4.124   2.242   8.812  0.5820  0.2118 -0.3926
 3425SOL    HW121734   4.116   2.189   8.891 -0.6402 -1.2319 -1.4904
 3425SOL    HW221735   4.220   2.245   8.805  0.6147  0.4180  0.1181
 3426SOL     OW21736   0.021   0.478   6.431 -0.1452  0.2830  0.1613
 3426SOL    HW121737   0.003   0.572   6.433 -0.2545  0.2651 -0.0619
 3426SOL    HW221738   0.069   0.461   6.350  1.2152  2.4881  0.4839
 3427SOL     OW21739   2.551   1.003   5.802 -0.1970 -0.1139  0.3134
 3427SOL    HW121740   2.467   1.024   5.842  0.5546  1.6104  0.9430
 3427SOL    HW221741   2.561   0.910   5.825  1.5315  0.0216  0.1280
 3428SOL     OW21742   0.687   3.606   9.525  0.3955  0.6189 -0.5021
 3428SOL    HW121743   0.752   3.677   9.532  0.5545  0.5638 -1.4537
 3428SOL    HW221744   0.602   3.645   9.505 -0.2686 -0.8518 -0.4969
 3429SOL     OW21745   1.943   0.909   4.486 -0.0222 -0.0685 -0.2653
 3429SOL    HW121746   1.859   0.927   4.528  1.2207  1.4812  1.5424
 3429SOL    HW221747   1.942   0.813   4.484  0.1147 -0.1153  1.3024
 3430SOL     OW21748   0.260   0.259   0.132  0.2059 -0.3371 -0.0150
 3430SOL    HW121749   0.313   0.237   0.056  0.0737  0.1601 -0.2562
 3430SOL    HW221750   0.323   0.309   0.184  1.3320  0.3844 -2.0972
 3431SOL     OW21751   2.916   2.166   8.467  0.0461 -1.0073  0.0793
 3431SOL    HW121752   3.004   2.156   8.503  0.6515 -0.1875 -1.1466
 3431SOL    HW221753   2.860   2.134   8.536  0.6905  0.3810  1.2499
 3432SOL     OW21754   2.049   1.868  11.196 -0.0838 -0.4606  0.4185
 3432SOL    HW121755   2.144   1.880  11.201 -0.0911  0.5159 -1.5279
 3432SOL    HW221756   2.033   1.811  11.121  0.7842  0.7475 -0.7013
 3433SOL     OW21757   2.995   3.703   2.039  0.4158 -0.6113  0.6409
 3433SOL    HW121758   3.065   3.709   1.974  0.0915  2.0060  0.5196
 3433SOL    HW221759   2.953   3.780   1.998 -0.7178 -1.1910  0.7092
 3434SOL     OW21760   3.090   3.230  10.199 -0.0914 -0.2895 -0.7258
 3434SOL    HW121761   3.165   3.211  10.254 -0.6559 -0.9001 -0.1756
 3434SOL    HW221762   3.129   3.313  10.172 -0.6038  0.1252 -0.2007
 3435SOL     OW21763   2.553   1.332   8.189  0.8216 -1.0025  0.5362
 3435SOL    HW121764   2.596   1.416   8.205 -0.1156 -0.3819 -0.2506
 3435SOL    HW221765   2.530   1.300   8.276  1.7986 -0.4490  0.9992
 3436SOL     OW21766   4.617   4.631  16.939 -0.1690  0.5835  0.2743
 3436SOL    HW121767   4.706   4.598  16.922 -0.3598 -0.0465  0.4872
 3436SOL    HW221768   4.616   4.697  16.870  0.4617  0.7666  0.4438
 3437SOL     OW21769   1.334   2.780  11.441 -0.7075 -0.0184  0.1378
 3437SOL    HW121770   1.360   2.870  11.461  0.1212 -0.1867 -0.1776
 3437SOL    HW221771   1.251   2.780  11.488 -1.9273  0.1452 -2.0305
 3438SOL     OW21772   4.010   0.993   5.601  0.2271 -0.9804 -0.4671
 3438SOL    HW121773   4.001   0.940   5.679 -3.1526 -1.5401 -1.2586
 3438SOL    HW221774   3.944   0.964   5.538 -1.1694 -0.4218  0.7424
 3439SOL     OW21775   1.680   1.268  11.782 -0.5463 -0.2588 -0.1573
 3439SOL    HW121776   1.627   1.209  11.835  0.7345 -0.2366  1.1360
 3439SOL    HW221777   1.759   1.279  11.835 -0.0964 -2.5160 -0.3271
 3440SOL     OW21778   0.389   1.184   8.234 -0.2142  0.4234  0.4753
 3440SOL    HW121779   0.478   1.175   8.269  0.7912 -1.1743 -2.4346
 3440SOL    HW221780   0.330   1.142   8.295 -0.1737  0.7453  0.7367
 3441SOL     OW21781   1.690   1.375   9.614 -0.5512  0.3265 -0.5596
 3441SOL    HW121782   1.715   1.467   9.606  0.0039  0.5175  3.3748
 3441SOL    HW221783   1.720   1.350   9.701 -1.3435  1.2974 -0.0007
 3442SOL     OW21784   2.770   4.407   6.302  0.9083 -0.4946  0.9376
 3442SOL    HW121785   2.848   4.421   6.248  1.0284 -3.0433  0.4295
 3442SOL    HW221786   2.807   4.384   6.387  1.0170 -1.6113  0.5997
 3443SOL     OW21787   2.260   2.301   4.933 -0.1703 -0.0908 -0.0495
 3443SOL    HW121788   2.316   2.304   5.011  2.3413 -1.9559 -1.7628
 3443SOL    HW221789   2.321   2.314   4.860 -1.8355  3.0715 -0.8615
 3444SOL     OW21790   4.208   2.128   5.453 -0.1318  0.2726  0.5555
 3444SOL    HW121791   4.188   2.128   5.360  1.5914 -1.9800  0.1797
 3444SOL    HW221792   4.174   2.213   5.481 -0.4155  0.5533 -0.6492
 3445SOL     OW21793   2.955   3.049   4.536  0.2765 -0.2331  0.1585
 3445SOL    HW121794   2.967   3.021   4.627 -0.1913 -0.4563  0.1497
 3445SOL    HW221795   2.869   3.013   4.515 -0.0414  2.2326 -2.8238
 3446SOL     OW21796   0.086   2.971  15.790  0.2032 -0.1640  0.1791
 3446SOL    HW121797   0.165   2.926  15.819 -1.2593 -2.2758  0.9019
 3446SOL    HW221798   0.023   2.909  15.825 -1.1427 -1.0507 -3.8038
 3447SOL     OW21799   2.645   2.040  10.814  0.1284 -0.0352  0.0130
 3447SOL    HW121800   2.684   1.984  10.746  1.1175 -1.7388  1.9875
 3447SOL    HW221801   2.588   2.096  10.761 -0.6144 -1.0800 -0.2899
 3448SOL     OW21802   2.528   2.491   3.918 -0.0746  0.2060 -0.3230
 3448SOL    HW121803   2.581   2.411   3.919 -0.8044 -0.2607  1.7127
 3448SOL    HW221804   2.438   2.459   3.915  0.4243 -1.2231 -0.0572
 3449SOL     OW21805   2.136   2.943   7.852  0.0265 -0.0802  0.0823
 3449SOL    HW121806   2.158   2.851   7.862  1.2268  0.0845 -1.0224
 3449SOL    HW221807   2.106   2.953   7.762  1.0984  0.4001 -0.2223
 3450SOL     OW21808   1.159   0.666  15.426  0.0654 -0.9290 -0.0912
 3450SOL    HW121809   1.102   0.707  15.361 -0.3724 -1.4226 -0.0135
 3450SOL    HW221810   1.214   0.610  15.371  1.5211  1.6676 -1.3137
 3451SOL     OW21811   0.792   1.317   2.056  0.0875  0.3066  0.0351
 3451SOL    HW121812   0.856   1.260   2.013  0.4201  0.7292 -0.0318
 3451SOL    HW221813   0.752   1.344   1.973 -0.8327 -1.0795  0.0297
 3452SOL     OW21814   2.143   3.093   6.933  0.5101  0.0439 -0.0249
 3452SOL    HW121815   2.159   3.136   6.848 -1.8076 -1.4912 -1.2288
 3452SOL    HW221816   2.126   3.168   6.990 -0.4140 -1.3049  1.4565
 3453SOL     OW21817   4.362   1.835  16.352  0.4255 -0.6686 -0.2197
 3453SOL    HW121818   4.436   1.829  16.292 -0.6095  0.5560 -1.6340
 3453SOL    HW221819   4.298   1.830  16.281 -0.4979 -0.2984  0.5846
 3454SOL     OW21820   2.047   1.817   6.150  0.4789  0.4009  0.4812
 3454SOL    HW121821   2.083   1.734   6.181 -0.5149 -0.2305 -0.0591
 3454SOL    HW221822   1.956   1.790   6.151  0.6724 -0.2646  0.1182
 3455SOL     OW21823   1.419   4.126   1.824  0.3741 -0.0319 -0.0513
 3455SOL    HW121824   1.410   4.221   1.828 -0.3448 -0.0707 -0.7760
 3455SOL    HW221825   1.383   4.098   1.908 -1.7896  0.9749 -0.6587
 3456SOL     OW21826   1.337   4.039   3.651  0.2025 -0.5936  0.1343
 3456SOL    HW121827   1.321   4.046   3.557 -1.9592 -0.4262  0.5097
 3456SOL    HW221828   1.246   4.056   3.675  0.4031  1.4015 -0.5740
 3457SOL     OW21829   1.322   1.660   0.009  0.1099  0.4463  0.1672
 3457SOL    HW121830   1.367   1.718   0.071  0.1416  0.6963 -0.0923
 3457SOL    HW221831   1.231   1.663   0.039  0.0806  0.4287  0.0794
 3458SOL     OW21832   2.007   3.782  10.711  0.2151 -0.5705 -0.6690
 3458SOL    HW121833   1.961   3.825  10.638  0.7446 -0.4732 -0.9487
 3458SOL    HW221834   1.967   3.817  10.790 -2.4269  0.8090 -2.5902
 3459SOL     OW21835   4.575   0.821   0.198  0.1117  0.6310 -0.4777
 3459SOL    HW121836   4.558   0.883   0.269 -1.7019 -0.5505  0.1380
 3459SOL    HW221837   4.669   0.806   0.196  0.0882  0.2570  0.9535
 3460SOL     OW21838   4.601   4.636   6.076 -0.6440 -0.6586  0.4235
 3460SOL    HW121839   4.675   4.657   6.134 -0.0794  0.6503 -0.7698
 3460SOL    HW221840   4.552   4.715   6.100 -0.6485 -0.0004 -1.7914
 3461SOL     OW21841   4.134   3.085   3.420 -0.4773 -0.1116  0.7224
 3461SOL    HW121842   4.095   3.068   3.334 -0.7312  0.8030  0.6540
 3461SOL    HW221843   4.222   3.048   3.409 -0.0889  1.0795 -0.1017
 3462SOL     OW21844   0.093   0.060   4.586  0.9286 -0.1364  0.2688
 3462SOL    HW121845   0.036   0.049   4.662 -0.1237  1.6580 -0.2636
 3462SOL    HW221846   0.045   0.115   4.524  1.6779 -0.0610 -0.2399
 3463SOL     OW21847   1.680   0.419   5.679  0.1268 -0.8974  0.2903
 3463SOL    HW121848   1.745   0.367   5.726  0.7323  1.3349  1.9594
 3463SOL    HW221849   1.695   0.388   5.590  2.8862  1.9192 -0.2078
 3464SOL     OW21850   0.704   3.199   2.504 -0.1832 -0.0829  0.1057
 3464SOL    HW121851   0.714   3.268   2.437 -0.7503 -0.0489  0.0575
 3464SOL    HW221852   0.744   3.122   2.465  0.8382  0.9947 -0.9823
 3465SOL     OW21853   3.543   4.710  16.075  0.6897  0.1914 -0.4164
 3465SOL    HW121854   3.508   4.633  16.031 -0.8948 -1.0512  3.0434
 3465SOL    HW221855   3.518   0.054  16.012 -0.8740 -2.3644 -2.5217
 3466SOL     OW21856   2.007   1.007  13.637 -0.3196  0.4568 -0.2617
 3466SOL    HW121857   2.069   1.029  13.706 -1.8161 -0.4606  1.4027
 3466SOL    HW221858   2.065   0.967  13.572  0.5027  1.1133  0.0868
 3467SOL     OW21859   1.340   1.044   6.891 -0.9135  0.0566 -0.7177
 3467SOL    HW121860   1.298   0.958   6.888  2.4451 -1.7016  2.8141
 3467SOL    HW221861   1.372   1.063   6.979 -0.8707 -0.3181 -0.6533
 3468SOL     OW21862   3.685   1.754   6.147  0.1359  0.3953 -0.4843
 3468SOL    HW121863   3.718   1.813   6.215 -0.0329  1.4014 -1.2622
 3468SOL    HW221864   3.634   1.692   6.198  0.6268  0.7747  0.4665
 3469SOL     OW21865   2.706   0.015   6.429 -0.0391  0.3476 -0.2100
 3469SOL    HW121866   2.753   0.001   6.347 -1.3797 -2.2936 -0.5055
 3469SOL    HW221867   2.779   0.024   6.491  1.2269 -0.8185 -1.5289
 3470SOL     OW21868   3.010   2.558   5.326  0.2530  0.1365 -0.3420
 3470SOL    HW121869   3.038   2.508   5.250 -1.1143 -0.9095 -0.1649
 3470SOL    HW221870   2.952   2.623   5.286 -1.6994 -1.7845 -0.6039
 3471SOL     OW21871   3.653   3.603   8.318 -0.2223  0.1539 -0.7992
 3471SOL    HW121872   3.595   3.527   8.321  1.5319 -1.1213  0.7616
 3471SOL    HW221873   3.639   3.619   8.224  1.2015  2.9941 -0.5126
 3472SOL     OW21874   2.943   3.965   3.949  0.2418  0.4492  0.1312
 3472SOL    HW121875   2.985   3.885   3.918 -1.8218 -0.2524 -0.8460
 3472SOL    HW221876   2.858   3.955   3.904  0.1016 -0.9773  0.7069
 3473SOL     OW21877   3.024   0.464   4.463  0.1490 -0.4295 -0.0391
 3473SOL    HW121878   3.099   0.450   4.405 -0.6266  2.0568 -1.6113
 3473SOL    HW221879   2.952   0.473   4.400  0.8002  0.7629 -0.6110
 3474SOL     OW21880   2.048   1.752   7.958 -0.1018  0.4311 -0.2084
 3474SOL    HW121881   2.032   1.802   7.878  0.0820 -0.2938 -0.6924
 3474SOL    HW221882   2.126   1.796   7.992 -0.4291  0.3931  0.5902
 3475SOL     OW21883   3.887   2.844  10.727 -0.1916 -0.3338 -0.2109
 3475SOL    HW121884   3.872   2.753  10.755 -2.2877  0.3765  0.9849
 3475SOL    HW221885   3.877   2.875  10.817 -2.1688 -2.5174  0.3461
 3476SOL     OW21886   3.799   2.872   5.721  0.0161  0.4686 -0.2830
 3476SOL    HW121887   3.781   2.953   5.768  0.9512  0.1980  0.5433
 3476SOL    HW221888   3.892   2.876   5.698 -0.3084  2.4134 -1.2345
 3477SOL     OW21889   2.266   2.935  12.410  0.4624 -0.1502  0.7894
 3477SOL    HW121890   2.214   2.864  12.373  1.9374 -1.4707  1.2759
 3477SOL    HW221891   2.286   2.990  12.334  0.7325  0.7278  1.4991
 3478SOL     OW21892   1.276   0.727  13.234 -0.3882 -0.2595  0.0386
 3478SOL    HW121893   1.219   0.740  13.310 -0.2150 -1.8338  0.4443
 3478SOL    HW221894   1.358   0.716  13.282 -0.0130 -0.4780 -0.6476
 3479SOL     OW21895   0.792   1.441   6.311  0.4741 -0.6700 -0.1446
 3479SOL    HW121896   0.827   1.354   6.297  1.9686 -0.0789 -0.1064
 3479SOL    HW221897   0.789   1.476   6.222  1.1008 -1.9115 -0.6523
 3480SOL     OW21898   4.562   0.101   6.946 -0.4198 -0.2737  0.2715
 3480SOL    HW121899   4.539   0.121   7.037 -1.0737  1.2825 -0.2456
 3480SOL    HW221900   4.537   0.009   6.937 -0.4713 -0.2174 -0.1426
 3481SOL     OW21901   0.651   2.296   8.997  0.0347 -0.3644  0.6812
 3481SOL    HW121902   0.727   2.352   8.984 -2.2026  2.1729 -1.6052
 3481SOL    HW221903   0.626   2.278   8.906 -0.2521  1.9047  0.3226
 3482SOL     OW21904   2.155   1.200   7.321 -0.0330 -0.1665 -1.1030
 3482SOL    HW121905   2.237   1.178   7.276  0.6495  0.2012 -0.0372
 3482SOL    HW221906   2.087   1.182   7.255 -0.5433  3.2817 -1.5107
 3483SOL     OW21907   4.394   1.883   7.835 -0.3017  0.0972 -0.0350
 3483SOL    HW121908   4.404   1.814   7.901 -2.0746 -1.1023 -1.0078
 3483SOL    HW221909   4.372   1.960   7.888  1.9059  1.8267 -1.6559
 3484SOL     OW21910   0.898   3.635   4.733 -0.4311  0.3000  0.6627
 3484SOL    HW121911   0.921   3.704   4.671 -0.0826 -0.3616  0.0688
 3484SOL    HW221912   0.943   3.557   4.701 -0.0079 -0.2534  2.5511
 3485SOL     OW21913   4.302   2.955   8.804  0.4794 -0.2609 -0.0570
 3485SOL    HW121914   4.396   2.937   8.814  0.5606  0.8842  1.2200
 3485SOL    HW221915   4.269   2.871   8.773  0.5592  0.2228 -1.4702
 3486SOL     OW21916   4.244   0.491   4.805  0.0423 -0.8078  0.5190
 3486SOL    HW121917   4.207   0.545   4.736  1.7113 -0.7712 -0.3507
 3486SOL    HW221918   4.333   0.528   4.806 -0.6702  0.9381 -0.3620
 3487SOL     OW21919   4.104   1.903   7.756 -0.1562  0.3016  0.0417
 3487SOL    HW121920   4.197   1.881   7.753 -0.4172 -0.6053 -1.7444
 3487SOL    HW221921   4.075   1.870   7.840 -1.2217 -0.7858 -0.7580
 3488SOL     OW21922   4.703   2.738   6.812 -0.6513  0.1126 -0.3793
 3488SOL    HW121923   0.046   2.796   6.849  0.3152 -1.5074  0.4196
 3488SOL    HW221924   0.022   2.652   6.811  1.7764  1.3248 -1.8266
 3489SOL     OW21925   3.872   2.719   2.077 -0.0344  0.0267 -0.1827
 3489SOL    HW121926   3.891   2.661   2.003  2.0316 -0.4516  0.7250
 3489SOL    HW221927   3.821   2.655   2.127  2.4750 -1.6754  0.1663
 3490SOL     OW21928   2.000   4.325   2.856 -0.2932 -0.5467 -0.1001
 3490SOL    HW121929   1.983   4.232   2.870  1.8480 -0.6128  2.0470
 3490SOL    HW221930   1.954   4.334   2.772 -0.3596 -2.4060 -0.2511
 3491SOL     OW21931   3.689   0.945   3.721  0.3820 -0.2916  0.1034
 3491SOL    HW121932   3.634   0.885   3.771  0.8455 -0.0147  0.9522
 3491SOL    HW221933   3.636   0.964   3.644  0.8371  1.2806  0.1843
 3492SOL     OW21934   2.654   0.285   3.779 -0.1300  0.2317 -0.0485
 3492SOL    HW121935   2.621   0.202   3.814  0.8401 -0.2410 -0.2580
 3492SOL    HW221936   2.580   0.339   3.805  0.1856  0.6226  0.0316
 3493SOL     OW21937   3.238   3.176   3.868  0.3383  0.2093 -0.2896
 3493SOL    HW121938   3.144   3.190   3.856  0.1764 -2.1286 -1.7309
 3493SOL    HW221939   3.262   3.240   3.801  0.6088  0.2358 -0.1667
 3494SOL     OW21940   2.686   2.980   1.417 -0.0644 -0.3681 -0.2762
 3494SOL    HW121941   2.687   2.926   1.338  1.0780  0.0558 -0.5467
 3494SOL    HW221942   2.694   2.913   1.485  1.5400  0.2122  0.0901
 3495SOL     OW21943   3.721   0.800   1.045  0.2255 -0.5601  0.3847
 3495SOL    HW121944   3.773   0.723   1.025  0.4078 -0.0407 -1.1720
 3495SOL    HW221945   3.675   0.753   1.114  2.5349 -0.6825  1.8094
 3496SOL     OW21946   3.340   3.014   0.336  0.1936  0.3483  0.1544
 3496SOL    HW121947   3.369   3.096   0.376  2.1222 -0.2522 -0.0315
 3496SOL    HW221948   3.419   2.961   0.335  1.0128  1.5478  0.8397
 3497SOL     OW21949   3.057   2.162  14.362  0.0739 -0.5068  0.0385
 3497SOL    HW121950   2.996   2.096  14.328 -0.3041 -0.2358  0.1900
 3497SOL    HW221951   3.060   2.151  14.457  0.2778 -1.6813 -0.1125
 3498SOL     OW21952   4.505   4.531  12.094 -0.0707  0.1680  0.5457
 3498SOL    HW121953   4.581   4.474  12.082 -1.0443 -0.7277 -1.2619
 3498SOL    HW221954   4.538   4.620  12.081 -0.2730  0.4303  1.8799
 3499SOL     OW21955   2.846   2.191   6.082 -0.2393 -0.4027  0.0988
 3499SOL    HW121956   2.863   2.276   6.043  2.9967 -2.1236 -2.2775
 3499SOL    HW221957   2.774   2.159   6.028 -0.0536  0.1006 -0.4397
 3500SOL     OW21958   0.300   3.601  12.615 -0.1831  0.3897  0.0483
 3500SOL    HW121959   0.297   3.641  12.702  1.7293  0.2197  0.1863
 3500SOL    HW221960   0.374   3.650  12.578  0.5670 -1.5944 -1.0572
 3501SOL     OW21961   0.698   3.332   8.443 -0.2775 -0.4336 -0.1315
 3501SOL    HW121962   0.687   3.412   8.493  1.2348  0.7814 -1.7275
 3501SOL    HW221963   0.761   3.285   8.497  0.5403  0.2642 -0.4828
 3502SOL     OW21964   1.609   3.814   4.828  0.0084  0.0815 -0.2323
 3502SOL    HW121965   1.578   3.881   4.888 -1.9994 -1.2254  0.1777
 3502SOL    HW221966   1.636   3.750   4.895  1.6495  0.9318 -0.0813
 3503SOL     OW21967   1.115   0.230  11.683  0.0494  0.0202  0.0341
 3503SOL    HW121968   1.089   0.318  11.656 -1.6441 -0.6691 -0.6162
 3503SOL    HW221969   1.171   0.214  11.607 -2.0708  2.4335 -2.0331
 3504SOL     OW21970   0.321   1.186   5.562 -0.3260  0.1092  0.4981
 3504SOL    HW121971   0.394   1.241   5.589  1.4373 -1.0054 -1.9826
 3504SOL    HW221972   0.241   1.233   5.586 -0.2133  0.0774  0.9352
 3505SOL     OW21973   0.624   2.575   7.902  0.2075  0.2154  0.0978
 3505SOL    HW121974   0.540   2.620   7.908  0.3945  0.4175  1.0861
 3505SOL    HW221975   0.643   2.559   7.994 -0.5786  0.5862  0.3173
 3506SOL     OW21976   4.606   2.493   6.485 -0.2085 -0.3002 -0.9540
 3506SOL    HW121977   4.530   2.514   6.539 -0.4248 -0.4545 -1.2034
 3506SOL    HW221978   4.678   2.486   6.548 -0.8942  1.2122  0.0012
 3507SOL     OW21979   3.927   0.848   4.530 -0.1052 -0.1021  0.6541
 3507SOL    HW121980   3.907   0.757   4.512 -1.2801  0.4840 -1.0503
 3507SOL    HW221981   4.022   0.855   4.516 -0.4347  0.0575 -1.5350
 3508SOL     OW21982   3.193   1.948   4.284 -0.2616  0.5039  0.6194
 3508SOL    HW121983   3.188   1.924   4.191  0.4390 -0.0170  0.7162
 3508SOL    HW221984   3.194   1.858   4.316  0.0359 -0.6954 -2.7419
 3509SOL     OW21985   0.227   3.525   8.665 -0.3119  0.2277  0.7101
 3509SOL    HW121986   0.286   3.534   8.590  0.2261  0.4180  1.1668
 3509SOL    HW221987   0.152   3.528   8.605  0.9666  0.8275 -0.8616
 3510SOL     OW21988   3.863   4.671  12.525 -0.1629 -0.2673 -0.0434
 3510SOL    HW121989   3.830   4.582  12.534 -0.4602 -0.4340 -2.6621
 3510SOL    HW221990   3.875   4.681  12.430  1.2301  0.0394  0.1678
 3511SOL     OW21991   3.038   3.288  17.556 -0.0235  0.6147 -0.2940
 3511SOL    HW121992   3.052   3.264  17.464  2.2036 -3.0832  1.0131
 3511SOL    HW221993   2.948   3.322  17.560 -1.2758 -2.6289 -1.1284
 3512SOL     OW21994   0.986   1.790   3.525  0.7649 -0.3859  0.0060
 3512SOL    HW121995   0.937   1.711   3.500  1.3662  0.0929 -2.6150
 3512SOL    HW221996   1.011   1.766   3.614  0.8666 -0.4526 -0.0409
 3513SOL     OW21997   1.872   3.547   5.316 -0.5318  0.3699 -0.1199
 3513SOL    HW121998   1.853   3.516   5.227 -1.3409 -3.7216  1.4639
 3513SOL    HW221999   1.809   3.619   5.322  0.2347  1.0898 -0.7189
 3514SOL     OW22000   0.508   3.972   2.435 -0.2108  0.4813  0.4128
 3514SOL    HW122001   0.431   4.027   2.448  1.4330  1.8617  4.5560
 3514SOL    HW222002   0.577   4.038   2.444  1.3777 -1.2329  0.7253
 3515SOL     OW22003   3.782   4.260   3.308  0.1017  0.4039 -0.6204
 3515SOL    HW122004   3.740   4.323   3.250  1.3796  0.5467 -1.3815
 3515SOL    HW222005   3.710   4.197   3.312  0.4666 -0.2808 -4.8823
 3516SOL     OW22006   0.103   1.744   2.862  0.4845  0.1723  0.5568
 3516SOL    HW122007   0.156   1.804   2.811  2.0579 -2.1167 -0.5267
 3516SOL    HW222008   0.158   1.741   2.940 -0.5746  2.3313  1.3903
 3517SOL     OW22009   4.246   1.738   0.270  0.1311 -0.2759  0.0450
 3517SOL    HW122010   4.285   1.807   0.323 -1.0347  0.8340 -0.5329
 3517SOL    HW222011   4.156   1.747   0.299  0.4155 -0.7076  1.0669
 3518SOL     OW22012   1.718   1.764   8.883 -0.0888  0.0796 -0.4347
 3518SOL    HW122013   1.764   1.808   8.955  3.1643 -1.5412 -1.5378
 3518SOL    HW222014   1.779   1.696   8.855  0.9560  0.6312  0.5005
 3519SOL     OW22015   0.798   1.980   2.979  0.2935  0.7056 -0.5474
 3519SOL    HW122016   0.837   2.003   2.895  0.1865 -0.2204 -0.8557
 3519SOL    HW222017   0.748   2.061   2.987  0.9961  0.8839  2.2640
 3520SOL     OW22018   0.893   3.459  10.246  0.0411 -0.0536 -0.3282
 3520SOL    HW122019   0.877   3.499  10.160  1.4222  1.2046  0.0135
 3520SOL    HW222020   0.887   3.541  10.294 -0.4246 -0.6898  0.6911
 3521SOL     OW22021   0.922   3.235   5.567  0.0952  0.1895 -0.3631
 3521SOL    HW122022   0.897   3.309   5.623  0.1346  0.9699 -1.3794
 3521SOL    HW222023   1.001   3.271   5.526 -1.4150  0.7003 -2.8139
 3522SOL     OW22024   3.637   4.686  15.307  0.4517 -0.0207 -0.2267
 3522SOL    HW122025   3.672   0.037  15.356 -3.1697  1.6085 -0.0988
 3522SOL    HW222026   3.574   0.004  15.248 -0.1411  0.2830  0.6012
 3523SOL     OW22027   0.703   2.707  15.028  0.6895  0.3660  0.9714
 3523SOL    HW122028   0.672   2.797  15.042 -0.8041  0.3127 -2.0803
 3523SOL    HW222029   0.727   2.716  14.936 -2.1289 -3.1824 -0.1051
 3524SOL     OW22030   1.324   1.144   4.839  0.4517 -0.4992  0.1260
 3524SOL    HW122031   1.244   1.122   4.792  1.1744 -1.8680 -0.4713
 3524SOL    HW222032   1.348   1.063   4.885 -0.2379  0.0208  1.4173
 3525SOL     OW22033   3.325   1.876   6.100 -0.0881 -0.2378 -0.2235
 3525SOL    HW122034   3.351   1.850   6.188  1.7130  0.9674 -0.3970
 3525SOL    HW222035   3.296   1.966   6.117 -0.2293 -0.0114 -1.6690
 3526SOL     OW22036   0.436   3.524  13.075  0.4218  0.0198  0.7344
 3526SOL    HW122037   0.455   3.525  12.982  1.4226  2.1807  0.9829
 3526SOL    HW222038   0.416   3.617  13.074  0.8492  0.1035  0.1989
 3527SOL     OW22039   1.004   4.386  15.345  0.2716 -0.3020 -0.4688
 3527SOL    HW122040   1.031   4.317  15.405  0.1438  0.3656  0.3637
 3527SOL    HW222041   1.080   4.443  15.356  0.1015  0.1476 -1.5935
 3528SOL     OW22042   0.564   0.030   2.094  0.3739 -0.5266 -0.3362
 3528SOL    HW122043   0.521   4.671   2.117 -1.0471 -0.2878 -2.2264
 3528SOL    HW222044   0.564   0.031   1.999  1.0228  0.2057 -0.3239
 3529SOL     OW22045   0.307   0.597   4.624  0.0191 -0.2388  0.0452
 3529SOL    HW122046   0.340   0.574   4.711  0.6796 -1.4234 -0.5264
 3529SOL    HW222047   0.304   0.693   4.627  2.6126 -0.1370 -1.1144
 3530SOL     OW22048   1.152   1.853   9.880  0.2247  0.0740  0.4972
 3530SOL    HW122049   1.089   1.884   9.946  0.1505  1.1853 -0.0979
 3530SOL    HW222050   1.213   1.927   9.887  1.2904 -0.8265  0.5977
 3531SOL     OW22051   4.055   0.076   3.827  0.1251 -0.3512 -0.0063
 3531SOL    HW122052   4.134   0.060   3.774 -0.0843 -0.8452 -0.1660
 3531SOL    HW222053   3.990   0.069   3.757 -1.2590 -0.7981  1.3320
 3532SOL     OW22054   1.623   4.273  16.100  0.1309 -0.4130  0.5878
 3532SOL    HW122055   1.690   4.206  16.088  0.2734 -0.5377  2.0761
 3532SOL    HW222056   1.547   4.243  16.051  0.6619  1.6549 -1.5007
 3533SOL     OW22057   1.166   3.627   5.441 -0.6824  0.1431  0.8814
 3533SOL    HW122058   1.151   3.691   5.372 -1.6004  0.5623  1.4717
 3533SOL    HW222059   1.083   3.620   5.488 -1.3953  1.3945 -0.2031
 3534SOL     OW22060   0.927   2.557   7.940 -0.3010 -0.2304  0.6007
 3534SOL    HW122061   0.836   2.534   7.923 -1.2160  2.7003  1.4615
 3534SOL    HW222062   0.912   2.594   8.026  2.7116  0.3550  0.8928
 3535SOL     OW22063   3.504   3.751   3.955 -0.0519  0.4443  0.1675
 3535SOL    HW122064   3.557   3.696   3.897  0.6516  1.3399 -0.0455
 3535SOL    HW222065   3.414   3.737   3.926  0.2127  0.1378 -0.4860
 3536SOL     OW22066   3.257   1.872  11.213  0.2175  0.7392  0.2942
 3536SOL    HW122067   3.330   1.935  11.215 -0.0781  1.0581  1.1102
 3536SOL    HW222068   3.303   1.803  11.261 -1.2062  0.0573  0.6842
 3537SOL     OW22069   1.065   0.771  12.285 -0.1328  0.3348 -0.3360
 3537SOL    HW122070   1.159   0.790  12.282 -0.3003  0.7143 -2.8109
 3537SOL    HW222071   1.041   0.750  12.195 -1.8677 -2.0355  0.6842
 3538SOL     OW22072   4.492   1.712   2.489 -0.4305 -0.2025  0.2534
 3538SOL    HW122073   4.549   1.719   2.412  1.8038  0.7234  2.0040
 3538SOL    HW222074   4.560   1.680   2.549 -0.0736 -1.5790 -0.8796
 3539SOL     OW22075   0.450   0.226   2.411  0.3762 -0.5752  0.5324
 3539SOL    HW122076   0.546   0.228   2.420  0.4283  0.1521 -0.1978
 3539SOL    HW222077   0.447   0.141   2.368 -0.6701  0.5474 -1.6033
 3540SOL     OW22078   0.815   3.165   8.009 -0.4464 -0.3402 -0.2771
 3540SOL    HW122079   0.843   3.219   7.936  0.1927  1.2900  1.1816
 3540SOL    HW222080   0.848   3.205   8.090 -1.5150 -1.4948  0.7482
 3541SOL     OW22081   1.577   4.559  10.247 -0.4380 -0.3431  0.3663
 3541SOL    HW122082   1.594   4.653  10.253 -2.2909 -0.0205  0.6374
 3541SOL    HW222083   1.542   4.561  10.157 -0.2325 -1.6710  0.2622
 3542SOL     OW22084   4.325   4.531  11.823 -0.5547  0.3692 -0.4700
 3542SOL    HW122085   4.368   4.509  11.906 -3.9552 -0.9202  0.9398
 3542SOL    HW222086   4.315   4.626  11.830  0.9851  0.5256 -0.4332
 3543SOL     OW22087   0.046   1.970  15.204  0.0922  0.1212  0.0208
 3543SOL    HW122088   0.124   2.012  15.167 -0.8435  2.9662  1.2704
 3543SOL    HW222089   4.698   2.006  15.151 -1.1648  0.8272  2.2171
 3544SOL     OW22090   2.183   1.813  15.419  0.3893  0.3707 -0.2784
 3544SOL    HW122091   2.117   1.883  15.418  1.3933  1.3443  1.5176
 3544SOL    HW222092   2.211   1.821  15.510 -1.6012  1.0337  0.2997
 3545SOL     OW22093   0.397   3.028   0.664  0.1154  0.2627  0.4779
 3545SOL    HW122094   0.410   3.039   0.569 -1.5934  0.8668  0.3107
 3545SOL    HW222095   0.466   2.970   0.695  1.2767  0.9166 -0.8712
 3546SOL     OW22096   2.999   3.702   7.381  0.4011  0.2676 -0.0522
 3546SOL    HW122097   2.921   3.647   7.397 -0.7523  1.9932  0.2285
 3546SOL    HW222098   3.036   3.640   7.318  0.8503  1.3634 -0.8472
 3547SOL     OW22099   3.953   4.474   1.354  0.4535  0.6720 -0.1694
 3547SOL    HW122100   3.915   4.537   1.416  1.3968 -0.6622  1.7397
 3547SOL    HW222101   4.034   4.461   1.403 -1.0021  1.5126  2.4821
 3548SOL     OW22102   1.739   2.850   4.155  0.3044 -0.5599 -0.6291
 3548SOL    HW122103   1.784   2.805   4.226  2.4294  2.7106  0.1110
 3548SOL    HW222104   1.672   2.903   4.198 -0.8618 -1.2625 -1.5559
 3549SOL     OW22105   1.874   0.386   8.192 -0.1154  0.0149 -0.3398
 3549SOL    HW122106   1.963   0.367   8.221 -0.0855  1.7008  0.7011
 3549SOL    HW222107   1.901   0.472   8.159 -2.8075 -0.7822 -4.6421
 3550SOL     OW22108   2.776   4.075  11.600  0.3443  0.1147 -0.0360
 3550SOL    HW122109   2.853   4.068  11.656  1.4840  1.1902 -1.4745
 3550SOL    HW222110   2.742   3.990  11.628 -1.3834  0.4441 -1.1352
 3551SOL     OW22111   3.786   3.403   8.565  0.3312  0.0072 -0.2299
 3551SOL    HW122112   3.698   3.365   8.572  1.4449 -2.3998  0.5100
 3551SOL    HW222113   3.781   3.461   8.641  0.6135  0.5967 -0.6626
 3552SOL     OW22114   1.001   0.789   4.909 -0.3402 -0.2835  0.1227
 3552SOL    HW122115   0.911   0.818   4.918 -0.4438 -0.3312 -0.7717
 3552SOL    HW222116   1.007   0.780   4.814  0.3146 -1.3350  0.2538
 3553SOL     OW22117   3.553   1.810   9.343 -0.0785  0.2426 -0.2198
 3553SOL    HW122118   3.581   1.811   9.435 -1.8396  1.8272  0.3031
 3553SOL    HW222119   3.462   1.791   9.363  0.4735 -2.2122 -0.0774
 3554SOL     OW22120   2.591   4.306  11.142 -0.0172  0.2237 -0.5629
 3554SOL    HW122121   2.594   4.240  11.073 -1.8327  1.5568 -1.9164
 3554SOL    HW222122   2.686   4.305  11.159 -0.0537 -1.9660 -0.5741
 3555SOL     OW22123   3.587   3.373  14.183  0.2927  0.2833 -0.5453
 3555SOL    HW122124   3.553   3.328  14.105 -0.9176  3.1971 -1.6738
 3555SOL    HW222125   3.653   3.312  14.215 -0.5941  0.3022  1.3061
 3556SOL     OW22126   2.628   3.581  17.392  0.5285 -0.3479 -0.4543
 3556SOL    HW122127   2.659   3.589  17.302  0.4334  0.8853 -0.3897
 3556SOL    HW222128   2.535   3.601  17.383  0.0492 -1.5862  1.8267
 3557SOL     OW22129   2.304   2.004  11.475  0.3337 -0.5225 -0.0380
 3557SOL    HW122130   2.260   2.088  11.471  0.4169 -0.5118 -0.6389
 3557SOL    HW222131   2.226   1.948  11.471 -0.2245  0.0549  2.6390
 3558SOL     OW22132   1.418   0.654   5.966  0.1033  0.3861 -0.0605
 3558SOL    HW122133   1.474   0.730   5.981  0.0291  0.9509 -2.7663
 3558SOL    HW222134   1.410   0.618   6.055 -0.3470  1.3424  0.2779
 3559SOL     OW22135   0.068   1.670  13.333  0.0344 -0.4046 -0.5222
 3559SOL    HW122136   0.037   1.601  13.275 -2.5090  0.4359 -0.1567
 3559SOL    HW222137   0.025   1.742  13.286 -0.3175 -1.4240 -1.7503
 3560SOL     OW22138   2.730   0.755   4.980 -0.1536  0.3923  0.8852
 3560SOL    HW122139   2.741   0.728   5.071  2.1456  0.4061  0.6211
 3560SOL    HW222140   2.661   0.698   4.947  1.9393 -1.4011 -0.3949
 3561SOL     OW22141   0.910   2.218   3.433 -0.3124  0.0916  0.1947
 3561SOL    HW122142   0.948   2.255   3.353  0.3912  1.8638  1.3511
 3561SOL    HW222143   0.972   2.146   3.435 -0.2843  0.0532 -1.7521
 3562SOL     OW22144   4.559   3.695  17.202  0.1409  0.2177 -0.1778
 3562SOL    HW122145   4.503   3.770  17.226  0.3125 -0.0534  1.0608
 3562SOL    HW222146   4.502   3.618  17.210 -0.5098  0.6396 -0.6865
 3563SOL     OW22147   0.955   4.535   4.029  0.5509  0.1803 -0.1973
 3563SOL    HW122148   0.885   4.556   3.968 -1.3531 -0.8513  1.6467
 3563SOL    HW222149   1.013   4.483   3.973  0.7683  0.3162 -0.0962
 3564SOL     OW22150   0.204   1.187   9.711  0.0629 -0.0689 -0.0875
 3564SOL    HW122151   0.203   1.091   9.708  0.2716 -0.0615 -0.4684
 3564SOL    HW222152   0.116   1.193   9.749  0.1409  0.3868  0.0096
 3565SOL     OW22153   4.406   0.832   2.143 -0.2465 -0.2336 -0.0665
 3565SOL    HW122154   4.416   0.782   2.062 -2.9260 -0.6159 -0.1510
 3565SOL    HW222155   4.496   0.838   2.176 -0.5650  0.1385  0.7579
 3566SOL     OW22156   4.299   2.051   8.659 -0.5479  0.0880  0.0300
 3566SOL    HW122157   4.364   2.119   8.677  0.7711 -1.9800  3.0954
 3566SOL    HW222158   4.305   1.994   8.736 -0.5405  1.6004  1.1639
 3567SOL     OW22159   3.265   1.186  17.149 -0.8224 -0.0663 -0.5741
 3567SOL    HW122160   3.303   1.108  17.191 -1.8319 -0.5945 -0.6469
 3567SOL    HW222161   3.206   1.207  17.221 -1.6744  1.2849 -1.6708
 3568SOL     OW22162   4.588   3.900   2.329  0.1454  0.0237 -0.2267
 3568SOL    HW122163   4.553   3.829   2.275  0.2282 -1.2807  1.4746
 3568SOL    HW222164   4.593   3.865   2.417  2.3962 -1.4996 -0.9630
 3569SOL     OW22165   2.622   2.383  13.138  0.0025  0.7603  0.0484
 3569SOL    HW122166   2.590   2.436  13.065 -0.4994  1.9733  1.1525
 3569SOL    HW222167   2.714   2.408  13.149  0.6178 -0.7545 -1.7100
 3570SOL     OW22168   0.295   2.798   5.590  0.0997 -0.3567 -0.0300
 3570SOL    HW122169   0.202   2.777   5.597  0.4967 -1.9214  0.4556
 3570SOL    HW222170   0.328   2.717   5.551  0.4884  0.5404 -1.5332
 3571SOL     OW22171   3.529   2.610   8.755 -0.0643 -0.1017  1.2603
 3571SOL    HW122172   3.556   2.693   8.795 -0.3627 -0.1119  1.4790
 3571SOL    HW222173   3.614   2.566   8.749 -1.2040 -2.1307 -0.2433
 3572SOL     OW22174   3.685   4.500   6.254  0.3620  0.2314 -0.0047
 3572SOL    HW122175   3.691   4.524   6.162  3.7895 -0.1385  0.1280
 3572SOL    HW222176   3.677   4.580   6.306  2.1681 -0.8096  1.8990
 3573SOL     OW22177   1.665   3.075   5.343  0.3625  0.7408 -0.0838
 3573SOL    HW122178   1.744   3.063   5.290 -1.1125  1.0061 -2.3210
 3573SOL    HW222179   1.604   3.012   5.307 -0.7411  2.4353 -1.1661
 3574SOL     OW22180   2.867   2.252   0.920 -0.2656  0.5278 -0.3460
 3574SOL    HW122181   2.815   2.198   0.980  0.4134 -1.2085 -1.3433
 3574SOL    HW222182   2.949   2.202   0.917  1.2485  2.8230  2.1967
 3575SOL     OW22183   1.727   1.863   2.862 -0.0087 -0.0364  0.2092
 3575SOL    HW122184   1.638   1.847   2.831  0.9388 -1.2483 -1.9541
 3575SOL    HW222185   1.770   1.831   2.783  0.8589 -0.5131  0.8724
 3576SOL     OW22186   2.123   1.576   7.482  0.2455 -0.2263 -0.2376
 3576SOL    HW122187   2.155   1.556   7.394 -2.7765 -0.0515 -1.3938
 3576SOL    HW222188   2.185   1.517   7.525  0.6751  1.3873  1.3582
 3577SOL     OW22189   0.805   3.746   4.243 -0.6454 -0.4464 -0.0854
 3577SOL    HW122190   0.848   3.692   4.309  1.3339  0.5401 -0.5561
 3577SOL    HW222191   0.866   3.744   4.169 -0.2243 -0.0928  0.2507
 3578SOL     OW22192   0.067   4.441  16.288 -0.3626 -0.3777  0.2525
 3578SOL    HW122193   4.700   4.466  16.308 -0.5999 -0.4915 -0.6968
 3578SOL    HW222194   0.067   4.346  16.300 -0.1503 -0.4895 -0.6500
 3579SOL     OW22195   1.775   4.418   4.600  1.4105 -0.2057  0.1069
 3579SOL    HW122196   1.853   4.461   4.637 -1.1350  0.8936  4.2549
 3579SOL    HW222197   1.750   4.483   4.535 -2.0076 -0.1885  1.4566
 3580SOL     OW22198   4.597   0.583   8.700  0.0350 -0.1980  0.2435
 3580SOL    HW122199   4.648   0.502   8.710 -1.0627 -0.9979 -0.5943
 3580SOL    HW222200   4.655   0.631   8.640 -0.5608  0.4448  0.1843
 3581SOL     OW22201   2.637   1.120   6.314  0.3847 -0.2405  0.5914
 3581SOL    HW122202   2.670   1.175   6.242 -2.3233  2.8514  1.6668
 3581SOL    HW222203   2.592   1.197   6.351  0.6928  1.6698 -2.9677
 3582SOL     OW22204   0.741   4.575  13.635 -0.1228  0.1113 -0.1506
 3582SOL    HW122205   0.827   4.578  13.678 -0.8243  0.2262  1.2438
 3582SOL    HW222206   0.766   4.598  13.546 -1.1515  0.0387 -0.4478
 3583SOL     OW22207   0.508   0.074   4.044 -0.1584  0.6770  0.6453
 3583SOL    HW122208   0.530   0.061   4.137  1.1719  1.5589  0.4544
 3583SOL    HW222209   0.589   0.110   4.009  1.3461 -0.6287  2.7293
 3584SOL     OW22210   0.614   3.547   4.533  0.1809  0.2298  0.1401
 3584SOL    HW122211   0.580   3.504   4.612  1.6358 -3.4287 -1.2241
 3584SOL    HW222212   0.593   3.638   4.552  1.9610  0.6606  0.0183
 3585SOL     OW22213   0.873   3.283   5.256 -0.2192  0.3376  0.2035
 3585SOL    HW122214   0.904   3.219   5.192  0.2405  0.6711  0.0927
 3585SOL    HW222215   0.932   3.354   5.230  0.5883 -0.8175 -1.1060
 3586SOL     OW22216   0.466   3.302   8.979 -0.2553  0.5322 -0.4827
 3586SOL    HW122217   0.427   3.282   8.894 -0.1670 -1.2152 -0.1233
 3586SOL    HW222218   0.386   3.332   9.024  0.1349 -1.4193  1.4971
 3587SOL     OW22219   1.637   1.976   4.230 -0.4223 -0.1417 -0.5342
 3587SOL    HW122220   1.680   2.004   4.150  3.0210 -0.8222  1.0580
 3587SOL    HW222221   1.709   1.926   4.271  0.6721  2.2334  0.4361
 3588SOL     OW22222   0.777   2.152  13.447  0.0725  0.1944  0.6139
 3588SOL    HW122223   0.871   2.137  13.436 -0.1154 -0.5949  0.0847
 3588SOL    HW222224   0.757   2.068  13.489 -0.7294  0.0759 -0.0114
 3589SOL     OW22225   2.673   4.145  10.952 -0.3327  0.1139 -0.1903
 3589SOL    HW122226   2.693   4.148  10.858 -1.2481  0.8649 -0.3677
 3589SOL    HW222227   2.597   4.086  10.953  0.1206 -0.4850 -1.4951
 3590SOL     OW22228   0.334   0.336   7.662  0.0954  0.1415 -0.1355
 3590SOL    HW122229   0.414   0.387   7.658  0.1088  0.0485 -0.8842
 3590SOL    HW222230   0.277   0.384   7.723  0.4270 -0.3594  0.5793
 3591SOL     OW22231   0.584   0.736   4.146 -0.5909  0.2021 -0.6269
 3591SOL    HW122232   0.646   0.680   4.101 -1.4736  0.4140 -2.1003
 3591SOL    HW222233   0.643   0.784   4.204  0.3108  0.1281 -1.4982
 3592SOL     OW22234   2.265   3.013  16.618  0.1313  0.0909  0.0320
 3592SOL    HW122235   2.249   3.052  16.532  3.0766 -0.6091 -0.8508
 3592SOL    HW222236   2.305   2.929  16.595 -0.9989 -0.2834 -0.5608
 3593SOL     OW22237   1.012   1.145   8.091  0.0161 -0.6572 -0.5025
 3593SOL    HW122238   1.033   1.067   8.040 -2.2085 -1.1841 -0.6366
 3593SOL    HW222239   1.088   1.202   8.081  0.7257 -2.1646 -3.6607
 3594SOL     OW22240   3.406   4.617   3.930  0.1893  0.6167 -0.1130
 3594SOL    HW122241   3.492   4.576   3.941 -0.5834 -0.7630  0.8184
 3594SOL    HW222242   3.412   4.700   3.884  1.2556  0.7079  0.1728
 3595SOL     OW22243   2.076   4.076  12.699  0.1770  0.6095 -0.1639
 3595SOL    HW122244   2.057   4.033  12.615  0.2033  1.0648 -0.4026
 3595SOL    HW222245   2.023   4.026  12.761 -0.9071  1.9682  0.0040
 3596SOL     OW22246   0.663   1.738   6.121  0.5039  0.8418  0.1136
 3596SOL    HW122247   0.588   1.679   6.124 -0.5465  2.0948 -1.6113
 3596SOL    HW222248   0.733   1.674   6.110  3.1134  3.3845  1.9291
 3597SOL     OW22249   4.339   2.684   4.577 -0.1506 -0.2014  0.3087
 3597SOL    HW122250   4.307   2.638   4.500  0.6790 -1.7788  0.9125
 3597SOL    HW222251   4.262   2.691   4.633  1.0890 -0.4166  2.0475
 3598SOL     OW22252   1.759   4.351  11.494 -0.5956  0.4124  0.2048
 3598SOL    HW122253   1.836   4.337  11.549  1.2567 -0.3106 -2.5388
 3598SOL    HW222254   1.799   4.414  11.434  1.4375 -0.6557  0.4453
 3599SOL     OW22255   2.394   3.805   5.415 -0.2801  0.4214 -0.2992
 3599SOL    HW122256   2.435   3.718   5.423  2.4211  1.8401  1.3474
 3599SOL    HW222257   2.446   3.842   5.343  0.5878  1.5905  0.9388
 3600SOL     OW22258   3.614   3.561   9.729  0.1798  0.3312  0.5035
 3600SOL    HW122259   3.659   3.645   9.741 -0.3572  0.4235  1.7817
 3600SOL    HW222260   3.541   3.572   9.789  0.8054 -1.3503  1.5550
 3601SOL     OW22261   2.307   1.552   9.033 -0.2853  0.0542 -0.1444
 3601SOL    HW122262   2.346   1.529   8.949 -0.4027  0.6382 -0.3591
 3601SOL    HW222263   2.224   1.586   9.000  0.5701  1.3606 -0.9237
 3602SOL     OW22264   0.077   0.299   7.147 -0.3809  0.0003  0.0901
 3602SOL    HW122265   0.048   0.387   7.170  1.0883  0.6973 -0.6981
 3602SOL    HW222266   0.116   0.311   7.061  0.3557 -0.7052  0.3245
 3603SOL     OW22267   0.276   3.078   8.570 -0.6830  0.3627  0.1054
 3603SOL    HW122268   0.230   3.002   8.605 -1.1072  0.3405 -0.5069
 3603SOL    HW222269   0.315   3.053   8.486 -0.5341  1.1280 -0.0523
 3604SOL     OW22270   1.749   1.539   4.190  0.1163  0.3790  1.1971
 3604SOL    HW122271   1.666   1.582   4.209 -0.0765  0.1165  0.9299
 3604SOL    HW222272   1.792   1.603   4.132 -3.1016  0.1413 -1.4107
 3605SOL     OW22273   3.290   2.615   0.433 -0.7156  0.2122 -0.0168
 3605SOL    HW122274   3.253   2.551   0.493  0.7229  0.1120  0.7778
 3605SOL    HW222275   3.344   2.564   0.372 -1.8151 -0.0036 -0.8076
 3606SOL     OW22276   4.122   0.117   8.894 -0.2758  0.1982  0.0277
 3606SOL    HW122277   4.172   0.035   8.895 -0.5348  0.0424  0.3824
 3606SOL    HW222278   4.069   0.105   8.973 -0.1388 -2.2216 -0.2291
 3607SOL     OW22279   2.093   3.347  14.214  0.1705 -0.0167  0.1644
 3607SOL    HW122280   2.163   3.411  14.223  1.2431 -1.2804  0.9318
 3607SOL    HW222281   2.108   3.282  14.283 -0.6886 -1.9233 -1.4183
 3608SOL     OW22282   0.144   1.037   7.887  0.1065 -0.9876 -0.4432
 3608SOL    HW122283   0.100   1.119   7.910  0.5113  0.0933 -3.5508
 3608SOL    HW222284   0.128   0.991   7.969  2.8671 -1.8622 -0.4011
 3609SOL     OW22285   4.307   3.671   1.828  0.6668 -0.2655 -0.6607
 3609SOL    HW122286   4.354   3.752   1.807 -3.2072  2.8431  2.4130
 3609SOL    HW222287   4.217   3.701   1.846 -0.1076 -1.7667 -2.0656
 3610SOL     OW22288   0.777   2.030   5.783  0.2925  0.0492  0.0855
 3610SOL    HW122289   0.854   2.081   5.757  0.1548  0.0216 -0.3901
 3610SOL    HW222290   0.714   2.102   5.783 -0.3321 -0.5196  1.9871
 3611SOL     OW22291   4.104   3.616   1.475  0.2958  0.2771 -0.4286
 3611SOL    HW122292   4.163   3.646   1.545 -0.5099  0.6214  0.0948
 3611SOL    HW222293   4.106   3.522   1.490  0.5837  0.6163  1.6642
 3612SOL     OW22294   0.479   3.681  12.314  0.6550 -0.0131 -0.5368
 3612SOL    HW122295   0.434   3.765  12.323 -1.4616 -0.9301 -2.4489
 3612SOL    HW222296   0.562   3.708  12.275  0.5672  1.0063  0.0004
 3613SOL     OW22297   1.424   4.432   9.015  0.4267 -0.0206 -0.2024
 3613SOL    HW122298   1.424   4.431   8.919 -1.2343 -1.4182 -0.1976
 3613SOL    HW222299   1.511   4.467   9.035  0.4863 -1.1251  1.4468
 3614SOL     OW22300   0.084   4.174   6.812 -0.4456 -0.9309  0.7344
 3614SOL    HW122301   0.093   4.165   6.718  1.9805  0.4959  0.8202
 3614SOL    HW222302   4.713   4.183   6.807 -0.3008  0.6343  0.6291
 3615SOL     OW22303   2.301   0.934   4.638  0.1421 -0.0715 -0.4451
 3615SOL    HW122304   2.267   1.023   4.642 -0.4917 -0.3060 -0.5299
 3615SOL    HW222305   2.350   0.937   4.556 -0.4620 -1.1121 -0.8579
 3616SOL     OW22306   2.318   1.468   5.335  0.3538 -0.8108 -0.2963
 3616SOL    HW122307   2.303   1.520   5.256 -2.6970 -1.0734  0.1111
 3616SOL    HW222308   2.224   1.456   5.349  0.4619 -3.6821 -1.9546
 3617SOL     OW22309   1.372   4.282   2.634 -0.1211 -0.1813 -0.2142
 3617SOL    HW122310   1.400   4.243   2.551  0.9148  0.9823 -0.4142
 3617SOL    HW222311   1.342   4.203   2.677  0.1787 -0.2443 -0.1177
 3618SOL     OW22312   1.179   4.084   9.801 -0.2679  0.1694  0.8017
 3618SOL    HW122313   1.169   3.989   9.814 -2.5190  0.7741  3.5242
 3618SOL    HW222314   1.241   4.078   9.728 -0.8882 -0.4165  0.3133
 3619SOL     OW22315   0.843   2.626  11.174 -0.3889 -0.1059  0.4321
 3619SOL    HW122316   0.852   2.708  11.127 -2.6906  0.1284  0.3853
 3619SOL    HW222317   0.836   2.648  11.267 -3.0733  0.0085  0.1996
 3620SOL     OW22318   0.937   4.594   0.466  0.0910  0.3098  0.2590
 3620SOL    HW122319   0.888   4.511   0.461 -0.1435  0.4538  0.1716
 3620SOL    HW222320   0.979   4.568   0.548 -1.8922 -0.9639  0.8944
 3621SOL     OW22321   0.333   1.329  13.161  0.3737  0.0392  0.2605
 3621SOL    HW122322   0.367   1.313  13.249 -0.8312 -0.2644  0.6680
 3621SOL    HW222323   0.267   1.260  13.157  2.0687 -1.4805 -1.1000
 3622SOL     OW22324   1.348   0.713   5.121 -0.0541 -0.1535  0.1301
 3622SOL    HW122325   1.396   0.770   5.181 -0.1776 -0.0388  0.1196
 3622SOL    HW222326   1.401   0.633   5.119  0.9327  0.4939  0.2034
 3623SOL     OW22327   4.380   0.224  11.653  0.3280  0.5024  0.2299
 3623SOL    HW122328   4.322   0.266  11.718 -2.2067 -0.7568 -1.2107
 3623SOL    HW222329   4.338   0.258  11.574  0.5800  1.0449  0.3310
 3624SOL     OW22330   1.512   1.213   5.743  0.0529 -0.1671 -0.2258
 3624SOL    HW122331   1.552   1.140   5.792  0.7035 -0.6498 -1.4860
 3624SOL    HW222332   1.507   1.175   5.656 -1.5362  0.5982 -0.4616
 3625SOL     OW22333   2.587   3.134   3.613 -0.2892  0.1561  0.0416
 3625SOL    HW122334   2.570   3.211   3.558  2.5048  0.7785  0.0646
 3625SOL    HW222335   2.626   3.062   3.563 -0.4966 -0.6116  0.9756
 3626SOL     OW22336   3.033   1.452   3.424  0.2881  0.3778 -0.6146
 3626SOL    HW122337   2.955   1.508   3.432  1.0985  1.6217 -1.3719
 3626SOL    HW222338   3.091   1.527   3.437 -0.9380  1.0515  1.1186
 3627SOL     OW22339   4.339   2.561  15.528 -0.2923  0.2591  0.2899
 3627SOL    HW122340   4.428   2.531  15.545  0.2577  1.4518 -0.5077
 3627SOL    HW222341   4.327   2.530  15.438  2.0555 -2.0208  0.7651
 3628SOL     OW22342   0.365   1.698   9.020 -0.0559  0.5626 -0.3043
 3628SOL    HW122343   0.389   1.790   9.024 -0.0449  0.5162  0.7935
 3628SOL    HW222344   0.328   1.676   9.106 -2.0269 -0.2449 -1.3690
 3629SOL     OW22345   1.846   3.585   7.231  0.2523 -0.0895 -0.0739
 3629SOL    HW122346   1.853   3.498   7.270 -3.2947 -0.9258 -1.3138
 3629SOL    HW222347   1.854   3.574   7.137 -2.4960 -2.6363  0.0162
 3630SOL     OW22348   1.854   1.621  13.960 -0.0156  0.1474  0.4169
 3630SOL    HW122349   1.912   1.673  14.017 -0.5475 -0.9765  1.9831
 3630SOL    HW222350   1.838   1.548  14.020 -2.1456 -2.1103 -2.9091
 3631SOL     OW22351   3.108   2.480  12.969  0.1432 -0.2336  0.1970
 3631SOL    HW122352   3.119   2.504  12.877 -0.1079  1.6396  0.6617
 3631SOL    HW222353   3.134   2.554  13.024  0.6676 -1.3142  1.3903
 3632SOL     OW22354   0.556   1.418   4.267  0.2340  0.4214  0.1200
 3632SOL    HW122355   0.552   1.513   4.276 -2.2897  0.3198 -0.0855
 3632SOL    HW222356   0.647   1.399   4.288 -0.4763 -3.2450 -0.2240
 3633SOL     OW22357   1.265   1.590   5.422  0.1504  0.1100 -0.2434
 3633SOL    HW122358   1.215   1.666   5.393  1.0824  1.1071  0.7748
 3633SOL    HW222359   1.245   1.524   5.355  2.7959  0.3502 -1.2556
 3634SOL     OW22360   1.878   1.140   7.719 -0.1583  0.5308  0.1609
 3634SOL    HW122361   1.910   1.126   7.630  0.0590 -0.0982  0.3335
 3634SOL    HW222362   1.920   1.067   7.765 -0.8297 -0.9816 -1.6342
 3635SOL     OW22363   1.178   2.960   3.258 -0.3053 -0.4110 -0.6352
 3635SOL    HW122364   1.270   2.976   3.239  0.1570 -0.5276  1.5573
 3635SOL    HW222365   1.180   2.888   3.195 -1.2862  0.8115 -2.0590
 3636SOL     OW22366   3.529   4.193   6.210 -0.6128  0.0980 -0.1323
 3636SOL    HW122367   3.557   4.199   6.119 -1.0536 -0.3043 -0.2942
 3636SOL    HW222368   3.582   4.263   6.250 -0.8565  2.4337 -3.8503
 3637SOL     OW22369   2.049   3.582   3.404 -0.6366 -0.5043 -0.1592
 3637SOL    HW122370   2.060   3.651   3.338  0.2820 -1.1253 -0.6540
 3637SOL    HW222371   1.992   3.616   3.472  0.8279  1.0763  0.2594
 3638SOL     OW22372   1.153   0.502   4.524  0.1135  0.6360  0.4391
 3638SOL    HW122373   1.062   0.504   4.496 -0.0011  0.6212  0.8072
 3638SOL    HW222374   1.195   0.471   4.444 -0.4093 -1.6776  1.0637
 3639SOL     OW22375   1.042   2.138  14.576  0.5043  0.0800 -0.7105
 3639SOL    HW122376   0.953   2.104  14.564 -0.1599  1.3657  0.6427
 3639SOL    HW222377   1.042   2.183  14.660  0.5084 -0.9574 -0.1628
 3640SOL     OW22378   1.956   2.727   6.478  0.6875 -0.1939 -0.6264
 3640SOL    HW122379   2.036   2.726   6.427  0.3486  1.0453 -1.1839
 3640SOL    HW222380   1.977   2.797   6.541 -0.2359 -1.0983  0.6936
 3641SOL     OW22381   0.765   4.245   2.125 -0.3597  0.0516  0.4192
 3641SOL    HW122382   0.690   4.189   2.144  1.1561 -2.1867 -0.1942
 3641SOL    HW222383   0.760   4.247   2.030 -0.3189  1.3724  0.4413
 3642SOL     OW22384   3.826   1.323   7.523  0.1142  0.2422 -0.0621
 3642SOL    HW122385   3.813   1.403   7.573 -0.9066  0.5395 -0.8118
 3642SOL    HW222386   3.920   1.318   7.507  0.4442  0.7041  1.7102
 3643SOL     OW22387   2.966   3.263   1.187  0.1953  0.1528 -0.0903
 3643SOL    HW122388   2.895   3.303   1.137  0.4265  0.4608 -0.1768
 3643SOL    HW222389   2.952   3.297   1.275  2.0940 -2.0341  1.0543
 3644SOL     OW22390   1.737   4.555   2.061 -0.6955  0.4759  0.4991
 3644SOL    HW122391   1.709   4.646   2.058  3.0105  1.6132  0.0275
 3644SOL    HW222392   1.828   4.557   2.031  0.1824  0.2181  3.1753
 3645SOL     OW22393   1.369   3.382   4.517 -0.6407 -0.7179  0.2510
 3645SOL    HW122394   1.342   3.310   4.460  0.5604  0.9499 -2.3976
 3645SOL    HW222395   1.417   3.437   4.456  0.1635 -1.0466  0.5863
 3646SOL     OW22396   2.064   0.812   9.618 -0.1214  0.5659 -0.7284
 3646SOL    HW122397   2.018   0.877   9.566 -1.2134 -0.2252 -0.7435
 3646SOL    HW222398   2.144   0.864   9.615  0.3191 -0.0727 -0.1508
 3647SOL     OW22399   3.228   2.855   5.159  0.7107  0.4635  0.3491
 3647SOL    HW122400   3.248   2.811   5.242  1.5090 -2.4514 -1.3700
 3647SOL    HW222401   3.315   2.891   5.139  1.1455 -1.3805 -1.0830
 3648SOL     OW22402   4.200   3.051   3.766  0.2306  0.2251 -0.0829
 3648SOL    HW122403   4.269   2.985   3.759  1.0443  0.9427  1.0755
 3648SOL    HW222404   4.233   3.100   3.691 -0.3397  0.7372  0.0000
 3649SOL     OW22405   1.552   3.686   7.015  0.0587  0.8997  0.4621
 3649SOL    HW122406   1.607   3.629   6.961 -2.2043 -0.6982 -0.1286
 3649SOL    HW222407   1.537   3.763   6.960 -1.1480  0.1418 -0.2435
 3650SOL     OW22408   1.912   2.432   7.259 -0.5363 -0.1059 -0.1298
 3650SOL    HW122409   1.991   2.381   7.273 -0.3307 -0.3737 -2.2745
 3650SOL    HW222410   1.840   2.377   7.290 -1.1861  1.4641  1.1401
 3651SOL     OW22411   0.311   3.922   3.087 -0.2290  0.4761  0.1294
 3651SOL    HW122412   0.333   3.899   3.177 -1.2284  0.8000  0.4545
 3651SOL    HW222413   0.332   3.840   3.041  1.4115  1.4519 -0.8596
 3652SOL     OW22414   3.549   2.343   6.008 -0.7240 -0.4332  0.1889
 3652SOL    HW122415   3.593   2.428   6.007 -2.1193  0.2883  0.1484
 3652SOL    HW222416   3.457   2.371   6.004 -1.0249 -1.2772  1.1902
 3653SOL     OW22417   2.036   2.125   2.953 -0.0602 -0.2206 -1.1077
 3653SOL    HW122418   2.107   2.063   2.967  0.5254  0.4297 -1.2296
 3653SOL    HW222419   2.002   2.095   2.869  0.2910 -0.4292 -1.1754
 3654SOL     OW22420   2.905   1.325   5.888 -0.5660  0.4767  0.4538
 3654SOL    HW122421   2.891   1.242   5.843 -2.3707 -0.1592  2.1499
 3654SOL    HW222422   2.856   1.391   5.840  0.6561  0.2984 -1.0249
 3655SOL     OW22423   2.867   2.462  13.165 -0.3773 -0.2644  1.2203
 3655SOL    HW122424   2.870   2.539  13.109 -3.1611 -0.6925  0.4836
 3655SOL    HW222425   2.946   2.477  13.218  0.2039 -2.0602  0.8680
 3656SOL     OW22426   1.130   2.825  10.776  0.0794 -0.3803  0.5383
 3656SOL    HW122427   1.071   2.756  10.748  0.6977  0.4964 -2.9196
 3656SOL    HW222428   1.144   2.807  10.869 -0.1879 -0.3947  0.5769
 3657SOL     OW22429   0.130   3.500   3.229 -0.2506 -0.7837 -0.2658
 3657SOL    HW122430   0.064   3.447   3.273 -2.0455 -1.1559 -3.3697
 3657SOL    HW222431   0.174   3.540   3.304 -0.2145 -0.0955 -0.6566
 3658SOL     OW22432   1.546   4.257   4.612  0.0359  0.4165 -0.3794
 3658SOL    HW122433   1.598   4.178   4.626 -0.9268 -0.5170 -2.0654
 3658SOL    HW222434   1.617   4.319   4.598 -1.0358  2.3773  2.8699
 3659SOL     OW22435   0.364   3.045   6.451 -0.1989  0.4706 -0.1396
 3659SOL    HW122436   0.315   3.018   6.529 -0.2268  1.0533  0.0450
 3659SOL    HW222437   0.300   3.014   6.387 -1.2572 -0.5117  1.3930
 3660SOL     OW22438   0.519   0.576  11.408  0.2449  0.2109  0.0040
 3660SOL    HW122439   0.580   0.515  11.365  0.3312 -1.5079  2.5374
 3660SOL    HW222440   0.473   0.518  11.468 -1.7351 -0.4499 -2.1481
 3661SOL     OW22441   0.053   2.350   4.308  0.1585  0.4001 -0.3728
 3661SOL    HW122442   0.074   2.358   4.401 -0.0530 -0.9487 -0.2139
 3661SOL    HW222443   4.682   2.366   4.310  0.2658  0.9302  0.3743
 3662SOL     OW22444   4.045   4.706   4.940 -0.1936  0.0505  0.2114
 3662SOL    HW122445   3.977   0.010   4.878  1.6186  2.3323 -0.7568
 3662SOL    HW222446   3.999   4.636   4.987  0.6978 -0.1717  0.7491
 3663SOL     OW22447   0.885   1.507  10.599 -0.3864 -0.2670  0.1698
 3663SOL    HW122448   0.847   1.551  10.676 -1.5728 -0.3628 -0.3541
 3663SOL    HW222449   0.885   1.416  10.628 -2.4662 -0.0057  1.0198
 3664SOL     OW22450   3.265   0.297   2.894  0.3520  0.0835  0.4751
 3664SOL    HW122451   3.301   0.379   2.929  0.9512 -0.1851  0.5016
 3664SOL    HW222452   3.177   0.291   2.931 -0.3248  1.0215 -1.0053
 3665SOL     OW22453   4.550   0.843   3.198 -0.5608 -0.0980 -0.1517
 3665SOL    HW122454   4.610   0.916   3.214 -0.3088 -0.0299 -1.4307
 3665SOL    HW222455   4.612   0.771   3.188 -1.4500 -0.9086  0.1858
 3666SOL     OW22456   4.293   4.637   8.918  0.1620  0.2386  0.0449
 3666SOL    HW122457   4.386   4.659   8.911  0.3393 -0.2485  0.8398
 3666SOL    HW222458   4.287   4.585   8.998  1.0454  1.8027  1.1164
 3667SOL     OW22459   3.502   0.683  16.693  0.2187  0.7472 -0.5244
 3667SOL    HW122460   3.569   0.707  16.629  1.2954  0.4360  0.4912
 3667SOL    HW222461   3.560   0.641  16.756  1.6733  0.2808 -2.1546
 3668SOL     OW22462   1.406   0.411   2.923  0.8226  0.0336 -0.1772
 3668SOL    HW122463   1.318   0.388   2.951  1.2093 -3.2249 -1.6233
 3668SOL    HW222464   1.449   0.399   3.007  1.5697  1.8086 -0.2989
 3669SOL     OW22465   2.851   2.599   4.954 -0.2070  0.1872 -0.6543
 3669SOL    HW122466   2.833   2.635   5.041  0.0449  0.2360 -0.6209
 3669SOL    HW222467   2.938   2.636   4.936 -0.3071  0.1421 -1.2487
 3670SOL     OW22468   0.083   3.031   5.649  0.2947 -0.1104  0.2820
 3670SOL    HW122469   0.143   3.097   5.683 -0.1527  0.1332  0.5870
 3670SOL    HW222470   0.015   3.095   5.631  1.8304  0.5745 -3.0716
 3671SOL     OW22471   2.915   2.159   4.693 -0.0835 -0.0865  0.1217
 3671SOL    HW122472   2.857   2.170   4.618  0.3497  0.1554 -0.1821
 3671SOL    HW222473   2.968   2.082   4.670  1.0738  0.6499  0.3290
 3672SOL     OW22474   2.829   0.231   5.400  0.0595  0.5951  0.0079
 3672SOL    HW122475   2.923   0.223   5.383  0.3066  0.1752  1.5350
 3672SOL    HW222476   2.825   0.195   5.489  0.0471  2.5641  0.8089
 3673SOL     OW22477   1.049   2.326   4.007 -0.6361  0.3196 -0.0617
 3673SOL    HW122478   1.056   2.232   3.990  1.0127  0.5957 -0.8502
 3673SOL    HW222479   1.115   2.339   4.075 -1.3878 -1.0758  0.9410
 3674SOL     OW22480   1.793   3.831   3.804 -0.3360  0.4905  0.0774
 3674SOL    HW122481   1.862   3.876   3.852  1.1226 -1.5342 -0.0740
 3674SOL    HW222482   1.796   3.741   3.836 -0.6269  0.1012 -0.9758
 3675SOL     OW22483   4.197   0.447   7.346 -0.0973  0.6492  0.0082
 3675SOL    HW122484   4.125   0.433   7.407  1.4670 -2.3266  1.1326
 3675SOL    HW222485   4.159   0.527   7.308  1.6306  0.8110 -1.4309
 3676SOL     OW22486   3.198   1.441   4.278 -0.5527 -0.3974  0.0462
 3676SOL    HW122487   3.257   1.516   4.289 -1.4719  0.5918 -1.7419
 3676SOL    HW222488   3.237   1.386   4.346 -1.1861  0.8757  1.4309
 3677SOL     OW22489   2.138   0.196   9.214 -0.3464 -0.1321  0.8946
 3677SOL    HW122490   2.201   0.146   9.266 -0.2633 -1.8910 -0.9369
 3677SOL    HW222491   2.076   0.129   9.186 -1.9086  2.2759 -1.3638
 3678SOL     OW22492   4.571   3.264   8.660 -0.0607 -0.2375  0.1311
 3678SOL    HW122493   4.649   3.268   8.605 -0.3158  0.9006 -0.1467
 3678SOL    HW222494   4.543   3.172   8.660  1.3483 -0.6811 -0.9875
 3679SOL     OW22495   4.641   1.920   4.233 -0.0926  0.2680  0.3769
 3679SOL    HW122496   4.713   1.978   4.209 -0.8413  0.6865 -0.8044
 3679SOL    HW222497   4.629   1.866   4.155  0.8528 -1.0755  1.1569
 3680SOL     OW22498   0.805   4.179   1.124  0.0833 -0.0528  0.3003
 3680SOL    HW122499   0.878   4.187   1.063 -0.0126 -0.1866  0.1645
 3680SOL    HW222500   0.737   4.216   1.066  0.1709 -1.1153 -0.4904
 3681SOL     OW22501   0.936   2.008   8.182  0.1964  0.2063  0.4359
 3681SOL    HW122502   1.027   2.012   8.153  0.4039  1.0344  1.2075
 3681SOL    HW222503   0.878   2.020   8.107  0.9542  0.6586 -0.0746
 3682SOL     OW22504   3.858   2.603   6.065  0.5015  0.2870  0.9842
 3682SOL    HW122505   3.862   2.582   5.972 -0.5828  1.7115  0.6111
 3682SOL    HW222506   3.767   2.632   6.074  0.0863 -1.0916  1.3168
 3683SOL     OW22507   2.479   0.354   1.834  0.1904 -0.0005 -0.2144
 3683SOL    HW122508   2.520   0.432   1.798  2.2964 -1.9877 -2.1240
 3683SOL    HW222509   2.544   0.291   1.802  1.5109  2.2180 -1.9205
 3684SOL     OW22510   1.868   4.595   3.788 -0.2310 -0.1494 -0.1830
 3684SOL    HW122511   1.775   4.588   3.768 -0.2367 -1.0240  0.1757
 3684SOL    HW222512   1.910   4.587   3.702 -0.1700  1.6380 -0.3117
 3685SOL     OW22513   2.873   2.683   8.318  0.5574  0.2289 -0.1003
 3685SOL    HW122514   2.778   2.674   8.312  0.5009  0.2355  0.8705
 3685SOL    HW222515   2.894   2.629   8.394 -1.3388 -0.3348  0.0305
 3686SOL     OW22516   3.793   3.477   4.598  0.1405 -0.1953  0.3488
 3686SOL    HW122517   3.787   3.554   4.656 -0.9093 -2.0583  2.7190
 3686SOL    HW222518   3.735   3.508   4.528  1.4447 -0.4826 -0.8545
 3687SOL     OW22519   3.482   1.021   8.615  0.1842 -0.4288 -0.2975
 3687SOL    HW122520   3.497   0.964   8.691  2.8154 -0.0131 -0.4994
 3687SOL    HW222521   3.400   1.064   8.639  1.0606  0.7553  0.5985
 3688SOL     OW22522   1.405   4.554  10.838 -0.3185 -0.1181  0.0514
 3688SOL    HW122523   1.477   4.581  10.896  0.0222 -2.4847  0.7196
 3688SOL    HW222524   1.454   4.536  10.758  0.9978  1.5341  0.4837
 3689SOL     OW22525   2.179   3.920   3.763  0.3014 -0.4369  0.1500
 3689SOL    HW122526   2.148   3.879   3.843  1.8356 -2.4707 -0.2991
 3689SOL    HW222527   2.204   3.841   3.714  0.1633  0.3705 -1.2426
 3690SOL     OW22528   1.433   4.013   8.608 -0.7055 -0.0941  0.2481
 3690SOL    HW122529   1.384   3.954   8.550 -1.3411  0.3437  0.3410
 3690SOL    HW222530   1.372   4.068   8.656 -2.8397 -2.1486 -0.0857
 3691SOL     OW22531   0.636   3.098   1.687  0.0764  0.7101 -0.2051
 3691SOL    HW122532   0.565   3.036   1.673 -0.7447  1.7227 -0.4705
 3691SOL    HW222533   0.652   3.090   1.781  1.7774 -1.3817 -0.6563
 3692SOL     OW22534   1.577   1.977  10.105 -0.2223 -0.0508  0.0966
 3692SOL    HW122535   1.566   1.908  10.170  0.5727  1.0058  1.3547
 3692SOL    HW222536   1.669   1.996  10.121 -0.2988  0.8690 -0.4852
 3693SOL     OW22537   2.565   4.355   4.836  0.4118 -0.3801  0.8508
 3693SOL    HW122538   2.595   4.278   4.787 -3.4498  0.0956 -2.2415
 3693SOL    HW222539   2.624   4.351   4.912  0.8052  2.4788  0.6690
 3694SOL     OW22540   4.184   1.179   7.517  0.0949  0.2765  0.9292
 3694SOL    HW122541   4.259   1.124   7.537  0.5929  0.1498 -1.2950
 3694SOL    HW222542   4.112   1.116   7.510 -0.4050  0.8742  0.6703
 3695SOL     OW22543   2.730   3.405   3.587  0.4891 -0.9045 -0.5561
 3695SOL    HW122544   2.823   3.404   3.565  1.0521  0.1144  1.7318
 3695SOL    HW222545   2.686   3.429   3.506 -1.7100 -1.1519  0.5739
 3696SOL     OW22546   1.942   1.251  17.484 -0.3810 -0.0530 -0.0754
 3696SOL    HW122547   1.850   1.277  17.491  0.0213  1.0430  1.2355
 3696SOL    HW222548   1.941   1.206  17.400  0.6815 -1.5617  0.7158
 3697SOL     OW22549   0.388   4.564  13.689  0.7120  0.6709  0.2248
 3697SOL    HW122550   0.338   4.550  13.769  0.6104  0.7394  0.1735
 3697SOL    HW222551   0.466   4.512  13.709  0.1615 -0.4451 -0.5411
 3698SOL     OW22552   2.098   2.327   0.999  0.5293 -0.0207 -0.3543
 3698SOL    HW122553   2.116   2.333   1.093 -0.1988 -2.3719 -0.0631
 3698SOL    HW222554   2.020   2.382   0.987  1.9286  2.1587  0.5402
 3699SOL     OW22555   1.166   3.676   3.289 -0.5679 -0.0104  0.6811
 3699SOL    HW122556   1.203   3.591   3.264  1.2512  0.3226  2.2519
 3699SOL    HW222557   1.107   3.644   3.357  0.3709  0.7689  1.8348
 3700SOL     OW22558   4.688   3.024   1.939  0.2491 -0.2248  0.9440
 3700SOL    HW122559   4.674   3.074   2.020 -2.6339  0.1077  0.2507
 3700SOL    HW222560   4.596   3.009   1.916  0.8275 -1.1199 -0.7373
 3701SOL     OW22561   2.579   4.594   5.031  0.0264 -0.0903 -0.3404
 3701SOL    HW122562   2.517   4.526   5.007  2.1380 -2.1314 -0.0915
 3701SOL    HW222563   2.588   4.582   5.126  1.7461  1.3216 -0.3154
 3702SOL     OW22564   3.710   2.587   0.014 -0.0338  0.4990  0.1959
 3702SOL    HW122565   3.776   2.521   0.037 -1.0434  0.0124  1.7070
 3702SOL    HW222566   3.684   2.616   0.101 -0.1846  0.2033  0.2515
 3703SOL     OW22567   3.692   4.247   4.774  0.0487 -0.0195 -0.3230
 3703SOL    HW122568   3.605   4.209   4.786  0.5980 -0.1891  3.2291
 3703SOL    HW222569   3.741   4.166   4.789 -0.1333  0.3781  2.4670
 3704SOL     OW22570   2.030   0.491   3.364  0.2663 -0.0613 -0.8174
 3704SOL    HW122571   1.998   0.554   3.300 -0.8251 -0.6484 -0.8575
 3704SOL    HW222572   2.100   0.449   3.315  0.3905  1.2669 -1.7753
 3705SOL     OW22573   2.764   0.656   3.079 -0.2351 -0.0581  0.4679
 3705SOL    HW122574   2.777   0.686   2.989  0.5464 -0.2626  0.5161
 3705SOL    HW222575   2.697   0.716   3.114  1.2145  0.6488  2.0574
 3706SOL     OW22576   1.745   1.644   1.747  0.1286  0.2105  0.2084
 3706SOL    HW122577   1.693   1.717   1.713  0.2374  0.0542 -0.2921
 3706SOL    HW222578   1.771   1.679   1.832 -0.3226 -0.6792  0.7193
 3707SOL     OW22579   2.289   1.944  17.284  0.2250  0.3469 -0.6231
 3707SOL    HW122580   2.254   1.946  17.373  2.6183  2.5661  0.2983
 3707SOL    HW222581   2.290   2.037  17.262  3.1406  0.3462 -0.4533
 3708SOL     OW22582   0.525   1.485   6.403 -0.3998 -0.3943 -0.1730
 3708SOL    HW122583   0.513   1.463   6.495 -0.7370  0.8603  0.0874
 3708SOL    HW222584   0.619   1.470   6.393 -0.4648 -0.4503 -0.7285
 3709SOL     OW22585   3.720   4.007  11.763 -0.8273 -0.4078  0.3995
 3709SOL    HW122586   3.729   4.089  11.812  1.9214  1.4234 -3.1620
 3709SOL    HW222587   3.806   3.965  11.761 -0.2982  0.7074 -0.4558
 3710SOL     OW22588   2.493   1.758   6.833 -0.2368 -0.4911  0.0054
 3710SOL    HW122589   2.422   1.804   6.788 -0.4499 -0.1091  0.7297
 3710SOL    HW222590   2.518   1.831   6.889  1.2534 -1.0104  0.0064
 3711SOL     OW22591   3.223   3.046   1.905 -0.3019  0.6454 -0.3481
 3711SOL    HW122592   3.134   3.061   1.876 -1.3122  1.2409  3.0806
 3711SOL    HW222593   3.228   2.951   1.920  1.3190  0.6720 -0.6232
 3712SOL     OW22594   0.111   4.489   7.644 -0.1237  0.1417  0.0902
 3712SOL    HW122595   0.204   4.492   7.667 -0.0348  1.2797 -0.4018
 3712SOL    HW222596   0.086   4.404   7.679  1.3641 -1.2649 -2.3183
 3713SOL     OW22597   0.676   4.282   6.116  0.2467 -0.1119 -0.3093
 3713SOL    HW122598   0.731   4.230   6.057 -0.7487 -1.0432 -0.3972
 3713SOL    HW222599   0.596   4.275   6.064  0.4499 -2.2812 -0.3384
 3714SOL     OW22600   3.801   4.155   6.352  0.2068  0.1841  0.0416
 3714SOL    HW122601   3.854   4.189   6.425  0.3511  1.7278 -0.7900
 3714SOL    HW222602   3.808   4.219   6.281  1.0891 -0.3499 -0.3439
 3715SOL     OW22603   1.179   3.338  17.065  0.8630 -0.0381  0.3181
 3715SOL    HW122604   1.171   3.433  17.077 -0.0605 -0.1160  0.2991
 3715SOL    HW222605   1.123   3.314  17.138  0.8897 -3.0056 -0.6416
 3716SOL     OW22606   1.139   2.886   2.568  0.5094 -0.4326 -0.1500
 3716SOL    HW122607   1.199   2.812   2.569  3.5014  2.0248 -0.2867
 3716SOL    HW222608   1.149   2.916   2.658 -2.7175  0.2716 -0.0238
 3717SOL     OW22609   3.188   4.568   4.562  0.5354  0.3991  0.8886
 3717SOL    HW122610   3.149   4.566   4.474  1.9664  0.4138  0.2516
 3717SOL    HW222611   3.116   4.543   4.619  0.4070 -2.5327 -0.5471
 3718SOL     OW22612   2.326   0.541  14.610 -0.2118  0.4669  0.0896
 3718SOL    HW122613   2.291   0.476  14.550  0.3352 -0.6766  1.0176
 3718SOL    HW222614   2.344   0.495  14.693 -0.2458  2.0400  0.9705
 3719SOL     OW22615   4.100   0.870   8.495  0.0636 -0.0097  0.2495
 3719SOL    HW122616   4.095   0.791   8.549  2.7902 -0.4069 -0.0790
 3719SOL    HW222617   4.044   0.838   8.424 -0.2432 -0.9086  0.8876
 3720SOL     OW22618   3.846   4.415   2.713 -0.2524 -0.1193  0.6586
 3720SOL    HW122619   3.895   4.497   2.724 -2.6386  1.4804 -0.6892
 3720SOL    HW222620   3.764   4.453   2.743 -0.3008 -0.1132  0.5178
 3721SOL     OW22621   3.745   0.264  10.868  0.1433 -0.0620 -0.1604
 3721SOL    HW122622   3.761   0.228  10.955  0.6436  1.8658  0.5505
 3721SOL    HW222623   3.784   0.350  10.883  1.5833 -0.6088 -0.7748
 3722SOL     OW22624   0.782   1.274   3.659  0.4507  0.4359 -0.3305
 3722SOL    HW122625   0.733   1.330   3.719  1.3998 -0.5201  1.3638
 3722SOL    HW222626   0.720   1.201   3.663 -1.2584  1.9240 -0.3451
 3723SOL     OW22627   3.928   2.540   7.496  0.0412  0.0789  0.1292
 3723SOL    HW122628   3.985   2.463   7.489  1.4601  1.2579 -1.4578
 3723SOL    HW222629   3.957   2.584   7.416  2.2667 -0.1929  0.7734
 3724SOL     OW22630   3.857   0.458   9.722  0.1245 -0.2894  0.0267
 3724SOL    HW122631   3.916   0.407   9.776 -0.2529 -2.4524 -1.6216
 3724SOL    HW222632   3.925   0.520   9.697  0.6896 -1.4165 -1.1902
 3725SOL     OW22633   3.806   3.146   2.770 -0.4673 -0.7243  0.0781
 3725SOL    HW122634   3.891   3.183   2.794  0.1826 -1.0226 -1.7579
 3725SOL    HW222635   3.830   3.069   2.718 -2.4505 -0.6790 -0.8826
 3726SOL     OW22636   4.450   4.061   6.335  0.0179  0.2868  0.0663
 3726SOL    HW122637   4.376   4.007   6.306  0.0991 -0.6937  1.6782
 3726SOL    HW222638   4.412   4.145   6.310 -2.3423  0.0795  2.8354
 3727SOL     OW22639   2.941   1.279  11.562  0.3061  0.3546 -0.0446
 3727SOL    HW122640   2.940   1.351  11.499  2.7486 -0.2670 -0.8123
 3727SOL    HW222641   2.930   1.202  11.506 -0.1453  0.0745  0.4228
 3728SOL     OW22642   2.602   4.167  16.756  0.0692 -0.3021 -0.7089
 3728SOL    HW122643   2.658   4.100  16.716 -1.1569 -0.4759 -2.0928
 3728SOL    HW222644   2.606   4.241  16.696  2.2580  0.1223 -0.0659
 3729SOL     OW22645   4.528   3.510   6.761  0.6313 -0.0516  0.5956
 3729SOL    HW122646   4.453   3.484   6.815 -0.4693 -0.4032 -1.1341
 3729SOL    HW222647   4.505   3.471   6.677 -0.4295 -1.3144  1.4556
 3730SOL     OW22648   1.592   1.685  12.128 -0.7965  0.2543  0.1290
 3730SOL    HW122649   1.648   1.733  12.066  0.4103  0.1460  1.1406
 3730SOL    HW222650   1.620   1.594  12.119  1.4441  0.6712  2.9886
 3731SOL     OW22651   4.035   0.671   5.644 -0.6235  0.2643 -0.4650
 3731SOL    HW122652   3.942   0.656   5.627  0.0218 -0.7274 -3.1159
 3731SOL    HW222653   4.066   0.700   5.559  1.6803  0.7788  0.5586
 3732SOL     OW22654   3.582   1.407   9.674  0.4054 -0.0183  0.7230
 3732SOL    HW122655   3.603   1.375   9.762 -0.0085  1.3917  1.3284
 3732SOL    HW222656   3.668   1.414   9.631 -0.2072 -0.6733 -0.5868
 3733SOL     OW22657   0.798   2.401   7.239  0.5718  0.0643 -0.1524
 3733SOL    HW122658   0.856   2.460   7.190  1.2361 -0.9262 -0.5639
 3733SOL    HW222659   0.715   2.439   7.212 -0.2130 -1.5335  0.0096
 3734SOL     OW22660   4.374   3.063   8.557  0.3686 -0.4864 -0.6469
 3734SOL    HW122661   4.349   3.047   8.648  0.0812  0.6135 -0.5380
 3734SOL    HW222662   4.416   2.984   8.523  1.8980  0.4419 -0.9622
 3735SOL     OW22663   1.020   1.505   8.126 -0.0454  0.1861 -0.1243
 3735SOL    HW122664   1.079   1.556   8.070 -0.2337  1.6984  1.0792
 3735SOL    HW222665   0.933   1.544   8.115 -0.2707 -0.5437 -0.9679
 3736SOL     OW22666   2.777   3.858   0.668 -0.1417 -0.1082 -0.5517
 3736SOL    HW122667   2.793   3.923   0.736  0.9227 -1.6513  0.6666
 3736SOL    HW222668   2.863   3.852   0.626  0.0033 -0.5097 -0.1951
 3737SOL     OW22669   3.983   1.488   5.588  0.0905 -0.0995 -0.1214
 3737SOL    HW122670   3.917   1.558   5.588  0.2311  0.0407  1.4148
 3737SOL    HW222671   3.991   1.496   5.493  0.0634  0.9884 -0.0418
 3738SOL     OW22672   1.002   0.973   3.577  0.2338  0.7062  0.3010
 3738SOL    HW122673   1.038   0.887   3.554  3.0175  1.8752  0.2145
 3738SOL    HW222674   0.975   0.960   3.668  1.3449  0.8005  0.6523
 3739SOL     OW22675   3.298   0.150  15.979 -0.2413 -0.1973 -0.0238
 3739SOL    HW122676   3.229   0.187  15.924  1.4168  1.5666 -0.9329
 3739SOL    HW222677   3.372   0.210  15.966  1.6977 -2.8238 -1.0301
 3740SOL     OW22678   0.239   3.841   8.471  0.2522  0.2596 -0.1646
 3740SOL    HW122679   0.156   3.850   8.518 -0.0993  1.0309 -0.9301
 3740SOL    HW222680   0.221   3.776   8.403 -1.6390  0.8183 -0.2027
 3741SOL     OW22681   1.120   0.696   0.723 -0.0629  0.3714  0.0898
 3741SOL    HW122682   1.028   0.694   0.696  0.0091  1.6454 -0.2433
 3741SOL    HW222683   1.119   0.780   0.768  1.2853  0.1661  0.4921
 3742SOL     OW22684   1.033   4.689  10.368  0.2583  1.0492 -0.1908
 3742SOL    HW122685   0.991   4.619  10.418  1.1399 -1.1854 -2.5903
 3742SOL    HW222686   0.959   0.001  10.319 -1.6371 -2.1186  0.3891
 3743SOL     OW22687   3.841   3.888   0.922  0.2223  0.6726  0.5164
 3743SOL    HW122688   3.832   3.891   0.827  0.1050  1.0996  0.5397
 3743SOL    HW222689   3.787   3.813   0.944  1.1930 -0.1435  0.1013
 3744SOL     OW22690   2.124   0.203   4.919  0.5329  0.6461 -0.5692
 3744SOL    HW122691   2.046   0.217   4.865 -0.6760  0.4865  1.1464
 3744SOL    HW222692   2.163   0.130   4.870  1.0083  0.6282 -0.1621
 3745SOL     OW22693   4.198   1.296   3.657 -0.2270 -0.1506 -0.1223
 3745SOL    HW122694   4.120   1.337   3.619  0.7196  1.7834 -0.0084
 3745SOL    HW222695   4.163   1.259   3.738 -0.3377 -1.7894 -0.9194
 3746SOL     OW22696   3.393   1.766   7.986 -0.4059  0.3499 -0.4489
 3746SOL    HW122697   3.332   1.791   8.054 -0.0606  0.3934 -0.1543
 3746SOL    HW222698   3.367   1.677   7.963 -0.7895  0.2600  0.3342
 3747SOL     OW22699   3.645   2.169  11.445  0.1165 -0.2907 -0.1910
 3747SOL    HW122700   3.716   2.143  11.504 -1.1943 -1.7735  0.7229
 3747SOL    HW222701   3.687   2.148  11.362 -1.3636  0.2928 -1.0861
 3748SOL     OW22702   2.320   4.414   1.270 -0.2495 -0.3826 -0.2289
 3748SOL    HW122703   2.322   4.505   1.299 -0.9507 -1.0425  1.9290
 3748SOL    HW222704   2.410   4.398   1.241 -0.0869 -0.6854  0.4327
 3749SOL     OW22705   0.798   4.689   8.391  0.4141  0.5797  0.4228
 3749SOL    HW122706   0.870   4.634   8.423  1.7239  1.4640 -0.9922
 3749SOL    HW222707   0.756   4.697   8.477 -0.0449 -0.3928  0.2839
 3750SOL     OW22708   0.087   4.460   3.039  0.2444  0.1472  0.1189
 3750SOL    HW122709   0.030   4.418   2.975  1.9624 -1.3340 -0.4461
 3750SOL    HW222710   0.148   4.513   2.988  1.2849 -0.6587  0.5179
 3751SOL     OW22711   3.606   2.506   4.305 -0.2996 -0.1064  0.7611
 3751SOL    HW122712   3.663   2.527   4.231 -0.2441 -0.3635  0.7315
 3751SOL    HW222713   3.657   2.557   4.368  0.1085 -0.8237  1.0200
 3752SOL     OW22714   0.141   3.588   2.730 -0.2559  0.5457 -0.1838
 3752SOL    HW122715   0.195   3.542   2.795 -0.5378 -1.7360 -1.5684
 3752SOL    HW222716   0.179   3.676   2.725  0.2040  0.2994 -0.9748
 3753SOL     OW22717   2.372   2.059  12.936  0.4156 -0.2145  0.3651
 3753SOL    HW122718   2.445   2.089  12.882 -0.4419 -1.6902 -1.6308
 3753SOL    HW222719   2.360   1.973  12.896  1.1243 -0.0759 -0.1343
 3754SOL     OW22720   1.621   0.498   8.191  0.3431  0.0393 -0.5371
 3754SOL    HW122721   1.696   0.445   8.217  1.2796  2.3165  1.3998
 3754SOL    HW222722   1.568   0.494   8.271  1.1964 -0.7024 -0.0135
 3755SOL     OW22723   0.682   2.115   9.206  0.0512 -0.4121 -0.1698
 3755SOL    HW122724   0.777   2.103   9.210  0.1330 -0.6982 -3.0602
 3755SOL    HW222725   0.680   2.176   9.132  0.1823 -0.4391 -0.1961
 3756SOL     OW22726   3.286   3.562   4.577 -0.1453 -0.1001  0.0947
 3756SOL    HW122727   3.223   3.565   4.505 -0.7473  2.4903  0.7193
 3756SOL    HW222728   3.292   3.647   4.620  0.8056 -0.0999 -0.0346
 3757SOL     OW22729   2.313   4.700   2.799  0.3118 -0.5103 -0.5498
 3757SOL    HW122730   2.298   4.696   2.704  2.7862  2.5719 -1.0993
 3757SOL    HW222731   2.293   4.610   2.824  1.9217 -0.7229  0.0055
 3758SOL     OW22732   3.329   4.637   4.958  0.2710  0.2713  0.1246
 3758SOL    HW122733   3.270   4.569   4.989 -0.7316  0.4097 -1.4571
 3758SOL    HW222734   3.414   4.592   4.962  0.9844  1.4947 -1.0275
 3759SOL     OW22735   4.112   2.348   4.591 -0.3517 -0.1515  0.1675
 3759SOL    HW122736   4.124   2.319   4.501 -0.6990  0.5173 -0.0992
 3759SOL    HW222737   4.097   2.441   4.574 -0.0527 -0.0100  0.6966
 3760SOL     OW22738   4.322   0.399  12.058 -0.1140  0.0988 -0.1798
 3760SOL    HW122739   4.409   0.431  12.037 -1.1780  3.0787 -0.1116
 3760SOL    HW222740   4.349   0.322  12.108  1.1807  1.6372  1.4932
 3761SOL     OW22741   0.680   1.884   7.273  0.1071 -0.2992  0.0607
 3761SOL    HW122742   0.684   1.975   7.245 -1.5147 -1.2562 -3.3017
 3761SOL    HW222743   0.731   1.884   7.354 -2.0818 -0.4717  1.4292
 3762SOL     OW22744   3.913   4.701   7.963  0.5007  0.4597 -0.1860
 3762SOL    HW122745   3.824   0.012   7.964  0.1487 -0.4196 -1.9080
 3762SOL    HW222746   3.897   4.622   7.912  1.6059  0.1384 -0.0471
 3763SOL     OW22747   0.228   1.652   5.453 -0.4519  0.7744  0.3585
 3763SOL    HW122748   0.186   1.734   5.480 -4.0012 -1.1886  0.8745
 3763SOL    HW222749   0.208   1.654   5.360  0.2418  0.0600  0.1931
 3764SOL     OW22750   2.853   1.620   9.163  0.3925 -0.1700 -0.2142
 3764SOL    HW122751   2.892   1.576   9.088  0.9887  1.9333 -1.1353
 3764SOL    HW222752   2.851   1.710   9.131  1.5025 -0.6726 -1.6974
 3765SOL     OW22753   3.406   2.190   0.881  0.1445 -0.2507 -0.2635
 3765SOL    HW122754   3.357   2.264   0.916 -0.5785 -0.0479 -1.7088
 3765SOL    HW222755   3.461   2.231   0.815 -1.1634 -0.7306 -1.6753
 3766SOL     OW22756   1.458   1.499  17.526  0.1977  0.2682  0.6152
 3766SOL    HW122757   1.533   1.554  17.503  0.9063 -0.3826  1.3663
 3766SOL    HW222758   1.405   1.561  17.576  0.6328  1.4476 -0.3953
 3767SOL     OW22759   4.532   3.670   6.491  0.2183  0.0271 -0.1660
 3767SOL    HW122760   4.627   3.666   6.488  0.2414  0.7597 -0.4701
 3767SOL    HW222761   4.502   3.579   6.491 -0.1619  0.1492 -1.6017
 3768SOL     OW22762   3.624   0.530   7.859  0.4475 -0.0639 -0.0272
 3768SOL    HW122763   3.651   0.608   7.908  0.7715  0.9666 -1.8728
 3768SOL    HW222764   3.536   0.521   7.897  0.0825  2.0141 -0.3897
 3769SOL     OW22765   1.413   1.607   1.796  0.2928  0.3369 -0.4123
 3769SOL    HW122766   1.381   1.600   1.886 -2.0015 -1.1720 -1.3639
 3769SOL    HW222767   1.493   1.660   1.805  1.8630 -1.7385 -2.2070
 3770SOL     OW22768   2.390   0.829   4.110 -0.1075 -0.0054  0.5820
 3770SOL    HW122769   2.326   0.774   4.064  0.8551 -1.9203  1.5227
 3770SOL    HW222770   2.438   0.863   4.034 -0.9844 -0.9644 -0.4016
 3771SOL     OW22771   2.631   3.855   0.965  0.1374  0.2615  0.5914
 3771SOL    HW122772   2.663   3.784   1.021  2.4250  1.7645  1.2038
 3771SOL    HW222773   2.713   3.877   0.922 -0.0289 -0.5763 -0.1477
 3772SOL     OW22774   2.979   4.270   3.919 -0.7102 -0.3214 -0.4271
 3772SOL    HW122775   2.952   4.179   3.908 -4.5159  0.8425 -1.0491
 3772SOL    HW222776   3.026   4.284   3.837 -0.5430  1.7204  0.0198
 3773SOL     OW22777   1.850   0.332   0.771  0.4445 -0.5635  0.3078
 3773SOL    HW122778   1.810   0.274   0.706  0.2502 -0.8945  0.7166
 3773SOL    HW222779   1.861   0.267   0.841  0.1378  2.6313  3.2997
 3774SOL     OW22780   2.906   2.075   3.797 -0.0368 -0.2251 -0.4378
 3774SOL    HW122781   2.988   2.116   3.768 -0.7472  0.7774 -1.0183
 3774SOL    HW222782   2.904   1.996   3.743  0.5076 -1.0546  0.7324
 3775SOL     OW22783   0.985   0.062   6.313  0.0807 -0.2740  0.3626
 3775SOL    HW122784   0.906   0.016   6.340 -0.4495  0.1920 -0.4121
 3775SOL    HW222785   0.954   0.133   6.257  1.9865 -2.2512 -3.1635
 3776SOL     OW22786   0.227   0.707   3.545 -0.0785 -0.5287 -0.3554
 3776SOL    HW122787   0.281   0.785   3.535 -1.2663  0.2945 -0.3850
 3776SOL    HW222788   0.208   0.730   3.636 -0.2000  0.0291 -0.5208
 3777SOL     OW22789   4.003   3.978   2.199 -0.9481 -0.4837  0.3184
 3777SOL    HW122790   3.964   3.972   2.286  2.2416 -0.7487  1.7547
 3777SOL    HW222791   3.947   4.042   2.156 -1.2604  0.1270  1.6471
 3778SOL     OW22792   0.230   4.469   4.636  0.4200  0.3879  0.0226
 3778SOL    HW122793   0.198   4.499   4.721  0.1580 -2.5030  0.9439
 3778SOL    HW222794   0.324   4.483   4.647  0.7091 -0.3923 -1.4716
 3779SOL     OW22795   0.319   3.460   2.988  0.3102  0.0497 -0.0285
 3779SOL    HW122796   0.385   3.485   3.053 -1.4449  1.4884  1.1976
 3779SOL    HW222797   0.243   3.471   3.046  0.8156  1.5470  0.3573
 3780SOL     OW22798   1.240   1.951   8.570 -0.2308  0.2577 -0.8515
 3780SOL    HW122799   1.236   2.044   8.590  0.6057  0.2001 -0.4181
 3780SOL    HW222800   1.320   1.927   8.617 -0.6926 -2.1296 -1.2526
 3781SOL     OW22801   0.741   1.583   4.971 -0.3575 -0.3344  0.5124
 3781SOL    HW122802   0.780   1.498   4.950 -0.1229 -0.1996  0.4042
 3781SOL    HW222803   0.749   1.576   5.066 -0.5126  3.3727  0.7619
 3782SOL     OW22804   3.028   4.322   4.870 -1.0825 -0.0461 -0.3427
 3782SOL    HW122805   3.079   4.311   4.789 -0.7841  0.2677 -0.2001
 3782SOL    HW222806   3.093   4.343   4.937  0.8402  0.5925 -2.3845
 3783SOL     OW22807   2.907   3.503   3.885  0.4895 -0.2621 -0.0993
 3783SOL    HW122808   2.824   3.458   3.901 -1.2956  1.6619 -3.8139
 3783SOL    HW222809   2.969   3.475   3.952  0.0955  0.7573  0.6729
 3784SOL     OW22810   1.135   3.201   3.743  0.0326  0.5303  0.0820
 3784SOL    HW122811   1.165   3.157   3.664 -2.8591 -2.6757  0.7875
 3784SOL    HW222812   1.121   3.290   3.712 -1.3838 -0.0929 -1.0955
 3785SOL     OW22813   4.468   2.564   4.960  0.3322  0.3574 -0.1110
 3785SOL    HW122814   4.472   2.527   4.872  0.6077 -0.0067  0.0539
 3785SOL    HW222815   4.488   2.490   5.017  1.2881  0.1124 -0.7741
 3786SOL     OW22816   1.904   2.422   4.618 -0.0080  0.1127 -0.1294
 3786SOL    HW122817   1.851   2.405   4.540  0.4366  1.7554 -0.7951
 3786SOL    HW222818   1.887   2.347   4.675  0.4747  0.5553  0.5951
 3787SOL     OW22819   2.891   3.505  15.172 -0.0769  0.2865 -0.8077
 3787SOL    HW122820   2.915   3.424  15.128  0.3430 -0.9542  1.7170
 3787SOL    HW222821   2.796   3.513  15.163 -0.2005 -2.7201 -1.9381
 3788SOL     OW22822   1.228   2.526   1.115  0.3727 -0.0520  0.5314
 3788SOL    HW122823   1.199   2.556   1.202  0.9311 -0.2394  0.7790
 3788SOL    HW222824   1.206   2.608   1.072 -1.4714 -0.4120  0.7573
 3789SOL     OW22825   4.480   4.595  14.142 -0.3967  0.2079  0.2532
 3789SOL    HW122826   4.493   4.594  14.047  2.3915  1.5678  0.6270
 3789SOL    HW222827   4.558   4.541  14.157 -0.9760 -1.1523 -1.6276
 3790SOL     OW22828   0.969   4.708   4.230  0.4872 -0.2667 -0.3345
 3790SOL    HW122829   0.954   4.647   4.158  0.7538  2.4734 -2.6789
 3790SOL    HW222830   0.891   4.676   4.276  0.2118  0.6491 -0.1580
 3791SOL     OW22831   1.170   0.521   8.739  0.7883  0.1350  0.3054
 3791SOL    HW122832   1.249   0.490   8.784  0.1939  2.3277  2.8342
 3791SOL    HW222833   1.220   0.583   8.686 -0.0265  1.9813  1.7080
 3792SOL     OW22834   1.115   0.254  17.257 -0.0545  0.3316  0.2090
 3792SOL    HW122835   1.135   0.161  17.252  1.0229  0.5028  1.1569
 3792SOL    HW222836   1.180   0.296  17.200 -0.3228  2.7393  1.6383
 3793SOL     OW22837   3.039   0.046   8.721  0.2256 -0.1243 -0.4061
 3793SOL    HW122838   3.029   4.678   8.745 -1.5006  0.2679  0.3803
 3793SOL    HW222839   3.134   0.052   8.709  0.4598 -1.0943  0.9737
 3794SOL     OW22840   4.714   3.705   6.875 -0.0966  0.2389 -0.0032
 3794SOL    HW122841   0.067   3.724   6.821  0.3373  3.4385  1.6988
 3794SOL    HW222842   4.654   3.655   6.821  0.7001 -0.4685 -0.2391
 3795SOL     OW22843   3.386   1.654   4.332  0.4844  0.0582  0.2766
 3795SOL    HW122844   3.383   1.677   4.425 -0.7713  0.9333  0.0281
 3795SOL    HW222845   3.412   1.738   4.294 -1.6044  0.0164 -1.2520
 3796SOL     OW22846   1.550   1.462   5.654  0.1148 -0.6906 -0.1431
 3796SOL    HW122847   1.459   1.431   5.650 -0.4117  0.5864  2.1038
 3796SOL    HW222848   1.585   1.386   5.701 -0.5714 -1.2322 -0.4952
 3797SOL     OW22849   0.515   4.371   2.407 -0.4092 -0.1181 -0.0807
 3797SOL    HW122850   0.429   4.329   2.406  0.2999 -1.6055  1.7040
 3797SOL    HW222851   0.570   4.300   2.439 -1.4268 -1.3136 -0.9459
 3798SOL     OW22852   0.122   0.309  17.416 -0.5742  0.3538 -0.3031
 3798SOL    HW122853   0.043   0.259  17.393  1.3073 -2.1238 -1.3828
 3798SOL    HW222854   0.100   0.397  17.385 -1.8255  0.3490  0.6091
 3799SOL     OW22855   1.578   2.129   4.462  0.7539 -0.4809 -0.0783
 3799SOL    HW122856   1.602   2.057   4.403 -2.6503 -0.0636 -1.9418
 3799SOL    HW222857   1.593   2.085   4.546 -0.3046 -1.2215 -0.2819
 3800SOL     OW22858   1.338   2.775   7.825  0.6173  0.4234 -0.3399
 3800SOL    HW122859   1.394   2.794   7.901 -1.2433 -0.2890  1.2123
 3800SOL    HW222860   1.286   2.706   7.867  0.7552 -0.3449 -1.4335
 3801SOL     OW22861   1.464   1.205   9.587 -0.1347 -0.3695  0.1169
 3801SOL    HW122862   1.543   1.252   9.614  0.0222  0.5675 -1.9846
 3801SOL    HW222863   1.392   1.259   9.621  0.5604 -0.4605  1.7445
 3802SOL     OW22864   2.734   2.775  17.598 -0.5916 -0.8492 -0.0414
 3802SOL    HW122865   2.811   2.818  17.561 -0.6760  0.7756  1.6412
 3802SOL    HW222866   2.785   2.716  17.654  0.3970 -0.2210 -0.2644
 3803SOL     OW22867   1.819   0.899   6.953  0.5896  0.4627  0.2126
 3803SOL    HW122868   1.771   0.965   6.902  0.5156 -1.0344 -1.6510
 3803SOL    HW222869   1.741   0.854   6.984  0.9801 -0.2115  0.2136
 3804SOL     OW22870   3.817   2.509   1.670  0.1494 -0.4861  0.0517
 3804SOL    HW122871   3.831   2.496   1.764  0.5691 -0.2820  0.0181
 3804SOL    HW222872   3.787   2.421   1.650  1.2006 -1.4469  2.6961
 3805SOL     OW22873   0.304   1.803   3.974 -0.5077  0.0651  0.2121
 3805SOL    HW122874   0.388   1.755   3.969  1.1547  3.0968 -0.9577
 3805SOL    HW222875   0.337   1.893   3.975  0.1533 -0.1840  1.1670
 3806SOL     OW22876   2.808   2.520   0.990  0.2050 -0.0859 -0.5596
 3806SOL    HW122877   2.826   2.430   0.965 -2.0225 -0.7150  0.1026
 3806SOL    HW222878   2.738   2.539   0.928 -1.8995  0.1999  1.9226
 3807SOL     OW22879   1.318   0.466   7.780 -0.8468  0.2304  0.2800
 3807SOL    HW122880   1.394   0.432   7.827 -1.3575 -0.7698  0.3668
 3807SOL    HW222881   1.248   0.407   7.806 -1.6794  0.2823 -1.8472
 3808SOL     OW22882   2.084   1.024   6.865  0.0016 -0.3203  0.3804
 3808SOL    HW122883   2.032   0.996   6.941 -0.8194 -1.2508 -0.5243
 3808SOL    HW222884   2.068   0.946   6.813  1.1951  0.8165 -1.6584
 3809SOL     OW22885   4.617   0.814   4.879 -0.0350  0.2012 -0.3772
 3809SOL    HW122886   4.593   0.816   4.972 -0.8983 -0.2571 -0.5879
 3809SOL    HW222887   4.693   0.760   4.898 -1.1006 -0.1468  2.8607
 3810SOL     OW22888   1.067   1.194   0.307 -0.0775  0.3886  0.3727
 3810SOL    HW122889   1.158   1.199   0.278 -0.7503 -1.0556 -1.9811
 3810SOL    HW222890   1.074   1.176   0.400 -3.2724  0.4251  0.6261
 3811SOL     OW22891   4.628   1.755   4.981  0.5139 -0.0528 -0.0799
 3811SOL    HW122892   4.534   1.768   4.971  0.3444 -0.3099  1.1186
 3811SOL    HW222893   4.629   1.662   4.957  1.1457 -0.3581  1.1154
 3812SOL     OW22894   2.107   1.374  14.634  0.1061 -0.6249 -0.2236
 3812SOL    HW122895   2.045   1.302  14.619 -0.3926 -0.0830 -0.7652
 3812SOL    HW222896   2.078   1.425  14.709  1.5938 -2.0723  1.3577
 3813SOL     OW22897   1.839   3.654   3.026 -0.1908 -0.1696  0.3711
 3813SOL    HW122898   1.815   3.637   2.935 -0.7093  0.3184  0.4131
 3813SOL    HW222899   1.758   3.651   3.077 -0.0707  0.8144  0.6290
 3814SOL     OW22900   3.940   3.790  17.643  0.0359  0.6649  0.1141
 3814SOL    HW122901   3.896   3.713  17.680  0.6903  0.6865  0.9523
 3814SOL    HW222902   3.871   3.857  17.647 -2.1656 -1.6910  1.9189
 3815SOL     OW22903   0.594   2.955  15.110 -0.4108  0.4418  0.0881
 3815SOL    HW122904   0.651   3.002  15.171  1.7558  0.2726 -1.8074
 3815SOL    HW222905   0.567   3.030  15.058 -1.0712  0.1428  0.0028
 3816SOL     OW22906   4.291   3.731   3.326  0.7966  0.5102 -0.3140
 3816SOL    HW122907   4.280   3.823   3.351  1.0080  0.3409  0.3978
 3816SOL    HW222908   4.222   3.692   3.380  0.5015  0.6965 -0.5546
 3817SOL     OW22909   1.170   2.186   2.352 -0.4842 -0.2802  0.2383
 3817SOL    HW122910   1.199   2.194   2.261 -0.7147 -0.6146  0.1354
 3817SOL    HW222911   1.252   2.207   2.397 -0.7604  0.1180  0.5541
 3818SOL     OW22912   3.698   2.767   0.220 -1.1752 -0.1180 -0.0366
 3818SOL    HW122913   3.634   2.821   0.266 -1.6297 -0.4563 -0.2741
 3818SOL    HW222914   3.737   2.837   0.167 -0.0477 -1.5884 -1.1530
 3819SOL     OW22915   3.816   3.150   8.208  0.0690 -0.2416 -0.5569
 3819SOL    HW122916   3.855   3.085   8.149  2.5232  0.2697  0.5175
 3819SOL    HW222917   3.820   3.107   8.293 -1.5902 -0.4703 -0.5859
 3820SOL     OW22918   2.419   3.586   8.734 -0.1385  0.5352 -0.2523
 3820SOL    HW122919   2.401   3.557   8.823  1.5838 -2.8216 -1.0093
 3820SOL    HW222920   2.379   3.673   8.741 -1.1101 -0.3054  4.1580
 3821SOL     OW22921   0.432   2.007  10.666 -0.5864 -0.2448 -0.0535
 3821SOL    HW122922   0.526   2.024  10.672 -0.6272  0.6876 -1.9610
 3821SOL    HW222923   0.434   1.915  10.693  0.1204  0.2165  1.4668
 3822SOL     OW22924   3.958   3.105   2.324 -0.4869  0.3171 -0.2601
 3822SOL    HW122925   3.985   3.026   2.277 -1.2846 -0.5024  0.6472
 3822SOL    HW222926   4.026   3.162   2.289  0.4346  0.1789  1.3533
 3823SOL     OW22927   0.087   0.483   0.728  0.2061 -1.0162  0.0738
 3823SOL    HW122928   0.088   0.577   0.710  1.2980 -0.5575  2.5301
 3823SOL    HW222929   0.064   0.492   0.820  2.0656 -0.3071  0.4757
 3824SOL     OW22930   4.424   3.392   6.161  0.3390 -0.2249  0.7827
 3824SOL    HW122931   4.352   3.375   6.100  1.0024  2.3493 -0.7564
 3824SOL    HW222932   4.394   3.469   6.209  0.8381  1.6777 -1.9203
 3825SOL     OW22933   2.163   1.701   8.851 -0.7166 -0.0855 -0.2334
 3825SOL    HW122934   2.195   1.699   8.761  0.6300 -3.0521  0.3051
 3825SOL    HW222935   2.136   1.793   8.846  0.3671  0.2569  0.1437
 3826SOL     OW22936   1.145   0.395   3.026  0.2266  0.2436 -0.3952
 3826SOL    HW122937   1.110   0.370   3.111 -0.3097  4.4654  0.6161
 3826SOL    HW222938   1.067   0.412   2.973  1.0970  1.4924 -1.2792
 3827SOL     OW22939   3.210   3.349   0.644 -0.3948 -0.0013 -0.0812
 3827SOL    HW122940   3.278   3.405   0.607 -1.9590  0.7590 -1.8006
 3827SOL    HW222941   3.176   3.298   0.570  0.5283 -1.4075  0.4592
 3828SOL     OW22942   3.316   3.839  11.467 -0.0319 -0.4780  0.1198
 3828SOL    HW122943   3.377   3.893  11.517 -0.9749  2.0519 -1.4544
 3828SOL    HW222944   3.249   3.907  11.456  1.0467  0.5999  0.2229
 3829SOL     OW22945   2.717   2.898   6.218 -0.1860 -0.0577 -0.2275
 3829SOL    HW122946   2.805   2.860   6.223  0.1998  0.9697  0.7293
 3829SOL    HW222947   2.657   2.825   6.233  1.0915 -0.6670  1.9496
 3830SOL     OW22948   2.720   3.832   1.746  0.5860  0.0381  0.1036
 3830SOL    HW122949   2.775   3.896   1.791 -0.4663  0.4392  0.8324
 3830SOL    HW222950   2.689   3.878   1.668  2.0955 -0.3368 -0.7118
 3831SOL     OW22951   4.416   0.285   8.485 -0.1071 -0.1088  0.1444
 3831SOL    HW122952   4.474   0.214   8.457  0.8873  0.9191 -0.4139
 3831SOL    HW222953   4.374   0.249   8.562  0.5074  0.9051  0.9627
 3832SOL     OW22954   2.930   2.989  17.210 -0.1728  0.7624 -0.2608
 3832SOL    HW122955   2.868   3.035  17.268  0.8753  1.6576  0.1487
 3832SOL    HW222956   3.010   3.023  17.250 -0.9619  1.3023  0.8785
 3833SOL     OW22957   1.741   0.186   6.884 -0.0321 -0.1479  0.1662
 3833SOL    HW122958   1.828   0.224   6.869  1.3474 -2.3729  2.6183
 3833SOL    HW222959   1.733   0.200   6.978 -0.7137  1.1567 -0.0884
 3834SOL     OW22960   2.697   0.560   2.285  0.2195  0.0161  0.0391
 3834SOL    HW122961   2.768   0.565   2.220  0.0929  2.3664  0.0560
 3834SOL    HW222962   2.657   0.473   2.277 -1.2996  0.7985 -0.9863
 3835SOL     OW22963   2.678   3.366   3.305  0.0230 -0.4797 -0.6219
 3835SOL    HW122964   2.651   3.446   3.260 -1.2334  0.4215  1.7052
 3835SOL    HW222965   2.655   3.299   3.241 -0.7250 -1.3787  0.5950
 3836SOL     OW22966   3.609   4.178   1.963 -0.5684 -0.5958  0.1355
 3836SOL    HW122967   3.529   4.184   2.015 -0.7023  0.5386 -0.2151
 3836SOL    HW222968   3.607   4.263   1.919  1.6134  0.0667  1.3105
 3837SOL     OW22969   2.048   2.890   3.699  0.1733 -0.2534  0.0838
 3837SOL    HW122970   2.070   2.981   3.678 -0.6871  0.0502  0.5095
 3837SOL    HW222971   1.953   2.890   3.697  0.1812 -2.2170 -0.6808
 3838SOL     OW22972   2.101   3.751   4.005 -0.1396  0.6538 -0.0898
 3838SOL    HW122973   2.173   3.703   3.965 -2.1193 -1.0832 -1.5704
 3838SOL    HW222974   2.102   3.707   4.090  2.2974  0.5145 -0.1858
 3839SOL     OW22975   2.154   4.131   8.008  0.3621  0.0755  0.3049
 3839SOL    HW122976   2.246   4.135   7.980  0.8700 -3.5841  1.4629
 3839SOL    HW222977   2.129   4.056   7.955  0.0702  0.6496 -0.3753
 3840SOL     OW22978   3.469   2.651   3.506 -0.2345 -0.3752 -0.2040
 3840SOL    HW122979   3.413   2.701   3.564 -1.0631  0.2135 -1.5177
 3840SOL    HW222980   3.553   2.648   3.551  1.3134  3.5058 -2.7873
 3841SOL     OW22981   1.851   0.103   8.690  0.0878 -0.6309 -0.0224
 3841SOL    HW122982   1.819   0.015   8.673  0.0755 -1.0148  2.0014
 3841SOL    HW222983   1.809   0.112   8.775 -0.4121  0.3657 -0.3727
 3842SOL     OW22984   1.147   3.037   5.697  0.1474 -0.1484 -0.1338
 3842SOL    HW122985   1.198   3.073   5.625 -0.7344  0.7662 -0.2878
 3842SOL    HW222986   1.165   3.108   5.759 -2.4849 -0.2742  0.7607
 3843SOL     OW22987   3.137   2.823   0.271 -0.1940 -0.4937 -0.3084
 3843SOL    HW122988   3.196   2.893   0.297  0.0234 -0.6059 -0.5014
 3843SOL    HW222989   3.167   2.755   0.331 -1.6564  0.6622  1.7050
 3844SOL     OW22990   0.299   1.409   4.626 -0.4117  0.0876 -0.2700
 3844SOL    HW122991   0.283   1.380   4.537 -0.6197  0.9754 -0.5123
 3844SOL    HW222992   0.380   1.370   4.659 -0.3356 -1.1624 -1.9282
 3845SOL     OW22993   1.838   2.188   4.785 -0.0294  0.0063 -0.1487
 3845SOL    HW122994   1.762   2.197   4.842 -1.1893 -1.3002 -1.5093
 3845SOL    HW222995   1.910   2.154   4.840 -0.6882  2.2956  2.1234
 3846SOL     OW22996   3.730   0.196   9.854  0.0487 -0.0409  0.1191
 3846SOL    HW122997   3.812   0.151   9.876 -0.3277  0.0614  1.7099
 3846SOL    HW222998   3.680   0.175   9.933  0.1928 -1.9158 -0.2759
 3847SOL     OW22999   4.359   4.256   3.559 -0.4220 -0.1275 -0.4979
 3847SOL    HW123000   4.441   4.295   3.588  0.1274 -0.2822 -1.8519
 3847SOL    HW223001   4.308   4.335   3.538 -2.3920 -1.7353 -1.8815
 3848SOL     OW23002   1.871   3.624   9.183  0.3282  0.5159 -0.6581
 3848SOL    HW123003   1.947   3.625   9.125  0.1688  1.6601 -0.8622
 3848SOL    HW223004   1.798   3.615   9.121  0.1408  0.2044 -0.3887
 3849SOL     OW23005   2.000   2.501   0.715  0.0891 -0.4132  0.1475
 3849SOL    HW123006   2.010   2.538   0.803  1.2798 -0.4264  0.0079
 3849SOL    HW223007   2.088   2.496   0.679  0.5045  0.9552  0.9667
 3850SOL     OW23008   2.939   1.736   7.442  0.5324 -0.3624  0.4482
 3850SOL    HW123009   2.989   1.719   7.362 -0.7839 -1.3998 -0.1469
 3850SOL    HW223010   3.006   1.709   7.504  0.1598  1.4451  1.6196
 3851SOL     OW23011   4.490   2.262  13.242 -0.6970 -0.6673  0.2473
 3851SOL    HW123012   4.476   2.337  13.299  1.3230  1.2480 -1.7546
 3851SOL    HW223013   4.523   2.304  13.162 -2.1370  0.7804  0.4165
 3852SOL     OW23014   1.384   4.605  15.951 -0.0310 -0.1333 -0.2223
 3852SOL    HW123015   1.388   4.627  16.044  0.1304 -2.3438  0.2955
 3852SOL    HW223016   1.385   4.510  15.963 -1.8400 -0.0040  1.0099
 3853SOL     OW23017   2.607   2.830   5.912  0.0354  0.1207  0.7021
 3853SOL    HW123018   2.530   2.813   5.858  1.2141 -2.9450  0.0093
 3853SOL    HW223019   2.601   2.748   5.960  0.5784  1.0321  2.3192
 3854SOL     OW23020   2.401   0.849   7.387 -0.4820  0.6311  0.0649
 3854SOL    HW123021   2.446   0.764   7.387 -1.5932  0.0459  0.3094
 3854SOL    HW223022   2.341   0.844   7.461  1.1987  0.4463  1.4101
 3855SOL     OW23023   3.832   0.521   2.420  0.0179  0.0496 -0.0356
 3855SOL    HW123024   3.854   0.466   2.345 -1.2176 -0.5302  0.0391
 3855SOL    HW223025   3.844   0.457   2.490 -2.5394 -3.4512 -2.8193
 3856SOL     OW23026   2.380   0.448  14.882 -0.4771 -0.2200 -0.0900
 3856SOL    HW123027   2.419   0.371  14.843 -1.1108 -0.2505 -0.6607
 3856SOL    HW223028   2.428   0.454  14.965 -1.9836  0.6008  0.7328
 3857SOL     OW23029   2.632   0.213   8.783  0.6241  0.5012  0.0377
 3857SOL    HW123030   2.648   0.186   8.693 -1.3460 -0.5698  0.0119
 3857SOL    HW223031   2.619   0.308   8.777  0.0528  0.2531 -2.4428
 3858SOL     OW23032   3.411   3.957   2.335  0.9769  0.1807  0.4105
 3858SOL    HW123033   3.391   3.867   2.360  0.1196 -0.6703 -3.3857
 3858SOL    HW223034   3.352   3.969   2.261 -1.1646 -0.6351  1.9830
 3859SOL     OW23035   4.386   1.010   7.581  0.0577 -0.2875  0.8333
 3859SOL    HW123036   4.413   0.970   7.664 -0.5186 -1.6264  0.3853
 3859SOL    HW223037   4.419   0.940   7.525 -1.9307  0.0971 -0.8376
 3860SOL     OW23038   0.136   2.656  15.146 -0.1059 -0.5015  0.4462
 3860SOL    HW123039   0.174   2.575  15.114  0.0843 -0.3360  0.2510
 3860SOL    HW223040   0.215   2.709  15.134  0.0342 -0.5686  1.0466
 3861SOL     OW23041   4.007   3.762   5.368 -0.5261  0.2005  0.2873
 3861SOL    HW123042   3.995   3.854   5.394  0.1351  0.2302  0.4869
 3861SOL    HW223043   4.066   3.738   5.440  0.2713 -0.3154 -0.5434
 3862SOL     OW23044   2.597   4.160   3.177  0.0196 -0.0259  0.2418
 3862SOL    HW123045   2.563   4.241   3.216 -0.3005 -0.1200  0.1596
 3862SOL    HW223046   2.673   4.178   3.122 -0.4430  1.0237 -0.0522
 3863SOL     OW23047   1.831   1.205   5.666 -0.0057  0.9958 -0.0557
 3863SOL    HW123048   1.766   1.170   5.728  1.4803  1.3532  1.7094
 3863SOL    HW223049   1.897   1.136   5.668 -0.5378  0.5114  1.1743
 3864SOL     OW23050   2.759   2.112   1.119 -0.2866 -0.4915 -0.0687
 3864SOL    HW123051   2.725   2.048   1.181 -1.2158  0.5203  0.4631
 3864SOL    HW223052   2.746   2.194   1.167 -0.4873 -0.5974  0.0554
 3865SOL     OW23053   0.822   2.451  15.332 -0.5824 -0.0292  0.9463
 3865SOL    HW123054   0.867   2.372  15.361  1.4333  1.2853  1.3581
 3865SOL    HW223055   0.885   2.519  15.355  0.4038 -0.8027  0.4946
 3866SOL     OW23056   1.552   2.804   6.844  0.0185 -0.0345 -0.1265
 3866SOL    HW123057   1.551   2.878   6.904  2.2378 -0.9838  1.0930
 3866SOL    HW223058   1.633   2.759   6.870  0.2406  0.4888  0.0938
 3867SOL     OW23059   2.089   1.060   8.402 -0.1197 -0.6163 -0.3502
 3867SOL    HW123060   2.168   1.091   8.448  0.0974  0.2612 -1.3033
 3867SOL    HW223061   2.064   0.990   8.462  1.4403 -0.5154  0.4303
 3868SOL     OW23062   2.005   4.151  10.650 -0.5320  0.1119 -0.1730
 3868SOL    HW123063   2.092   4.129  10.616  0.5377  3.3810  0.5174
 3868SOL    HW223064   1.981   4.216  10.585 -0.0807  1.3400  0.8914
 3869SOL     OW23065   0.125   4.588  13.935  0.1230  0.3934 -0.3334
 3869SOL    HW123066   0.212   4.556  13.961  1.0837  3.0729 -0.2793
 3869SOL    HW223067   0.149   4.672  13.897 -1.9554  1.2336  0.2013
 3870SOL     OW23068   2.131   3.436   4.581 -0.3004  0.2692 -0.5219
 3870SOL    HW123069   2.079   3.365   4.617 -0.2687 -0.3795 -1.7464
 3870SOL    HW223070   2.133   3.409   4.489 -0.9532 -2.0918  0.1672
 3871SOL     OW23071   1.169   2.903  13.442  0.0802  0.5019  0.4676
 3871SOL    HW123072   1.231   2.963  13.483 -0.2064  2.4780 -2.0302
 3871SOL    HW223073   1.193   2.913  13.350  0.2331 -0.4558  0.4024
 3872SOL     OW23074   2.823   2.763  17.102  0.3037  0.5931  0.4004
 3872SOL    HW123075   2.873   2.839  17.131 -0.6493  1.2194  0.4097
 3872SOL    HW223076   2.767   2.800  17.034 -1.1350 -0.6796  0.8748
 3873SOL     OW23077   3.192   3.304   8.265 -0.2331 -0.5640 -0.2106
 3873SOL    HW123078   3.226   3.221   8.300  1.2419  0.3452  0.4687
 3873SOL    HW223079   3.177   3.283   8.173  0.1109 -0.6520 -0.2453
 3874SOL     OW23080   3.406   0.954   2.300  0.4624  0.1973 -0.4663
 3874SOL    HW123081   3.411   0.859   2.308 -1.6911  0.2035  0.7898
 3874SOL    HW223082   3.490   0.987   2.268  0.7812 -0.3487 -0.1766
 3875SOL     OW23083   3.911   2.898  10.993  0.1352 -0.4809 -0.7353
 3875SOL    HW123084   4.004   2.888  11.014  0.0476  0.2212 -0.0306
 3875SOL    HW223085   3.894   2.974  11.048  2.8977 -0.8791  0.6743
 3876SOL     OW23086   4.370   1.910   2.866  0.0273  0.0363  0.9920
 3876SOL    HW123087   4.301   1.909   2.932 -1.8704 -0.1874 -0.9724
 3876SOL    HW223088   4.380   1.817   2.845  0.0850 -0.0839  1.5583
 3877SOL     OW23089   0.540   2.837   2.940  0.3294  0.0589 -0.2931
 3877SOL    HW123090   0.585   2.865   3.020  1.5068 -0.8878 -0.6073
 3877SOL    HW223091   0.546   2.902   2.871 -0.5665  1.6970  1.1767
 3878SOL     OW23092   3.525   1.256   2.445  0.1187  0.3034  0.0819
 3878SOL    HW123093   3.434   1.273   2.419  0.6092  3.3538  0.2940
 3878SOL    HW223094   3.545   1.316   2.517 -0.4774 -0.5525  0.9558
 3879SOL     OW23095   2.163   0.894  13.465 -0.1424 -0.4656 -0.2948
 3879SOL    HW123096   2.230   0.830  13.442  0.8385 -0.1192  1.6434
 3879SOL    HW223097   2.136   0.914  13.375 -1.7638 -1.2124  0.0167
 3880SOL     OW23098   2.015   3.090   8.198  0.3902  0.1703  0.0039
 3880SOL    HW123099   1.966   3.165   8.233  0.6875 -1.2028  3.3100
 3880SOL    HW223100   1.983   3.082   8.108 -0.0446  0.1153  0.1650
 3881SOL     OW23101   2.406   3.341  11.289 -0.1422  0.3788 -0.3348
 3881SOL    HW123102   2.443   3.258  11.322 -1.6948 -1.0440 -2.1895
 3881SOL    HW223103   2.482   3.397  11.308  0.7298  0.4381 -3.9810
 3882SOL     OW23104   0.753   0.387  16.707 -0.5259 -0.8589  0.1654
 3882SOL    HW123105   0.765   0.479  16.729  1.0681 -1.2666  0.9999
 3882SOL    HW223106   0.833   0.349  16.743  1.5837  4.0062  0.5127
 3883SOL     OW23107   1.577   2.178   3.208 -0.2326  0.7373 -0.0895
 3883SOL    HW123108   1.633   2.101   3.209 -1.1243  0.0566 -1.8163
 3883SOL    HW223109   1.499   2.127   3.227 -0.7121  1.6276  0.3580
 3884SOL     OW23110   4.331   1.735   1.290  0.1865  0.0344 -0.0133
 3884SOL    HW123111   4.362   1.749   1.379  0.5183 -1.4892  0.1042
 3884SOL    HW223112   4.355   1.643   1.279 -0.9344 -0.2951  0.3695
 3885SOL     OW23113   0.535   2.301   7.816 -0.4589  0.1048  0.0530
 3885SOL    HW123114   0.537   2.267   7.905 -0.6199  0.1613  0.0788
 3885SOL    HW223115   0.564   2.392   7.829 -0.8322  0.1065  0.8561
 3886SOL     OW23116   0.837   0.147  13.816 -0.0502  0.1823 -0.3316
 3886SOL    HW123117   0.872   0.060  13.798 -2.5421 -0.8371 -0.1645
 3886SOL    HW223118   0.861   0.185  13.731 -1.0684  1.4755 -0.0348
 3887SOL     OW23119   4.344   0.255   5.422  0.5160  0.0299 -0.7429
 3887SOL    HW123120   4.428   0.227   5.458  0.5874  2.2758  0.8531
 3887SOL    HW223121   4.328   0.196   5.349 -2.5498  0.9689 -0.8556
 3888SOL     OW23122   2.889   0.213   8.916  0.4638  0.3711  0.0257
 3888SOL    HW123123   2.795   0.197   8.930 -0.1100  0.6347 -3.4890
 3888SOL    HW223124   2.903   0.169   8.832  0.5156 -0.0655  0.2639
 3889SOL     OW23125   2.264   1.142   7.784  0.3136 -0.2599 -0.0321
 3889SOL    HW123126   2.325   1.200   7.830 -0.8252  1.5018 -0.7334
 3889SOL    HW223127   2.184   1.169   7.830  0.4398 -1.9717  1.2026
 3890SOL     OW23128   4.372   3.380  14.308  0.2621 -0.1550  0.2462
 3890SOL    HW123129   4.361   3.289  14.337 -2.8124  0.9351  2.5845
 3890SOL    HW223130   4.289   3.396  14.262  1.4920 -0.8593 -2.1817
 3891SOL     OW23131   3.825   2.795   0.578 -0.1388  0.1485 -0.0733
 3891SOL    HW123132   3.915   2.772   0.556  0.1804  0.9483  0.3880
 3891SOL    HW223133   3.779   2.711   0.578 -1.8763  1.1065 -0.3202
 3892SOL     OW23134   3.442   4.122   4.726 -0.0119  0.0807 -0.1204
 3892SOL    HW123135   3.387   4.156   4.656 -0.4488 -0.8442 -0.2325
 3892SOL    HW223136   3.463   4.036   4.689  1.4391 -0.4546  1.9651
 3893SOL     OW23137   3.623   0.090  11.741  0.2495  0.2813  0.1905
 3893SOL    HW123138   3.566   0.111  11.815 -2.3346 -1.0005 -1.4336
 3893SOL    HW223139   3.669   0.009  11.764 -0.0659 -0.1860 -0.8104
 3894SOL     OW23140   0.883   1.726   8.283 -0.1051 -0.1628 -0.2811
 3894SOL    HW123141   0.897   1.816   8.252  0.5625  0.0455  0.6166
 3894SOL    HW223142   0.951   1.716   8.350 -1.1907 -2.1128  0.5218
 3895SOL     OW23143   4.584   1.744   8.299  0.0571  0.0131  0.3950
 3895SOL    HW123144   4.525   1.710   8.365 -0.0707  1.5645  1.0868
 3895SOL    HW223145   4.668   1.760   8.342  1.4122 -2.5853 -1.3320
 3896SOL     OW23146   1.253   2.766   3.065 -0.1419 -0.5325 -0.1425
 3896SOL    HW123147   1.348   2.755   3.056  0.4500 -0.0209  5.0553
 3896SOL    HW223148   1.223   2.676   3.074 -0.9081 -0.3539 -0.9104
 3897SOL     OW23149   3.473   0.483   4.998 -0.3088  0.0330  0.1520
 3897SOL    HW123150   3.466   0.534   5.080  0.5734  1.9826 -0.9787
 3897SOL    HW223151   3.385   0.456   4.973 -0.9610  0.2822  2.1232
 3898SOL     OW23152   3.603   4.059   7.004  0.0360 -0.3223  0.1087
 3898SOL    HW123153   3.539   3.989   6.988 -0.5296  0.0162  0.8957
 3898SOL    HW223154   3.637   4.020   7.085 -0.0589 -0.8743 -0.1147
 3899SOL     OW23155   3.289   2.121   9.027  0.4455 -0.4023  0.5689
 3899SOL    HW123156   3.382   2.119   9.004 -0.1746  0.2604 -1.9956
 3899SOL    HW223157   3.265   2.029   9.033  0.8026 -0.3998  2.1275
 3900SOL     OW23158   4.300   1.344   3.340 -0.3329 -0.0165  0.8372
 3900SOL    HW123159   4.321   1.251   3.330  1.8940  0.4975  0.7703
 3900SOL    HW223160   4.316   1.357   3.433 -1.0156 -0.2106  0.9835
 3901SOL     OW23161   2.633   3.868   4.886  0.2678 -0.0341 -0.6621
 3901SOL    HW123162   2.600   3.778   4.879  0.6631 -0.2471  0.1623
 3901SOL    HW223163   2.557   3.924   4.867  0.3033  0.9905  2.2530
 3902SOL     OW23164   0.158   4.639   7.256  0.2103  0.0044  0.4679
 3902SOL    HW123165   0.201   4.577   7.197 -1.7490 -0.7149 -0.1892
 3902SOL    HW223166   0.224   4.642   7.326  0.4663 -1.7967  0.3059
 3903SOL     OW23167   1.105   3.348   8.595 -0.0903 -0.0657  0.0063
 3903SOL    HW123168   1.065   3.274   8.642  1.2384 -0.1764  0.9565
 3903SOL    HW223169   1.126   3.302   8.514 -1.3877  0.1505 -0.4589
 3904SOL     OW23170   2.208   0.040   1.855 -0.2439 -0.8692  0.8968
 3904SOL    HW123171   2.298   0.008   1.859 -0.3131 -1.3275 -1.0955
 3904SOL    HW223172   2.210   0.086   1.771 -1.3064 -0.7472  0.9389
 3905SOL     OW23173   3.870   0.134   3.624  0.0324 -0.2632  0.2191
 3905SOL    HW123174   3.924   0.114   3.547  1.2379 -0.6007  1.1431
 3905SOL    HW223175   3.915   0.214   3.653 -1.0533 -0.6581  2.9526
 3906SOL     OW23176   0.651   4.293   0.906 -0.6293  0.2497  0.1165
 3906SOL    HW123177   0.713   4.331   0.843 -0.8290 -1.0130 -0.8362
 3906SOL    HW223178   0.576   4.279   0.848  0.3074  0.1236 -1.0636
 3907SOL     OW23179   2.923   0.462  17.565  0.0756 -0.0527 -0.5806
 3907SOL    HW123180   2.888   0.549  17.584 -0.1578 -0.1818 -0.4207
 3907SOL    HW223181   2.866   0.409  17.621 -0.5935  1.8578  0.5320
 3908SOL     OW23182   0.787   0.123   3.433  0.6477  0.2081  0.3048
 3908SOL    HW123183   0.815   0.079   3.353  1.9525 -0.4355  1.1352
 3908SOL    HW223184   0.693   0.105   3.423  1.2122 -2.1003 -0.8265
 3909SOL     OW23185   1.682   4.036  13.504 -0.5860  0.5101 -0.1332
 3909SOL    HW123186   1.645   3.950  13.525 -1.0483  0.3229 -1.7567
 3909SOL    HW223187   1.701   4.063  13.594  1.1161  0.7550 -0.5787
 3910SOL     OW23188   3.025   3.914   8.968  0.5503 -0.1491  0.1571
 3910SOL    HW123189   3.104   3.930   8.916 -0.3350 -0.5202 -1.3149
 3910SOL    HW223190   2.954   3.958   8.922  1.5271 -0.5205 -1.7349
 3911SOL     OW23191   3.634   0.410   3.346 -0.1315  0.7318  0.0945
 3911SOL    HW123192   3.574   0.434   3.417  0.6873  0.4643  0.8760
 3911SOL    HW223193   3.721   0.429   3.383 -0.4189 -1.5417  1.9062
 3912SOL     OW23194   1.262   2.821   4.529  0.3380  0.1067 -0.6743
 3912SOL    HW123195   1.204   2.745   4.534  2.0159 -1.1296 -0.0264
 3912SOL    HW223196   1.328   2.799   4.594 -1.0325 -0.5921  0.4902
 3913SOL     OW23197   2.264   3.288   6.717 -0.0003  0.2906 -0.4674
 3913SOL    HW123198   2.309   3.353   6.662  2.7199 -1.4664 -0.3207
 3913SOL    HW223199   2.330   3.276   6.785  0.0611 -2.4456 -1.0113
 3914SOL     OW23200   0.268   3.639   0.531  0.1695 -0.2500  0.4845
 3914SOL    HW123201   0.187   3.687   0.515  0.3641 -0.8348 -2.1437
 3914SOL    HW223202   0.261   3.609   0.622  2.5567  0.0642  0.7672
 3915SOL     OW23203   2.091   0.353  12.379 -0.1346 -0.4079 -0.1103
 3915SOL    HW123204   2.103   0.349  12.284 -0.0234 -2.0983 -0.0356
 3915SOL    HW223205   2.117   0.443  12.395 -3.0341  0.5493 -0.9346
 3916SOL     OW23206   4.594   2.606   0.285 -0.0199 -0.1130  0.9608
 3916SOL    HW123207   4.558   2.657   0.358 -1.8542 -0.4209  0.2724
 3916SOL    HW223208   4.681   2.645   0.275 -0.1526 -0.5190 -1.6043
 3917SOL     OW23209   3.980   3.023   3.212 -0.2800  0.0173 -0.3379
 3917SOL    HW123210   3.951   2.932   3.211  1.8107 -0.6543 -0.1726
 3917SOL    HW223211   3.900   3.068   3.238  0.0655 -0.3139  1.2796
 3918SOL     OW23212   1.995   3.309  10.399  0.2685  0.5239 -0.4877
 3918SOL    HW123213   1.902   3.308  10.421  0.6774  1.4461  1.3239
 3918SOL    HW223214   1.990   3.250  10.324  0.2762 -0.4940  0.3008
 3919SOL     OW23215   3.545   2.221  15.858  1.2134 -0.3207  0.2755
 3919SOL    HW123216   3.564   2.241  15.766  0.3228 -1.4755 -0.1453
 3919SOL    HW223217   3.630   2.210  15.901  1.5421 -1.1953 -0.6171
 3920SOL     OW23218   2.854   1.949  11.036 -0.0376  0.3996 -0.3602
 3920SOL    HW123219   2.823   2.010  10.970  1.2596  1.3195 -0.1148
 3920SOL    HW223220   2.807   1.871  11.008 -1.8787  1.3537  0.0881
 3921SOL     OW23221   3.990   0.326  14.448 -0.7784 -0.1431 -0.5275
 3921SOL    HW123222   4.073   0.358  14.411  1.0096 -1.5279  2.2689
 3921SOL    HW223223   3.967   0.265  14.378  1.5889 -1.9574  0.2702
 3922SOL     OW23224   0.098   0.443   5.897 -0.4072 -0.0848  0.0924
 3922SOL    HW123225   0.078   0.527   5.939 -0.5364 -0.1542  0.1712
 3922SOL    HW223226   0.166   0.467   5.834  1.3568 -2.5007  1.0891
 3923SOL     OW23227   0.526   4.567   6.244 -0.3101 -0.1492  0.5098
 3923SOL    HW123228   0.439   4.556   6.206 -0.5681  0.6798  0.8675
 3923SOL    HW223229   0.562   4.618   6.172  3.0037 -1.6805  1.0597
 3924SOL     OW23230   4.341   3.222   6.732  0.3180  0.4856  0.3875
 3924SOL    HW123231   4.429   3.184   6.733  0.7123  1.3745 -0.5293
 3924SOL    HW223232   4.292   3.140   6.726  0.8625  0.2007 -0.1344
 3925SOL     OW23233   2.380   3.076   4.235 -0.5365  0.9266  0.0199
 3925SOL    HW123234   2.394   3.143   4.169  1.7989  0.3325 -0.0612
 3925SOL    HW223235   2.451   3.014   4.223 -1.1595  0.5593 -1.7625
 3926SOL     OW23236   2.814   1.614  14.287 -0.7270  0.4930 -0.2912
 3926SOL    HW123237   2.844   1.692  14.334  0.2072  0.1505 -0.3178
 3926SOL    HW223238   2.836   1.627  14.195  1.0876  1.4520  0.2919
 3927SOL     OW23239   3.365   2.428   2.510 -0.5079  0.2476 -0.2132
 3927SOL    HW123240   3.414   2.506   2.487 -1.6569  0.2448 -2.6852
 3927SOL    HW223241   3.381   2.375   2.432 -3.3298 -0.1752 -0.5248
 3928SOL     OW23242   4.600   3.871  10.150  0.1144  0.1896  0.0032
 3928SOL    HW123243   4.578   3.899  10.238  1.2459  0.3213  0.2501
 3928SOL    HW223244   4.601   3.950  10.096  1.3004 -0.9589 -1.7146
 3929SOL     OW23245   2.159   3.831   5.766  0.4266 -0.6233 -0.4198
 3929SOL    HW123246   2.254   3.842   5.769  0.4323 -0.6157 -0.6607
 3929SOL    HW223247   2.129   3.905   5.819  1.5834  0.4110 -1.2172
 3930SOL     OW23248   1.460   2.586   8.156 -0.1628 -0.1936  0.2804
 3930SOL    HW123249   1.520   2.540   8.098 -1.5138 -0.0714 -1.1980
 3930SOL    HW223250   1.384   2.573   8.100 -0.0297  1.8489 -0.3676
 3931SOL     OW23251   3.905   3.641  15.617  0.3446  0.1783 -0.4182
 3931SOL    HW123252   3.891   3.696  15.540 -1.8031  2.5795  1.7085
 3931SOL    HW223253   3.913   3.711  15.681  0.0287  1.2117 -1.5179
 3932SOL     OW23254   1.912   1.378   6.395  0.5903 -0.4648 -0.0762
 3932SOL    HW123255   1.915   1.304   6.335 -0.4395  1.4362 -2.4392
 3932SOL    HW223256   1.819   1.372   6.414  1.0302 -3.4332  1.0675
 3933SOL     OW23257   0.133   2.875   6.324 -0.1167 -0.2524 -0.3991
 3933SOL    HW123258   0.154   2.848   6.234 -0.8067 -0.8357 -0.3886
 3933SOL    HW223259   0.071   2.804   6.340  1.7947 -1.4389  1.7745
 3934SOL     OW23260   0.043   2.116  11.342  0.1411  0.0099  0.0318
 3934SOL    HW123261   4.692   2.160  11.302 -1.1951 -2.0533  0.2306
 3934SOL    HW223262   0.004   2.084  11.424  0.6846  0.3637  0.4239
 3935SOL     OW23263   1.002   3.863   2.745 -0.2103  0.1682  0.0009
 3935SOL    HW123264   0.980   3.770   2.751 -2.5107  0.4970 -3.2557
 3935SOL    HW223265   0.990   3.877   2.651 -0.7742  0.1114  0.0665
 3936SOL     OW23266   0.736   1.550   3.762 -0.9512 -0.1088 -0.0380
 3936SOL    HW123267   0.736   1.541   3.857  0.7208 -0.3871 -0.0733
 3936SOL    HW223268   0.702   1.639   3.754 -1.6321 -0.5503 -2.0350
 3937SOL     OW23269   3.528   4.486   6.716  0.6206  0.7878  0.3016
 3937SOL    HW123270   3.534   4.391   6.723  1.6863  0.6596 -2.5835
 3937SOL    HW223271   3.612   4.499   6.673  0.3488  1.2105 -0.1025
 3938SOL     OW23272   2.444   3.548   0.094 -0.2956  0.1239 -0.0119
 3938SOL    HW123273   2.452   3.550   0.190 -1.5922  2.0392  0.0513
 3938SOL    HW223274   2.537   3.567   0.083 -0.7583  1.2420 -1.9136
 3939SOL     OW23275   0.654   3.422  14.588  0.3546 -0.1000 -0.0207
 3939SOL    HW123276   0.621   3.409  14.677  0.0120 -1.5987 -0.3645
 3939SOL    HW223277   0.745   3.424  14.615  0.2492 -0.9889  0.4091
 3940SOL     OW23278   4.460   2.790  15.103 -0.9626 -0.0067  0.0047
 3940SOL    HW123279   4.419   2.824  15.182  0.1533  1.4006 -0.0219
 3940SOL    HW223280   4.415   2.839  15.034 -0.0859  2.5788  1.2677
 3941SOL     OW23281   4.468   2.634  14.004 -0.0450 -0.0252  0.7240
 3941SOL    HW123282   4.523   2.559  13.983 -0.2720 -0.1419  0.5465
 3941SOL    HW223283   4.393   2.588  14.042 -0.6321 -0.6821 -1.2213
 3942SOL     OW23284   1.618   1.998  17.341 -0.2080  0.2834  0.0101
 3942SOL    HW123285   1.595   2.080  17.384  2.5014  1.2819 -0.4285
 3942SOL    HW223286   1.588   2.005  17.251  0.9073  0.1096 -0.3757
 3943SOL     OW23287   0.923   1.830   6.778  0.3387  0.2908  0.0731
 3943SOL    HW123288   0.911   1.741   6.811  0.2903 -1.0290 -3.4937
 3943SOL    HW223289   0.832   1.848   6.752  0.3800  0.5198  0.0874
 3944SOL     OW23290   1.227   1.212   7.443 -0.5502 -0.1544 -0.6283
 3944SOL    HW123291   1.315   1.244   7.464 -0.0055 -1.7404 -0.4931
 3944SOL    HW223292   1.239   1.119   7.461  0.7678  0.1170 -0.0528
 3945SOL     OW23293   1.556   2.227   7.007 -0.4988  0.4130 -0.2454
 3945SOL    HW123294   1.500   2.251   7.081  0.8901  1.6805  0.4038
 3945SOL    HW223295   1.493   2.202   6.940  0.0330 -0.8917 -0.2534
 3946SOL     OW23296   4.437   2.979   4.516  0.1814 -0.1819 -0.3402
 3946SOL    HW123297   4.357   2.992   4.465 -2.1027 -2.2584  2.7182
 3946SOL    HW223298   4.424   2.887   4.538 -0.8842 -0.1221 -0.7124
 3947SOL     OW23299   2.056   1.726   2.019 -0.2672 -0.1097  0.0801
 3947SOL    HW123300   2.075   1.790   2.088 -1.7052 -0.3800  0.7307
 3947SOL    HW223301   1.962   1.737   2.005  0.2559  0.4324 -2.8717
 3948SOL     OW23302   1.486   4.210   9.642  0.1923 -0.1991 -0.0422
 3948SOL    HW123303   1.473   4.118   9.664  0.1067 -0.0841  0.3791
 3948SOL    HW223304   1.406   4.218   9.590  1.0861  0.4234 -1.3265
 3949SOL     OW23305   2.743   4.236   7.919 -0.1121  0.1577  0.8411
 3949SOL    HW123306   2.780   4.204   8.001  0.7177 -3.9535 -1.1436
 3949SOL    HW223307   2.796   4.313   7.897 -0.2355  0.2385  0.8240
 3950SOL     OW23308   3.638   2.553  11.156  1.1486 -0.0856  0.1922
 3950SOL    HW123309   3.679   2.475  11.119  0.2947  0.0634 -1.0474
 3950SOL    HW223310   3.563   2.516  11.202  1.7465 -0.7695  0.6300
 3951SOL     OW23311   3.955   0.909   1.362 -0.5591  0.9794  0.9622
 3951SOL    HW123312   4.004   0.929   1.282  0.7125  0.1980  1.5448
 3951SOL    HW223313   3.984   0.820   1.385  3.0175  2.1781  1.2118
 3952SOL     OW23314   3.668   0.287   6.189 -0.3848  0.5889 -0.6603
 3952SOL    HW123315   3.751   0.276   6.143 -0.8010 -0.2882 -1.2080
 3952SOL    HW223316   3.666   0.383   6.189  0.5431  0.6051 -1.6932
 3953SOL     OW23317   2.995   4.688   2.001 -0.5717 -0.2325 -0.0640
 3953SOL    HW123318   2.919   4.718   2.049  0.6216  1.7470  0.5537
 3953SOL    HW223319   3.003   0.031   1.933  3.4187 -0.0690  0.5594
 3954SOL     OW23320   3.562   3.953   4.513 -0.5083 -0.4438 -0.9190
 3954SOL    HW123321   3.614   3.873   4.507  1.1200  0.4024  2.1907
 3954SOL    HW223322   3.498   3.937   4.443 -0.9297 -5.7103  0.6123
 3955SOL     OW23323   1.014   4.446  10.143  0.4611 -0.5806 -0.7405
 3955SOL    HW123324   1.075   4.382  10.107 -1.0104 -2.4420  0.0452
 3955SOL    HW223325   0.989   4.489  10.061 -2.5895 -0.4080  0.2947
 3956SOL     OW23326   0.805   0.731  15.726  0.1957 -0.3074 -0.1750
 3956SOL    HW123327   0.716   0.707  15.699  0.0471  0.3289 -0.2648
 3956SOL    HW223328   0.843   0.727  15.639 -1.2611 -0.9302 -0.7886
 3957SOL     OW23329   1.121   3.647  15.162 -0.1891 -0.8391 -0.1658
 3957SOL    HW123330   1.037   3.603  15.175 -0.3405 -0.0299  1.5631
 3957SOL    HW223331   1.095   3.738  15.176  1.6812 -0.6003  1.7808
 3958SOL     OW23332   3.471   0.026   5.386  0.0170 -0.3996  0.5062
 3958SOL    HW123333   3.521   4.675   5.421  1.6749 -0.0005 -1.0289
 3958SOL    HW223334   3.431   0.059   5.466  1.2650  0.2779  0.8393
 3959SOL     OW23335   0.152   0.298   6.879  0.4821 -0.7617  0.6877
 3959SOL    HW123336   0.242   0.311   6.851  0.4933  0.9813  1.5377
 3959SOL    HW223337   0.105   0.357   6.820  0.1160 -2.1489 -0.3986
 3960SOL     OW23338   0.307   1.788  12.336 -0.5656  0.4176  0.1310
 3960SOL    HW123339   0.315   1.883  12.334 -0.9434  0.4522  0.3168
 3960SOL    HW223340   0.366   1.763  12.407  0.6232 -1.5684 -1.5420
 3961SOL     OW23341   3.420   4.386   2.406  0.4166  0.2797  0.0731
 3961SOL    HW123342   3.483   4.315   2.416  0.4797  0.1979 -0.9264
 3961SOL    HW223343   3.480   4.438   2.354  3.6709 -3.6986 -0.1083
 3962SOL     OW23344   3.352   0.031   3.559  0.2270  0.1670 -0.3144
 3962SOL    HW123345   3.409   4.678   3.547  1.8714  1.8065 -2.7388
 3962SOL    HW223346   3.266   4.712   3.552  0.0259  0.3765  0.9158
 3963SOL     OW23347   2.768   2.282   5.272  0.2826 -0.5562 -0.5684
 3963SOL    HW123348   2.816   2.312   5.349  0.3566 -1.7611 -0.1534
 3963SOL    HW223349   2.732   2.365   5.239  1.0971  0.4906  1.1760
 3964SOL     OW23350   4.224   1.711   5.890 -0.5370  0.2709 -0.5377
 3964SOL    HW123351   4.246   1.803   5.880 -1.2902  0.8386  3.1987
 3964SOL    HW223352   4.222   1.711   5.986  0.4017 -0.1254 -0.5108
 3965SOL     OW23353   4.470   2.575   7.975  0.0187  0.2720  0.1428
 3965SOL    HW123354   4.473   2.623   8.058 -2.1951 -0.7232  0.8163
 3965SOL    HW223355   4.384   2.598   7.939  0.2050 -1.2629 -1.2920
 3966SOL     OW23356   1.302   4.646   5.510  0.1444  0.0559 -0.2059
 3966SOL    HW123357   1.390   4.666   5.479  0.9734 -3.1355  0.0644
 3966SOL    HW223358   1.332   4.594   5.585  1.8574 -1.7382 -2.1569
 3967SOL     OW23359   3.359   4.201   3.719 -0.6551  0.0868  0.0329
 3967SOL    HW123360   3.306   4.280   3.708 -1.1733 -0.3223 -0.4205
 3967SOL    HW223361   3.446   4.239   3.725 -1.2152  1.2002  1.2446
 3968SOL     OW23362   1.078   4.656   3.401 -0.7788  0.4196 -0.1768
 3968SOL    HW123363   1.147   4.598   3.368  0.6333  2.0937 -0.1692
 3968SOL    HW223364   0.988   4.625   3.387  0.5455 -2.2640 -2.6299
 3969SOL     OW23365   2.702   3.200   2.135 -0.5451  0.1555 -0.0123
 3969SOL    HW123366   2.683   3.109   2.111  0.8312 -0.1752  0.1665
 3969SOL    HW223367   2.631   3.244   2.088  0.8053  1.9897 -0.3348
 3970SOL     OW23368   3.282   3.474   5.228 -0.1976 -0.3042 -0.5153
 3970SOL    HW123369   3.378   3.474   5.226 -0.2006  1.7383 -0.6609
 3970SOL    HW223370   3.265   3.438   5.315 -0.4867  0.2006 -0.3614
 3971SOL     OW23371   2.741   0.371  12.976  0.0322  0.4440 -0.0371
 3971SOL    HW123372   2.830   0.367  12.942  0.7688 -0.2536  1.9922
 3971SOL    HW223373   2.748   0.437  13.046 -2.5331  0.1078  0.5425
 3972SOL     OW23374   2.347   4.011   5.094 -0.1738 -0.4971 -0.4202
 3972SOL    HW123375   2.378   3.999   5.004 -1.2022 -0.9871 -0.7038
 3972SOL    HW223376   2.405   3.962   5.153  0.6685  2.1428  0.9378
 3973SOL     OW23377   0.236   3.515   0.801  0.4590 -0.1048  0.0393
 3973SOL    HW123378   0.305   3.495   0.865  0.2469 -1.2557 -0.0918
 3973SOL    HW223379   0.196   3.594   0.836  0.1673  0.5079 -1.6503
 3974SOL     OW23380   0.265   2.879   4.650 -0.9171  0.0581  0.1589
 3974SOL    HW123381   0.207   2.840   4.584 -2.5046 -1.0708  2.2113
 3974SOL    HW223382   0.262   2.964   4.606 -1.0018  0.4568  0.9337
 3975SOL     OW23383   0.846   2.559   3.521 -0.3632 -0.0791  0.3354
 3975SOL    HW123384   0.855   2.480   3.575 -0.1399 -2.4190 -3.1217
 3975SOL    HW223385   0.872   2.514   3.441  1.3456  0.0765  0.8203
 3976SOL     OW23386   2.731   0.554   9.110  0.0730 -0.4576 -0.0007
 3976SOL    HW123387   2.725   0.471   9.156  0.0614 -0.0597  0.7120
 3976SOL    HW223388   2.773   0.605   9.179  0.1791  3.1614 -2.7514
 3977SOL     OW23389   1.947   1.876  11.995  0.0437 -0.0721 -0.2540
 3977SOL    HW123390   1.968   1.789  12.028  3.0173  1.2166  1.2345
 3977SOL    HW223391   2.011   1.888  11.925  0.8395  2.7999  0.9769
 3978SOL     OW23392   4.375   0.580   7.586 -0.0659 -0.0245  0.0674
 3978SOL    HW123393   4.284   0.550   7.577  0.5921 -1.3682 -2.1570
 3978SOL    HW223394   4.420   0.497   7.598  0.5791  0.2259 -0.6392
 3979SOL     OW23395   4.189   3.773  14.079 -0.3300  0.3377  0.5453
 3979SOL    HW123396   4.193   3.680  14.059 -2.0580  0.5417 -0.7670
 3979SOL    HW223397   4.233   3.769  14.163 -2.4604 -1.5742  1.5572
 3980SOL     OW23398   3.825   0.658   8.328  0.0549 -0.2549 -0.0291
 3980SOL    HW123399   3.777   0.580   8.299  1.0618 -0.6255 -0.7052
 3980SOL    HW223400   3.773   0.674   8.407  0.6117  1.1339  0.0513
 3981SOL     OW23401   2.877   2.644   1.532  0.6099  0.0255 -0.5566
 3981SOL    HW123402   2.830   2.609   1.456 -1.8440 -0.2218  1.0555
 3981SOL    HW223403   2.966   2.617   1.513  1.4916  1.3232  1.7292
 3982SOL     OW23404   3.150   0.836   2.848 -0.2591 -0.2737 -0.2578
 3982SOL    HW123405   3.088   0.897   2.887 -1.8017 -0.8764 -1.7944
 3982SOL    HW223406   3.201   0.886   2.785 -2.8206  1.2746 -1.0616
 3983SOL     OW23407   2.733   0.092   4.501  0.0869 -0.0502  0.1520
 3983SOL    HW123408   2.824   0.064   4.490  0.9247  2.8657 -0.4516
 3983SOL    HW223409   2.723   0.141   4.420  1.9903  1.1487  0.6339
 3984SOL     OW23410   0.175   1.065  13.892  0.3341 -0.0030  0.9030
 3984SOL    HW123411   0.086   1.090  13.866  0.2149 -1.0952  0.2792
 3984SOL    HW223412   0.153   0.999  13.957  0.4160 -0.6272  0.3016
 3985SOL     OW23413   0.031   3.291   3.413  0.1532 -0.2857  0.1157
 3985SOL    HW123414   0.012   3.247   3.495  1.5916  0.9508  1.1144
 3985SOL    HW223415   4.671   3.270   3.370  0.4498 -2.6123  0.7012
 3986SOL     OW23416   1.860   2.483   1.033  0.6812 -0.3334  0.1837
 3986SOL    HW123417   1.835   2.449   1.119  1.5221 -0.5153  0.3505
 3986SOL    HW223418   1.783   2.467   0.979  0.1144 -1.0674  1.2072
 3987SOL     OW23419   0.105   3.599   1.082 -0.8030 -0.4806 -0.0412
 3987SOL    HW123420   0.036   3.659   1.056 -0.1728  1.1602  2.0254
 3987SOL    HW223421   0.146   3.664   1.140  0.2405 -0.9285 -0.2732
 3988SOL     OW23422   1.043   2.797   5.863  0.2746 -0.3275  0.1632
 3988SOL    HW123423   0.959   2.752   5.856 -0.1293  0.4343  0.1608
 3988SOL    HW223424   1.033   2.875   5.810 -1.7567 -1.3013 -0.8959
 3989SOL     OW23425   4.496   2.697   3.377 -0.4253 -0.2926 -0.1840
 3989SOL    HW123426   4.560   2.675   3.445  0.2006  1.7057 -0.1407
 3989SOL    HW223427   4.413   2.656   3.403  0.2090 -2.3349 -1.3539
 3990SOL     OW23428   2.040   2.692  14.198 -0.0521  0.0443 -0.3322
 3990SOL    HW123429   2.123   2.737  14.184 -0.2058  0.2707 -0.5056
 3990SOL    HW223430   1.991   2.704  14.117  0.5573  0.8018 -0.5852
 3991SOL     OW23431   3.594   0.772   1.278 -0.3678 -0.2007  0.2299
 3991SOL    HW123432   3.621   0.749   1.367  1.0173  0.5395 -0.0061
 3991SOL    HW223433   3.518   0.825   1.302  0.6333  0.4195  1.9333
 3992SOL     OW23434   4.660   4.606  10.506 -0.1566  0.1558  0.4144
 3992SOL    HW123435   4.587   4.656  10.469 -0.5582 -0.0043  0.9989
 3992SOL    HW223436   4.636   4.522  10.468  2.8993 -0.0963 -0.9790
 3993SOL     OW23437   3.786   1.762   3.542 -0.3317  0.4009 -0.9634
 3993SOL    HW123438   3.863   1.712   3.514 -0.3692  0.3439 -0.9674
 3993SOL    HW223439   3.737   1.684   3.570 -2.5218  1.3159 -2.2196
 3994SOL     OW23440   4.105   2.588   4.439 -0.0450  0.4263  0.0693
 3994SOL    HW123441   4.073   2.591   4.349 -1.8368  0.0237  0.6838
 3994SOL    HW223442   4.067   2.669   4.474  1.9934  1.7855 -0.8884
 3995SOL     OW23443   1.665   1.787  12.920 -0.7023 -0.1092  0.2361
 3995SOL    HW123444   1.642   1.728  12.848 -2.2366  0.7626  0.0211
 3995SOL    HW223445   1.740   1.835  12.883 -0.7197  0.3169  0.7617
 3996SOL     OW23446   3.290   0.357   5.322  0.7314 -0.0711 -0.9489
 3996SOL    HW123447   3.303   0.432   5.264  0.2593 -1.8007 -3.3209
 3996SOL    HW223448   3.291   0.279   5.266 -0.8615 -0.9152  0.1703
 3997SOL     OW23449   2.838   0.310   5.998  0.1347  0.2065 -0.1159
 3997SOL    HW123450   2.911   0.249   5.996  1.0774  1.4093 -1.3466
 3997SOL    HW223451   2.762   0.260   6.029 -0.0386  0.0664 -0.7711
 3998SOL     OW23452   2.505   3.774   8.454  0.6269 -0.1432  0.1129
 3998SOL    HW123453   2.420   3.808   8.480  0.7684 -0.4209  0.9421
 3998SOL    HW223454   2.543   3.756   8.540  2.2877  0.8101 -0.4223
 3999SOL     OW23455   1.619   0.163   0.211  0.2430 -0.5908 -0.4787
 3999SOL    HW123456   1.665   0.080   0.202 -1.2111 -1.4140 -0.3895
 3999SOL    HW223457   1.599   0.171   0.118  1.3837  1.7081 -0.5373
 4000SOL     OW23458   1.716   2.773  15.997 -0.4990 -0.2906 -0.4275
 4000SOL    HW123459   1.635   2.773  15.946 -1.3689 -2.6675  0.9953
 4000SOL    HW223460   1.679   2.772  16.085  1.5964  0.4144  0.4710
 4001SOL     OW23461   3.658   4.132  11.364 -0.4062  0.4751  0.4207
 4001SOL    HW123462   3.629   4.055  11.413 -0.3409 -0.8422 -1.6086
 4001SOL    HW223463   3.730   4.097  11.311  0.3740  1.9086  0.5413
 4002SOL     OW23464   0.185   3.695   4.276  0.3766  0.6774  0.0047
 4002SOL    HW123465   0.097   3.727   4.256  1.3864  2.4270 -1.5786
 4002SOL    HW223466   0.233   3.769   4.239  1.7355 -1.0168 -1.5415
 4003SOL     OW23467   1.597   3.472  16.078 -0.4297 -0.2798  0.0951
 4003SOL    HW123468   1.680   3.478  16.125 -0.6404 -1.0014  0.5678
 4003SOL    HW223469   1.625   3.517  15.999 -1.4611 -1.4579 -0.9393
 4004SOL     OW23470   4.322   3.977   4.043  0.2867  0.2783  0.1842
 4004SOL    HW123471   4.267   3.942   3.973  1.9391  0.1542 -1.0511
 4004SOL    HW223472   4.373   4.037   3.988  1.1863 -1.3852 -0.7761
 4005SOL     OW23473   1.494   4.591   8.060 -0.0692  0.6191 -0.2358
 4005SOL    HW123474   1.493   4.646   7.981 -1.0008 -0.7568 -1.1909
 4005SOL    HW223475   1.442   4.644   8.120 -0.2389 -0.0919  0.2470
 4006SOL     OW23476   0.046   0.839   2.660  0.3089  0.2531  0.2746
 4006SOL    HW123477   4.706   0.773   2.632 -0.0525  0.9142 -0.5025
 4006SOL    HW223478   0.122   0.786   2.636  0.2778  0.1248  0.4604
 4007SOL     OW23479   0.328   0.055   7.734 -0.2973 -0.0428 -0.3535
 4007SOL    HW123480   0.367   0.115   7.671  1.4392 -0.7773  0.0438
 4007SOL    HW223481   0.264   0.121   7.763 -2.3340 -1.2979 -2.0119
 4008SOL     OW23482   4.107   3.062   8.451 -0.4152 -0.2396 -0.3619
 4008SOL    HW123483   4.141   2.973   8.463 -0.9735 -0.3810  0.1671
 4008SOL    HW223484   4.171   3.101   8.511  0.1479  1.9710 -2.3768
 4009SOL     OW23485   2.482   3.321   4.371 -0.1109  0.0078  0.0343
 4009SOL    HW123486   2.567   3.298   4.335 -1.0836  0.0416 -2.2563
 4009SOL    HW223487   2.426   3.247   4.347 -0.2888  0.6282 -1.4557
 4010SOL     OW23488   3.402   1.304   8.278  0.1811 -1.0603  0.2980
 4010SOL    HW123489   3.434   1.392   8.258  1.3115 -1.7965 -1.1256
 4010SOL    HW223490   3.458   1.284   8.353  0.5720 -2.0132 -0.2450
 4011SOL     OW23491   2.516   1.815   5.825  0.0691  0.0989 -0.0171
 4011SOL    HW123492   2.569   1.891   5.847 -1.0441 -0.3173  3.9843
 4011SOL    HW223493   2.506   1.789   5.916  0.8263  0.8101  0.2633
 4012SOL     OW23494   1.832   1.133   1.681  0.6196 -0.1359  0.0374
 4012SOL    HW123495   1.813   1.175   1.765  1.0198  0.9046 -0.3917
 4012SOL    HW223496   1.854   1.042   1.701  2.5583  0.1407 -0.7584
 4013SOL     OW23497   4.659   1.702   0.755  0.2950  0.2512 -0.1595
 4013SOL    HW123498   0.015   1.660   0.722 -1.0899 -0.7305 -2.2072
 4013SOL    HW223499   4.604   1.702   0.678 -0.3649 -0.8312  0.3234
 4014SOL     OW23500   2.397   3.626  10.141 -0.0353  0.1382 -0.5819
 4014SOL    HW123501   2.491   3.614  10.126  0.2101  2.1857 -0.6152
 4014SOL    HW223502   2.393   3.643  10.235 -0.3094 -0.5435 -0.4673
 4015SOL     OW23503   3.757   3.662  15.939 -0.1002 -0.2829  0.3180
 4015SOL    HW123504   3.833   3.614  15.975 -1.1990 -2.5611 -0.3946
 4015SOL    HW223505   3.702   3.596  15.897 -0.6948  0.5789 -0.2372
 4016SOL     OW23506   3.166   1.370  11.710  0.2351  0.2085  0.2529
 4016SOL    HW123507   3.131   1.438  11.768 -1.3028  0.2263 -0.6995
 4016SOL    HW223508   3.088   1.340  11.664  0.1894  1.2240 -0.3225
 4017SOL     OW23509   2.143   1.636   4.198  0.3677 -0.0485  0.0591
 4017SOL    HW123510   2.189   1.652   4.116 -0.3638  1.5357 -0.0421
 4017SOL    HW223511   2.120   1.546   4.175  2.6642 -1.0570  1.7494
 4018SOL     OW23512   4.530   2.863   7.713 -0.2959  0.7747 -0.6726
 4018SOL    HW123513   4.522   2.918   7.635 -1.6188  0.7169 -0.5830
 4018SOL    HW223514   4.457   2.803   7.701  1.5462 -1.8217  1.0578
 4019SOL     OW23515   2.588   1.290   6.915  0.4993 -0.0111  0.8442
 4019SOL    HW123516   2.552   1.256   6.997  2.0749 -2.1746  0.6264
 4019SOL    HW223517   2.635   1.369   6.943  1.3398 -0.6278  1.1917
 4020SOL     OW23518   4.508   3.199   7.776  0.6875 -0.0138 -0.3174
 4020SOL    HW123519   4.461   3.120   7.751  0.9409 -0.1160 -0.4644
 4020SOL    HW223520   4.476   3.260   7.710  1.7075  0.0330 -0.7566
 4021SOL     OW23521   4.023   4.457  14.740 -0.3544 -0.2569  0.1034
 4021SOL    HW123522   4.093   4.494  14.793  0.4718 -3.0788  0.9938
 4021SOL    HW223523   4.077   4.390  14.699 -3.0699 -2.0337 -0.6053
 4022SOL     OW23524   4.523   1.356  15.158  0.0676 -0.6816  0.0359
 4022SOL    HW123525   4.591   1.406  15.202 -0.7438  0.0818  0.4218
 4022SOL    HW223526   4.551   1.264  15.156  0.8519 -0.4039 -1.6764
 4023SOL     OW23527   2.240   0.165   6.024  0.0064  0.2863  0.5522
 4023SOL    HW123528   2.208   0.208   5.945  0.2032 -0.0277  0.3033
 4023SOL    HW223529   2.207   0.233   6.082 -1.1146 -1.3496  1.8169
 4024SOL     OW23530   0.985   0.214  10.126 -0.5004 -0.0503 -0.9045
 4024SOL    HW123531   0.918   0.148  10.141 -0.6826  0.3241 -0.0589
 4024SOL    HW223532   0.976   0.256  10.211 -1.0144  4.2084 -3.0469
 4025SOL     OW23533   2.981   0.471  15.957 -0.0266 -0.0854  0.6880
 4025SOL    HW123534   2.939   0.385  15.960 -2.4248  1.0563 -1.2805
 4025SOL    HW223535   2.995   0.497  16.048  0.9653 -1.6422  0.9891
 4026SOL     OW23536   3.004   3.427   4.161 -0.2082  0.0979 -0.6117
 4026SOL    HW123537   3.097   3.405   4.151  0.3290  2.0593  0.1873
 4026SOL    HW223538   2.992   3.404   4.254  1.6528 -0.7124 -0.5648
 4027SOL     OW23539   3.616   4.664  12.133  0.1938  0.5504  0.3440
 4027SOL    HW123540   3.622   4.722  12.209  1.2866 -0.6172  1.1372
 4027SOL    HW223541   3.582   4.715  12.059 -1.0901 -2.1362 -0.8920
 4028SOL     OW23542   0.462   3.882  15.772  0.1259  0.0880  0.2840
 4028SOL    HW123543   0.463   3.844  15.684  0.0961  0.3927  0.1529
 4028SOL    HW223544   0.421   3.965  15.747 -0.0641  0.0773  0.5597
 4029SOL     OW23545   0.914   0.692  15.977 -0.2559  0.0503  0.2907
 4029SOL    HW123546   0.881   0.679  15.889  1.5745 -0.1800 -0.3642
 4029SOL    HW223547   1.006   0.715  15.968 -0.5640  0.8698 -0.7375
 4030SOL     OW23548   2.273   0.114   3.879  0.2274 -0.2056  0.1740
 4030SOL    HW123549   2.231   0.196   3.904 -2.0626 -1.6518  1.0974
 4030SOL    HW223550   2.254   0.055   3.951  1.1746 -1.1007 -0.2972
 4031SOL     OW23551   1.523   0.414   0.349 -0.0246  0.1119  0.0741
 4031SOL    HW123552   1.490   0.452   0.267 -1.4357 -1.2345  0.0313
 4031SOL    HW223553   1.449   0.455   0.394 -0.3333 -0.1335 -0.2133
 4032SOL     OW23554   0.523   2.440   3.452  0.1344 -0.0353  0.0635
 4032SOL    HW123555   0.592   2.430   3.386 -1.5109  0.9934 -1.8054
 4032SOL    HW223556   0.531   2.536   3.460  0.5152 -0.0085 -0.6002
 4033SOL     OW23557   0.818   3.912   0.005 -0.0257 -0.1569  0.0713
 4033SOL    HW123558   0.828   4.005   0.024 -0.9992 -0.2015  0.8112
 4033SOL    HW223559   0.732   3.909  17.658  0.1591 -1.0802 -0.2439
 4034SOL     OW23560   0.484   0.381  12.247 -0.1259  0.5130 -0.3417
 4034SOL    HW123561   0.547   0.317  12.214 -1.6778 -1.4871  0.5329
 4034SOL    HW223562   0.535   0.428  12.312 -2.0571 -1.1394  2.3579
 4035SOL     OW23563   4.512   0.324   6.543 -0.3184 -0.2225 -0.1234
 4035SOL    HW123564   4.435   0.375   6.519  0.9145  0.3903 -2.8128
 4035SOL    HW223565   4.593   0.366   6.514 -2.3176  4.5227  1.0939
 4036SOL     OW23566   3.019   1.103  12.143 -0.3793  0.5892 -0.0194
 4036SOL    HW123567   2.944   1.159  12.123  0.1180  0.4756 -2.1682
 4036SOL    HW223568   2.992   1.024  12.096 -1.0808  0.5186  0.5076
 4037SOL     OW23569   3.810   4.399  14.911 -0.4004 -0.4161 -0.5302
 4037SOL    HW123570   3.883   4.410  14.851  0.1943 -0.4831  0.1808
 4037SOL    HW223571   3.799   4.493  14.925 -0.2260 -0.5138  0.2827
 4038SOL     OW23572   0.900   0.312   5.529  0.1597  0.0431 -0.1522
 4038SOL    HW123573   0.920   0.405   5.543 -2.4295  0.5269  0.4255
 4038SOL    HW223574   0.982   0.273   5.560 -1.3293 -2.1762  0.9410
 4039SOL     OW23575   2.215   4.491  13.715  0.1167  0.4676 -0.4712
 4039SOL    HW123576   2.211   4.583  13.740  0.9415  1.0028 -2.3121
 4039SOL    HW223577   2.198   4.503  13.622 -2.1537  0.0730 -0.1164
 4040SOL     OW23578   4.176   1.489  17.128 -0.4101  0.7643  0.2819
 4040SOL    HW123579   4.183   1.572  17.081  2.3964  0.4462  0.1265
 4040SOL    HW223580   4.244   1.437  17.084  0.7731  2.5012  0.0532
 4041SOL     OW23581   3.402   2.224   3.056  0.0944 -0.4123  0.1101
 4041SOL    HW123582   3.440   2.245   3.142  2.6529 -1.1796 -0.8518
 4041SOL    HW223583   3.409   2.311   3.016  2.1045 -0.4637  0.3446
 4042SOL     OW23584   2.803   2.260   4.167  0.4620  0.2473  0.5257
 4042SOL    HW123585   2.735   2.315   4.205 -1.7406 -1.6215 -0.7163
 4042SOL    HW223586   2.782   2.256   4.074 -0.6380 -0.1455  0.7938
 4043SOL     OW23587   1.322   0.055   9.524  0.7565 -0.0290  0.1405
 4043SOL    HW123588   1.392   0.119   9.536  0.4098  0.4956 -0.6360
 4043SOL    HW223589   1.359   4.696   9.556 -1.1412 -1.5522 -1.5989
 4044SOL     OW23590   1.573   3.802   8.770 -0.3226  0.5939 -0.6030
 4044SOL    HW123591   1.492   3.840   8.805 -0.3786  0.1884 -0.2926
 4044SOL    HW223592   1.597   3.871   8.708  3.7976  0.0585  0.4520
 4045SOL     OW23593   2.096   3.423  12.712  0.3998 -0.6577 -0.1125
 4045SOL    HW123594   2.151   3.400  12.637  0.7028 -0.9128  0.1851
 4045SOL    HW223595   2.057   3.504  12.681 -1.7384 -0.7553  2.2715
 4046SOL     OW23596   1.100   3.452  13.079 -0.7108  0.4523  0.3802
 4046SOL    HW123597   1.136   3.489  13.160  1.4997 -0.6631 -0.0839
 4046SOL    HW223598   1.009   3.441  13.107 -0.9937  0.1632 -0.6648
 4047SOL     OW23599   1.983   1.455   9.150  0.0439  0.2210  0.3423
 4047SOL    HW123600   1.911   1.518   9.155  0.7768  1.1406 -0.7497
 4047SOL    HW223601   2.042   1.484   9.221  2.3633  1.7561 -2.1935
 4048SOL     OW23602   2.074   4.224  17.559  0.1849  0.1549 -0.1750
 4048SOL    HW123603   2.152   4.220  17.615 -1.6380 -3.2592  2.1508
 4048SOL    HW223604   2.011   4.249  17.627 -1.3447 -0.9410 -1.2038
 4049SOL     OW23605   3.996   2.167  11.300 -0.4727 -0.2932 -0.0303
 4049SOL    HW123606   3.914   2.122  11.279 -0.6522 -0.2388  0.5577
 4049SOL    HW223607   4.054   2.147  11.227  1.5920  0.8152  1.3151
 4050SOL     OW23608   2.434   4.199   7.922  0.1591  0.0699  0.1367
 4050SOL    HW123609   2.522   4.225   7.895 -0.1371 -0.3311 -1.2198
 4050SOL    HW223610   2.410   4.131   7.859  3.9981  0.3290 -1.5984
 4051SOL     OW23611   2.368   3.135  10.314  0.0463 -0.5661  0.0844
 4051SOL    HW123612   2.360   3.045  10.282 -1.1331 -0.8386  1.1509
 4051SOL    HW223613   2.328   3.130  10.401 -0.8392  1.9285 -0.1701
 4052SOL     OW23614   2.427   4.704   5.900 -0.0084  0.2329 -0.0551
 4052SOL    HW123615   2.390   4.634   5.847 -2.0206  0.6943  0.7337
 4052SOL    HW223616   2.351   4.723   5.956 -1.2989  1.0903 -2.0979
 4053SOL     OW23617   3.581   0.966  13.045  0.3262  0.0779 -0.3247
 4053SOL    HW123618   3.592   1.006  13.131  0.1718 -1.5232  0.4466
 4053SOL    HW223619   3.542   1.032  12.987  1.0617 -1.0411 -2.0955
 4054SOL     OW23620   0.170   1.544   6.730 -0.1977  0.0017  0.2663
 4054SOL    HW123621   0.230   1.479   6.768  0.4326  0.8198  0.6701
 4054SOL    HW223622   0.130   1.502   6.654 -0.5526  1.6672 -0.4661
 4055SOL     OW23623   0.159   4.327   6.005  0.3021 -0.2892  0.0005
 4055SOL    HW123624   0.076   4.278   6.010  0.0346  0.2681  1.0207
 4055SOL    HW223625   0.184   4.311   5.915 -0.0846  0.7563 -0.2910
 4056SOL     OW23626   3.884   1.035   3.573  0.1897  0.5860 -0.0546
 4056SOL    HW123627   3.826   0.995   3.637  1.6319 -1.6395 -0.1491
 4056SOL    HW223628   3.895   0.954   3.524 -0.8355  0.9625 -0.8914
 4057SOL     OW23629   3.551   4.218  14.633  0.2165  0.3707  0.1893
 4057SOL    HW123630   3.602   4.203  14.713  0.0447  0.5702  0.3369
 4057SOL    HW223631   3.615   4.198  14.565 -0.8233  0.5460 -0.8395
 4058SOL     OW23632   1.071   3.426  12.763 -0.3600  0.4476 -0.2773
 4058SOL    HW123633   0.984   3.458  12.787 -0.8849 -0.4739 -1.0006
 4058SOL    HW223634   1.070   3.435  12.668  0.5614 -0.7760 -0.3998
 4059SOL     OW23635   0.706   2.902  16.862 -0.3829 -0.0677  0.1834
 4059SOL    HW123636   0.771   2.947  16.808  0.3118 -1.7395 -0.3903
 4059SOL    HW223637   0.666   2.851  16.790  0.9420 -1.2878  0.3082
 4060SOL     OW23638   0.170   2.204   8.959 -0.4042 -0.1815 -0.2529
 4060SOL    HW123639   0.157   2.178   9.050  0.3329 -0.4001 -0.2114
 4060SOL    HW223640   0.258   2.238   8.973 -0.3439 -0.6225  0.4255
 4061SOL     OW23641   0.480   3.389  14.397 -0.8210  0.1947  0.6834
 4061SOL    HW123642   0.520   3.305  14.374 -0.8914 -0.4846  3.0565
 4061SOL    HW223643   0.526   3.415  14.476  0.5605 -1.2735  0.3591
 4062SOL     OW23644   2.009   4.225   8.230 -0.1267 -0.5243 -0.2462
 4062SOL    HW123645   2.064   4.202   8.155  2.0621 -0.2342  1.2676
 4062SOL    HW223646   2.000   4.140   8.273 -0.4210 -0.7598 -0.7660
 4063SOL     OW23647   2.524   1.664   2.579 -0.0855  0.5650 -0.3145
 4063SOL    HW123648   2.481   1.618   2.508  0.7755 -0.2205 -0.3167
 4063SOL    HW223649   2.573   1.719   2.518  0.2200  0.7303  0.0818
 4064SOL     OW23650   4.572   1.890   8.707 -0.3967 -0.0410  0.7174
 4064SOL    HW123651   4.521   1.865   8.784  2.0457  1.8309  2.9166
 4064SOL    HW223652   4.611   1.811   8.669  1.3626  0.6066  1.1877
 4065SOL     OW23653   1.364   0.135   0.362  0.1498 -0.1938  0.1484
 4065SOL    HW123654   1.306   0.172   0.428  0.6709  0.4848  0.2219
 4065SOL    HW223655   1.323   0.173   0.284  0.7204  0.7322  0.2947
 4066SOL     OW23656   1.570   0.050   2.467  0.6202 -0.2623 -0.1770
 4066SOL    HW123657   1.566   0.140   2.501  2.9856  1.4492 -4.3565
 4066SOL    HW223658   1.665   0.036   2.466  0.5853 -0.4612 -1.5502
 4067SOL     OW23659   1.612   1.872  10.430 -0.8559 -0.0447 -0.0242
 4067SOL    HW123660   1.599   1.960  10.393 -0.0689  0.2092  0.2983
 4067SOL    HW223661   1.527   1.874  10.474 -0.5117  0.2685  0.6356
 4068SOL     OW23662   2.815   3.426  17.524 -0.0157 -0.8149 -0.8128
 4068SOL    HW123663   2.889   3.469  17.481 -2.1109  0.8938 -2.6612
 4068SOL    HW223664   2.743   3.487  17.507  1.0299  0.4788 -0.6093
 4069SOL     OW23665   0.875   1.813  16.471 -0.5616  0.3159 -0.4130
 4069SOL    HW123666   0.926   1.734  16.487 -1.1592  0.4236  2.1070
 4069SOL    HW223667   0.788   1.779  16.493  0.2906 -0.6103  1.5744
 4070SOL     OW23668   1.437   4.627   0.210 -0.0489  0.5219  0.2453
 4070SOL    HW123669   1.532   4.625   0.202 -0.1649  2.9042 -1.4101
 4070SOL    HW223670   1.429   4.719   0.235 -0.1166  0.4119  0.6381
 4071SOL     OW23671   1.095   3.800   8.214  0.5345  0.2192 -0.0301
 4071SOL    HW123672   1.045   3.728   8.254 -1.7061  0.5676 -2.1585
 4071SOL    HW223673   1.174   3.755   8.185 -1.8525 -2.8711 -1.7801
 4072SOL     OW23674   2.721   3.005   4.926 -0.4691  0.0102  0.1522
 4072SOL    HW123675   2.700   2.940   4.993  0.0216  0.3503  0.6363
 4072SOL    HW223676   2.763   3.070   4.982 -0.8706  0.2207  0.2052
 4073SOL     OW23677   0.668   0.176   0.388 -0.3155  0.2362  0.2788
 4073SOL    HW123678   0.583   0.140   0.362  1.0030 -2.7361  0.0048
 4073SOL    HW223679   0.639   0.258   0.428 -1.9919 -0.9177  1.4762
 4074SOL     OW23680   4.345   1.952   0.399  0.2321 -0.2689 -0.3447
 4074SOL    HW123681   4.311   2.023   0.454 -2.6080 -0.8117 -1.4115
 4074SOL    HW223682   4.436   1.982   0.402  0.4278 -0.9599  1.0843
 4075SOL     OW23683   4.494   2.010   3.849 -0.0694 -0.6845  0.4822
 4075SOL    HW123684   4.501   1.922   3.810  0.0148 -1.1632  1.5814
 4075SOL    HW223685   4.580   2.015   3.891 -0.0958  1.8326  0.2310
 4076SOL     OW23686   2.686   1.621  15.546  0.0195 -0.1302 -0.0088
 4076SOL    HW123687   2.738   1.696  15.575  0.7267 -0.5794 -0.1089
 4076SOL    HW223688   2.658   1.637  15.456 -0.7735  0.9549  0.4336
 4077SOL     OW23689   1.211   0.342   5.987  0.6115 -0.2029 -0.0564
 4077SOL    HW123690   1.303   0.358   5.966  1.0880 -1.0777  1.3596
 4077SOL    HW223691   1.207   0.382   6.074  1.8357  1.6066 -0.8273
 4078SOL     OW23692   0.358   2.304   6.455 -0.2863  0.0196  0.1162
 4078SOL    HW123693   0.333   2.234   6.515  3.0991 -1.3507 -0.0704
 4078SOL    HW223694   0.345   2.272   6.366 -1.1907  0.2465  0.1757
 4079SOL     OW23695   3.602   4.079   3.428  0.1443 -0.1025 -0.6865
 4079SOL    HW123696   3.526   4.136   3.438  0.0586 -0.2150 -0.6974
 4079SOL    HW223697   3.571   4.009   3.486  0.9414  0.9483  0.9901
 4080SOL     OW23698   3.967   3.847   0.409 -0.7357 -0.6733 -0.4644
 4080SOL    HW123699   3.909   3.911   0.368 -1.3800 -0.3699  0.9294
 4080SOL    HW223700   3.985   3.893   0.491  4.9771 -4.9119  0.7169
 4081SOL     OW23701   0.912   2.163   2.770  0.1090  0.3322 -0.3127
 4081SOL    HW123702   0.916   2.181   2.676 -0.0811 -0.1263 -0.4051
 4081SOL    HW223703   0.995   2.116   2.783  0.6484  1.1501 -0.7428
 4082SOL     OW23704   2.117   0.806  12.803  0.0819  0.4568 -0.5669
 4082SOL    HW123705   2.040   0.790  12.747 -0.7874  0.5718  0.5963
 4082SOL    HW223706   2.142   0.886  12.756  2.7110 -1.1635 -1.9470
 4083SOL     OW23707   0.816   1.481   4.029  0.2227 -0.1664  0.2204
 4083SOL    HW123708   0.884   1.457   3.966  0.2223 -0.7979  0.4601
 4083SOL    HW223709   0.832   1.418   4.099  1.9201 -0.9986 -0.9551
 4084SOL     OW23710   0.468   4.065   6.556 -0.1077  0.1705 -1.0880
 4084SOL    HW123711   0.494   4.155   6.537  1.2567 -0.7951 -3.6710
 4084SOL    HW223712   0.410   4.055   6.480 -1.1972  0.7549 -0.3398
 4085SOL     OW23713   4.323   0.521  15.857  0.0082 -0.3782 -0.2593
 4085SOL    HW123714   4.266   0.590  15.824  2.8695  1.2456 -1.8326
 4085SOL    HW223715   4.263   0.481  15.920 -0.9093  0.1848 -0.7782
 4086SOL     OW23716   0.382   3.248  11.899 -0.2589 -0.5578  0.2333
 4086SOL    HW123717   0.310   3.242  11.961  0.3384  1.0060  1.0580
 4086SOL    HW223718   0.426   3.163  11.908  0.9159  0.1962  1.5448
 4087SOL     OW23719   1.054   0.423   7.276  0.1490  0.3082 -0.4832
 4087SOL    HW123720   1.052   0.449   7.368  1.3628 -0.3769 -0.2552
 4087SOL    HW223721   1.128   0.362   7.281 -0.0783 -0.0386 -1.2240
 4088SOL     OW23722   1.111   2.708   6.331  0.4169  0.2319  0.2076
 4088SOL    HW123723   1.134   2.749   6.414 -1.9799 -3.0745  2.4689
 4088SOL    HW223724   1.061   2.783   6.296  1.2602  0.1740 -1.1264
 4089SOL     OW23725   2.725   2.048   5.391 -0.1589 -0.2503  0.7349
 4089SOL    HW123726   2.795   1.983   5.397 -0.5185 -0.4802  2.3764
 4089SOL    HW223727   2.752   2.104   5.318 -1.6097 -1.1168 -0.4586
 4090SOL     OW23728   0.096   2.309   6.950 -0.2105  0.3744 -0.3996
 4090SOL    HW123729   0.009   2.308   6.990 -0.3062 -1.7581 -0.6468
 4090SOL    HW223730   0.132   2.225   6.979  1.0357  1.9426  2.6822
 4091SOL     OW23731   1.661   0.454   2.815 -0.4510 -0.1951  0.0745
 4091SOL    HW123732   1.676   0.542   2.847 -2.4928 -0.3947  1.5394
 4091SOL    HW223733   1.575   0.435   2.850 -0.3224  1.9725  1.5287
 4092SOL     OW23734   4.119   4.050   7.622 -0.3663 -0.1687 -0.0352
 4092SOL    HW123735   4.207   4.020   7.643 -0.4829  0.3388  1.1342
 4092SOL    HW223736   4.128   4.108   7.546  1.4568 -1.7174 -1.0063
 4093SOL     OW23737   0.625   1.355  15.206 -0.3278  0.0029 -0.5309
 4093SOL    HW123738   0.677   1.430  15.233  0.1068 -0.1167 -1.0380
 4093SOL    HW223739   0.599   1.379  15.117  1.1331  3.4981 -0.0058
 4094SOL     OW23740   0.113   1.256  11.537  0.0967  0.1562 -0.1195
 4094SOL    HW123741   0.168   1.308  11.478 -1.6038  0.1060 -1.7410
 4094SOL    HW223742   0.155   1.170  11.531 -0.0257 -0.0712  2.3267
 4095SOL     OW23743   0.014   1.585  15.612 -0.0141 -0.2555 -0.3562
 4095SOL    HW123744   4.648   1.599  15.643 -0.2442 -1.7625 -0.3518
 4095SOL    HW223745   0.064   1.573  15.692 -0.5772 -1.2514 -0.1529
 4096SOL     OW23746   4.368   3.019   9.876  0.1528 -0.3841  0.1433
 4096SOL    HW123747   4.439   3.071   9.915  0.1088 -0.5657  0.4595
 4096SOL    HW223748   4.412   2.934   9.881  0.6920 -0.2782 -2.4663
 4097SOL     OW23749   0.036   3.667  11.936 -0.2536 -0.0638  0.0696
 4097SOL    HW123750   0.094   3.663  12.012 -1.1145  2.9578  0.8874
 4097SOL    HW223751   0.088   3.713  11.870 -0.0038 -0.3969  0.0342
 4098SOL     OW23752   0.154   3.485  14.055 -0.2419  0.1721 -0.0393
 4098SOL    HW123753   0.084   3.439  14.100 -0.0526  1.3898  1.5086
 4098SOL    HW223754   0.105   3.537  13.991 -0.1159  1.1876  0.6792
 4099SOL     OW23755   1.746   1.315   7.874 -0.3505  0.2236 -0.3178
 4099SOL    HW123756   1.788   1.251   7.818  2.1992  0.5459  1.2514
 4099SOL    HW223757   1.774   1.394   7.828  0.0082 -1.0071 -2.2232
 4100SOL     OW23758   2.788   1.953   7.799  0.1758  0.5221 -0.6177
 4100SOL    HW123759   2.719   2.017   7.818 -1.7915 -1.9788  0.6260
 4100SOL    HW223760   2.804   1.975   7.707 -1.2610  0.0517 -0.9729
 4101SOL     OW23761   1.798   0.287   9.755 -0.1812 -0.0184 -0.4095
 4101SOL    HW123762   1.888   0.276   9.786 -0.3538 -0.3296 -0.0137
 4101SOL    HW223763   1.747   0.255   9.829  0.0200 -3.4955 -1.7482
 4102SOL     OW23764   2.740   3.987   8.576  0.1763 -0.2712 -0.4538
 4102SOL    HW123765   2.703   3.982   8.487  0.3283  4.7755 -0.8315
 4102SOL    HW223766   2.830   4.008   8.553 -0.4347  3.0337  0.1802
 4103SOL     OW23767   3.889   3.320   1.978 -0.2833  1.1605  0.0415
 4103SOL    HW123768   3.884   3.302   1.884  2.3254  1.6272 -0.1751
 4103SOL    HW223769   3.823   3.261   2.014 -1.5875  1.8294 -1.2391
 4104SOL     OW23770   4.049   3.124   7.475 -0.6214  0.3359 -0.0648
 4104SOL    HW123771   4.054   3.089   7.386 -2.0822  1.3247 -0.5549
 4104SOL    HW223772   3.979   3.190   7.471 -0.8425  0.1834  1.4660
 4105SOL     OW23773   4.501   0.940  10.294  0.1025  0.2844  0.3395
 4105SOL    HW123774   4.427   0.896  10.336 -1.5110  1.5573 -1.1672
 4105SOL    HW223775   4.470   1.029  10.313 -0.5452  0.0227  0.4885
 4106SOL     OW23776   0.977   0.384  15.312  0.4065  0.1379 -0.0947
 4106SOL    HW123777   0.934   0.459  15.270 -1.0658  0.7032  2.4227
 4106SOL    HW223778   1.018   0.347  15.234 -1.7867 -0.0826 -1.1673
 4107SOL     OW23779   2.089   0.158   3.393 -0.0918 -0.0491  0.6296
 4107SOL    HW123780   2.140   0.221   3.341 -1.8811  0.5448 -0.3921
 4107SOL    HW223781   2.132   0.169   3.478  1.3609  0.7169 -0.2111
 4108SOL     OW23782   3.853   2.454   1.926 -0.1356  0.0207  0.4482
 4108SOL    HW123783   3.917   2.405   1.978  2.1155  1.8953 -0.5694
 4108SOL    HW223784   3.771   2.442   1.974  0.2458  3.9632  2.0710
 4109SOL     OW23785   0.912   1.204   0.621  0.5014 -0.3006 -0.0550
 4109SOL    HW123786   0.975   1.146   0.579  3.4313  1.2936  2.1330
 4109SOL    HW223787   0.957   1.252   0.690 -1.8355  1.6875  0.1154
 4110SOL     OW23788   2.160   1.524   2.710 -0.2841  0.5383  0.7082
 4110SOL    HW123789   2.144   1.612   2.742  1.9777  0.3998  2.1167
 4110SOL    HW223790   2.145   1.524   2.615  0.6555  0.1238  0.5581
 4111SOL     OW23791   0.208   0.028   3.151  0.3420 -0.3976  0.2967
 4111SOL    HW123792   0.173   0.004   3.065 -2.6126 -0.0141  1.3794
 4111SOL    HW223793   0.249   4.669   3.180 -0.0095 -0.4711  0.5870
 4112SOL     OW23794   2.453   0.059  10.249 -0.1797  0.7247  0.3216
 4112SOL    HW123795   2.441   4.688  10.260  0.8650  0.4931 -0.5243
 4112SOL    HW223796   2.501   0.073  10.330  4.1779  1.3791 -2.3851
 4113SOL     OW23797   3.916   2.085   2.876  0.0894  0.1899 -0.3957
 4113SOL    HW123798   3.933   2.115   2.965  1.9396 -0.4088 -0.5370
 4113SOL    HW223799   3.838   2.031   2.888 -0.9126  1.1909 -2.3441
 4114SOL     OW23800   2.823   2.684   3.555  0.5946 -0.2269 -0.4356
 4114SOL    HW123801   2.858   2.668   3.468 -1.2348  1.0616 -1.4013
 4114SOL    HW223802   2.741   2.636   3.550 -0.4726  1.5909 -0.3910
 4115SOL     OW23803   0.479   1.776  12.104  0.1419  0.0029 -0.5150
 4115SOL    HW123804   0.392   1.787  12.067  0.5130 -0.7328 -1.5902
 4115SOL    HW223805   0.453   1.760  12.195  0.1495 -0.0902 -0.5294
 4116SOL     OW23806   2.699   1.195  13.933 -0.6156  0.4413  0.0808
 4116SOL    HW123807   2.766   1.224  13.995 -2.5544 -3.3139  3.9083
 4116SOL    HW223808   2.618   1.230  13.970 -3.2353 -1.3636 -3.9184
 4117SOL     OW23809   1.801   3.369  15.844  0.8649  0.1476 -0.0429
 4117SOL    HW123810   1.745   3.370  15.922  0.4362 -3.6313 -0.3264
 4117SOL    HW223811   1.773   3.292  15.795  2.0200 -0.5277  0.3587
 4118SOL     OW23812   1.656   2.042   1.455 -0.1727  0.2658  0.5542
 4118SOL    HW123813   1.707   1.996   1.389 -1.1151 -1.9243  1.3494
 4118SOL    HW223814   1.580   2.071   1.406  0.3770  2.5489  1.0669
 4119SOL     OW23815   2.827   2.816   3.262 -0.0842 -0.1133  0.4850
 4119SOL    HW123816   2.767   2.750   3.226  0.5343 -0.6504  0.4259
 4119SOL    HW223817   2.905   2.762   3.274  0.5920  0.9091  0.6733
 4120SOL     OW23818   1.426   0.519  11.268 -0.2206 -0.4208  0.3274
 4120SOL    HW123819   1.461   0.440  11.227  0.9550 -0.6113  1.7015
 4120SOL    HW223820   1.407   0.581  11.198  1.0583 -1.7127 -1.1794
 4121SOL     OW23821   0.468   1.690   3.734 -0.8233 -0.1823 -0.5718
 4121SOL    HW123822   0.480   1.629   3.807 -0.8962 -0.8763 -1.1365
 4121SOL    HW223823   0.536   1.756   3.745 -0.0147 -0.5685 -3.2197
 4122SOL     OW23824   3.572   3.561   3.759  0.0058 -0.3572 -0.6679
 4122SOL    HW123825   3.496   3.507   3.740 -0.2150 -0.6137  0.9555
 4122SOL    HW223826   3.644   3.508   3.723  1.2679  3.1716 -3.3869
 4123SOL     OW23827   2.756   2.536   9.145  0.1263 -0.5114 -0.3387
 4123SOL    HW123828   2.767   2.580   9.230 -2.9397 -1.7935  0.6991
 4123SOL    HW223829   2.845   2.530   9.109  0.0648 -1.2842 -0.3475
 4124SOL     OW23830   4.151   0.940   3.572  0.2059 -0.2302 -0.6006
 4124SOL    HW123831   4.082   0.989   3.615  1.1338 -0.7054  1.4433
 4124SOL    HW223832   4.215   0.919   3.640  0.4100 -1.5302 -1.1969
 4125SOL     OW23833   3.446   3.312   9.163  0.6069 -0.1406 -0.3082
 4125SOL    HW123834   3.469   3.396   9.203 -0.7773  2.3200 -4.6383
 4125SOL    HW223835   3.536   3.279   9.156  0.6439 -0.2914  0.8712
 4126SOL     OW23836   2.600   3.055   0.837  0.2054 -0.0333 -0.2241
 4126SOL    HW123837   2.614   3.129   0.896 -1.0855  0.5771 -0.6706
 4126SOL    HW223838   2.650   3.089   0.763 -2.8877  2.3891 -1.2013
 4127SOL     OW23839   0.827   0.533   4.376 -0.7794 -0.9185  0.3131
 4127SOL    HW123840   0.754   0.502   4.320 -0.2415 -1.7333  0.0561
 4127SOL    HW223841   0.802   0.514   4.466  2.0710 -1.2106  1.0406
 4128SOL     OW23842   2.657   2.736   7.649  0.0627 -0.3930  0.3785
 4128SOL    HW123843   2.681   2.705   7.736  1.3817 -1.5685 -0.3984
 4128SOL    HW223844   2.724   2.802   7.632  0.8132 -0.8106  1.7100
 4129SOL     OW23845   3.033   3.432   1.700 -0.2408  0.2926  0.0141
 4129SOL    HW123846   2.947   3.475   1.704  0.4559  1.6295  0.6190
 4129SOL    HW223847   3.032   3.390   1.786 -1.1852 -1.6565 -0.9491
 4130SOL     OW23848   0.840   1.706  16.839  0.0666  0.6622  0.0814
 4130SOL    HW123849   0.764   1.729  16.892 -2.2499 -1.2771 -2.4100
 4130SOL    HW223850   0.806   1.641  16.779  0.2107  1.0746 -0.4458
 4131SOL     OW23851   3.887   0.798   3.186  0.1755  0.8467 -0.1183
 4131SOL    HW123852   3.883   0.738   3.111  1.9358 -1.2877  1.4861
 4131SOL    HW223853   3.808   0.850   3.172  0.9938  1.9415 -0.7066
 4132SOL     OW23854   0.077   2.759   2.942  0.4863 -0.0039 -0.2290
 4132SOL    HW123855   0.033   2.833   2.901  1.2808  0.7397  0.2539
 4132SOL    HW223856   0.001   2.717   2.981 -0.2250  1.9869  0.5176
 4133SOL     OW23857   3.038   0.190   7.102 -0.3844  0.6151 -0.6341
 4133SOL    HW123858   3.061   0.231   7.186  0.2057 -0.6563 -0.1566
 4133SOL    HW223859   3.123   0.159   7.069 -0.6838 -0.5935 -0.3009
 4134SOL     OW23860   0.315   1.192  16.386  0.2094  0.2538  0.1523
 4134SOL    HW123861   0.282   1.102  16.391  1.2573 -0.0744  0.9921
 4134SOL    HW223862   0.403   1.175  16.354 -0.1244 -1.7003  0.2857
 4135SOL     OW23863   2.296   2.797  16.842  0.0023 -0.0786 -0.2817
 4135SOL    HW123864   2.258   2.766  16.760  2.1082  1.6507 -1.8968
 4135SOL    HW223865   2.263   2.887  16.844  1.4398  0.4062  1.5988
 4136SOL     OW23866   1.731   1.017   3.654  0.7589 -1.0137 -0.0085
 4136SOL    HW123867   1.666   1.039   3.587 -0.2008 -0.4965  1.0892
 4136SOL    HW223868   1.668   0.987   3.720  2.2581  0.0626  1.9105
 4137SOL     OW23869   0.307   4.709  14.757  0.2459  0.2361 -0.6572
 4137SOL    HW123870   0.383   0.040  14.736  0.6271  0.7204  1.9694
 4137SOL    HW223871   0.350   4.630  14.788  0.2869  0.4640 -0.1298
 4138SOL     OW23872   3.480   1.715   2.153 -0.7258  0.2637 -0.0508
 4138SOL    HW123873   3.384   1.725   2.150 -0.6625  0.8167 -0.2812
 4138SOL    HW223874   3.496   1.724   2.247  2.3642 -1.4245 -0.4220
 4139SOL     OW23875   2.069   2.263   0.103 -0.3152 -0.0102 -0.2395
 4139SOL    HW123876   2.007   2.322   0.060 -0.7728  0.0825  0.5588
 4139SOL    HW223877   2.084   2.194   0.037 -0.5565  1.7214 -2.1072
 4140SOL     OW23878   3.864   2.755  13.182  0.0949 -1.1092 -0.6001
 4140SOL    HW123879   3.851   2.707  13.264 -1.3964  1.9116  0.9044
 4140SOL    HW223880   3.835   2.843  13.202  0.9327 -0.8107 -0.6724
 4141SOL     OW23881   1.257   3.788  17.236  0.6809 -0.0361  0.8926
 4141SOL    HW123882   1.214   3.868  17.265 -1.3201 -0.3503 -1.2911
 4141SOL    HW223883   1.209   3.783  17.154  2.6446 -0.5056 -0.2435
 4142SOL     OW23884   4.044   2.751   1.369  0.1702  0.2734  0.1978
 4142SOL    HW123885   4.073   2.780   1.283  1.2118 -0.6854  0.2287
 4142SOL    HW223886   4.095   2.670   1.372 -0.1536  0.1006  1.3136
 4143SOL     OW23887   0.077   4.178   0.682 -0.4344 -0.0460  0.2158
 4143SOL    HW123888   0.071   4.262   0.728 -0.5843 -1.1094  2.1804
 4143SOL    HW223889   0.129   4.122   0.740 -1.7242  0.2351  1.6360
 4144SOL     OW23890   2.181   2.795   7.237 -0.3662 -0.6772  0.0585
 4144SOL    HW123891   2.250   2.751   7.286 -1.3824 -1.2093  1.0244
 4144SOL    HW223892   2.234   2.831   7.166  1.1871 -1.1238  0.9927
 4145SOL     OW23893   3.273   2.393   5.393  0.0641  0.0604 -0.1434
 4145SOL    HW123894   3.180   2.376   5.411 -0.2110 -0.7072 -2.3320
 4145SOL    HW223895   3.301   2.429   5.477  1.1557  0.8467 -0.8500
 4146SOL     OW23896   3.579   4.352   3.725  0.1600  0.4589 -0.3985
 4146SOL    HW123897   3.620   4.265   3.727 -0.0218  0.3264 -3.2651
 4146SOL    HW223898   3.652   4.409   3.750 -0.2065  1.9563 -2.7479
 4147SOL     OW23899   2.212   0.519   2.138 -0.3963  0.0585 -0.1332
 4147SOL    HW123900   2.218   0.473   2.054  0.3083  0.2490 -0.1889
 4147SOL    HW223901   2.301   0.554   2.142 -0.2193 -0.4370  0.4161
 4148SOL     OW23902   2.428   4.261   0.201  0.7062  0.4247 -0.0520
 4148SOL    HW123903   2.480   4.230   0.275 -0.4797 -2.4276 -0.4336
 4148SOL    HW223904   2.400   4.178   0.163 -0.7661  0.9293 -0.1044
 4149SOL     OW23905   2.351   4.047  14.754  0.3176 -0.4153  0.8215
 4149SOL    HW123906   2.309   4.128  14.783 -1.1712 -0.3778 -1.4267
 4149SOL    HW223907   2.274   4.017  14.705 -0.1078  0.2596  1.0740
 4150SOL     OW23908   4.199   3.701   5.058 -0.7820 -0.4315  0.2634
 4150SOL    HW123909   4.137   3.639   5.097 -2.2478  1.2641  0.6485
 4150SOL    HW223910   4.273   3.711   5.117  1.0655 -2.8821 -1.6601
 4151SOL     OW23911   0.351   1.964   8.503 -0.5427  0.5772  0.2747
 4151SOL    HW123912   0.342   2.010   8.586 -1.0755 -1.2541  1.2419
 4151SOL    HW223913   0.326   2.027   8.437 -2.7102  0.3498  0.8935
 4152SOL     OW23914   3.437   2.465   0.254  0.2209  0.0114 -0.1172
 4152SOL    HW123915   3.509   2.433   0.307 -1.2064 -1.0441  1.1820
 4152SOL    HW223916   3.388   2.385   0.233  2.1499 -1.6431  1.7961
 4153SOL     OW23917   0.532   3.459  12.813  0.4853  0.3828  0.2249
 4153SOL    HW123918   0.482   3.390  12.768 -0.7755  1.0300  0.6199
 4153SOL    HW223919   0.541   3.530  12.750 -3.6020  1.3010  0.6742
 4154SOL     OW23920   4.188   4.030   4.309 -0.2393 -0.3536  0.5072
 4154SOL    HW123921   4.123   3.961   4.292 -1.5932  0.5496  1.9859
 4154SOL    HW223922   4.210   4.052   4.218  2.8824 -0.5142  1.2301
 4155SOL     OW23923   0.597   3.834  14.337  0.7569 -0.5219  0.3571
 4155SOL    HW123924   0.584   3.739  14.334  0.1228 -0.4429  0.7388
 4155SOL    HW223925   0.565   3.857  14.424  0.9773 -2.9739  1.0885
 4156SOL     OW23926   2.362   3.241   2.601 -0.2312 -0.1935  0.0449
 4156SOL    HW123927   2.375   3.257   2.507  2.6033  1.0517  0.6391
 4156SOL    HW223928   2.411   3.319   2.630  0.9194  0.5976 -3.9403
 4157SOL     OW23929   1.578   1.624   7.316  0.0775 -0.5335  0.3229
 4157SOL    HW123930   1.590   1.687   7.387  2.2439  0.3418 -0.8166
 4157SOL    HW223931   1.671   1.610   7.298  0.1589  0.0345  0.2929
 4158SOL     OW23932   3.610   3.535  10.967 -0.0948  0.0932  0.6547
 4158SOL    HW123933   3.556   3.598  10.920  0.1595 -0.0031  0.2298
 4158SOL    HW223934   3.560   3.456  10.947  2.6608 -1.5020  0.1319
 4159SOL     OW23935   1.303   2.659   2.601  0.2011 -0.2056 -0.6924
 4159SOL    HW123936   1.227   2.601   2.608 -0.4810  0.5924 -1.5057
 4159SOL    HW223937   1.349   2.625   2.677  1.6146  2.3214 -0.4223
 4160SOL     OW23938   1.003   2.028  15.167  0.0422  0.3869 -0.3673
 4160SOL    HW123939   1.028   1.960  15.105  1.4819  1.0005 -0.4648
 4160SOL    HW223940   0.911   2.002  15.164  0.1500 -0.2678  2.0363
 4161SOL     OW23941   4.372   2.116  11.637 -0.3904 -0.6627  0.2613
 4161SOL    HW123942   4.376   2.057  11.712 -3.0486  0.2629  1.1210
 4161SOL    HW223943   4.411   2.196  11.671 -0.6642  0.6999 -2.5597
 4162SOL     OW23944   3.934   4.002   1.164 -0.1097  0.0992 -0.8105
 4162SOL    HW123945   3.920   3.957   1.081 -2.0062 -1.5173  0.3830
 4162SOL    HW223946   3.993   3.940   1.207 -0.8234  0.8566  1.2683
 4163SOL     OW23947   2.390   3.128  15.850 -0.1951 -0.6945 -0.1226
 4163SOL    HW123948   2.326   3.103  15.916  0.9202  3.0541  2.3525
 4163SOL    HW223949   2.341   3.113  15.769 -1.3150  3.6859 -0.2432
 4164SOL     OW23950   1.068   0.608   5.135  0.1378  0.2750  0.2164
 4164SOL    HW123951   1.148   0.654   5.111 -0.7379  0.8683 -1.5915
 4164SOL    HW223952   0.996   0.653   5.091 -2.0275 -0.2918  3.1726
 4165SOL     OW23953   1.606   1.541   5.382  0.1927 -0.1446 -0.2558
 4165SOL    HW123954   1.619   1.451   5.352  0.5391  0.3477 -1.5787
 4165SOL    HW223955   1.582   1.518   5.472  1.3419  0.3777  0.1805
 4166SOL     OW23956   2.167   4.059   4.089  0.0758 -0.0004 -0.2237
 4166SOL    HW123957   2.185   3.983   4.034 -2.2046 -0.5033 -0.2945
 4166SOL    HW223958   2.211   4.030   4.168 -1.8685  0.2632  0.9575
 4167SOL     OW23959   4.203   3.558   8.828 -0.5440 -0.4354  0.0387
 4167SOL    HW123960   4.161   3.548   8.743  1.1520  2.4955 -1.1338
 4167SOL    HW223961   4.186   3.651   8.842  3.1033  0.7609 -3.4340
 4168SOL     OW23962   0.384   2.393   6.895  0.1457 -0.1419  0.3395
 4168SOL    HW123963   0.406   2.460   6.829 -0.0301 -0.5297 -0.1175
 4168SOL    HW223964   0.295   2.407   6.927  0.5579 -0.4660  1.5944
 4169SOL     OW23965   0.701   2.898   6.304 -0.2263  0.4569  0.0281
 4169SOL    HW123966   0.757   2.932   6.373  1.2386 -0.9186 -0.4858
 4169SOL    HW223967   0.762   2.903   6.230  0.2003 -0.5450  0.3164
 4170SOL     OW23968   4.569   3.925   9.119 -0.1933  0.4724 -0.0878
 4170SOL    HW123969   4.631   3.897   9.052 -3.1291 -2.3719 -1.5942
 4170SOL    HW223970   4.605   3.885   9.198 -2.2860 -1.4435 -0.1151
 4171SOL     OW23971   0.785   2.607  13.674  0.2813 -0.0603 -0.0118
 4171SOL    HW123972   0.872   2.619  13.636  0.4266 -0.1855  0.2812
 4171SOL    HW223973   0.790   2.673  13.744  0.4469 -0.2869  0.1886
 4172SOL     OW23974   3.657   2.420   3.973 -0.0625 -0.0482 -0.6991
 4172SOL    HW123975   3.724   2.466   4.023  1.8336 -3.8077  0.2443
 4172SOL    HW223976   3.656   2.468   3.890 -1.6314  0.8740 -0.1553
 4173SOL     OW23977   0.308   0.931  15.238  0.4025 -0.0888 -0.7084
 4173SOL    HW123978   0.352   0.909  15.155  0.4421  0.3100 -0.7926
 4173SOL    HW223979   0.230   0.978  15.209  0.2558 -0.1265 -0.3651
 4174SOL     OW23980   4.034   2.392  13.344 -0.0274 -0.1603 -0.1235
 4174SOL    HW123981   4.078   2.403  13.260 -0.6404 -2.1791 -0.6845
 4174SOL    HW223982   4.099   2.429  13.405 -0.0830  0.6570 -0.5592
 4175SOL     OW23983   2.987   2.143  16.118 -0.1116 -0.5764 -0.4361
 4175SOL    HW123984   3.061   2.199  16.143 -0.2384 -0.5814 -0.0449
 4175SOL    HW223985   2.975   2.080  16.190 -0.6820 -0.2702 -0.2639
 4176SOL     OW23986   0.616   2.365  10.441  0.1637 -0.2562 -0.3328
 4176SOL    HW123987   0.549   2.350  10.375  0.7645  1.0880 -1.2251
 4176SOL    HW223988   0.578   2.330  10.522  0.5813 -0.4456 -0.2147
 4177SOL     OW23989   4.062   0.674   7.208  0.2073 -0.4512  0.4780
 4177SOL    HW123990   3.970   0.690   7.191  0.7854  0.7868 -1.5335
 4177SOL    HW223991   4.086   0.647   7.119  1.3595  0.5699  0.4737
 4178SOL     OW23992   2.239   0.440   6.563  0.0738  0.2748 -0.0466
 4178SOL    HW123993   2.146   0.433   6.543 -0.0167 -0.0582  0.5081
 4178SOL    HW223994   2.240   0.535   6.573  1.8394  0.3485 -0.8357
 4179SOL     OW23995   0.765   3.907   3.236  0.4799 -0.3913  0.1692
 4179SOL    HW123996   0.692   3.927   3.178  0.7229  0.0109  0.0072
 4179SOL    HW223997   0.790   3.817   3.214  1.6662  0.5068 -2.0436
 4180SOL     OW23998   3.790   1.230   2.660  0.2681  0.5418 -0.2735
 4180SOL    HW123999   3.735   1.205   2.734  0.3789 -2.1350 -1.1109
 4180SOL    HW224000   3.725   1.260   2.597 -0.9150  0.0126  0.7028
 4181SOL     OW24001   1.019   1.184  17.257  0.0528 -0.1858 -0.4740
 4181SOL    HW124002   1.035   1.137  17.339 -0.4963  1.2363  0.4371
 4181SOL    HW224003   1.095   1.155  17.207  1.1936  0.8412  0.6623
 4182SOL     OW24004   1.167   2.410   5.596 -0.2896 -0.1122 -0.1184
 4182SOL    HW124005   1.122   2.492   5.615  1.0572  0.1115  2.1599
 4182SOL    HW224006   1.244   2.448   5.555 -1.5513  1.8812 -0.6352
 4183SOL     OW24007   3.073   3.938  11.128  0.0078  0.0722  0.1098
 4183SOL    HW124008   3.117   4.006  11.076 -1.9536  0.9735 -0.3691
 4183SOL    HW224009   3.121   3.953  11.209  1.9694 -3.2134 -0.4482
 4184SOL     OW24010   0.018   0.588   4.324 -0.2317 -0.3016 -0.5097
 4184SOL    HW124011   0.005   0.662   4.385  1.0482 -2.2320  2.1058
 4184SOL    HW224012   0.058   0.521   4.379 -0.2975  2.7170  3.2517
 4185SOL     OW24013   0.899   2.893   7.120  0.3993  0.5392 -0.0407
 4185SOL    HW124014   0.857   2.977   7.136 -0.3901 -0.5093  3.4326
 4185SOL    HW224015   0.857   2.846   7.192  0.3857  0.4958 -0.0767
 4186SOL     OW24016   4.402   4.475   6.691 -0.5612 -0.5790  0.3162
 4186SOL    HW124017   4.397   4.409   6.621 -3.8665 -2.8958  2.6902
 4186SOL    HW224018   4.386   4.554   6.641 -1.1945  0.5721  2.3295
 4187SOL     OW24019   1.431   1.543  17.155  0.3018  0.1328 -0.2248
 4187SOL    HW124020   1.497   1.611  17.168 -0.0029  0.3745  0.0697
 4187SOL    HW224021   1.350   1.589  17.178  0.4884 -0.1658  1.0369
 4188SOL     OW24022   4.476   3.399   6.523  0.2095 -0.3311 -0.2888
 4188SOL    HW124023   4.446   3.311   6.502 -0.8618 -0.1048  0.3181
 4188SOL    HW224024   4.527   3.412   6.443 -1.9930 -1.2298 -1.8587
 4189SOL     OW24025   0.386   3.498  10.455 -0.7184 -0.6771  0.0415
 4189SOL    HW124026   0.361   3.485  10.363 -0.2647 -2.5118  0.1841
 4189SOL    HW224027   0.316   3.553  10.491  0.1563  1.4217 -1.4722
 4190SOL     OW24028   1.304   1.062   2.845 -0.3412 -0.3228 -0.1789
 4190SOL    HW124029   1.343   0.979   2.818  0.9195  0.5013 -0.8708
 4190SOL    HW224030   1.238   1.042   2.912  0.4388  0.5712  0.8673
 4191SOL     OW24031   1.774   0.138   0.543 -0.5424 -0.3413  0.0637
 4191SOL    HW124032   1.824   0.184   0.475 -1.7908  3.6586  1.8119
 4191SOL    HW224033   1.804   0.048   0.534 -0.3562 -0.3903  1.2788
 4192SOL     OW24034   1.590   3.329   4.964 -0.0900 -0.8125  0.1533
 4192SOL    HW124035   1.610   3.334   4.870  0.5830 -1.3909  0.2672
 4192SOL    HW224036   1.502   3.291   4.958 -1.3141  1.9774  0.3490
 4193SOL     OW24037   0.971   0.332  15.582  0.0528 -0.4860  0.3184
 4193SOL    HW124038   0.979   0.345  15.488 -0.0969  0.6473  0.4688
 4193SOL    HW224039   0.912   0.257  15.588  1.6513 -1.7425  0.3791
 4194SOL     OW24040   2.722   4.130   2.708  0.0230 -0.5864 -0.2340
 4194SOL    HW124041   2.778   4.094   2.639  1.1924  3.1988 -1.2656
 4194SOL    HW224042   2.638   4.139   2.663 -0.4060 -2.3852  0.1902
 4195SOL     OW24043   1.634   4.069  10.375  0.1369  0.4104 -0.2600
 4195SOL    HW124044   1.656   4.134  10.309 -0.5170  1.7320  0.8055
 4195SOL    HW224045   1.545   4.104  10.388 -0.5740 -1.6798  0.4849
 4196SOL     OW24046   3.907   0.384   4.700  0.4295  0.5049  0.6713
 4196SOL    HW124047   3.935   0.441   4.772  0.3572 -0.3280  1.3584
 4196SOL    HW224048   3.823   0.349   4.730  1.3732 -0.0928  2.6308
 4197SOL     OW24049   2.136   3.584   5.363  0.0465  0.3046  0.2128
 4197SOL    HW124050   2.045   3.563   5.341 -0.2008 -0.4078  1.9544
 4197SOL    HW224051   2.130   3.679   5.363  2.7243  0.4607  1.9699
 4198SOL     OW24052   2.327   0.635   3.290  0.2912  0.2820  0.0962
 4198SOL    HW124053   2.316   0.660   3.198  0.4223  1.4863  0.4103
 4198SOL    HW224054   2.334   0.539   3.287 -1.2399  0.1035  2.1516
 4199SOL     OW24055   2.328   0.335   1.060 -0.3175  0.4979 -0.1228
 4199SOL    HW124056   2.259   0.367   1.118 -0.4114  0.9386 -0.4835
 4199SOL    HW224057   2.277   0.328   0.980 -0.1837 -1.4349 -0.0472
 4200SOL     OW24058   3.133   0.746   5.044  0.0043  0.1490 -0.4043
 4200SOL    HW124059   3.138   0.667   5.098  0.5459 -0.9178 -2.0439
 4200SOL    HW224060   3.225   0.753   5.021  0.1455  0.2098  0.1716
 4201SOL     OW24061   4.703   0.950   3.833  0.4717  0.1741 -0.1100
 4201SOL    HW124062   4.643   0.875   3.840  2.9055 -1.5491  2.2811
 4201SOL    HW224063   4.697   0.980   3.742 -0.5028  0.2417 -0.0278
 4202SOL     OW24064   2.353   0.612   7.581  0.7590  0.0697  0.6794
 4202SOL    HW124065   2.281   0.552   7.563  0.8612 -0.2209  1.2399
 4202SOL    HW224066   2.420   0.555   7.543  0.8918 -0.2248  1.3616
 4203SOL     OW24067   1.319   3.662   8.138  0.0358 -0.3143 -0.4576
 4203SOL    HW124068   1.371   3.680   8.216 -1.1320  1.8928 -0.2091
 4203SOL    HW224069   1.390   3.640   8.077  0.0225  0.7453 -0.8496
 4204SOL     OW24070   1.482   0.049   7.787  0.0562 -0.7145  0.8151
 4204SOL    HW124071   1.540   0.125   7.789 -0.9171  0.0463 -0.0662
 4204SOL    HW224072   1.410   0.101   7.821 -0.8228 -0.8745 -0.8116
 4205SOL     OW24073   0.001   3.566  14.671 -0.0214 -0.4239  0.8327
 4205SOL    HW124074   0.004   3.492  14.731  1.0329 -1.6206 -0.6956
 4205SOL    HW224075   4.646   3.545  14.619  0.8282  1.7232 -1.3371
 4206SOL     OW24076   2.401   4.721  14.027  0.1368 -0.0372  0.0507
 4206SOL    HW124077   2.411   4.708  13.932  2.2375 -0.9058  0.3903
 4206SOL    HW224078   2.411   4.630  14.056  0.7452 -0.0930 -0.3176
 4207SOL     OW24079   3.176   0.989   6.464 -0.4332 -0.3618 -0.4671
 4207SOL    HW124080   3.215   0.973   6.377  2.9402 -1.1770  1.1917
 4207SOL    HW224081   3.104   0.926   6.459 -2.0286  1.3832  0.5039
 4208SOL     OW24082   3.579   1.589   2.446  0.0513  0.2047 -0.3083
 4208SOL    HW124083   3.489   1.612   2.470 -0.0069  0.6511 -0.9614
 4208SOL    HW224084   3.593   1.509   2.497 -0.3274  0.5138  0.2894
 4209SOL     OW24085   0.725   4.524   4.325 -0.2673  0.1212  0.4549
 4209SOL    HW124086   0.687   4.605   4.358  2.5111  2.6943 -2.5767
 4209SOL    HW224087   0.687   4.462   4.387  0.7620  0.2818  1.2469
 4210SOL     OW24088   4.654   1.004   5.476 -0.1646 -0.4025 -0.2618
 4210SOL    HW124089   4.702   0.969   5.552  3.2830 -0.2833 -2.3919
 4210SOL    HW224090   4.719   1.059   5.432 -1.5829 -0.5848 -2.5854
 4211SOL     OW24091   1.065   2.530   2.653 -0.3691  0.6367  0.4586
 4211SOL    HW124092   0.983   2.518   2.605 -0.0971  0.9178 -0.0788
 4211SOL    HW224093   1.038   2.572   2.734 -3.3068 -0.6375  0.1382
 4212SOL     OW24094   2.021   2.219   6.954  0.5521 -0.1523  0.7011
 4212SOL    HW124095   1.958   2.199   7.023  1.3617  1.2320  1.8557
 4212SOL    HW224096   1.995   2.300   6.909 -0.9626  0.2495  2.2773
 4213SOL     OW24097   2.714   3.181   1.708  0.0752 -0.1621  0.5210
 4213SOL    HW124098   2.703   3.086   1.706 -0.9150 -0.0600  1.6767
 4213SOL    HW224099   2.708   3.186   1.612  1.8177 -0.1800  0.4117
 4214SOL     OW24100   1.917   3.790   6.116 -0.1917  0.0229 -0.7195
 4214SOL    HW124101   1.841   3.735   6.095 -2.1476  2.4210  0.0805
 4214SOL    HW224102   1.885   3.858   6.056 -0.0498 -0.6856 -1.5951
 4215SOL     OW24103   3.905   4.317   6.763  0.3954 -0.1672  0.1415
 4215SOL    HW124104   3.859   4.399   6.747  0.7184 -0.1419 -0.6497
 4215SOL    HW224105   3.869   4.285   6.846 -0.9378 -0.7077 -0.6461
 4216SOL     OW24106   1.414   2.748   4.176  0.1002  0.6625 -0.3681
 4216SOL    HW124107   1.457   2.664   4.160 -0.4767  0.2542  0.2210
 4216SOL    HW224108   1.401   2.792   4.092 -0.7965 -0.3236 -0.7437
 4217SOL     OW24109   0.358   4.091   7.692 -0.0032  0.4251 -0.3242
 4217SOL    HW124110   0.394   4.173   7.659  1.1405 -0.6921 -1.9064
 4217SOL    HW224111   0.266   4.108   7.712  1.1078  2.3096  3.0638
 4218SOL     OW24112   1.386   0.629  16.350 -0.3378  0.2256  0.1064
 4218SOL    HW124113   1.395   0.676  16.433  0.2864  1.3465 -0.6003
 4218SOL    HW224114   1.313   0.575  16.379  0.9017 -1.8171 -0.6044
 4219SOL     OW24115   3.343   0.556   8.859 -0.1080 -0.3623 -0.1299
 4219SOL    HW124116   3.284   0.629   8.877  0.0535 -0.6314  1.5195
 4219SOL    HW224117   3.340   0.522   8.949 -0.2320  0.4808  0.1876
 4220SOL     OW24118   1.353   4.102   6.969 -0.2792  0.5399  0.2301
 4220SOL    HW124119   1.405   4.041   6.918 -2.2791 -0.2203 -0.9083
 4220SOL    HW224120   1.297   4.046   7.024  0.9947 -0.7203  0.2491
 4221SOL     OW24121   1.407   3.631   9.106  0.0404 -0.2277  0.7853
 4221SOL    HW124122   1.348   3.556   9.090  1.1487 -0.7439 -0.9342
 4221SOL    HW224123   1.457   3.595   9.178 -0.0693 -1.0680  0.4456
 4222SOL     OW24124   1.427   4.317   7.679  0.2559 -0.1778 -0.2382
 4222SOL    HW124125   1.498   4.255   7.660  0.7375  0.9061 -1.9562
 4222SOL    HW224126   1.473   4.393   7.643 -1.7308  1.4650  0.7488
 4223SOL     OW24127   3.923   3.026   6.684 -0.0985  0.1984 -0.3179
 4223SOL    HW124128   3.891   3.053   6.598  1.1664  0.9956 -0.5422
 4223SOL    HW224129   4.018   3.025   6.673  0.0758  2.5534  0.9274
 4224SOL     OW24130   3.999   0.686   8.683  0.2062 -0.5171 -0.5660
 4224SOL    HW124131   4.015   0.617   8.619  1.2896  0.4722 -1.3636
 4224SOL    HW224132   4.023   0.638   8.762 -0.4172 -1.3941 -0.9183
 4225SOL     OW24133   3.792   2.105  15.952  0.4775  0.0202 -0.1236
 4225SOL    HW124134   3.865   2.164  15.933  2.2566 -2.0210  0.2596
 4225SOL    HW224135   3.823   2.054  16.027  1.4314  0.8130  0.0256
 4226SOL     OW24136   0.496   0.314   4.248  0.0343 -0.0484 -0.0715
 4226SOL    HW124137   0.490   0.402   4.286 -0.4878  0.5246 -1.4923
 4226SOL    HW224138   0.521   0.344   4.161 -1.3128 -2.0060 -1.1244
 4227SOL     OW24139   1.786   4.523   4.148 -0.8797  0.3624  0.2774
 4227SOL    HW124140   1.827   4.559   4.226 -0.0388  2.8208 -1.2914
 4227SOL    HW224141   1.795   4.596   4.087  1.9384  0.5117  0.8739
 4228SOL     OW24142   3.484   3.392   9.525  0.4751 -0.6521 -0.2229
 4228SOL    HW124143   3.493   3.434   9.439  2.0539 -2.4084 -0.9174
 4228SOL    HW224144   3.512   3.469   9.574  0.4497 -0.7826 -0.0055
 4229SOL     OW24145   0.481   1.719   5.728 -0.3454 -0.5269  0.5945
 4229SOL    HW124146   0.428   1.786   5.686  0.1564  0.7025  1.9081
 4229SOL    HW224147   0.437   1.729   5.813 -2.7898  2.2680 -1.0197
 4230SOL     OW24148   0.576   0.762   6.387 -0.5870  0.2838  0.3192
 4230SOL    HW124149   0.572   0.789   6.295 -1.1021 -1.6977 -0.2343
 4230SOL    HW224150   0.542   0.845   6.420 -2.0804 -1.3333  2.7441
 4231SOL     OW24151   0.678   4.396   7.802  0.0363  0.0496  0.1017
 4231SOL    HW124152   0.611   4.380   7.735  0.3403 -0.7149 -0.0284
 4231SOL    HW224153   0.758   4.378   7.751 -1.2628  0.4154 -2.0890
 4232SOL     OW24154   3.336   2.979   2.257 -0.3514 -0.4083  0.1815
 4232SOL    HW124155   3.349   2.993   2.163 -0.9099 -2.5944 -0.2258
 4232SOL    HW224156   3.330   2.884   2.257 -1.3584 -0.3401 -0.3069
 4233SOL     OW24157   4.413   3.004   2.439  0.6264 -0.1212 -0.3533
 4233SOL    HW124158   4.342   2.977   2.381  0.6508 -1.1866  0.1172
 4233SOL    HW224159   4.426   3.096   2.415 -3.3565  0.1400 -1.5117
 4234SOL     OW24160   2.959   2.622   2.906  0.8614  0.2011 -0.2721
 4234SOL    HW124161   3.035   2.680   2.916 -0.0168  1.6798 -2.1736
 4234SOL    HW224162   2.904   2.690   2.867  1.3381 -0.4577 -2.0920
 4235SOL     OW24163   2.796   2.587   9.461  0.6057  0.0561 -0.5183
 4235SOL    HW124164   2.796   2.681   9.446  1.6178 -0.0830 -1.3623
 4235SOL    HW224165   2.881   2.579   9.504  0.4876 -1.4797 -0.5510
 4236SOL     OW24166   2.083   3.530  17.097 -0.3189 -0.9628  0.0837
 4236SOL    HW124167   2.172   3.542  17.131  0.6015 -0.8960 -2.3119
 4236SOL    HW224168   2.103   3.479  17.018  0.0236 -0.0847 -0.4053
 4237SOL     OW24169   1.801   3.163  14.291 -0.0603 -0.3099  0.6751
 4237SOL    HW124170   1.753   3.189  14.212 -1.1606 -0.7029  1.2048
 4237SOL    HW224171   1.815   3.246  14.337  0.7850 -0.2511  0.3086
 4238SOL     OW24172   1.518   3.024   4.886 -0.3969  0.0104 -0.0217
 4238SOL    HW124173   1.510   2.942   4.837  1.0312 -0.1878  0.0638
 4238SOL    HW224174   1.541   3.081   4.812 -0.9449  0.0952 -0.1252
 4239SOL     OW24175   3.752   0.201   0.106 -0.1023  0.2938  0.1284
 4239SOL    HW124176   3.847   0.204   0.122 -0.3190 -1.6571  1.7505
 4239SOL    HW224177   3.756   0.161   0.019 -0.2787 -0.8551  0.6379
 4240SOL     OW24178   4.469   0.682   1.931 -0.0901  0.3005  0.7402
 4240SOL    HW124179   4.559   0.689   1.899 -0.4428  1.6137  0.0095
 4240SOL    HW224180   4.497   0.605   1.979 -0.3537  0.6927  1.5158
 4241SOL     OW24181   0.798   1.348  15.818 -0.4130  0.4183 -0.8600
 4241SOL    HW124182   0.711   1.367  15.782 -0.5379  0.9345 -0.2871
 4241SOL    HW224183   0.860   1.368  15.747 -0.8959  0.5067 -1.2631
 4242SOL     OW24184   0.745   3.572   5.867  0.5379 -0.0411  0.2255
 4242SOL    HW124185   0.662   3.594   5.825  0.6667  0.1887  0.0905
 4242SOL    HW224186   0.729   3.482   5.895  0.7319  0.2585  1.2807
 4243SOL     OW24187   3.775   1.569   8.701 -0.5651 -0.4552 -0.2331
 4243SOL    HW124188   3.827   1.649   8.700 -0.1218 -0.7215  0.8055
 4243SOL    HW224189   3.684   1.594   8.687 -0.0460  0.1779 -2.3714
 4244SOL     OW24190   1.678   1.926  11.977 -0.0517 -0.3920  0.4313
 4244SOL    HW124191   1.757   1.877  11.956 -0.8024 -1.0455 -0.8696
 4244SOL    HW224192   1.709   1.995  12.036  1.5244 -1.7766  1.2211
 4245SOL     OW24193   4.233   1.986   1.227 -0.0375  0.6639 -0.1260
 4245SOL    HW124194   4.157   1.968   1.282  0.0764 -0.9995 -0.5006
 4245SOL    HW224195   4.274   1.900   1.239  3.6912  2.5323  0.6565
 4246SOL     OW24196   4.693   1.076   3.566  0.1652 -0.1189 -0.3077
 4246SOL    HW124197   4.628   1.146   3.574  0.0363 -0.0074 -2.4019
 4246SOL    HW224198   4.657   1.004   3.514 -1.0186  1.1002 -1.1547
 4247SOL     OW24199   2.207   3.661   6.154 -0.3957  0.5446 -0.0974
 4247SOL    HW124200   2.123   3.687   6.118 -0.1888  0.0629 -0.9277
 4247SOL    HW224201   2.236   3.749   6.179  2.7455 -0.5038 -0.0005
 4248SOL     OW24202   1.283   0.357   9.715 -0.3286  0.3399  0.1730
 4248SOL    HW124203   1.277   0.452   9.703 -0.1230  0.2245 -0.8809
 4248SOL    HW224204   1.245   0.348   9.802 -3.1509  0.9850 -1.0093
 4249SOL     OW24205   0.091   4.619   5.551 -0.0238 -0.6110 -0.5052
 4249SOL    HW124206   0.088   4.674   5.473 -1.7270  0.9386  0.6527
 4249SOL    HW224207   0.005   4.611   5.593 -0.4321  0.7866 -1.0708
 4250SOL     OW24208   2.690   3.431   5.032  0.5606 -0.2187  0.1887
 4250SOL    HW124209   2.674   3.496   4.964 -2.8491 -0.5262  0.7162
 4250SOL    HW224210   2.764   3.376   5.006 -3.1581 -3.8399 -2.6201
 4251SOL     OW24211   0.794   4.223   2.744  0.5819 -0.5300  0.2222
 4251SOL    HW124212   0.808   4.317   2.732 -2.5211 -0.1543 -0.5733
 4251SOL    HW224213   0.832   4.212   2.831 -0.1514  0.3083  0.6499
 4252SOL     OW24214   2.794   3.158  17.411  0.1286 -0.2103 -0.3740
 4252SOL    HW124215   2.797   3.253  17.425  1.4564 -0.1588 -0.9941
 4252SOL    HW224216   2.699   3.153  17.413  0.0992  1.0977  2.1824
 4253SOL     OW24217   3.797   3.699   6.195 -0.6211 -0.4473 -0.2386
 4253SOL    HW124218   3.708   3.704   6.230 -0.7872 -2.1529 -0.3790
 4253SOL    HW224219   3.848   3.681   6.274 -1.6847  2.0094  0.9821
 4254SOL     OW24220   2.539   2.015   0.930  0.2775 -0.1209  0.3635
 4254SOL    HW124221   2.595   2.062   0.992 -0.8848  0.4961  0.9478
 4254SOL    HW224222   2.459   2.066   0.919 -0.0874 -0.7045  0.2894
 4255SOL     OW24223   1.282   4.260  16.578 -0.4850 -0.3083  0.4642
 4255SOL    HW124224   1.324   4.195  16.634 -1.9904  1.1113  3.2264
 4255SOL    HW224225   1.356   4.302  16.533 -0.3386  0.3345  1.3121
 4256SOL     OW24226   3.456   0.936   5.258 -0.0278 -0.3929  0.1049
 4256SOL    HW124227   3.441   0.976   5.344  0.5665  2.5469 -1.1352
 4256SOL    HW224228   3.541   0.980   5.246 -1.2445  2.4564  1.7891
 4257SOL     OW24229   4.662   0.077  10.106  0.2088  0.2497 -0.0414
 4257SOL    HW124230   4.597   0.146  10.094  0.4957  0.5696  0.2234
 4257SOL    HW224231   4.609   0.003  10.134 -0.6684  0.2821 -1.6064
 4258SOL     OW24232   2.248   3.190   5.124 -0.0471 -0.3127  0.2553
 4258SOL    HW124233   2.212   3.176   5.212  2.9316 -3.0095  1.0622
 4258SOL    HW224234   2.331   3.235   5.141 -0.4816  0.3412  0.6532
 4259SOL     OW24235   2.269   2.957  12.036  0.1857 -0.3752  0.2818
 4259SOL    HW124236   2.312   3.032  12.076  0.1958  1.0458 -2.3953
 4259SOL    HW224237   2.286   2.968  11.943  2.6813 -1.0288  0.6510
 4260SOL     OW24238   4.242   3.885   2.463 -0.3507  0.6876  0.1536
 4260SOL    HW124239   4.254   3.980   2.462  2.0130  0.3943  0.2507
 4260SOL    HW224240   4.213   3.881   2.372  0.2793 -1.9010  0.0719
 4261SOL     OW24241   2.787   4.386   3.397 -0.8394  0.7012 -0.4683
 4261SOL    HW124242   2.821   4.441   3.326 -3.7844  2.9304 -0.1781
 4261SOL    HW224243   2.701   4.371   3.359  0.2443 -1.2835 -2.1662
 4262SOL     OW24244   4.579   3.587   2.793 -0.3870  0.0894  0.3444
 4262SOL    HW124245   4.569   3.508   2.846  0.3141  0.5089  1.1006
 4262SOL    HW224246   4.670   3.578   2.767 -1.0087  0.2896 -1.9141
 4263SOL     OW24247   3.997   4.705   8.691  0.3000 -0.8751 -0.0430
 4263SOL    HW124248   3.938   0.001   8.618 -2.6111 -0.8023  2.3210
 4263SOL    HW224249   4.026   0.064   8.729  1.5446 -1.6321  0.6632
 4264SOL     OW24250   1.137   1.210   2.692  0.0578 -0.1793 -0.0579
 4264SOL    HW124251   1.213   1.154   2.711 -0.5611 -2.0750 -3.1497
 4264SOL    HW224252   1.099   1.153   2.625  1.4886 -1.4862  0.2217
 4265SOL     OW24253   4.591   1.339  13.332 -0.2460  0.1151 -0.5411
 4265SOL    HW124254   4.637   1.408  13.284 -1.1615 -0.5966 -2.4902
 4265SOL    HW224255   4.525   1.382  13.386  0.1157  0.2010 -0.1719
 4266SOL     OW24256   1.509   4.459   2.235  0.2786  0.2992  0.0573
 4266SOL    HW124257   1.446   4.459   2.163  1.9264 -1.8420 -1.3908
 4266SOL    HW224258   1.585   4.489   2.185 -0.9830 -0.5919 -2.4212
 4267SOL     OW24259   1.316   0.004   5.902  0.4724  0.2622  0.0261
 4267SOL    HW124260   1.385   0.038   5.845 -0.3469 -1.5981 -2.0896
 4267SOL    HW224261   1.321   0.050   5.986  1.3216  0.4007 -0.1055
 4268SOL     OW24262   0.965   3.383   2.938 -0.0639 -0.2012  0.1542
 4268SOL    HW124263   0.883   3.340   2.961 -0.2784 -0.1410 -0.4830
 4268SOL    HW224264   1.026   3.337   2.995 -0.7624  0.5120  1.4616
 4269SOL     OW24265   1.947   2.365   5.360  0.8478  0.6312 -0.1322
 4269SOL    HW124266   2.002   2.437   5.391 -0.2775  1.1041  0.7699
 4269SOL    HW224267   1.952   2.303   5.433 -1.8590 -0.7888 -1.1415
 4270SOL     OW24268   2.212   2.118   2.305 -0.5571  0.0085  0.1490
 4270SOL    HW124269   2.134   2.165   2.333 -0.3278  0.7712 -0.4963
 4270SOL    HW224270   2.272   2.165   2.362 -0.0182  1.5585 -1.7120
 4271SOL     OW24271   4.709   1.798   3.409  0.1595 -0.4598 -0.3969
 4271SOL    HW124272   0.032   1.831   3.331  0.7330 -1.8173 -0.6506
 4271SOL    HW224273   0.007   1.862   3.476 -0.7535  0.1266 -0.6810
 4272SOL     OW24274   3.711   2.348  14.716  0.5482 -0.1750 -0.1630
 4272SOL    HW124275   3.794   2.319  14.678  0.6672 -0.5291  0.3684
 4272SOL    HW224276   3.649   2.279  14.694  1.4835 -1.7504  2.0856
 4273SOL     OW24277   1.769   1.322   8.142  0.0417 -0.5277 -0.3623
 4273SOL    HW124278   1.779   1.322   8.047  1.6839  1.5126 -0.1969
 4273SOL    HW224279   1.675   1.303   8.139 -0.0961  0.0564  0.2197
 4274SOL     OW24280   1.065   0.524   7.979 -0.4284  0.5991 -0.1945
 4274SOL    HW124281   1.019   0.505   8.060  0.5543 -0.9384 -0.0157
 4274SOL    HW224282   1.044   0.455   7.916 -0.8602  0.4916  0.0677
 4275SOL     OW24283   0.792   1.983   4.739  0.1540  0.5087 -0.6020
 4275SOL    HW124284   0.753   1.932   4.810 -2.2283  0.1392 -2.1572
 4275SOL    HW224285   0.853   1.921   4.699 -0.5180 -0.4105 -0.2067
 4276SOL     OW24286   4.024   3.983   5.113 -0.3109 -0.1825  0.0065
 4276SOL    HW124287   4.104   4.032   5.093  1.5810 -2.6455  1.5292
 4276SOL    HW224288   4.034   3.903   5.062 -0.9986  0.5735 -1.3170
 4277SOL     OW24289   4.223   1.317   2.311 -0.1500  1.1363  0.3079
 4277SOL    HW124290   4.288   1.252   2.283 -0.3209  0.3962  1.6577
 4277SOL    HW224291   4.283   1.383   2.348 -1.3155  0.3442  3.5974
 4278SOL     OW24292   4.008   1.747   2.842 -0.2239 -0.2807  0.1228
 4278SOL    HW124293   3.998   1.655   2.865 -1.7875 -0.6818 -2.1046
 4278SOL    HW224294   4.069   1.744   2.768  0.8729  0.6407  0.9832
 4279SOL     OW24295   2.781   4.501   1.027  0.0775 -0.0897  0.2278
 4279SOL    HW124296   2.801   4.407   1.032 -0.4043 -0.2364 -0.8071
 4279SOL    HW224297   2.711   4.507   1.092  0.3649  1.7748  0.3637
 4280SOL     OW24298   0.530   1.297   4.716 -0.3356  0.4900  0.2824
 4280SOL    HW124299   0.529   1.226   4.652  0.7690  2.3940 -1.8532
 4280SOL    HW224300   0.623   1.321   4.711 -0.5434  1.5619  1.5039
 4281SOL     OW24301   4.259   1.939   4.701 -0.1955  0.2106 -0.1392
 4281SOL    HW124302   4.329   1.874   4.705 -0.4038 -0.0399 -0.5840
 4281SOL    HW224303   4.214   1.917   4.619  0.1824  1.2782 -0.6422
 4282SOL     OW24304   3.786   3.317  17.468 -0.5430  0.1028  0.0055
 4282SOL    HW124305   3.829   3.241  17.507 -0.0445  1.4829  2.1430
 4282SOL    HW224306   3.720   3.267  17.421 -0.3109  0.2326 -0.4650
 4283SOL     OW24307   4.278   2.508   7.210  0.0652 -0.2009  0.6905
 4283SOL    HW124308   4.349   2.571   7.219  0.7629 -0.6566 -1.6307
 4283SOL    HW224309   4.198   2.556   7.228  0.9806  1.0812  1.2935
 4284SOL     OW24310   3.526   1.178   0.649  0.0708 -0.1220 -0.1812
 4284SOL    HW124311   3.542   1.208   0.738 -0.9589  1.2164 -0.4612
 4284SOL    HW224312   3.491   1.090   0.661  1.1352 -0.0089  3.5877
 4285SOL     OW24313   1.642   3.809  12.186 -0.0459  0.3153  0.3234
 4285SOL    HW124314   1.707   3.799  12.256  1.2786 -0.3954 -1.0337
 4285SOL    HW224315   1.694   3.847  12.116 -0.0359 -0.7782 -0.2626
 4286SOL     OW24316   1.867   2.975   4.475 -0.3339 -0.0072 -0.0512
 4286SOL    HW124317   1.900   3.024   4.399  1.3932  1.1164  1.4138
 4286SOL    HW224318   1.890   2.886   4.449  2.0371  0.1800  1.3999
 4287SOL     OW24319   3.198   3.585   3.529 -0.1829 -0.3468  0.6362
 4287SOL    HW124320   3.135   3.531   3.576 -1.0170  0.0574 -0.0098
 4287SOL    HW224321   3.142   3.641   3.475  2.4279  0.0639 -1.6435
 4288SOL     OW24322   0.085   0.815   8.820  0.1106  0.1475  0.2426
 4288SOL    HW124323   0.109   0.829   8.911 -0.9337  0.3033  0.4959
 4288SOL    HW224324   0.149   0.750   8.790 -0.3947 -0.5842  0.7566
 4289SOL     OW24325   3.818   0.489  11.040  0.3198 -0.3684 -0.3246
 4289SOL    HW124326   3.865   0.563  11.079 -2.0191  1.3307 -0.7561
 4289SOL    HW224327   3.840   0.423  11.106 -0.8137 -0.0990  0.3052
 4290SOL     OW24328   2.204   0.200   1.594  0.6835 -0.2210  0.0509
 4290SOL    HW124329   2.232   0.110   1.576 -0.1283 -0.4582 -0.0033
 4290SOL    HW224330   2.190   0.246   1.511 -0.3704  1.8545  1.3629
 4291SOL     OW24331   2.778   0.608   2.643  0.1955  0.0896 -0.2074
 4291SOL    HW124332   2.780   0.517   2.613 -0.4682 -0.1045  0.3312
 4291SOL    HW224333   2.686   0.607   2.670  0.3773 -1.9684  0.3898
 4292SOL     OW24334   3.678   2.498   2.977 -0.6965 -0.0730 -0.6425
 4292SOL    HW124335   3.609   2.525   3.037  0.3571  2.0573 -0.4014
 4292SOL    HW224336   3.746   2.562   2.998 -0.1591 -0.7360 -0.3723
 4293SOL     OW24337   3.990   3.063   5.619  0.0064  0.9036  0.2899
 4293SOL    HW124338   3.994   3.116   5.539 -0.2882  2.1858  1.1367
 4293SOL    HW224339   3.903   3.086   5.652  0.5929  0.0957  2.4369
 4294SOL     OW24340   2.391   0.511   1.474 -0.0256 -0.2257  0.4905
 4294SOL    HW124341   2.426   0.560   1.399  0.8847  0.0640  1.0988
 4294SOL    HW224342   2.347   0.582   1.522 -0.2703 -0.6104  0.8381
 4295SOL     OW24343   0.766   2.806   3.435 -0.5223  0.4792 -0.1502
 4295SOL    HW124344   0.696   2.839   3.493 -0.5169 -0.0325  0.1473
 4295SOL    HW224345   0.796   2.727   3.479 -0.9133  0.4849  0.1347
 4296SOL     OW24346   0.385   0.004   2.723  0.2564 -0.2103 -0.5070
 4296SOL    HW124347   0.387   0.099   2.711 -1.9518 -0.0129  0.5665
 4296SOL    HW224348   0.404   4.699   2.634 -0.4928 -0.1268 -0.6953
 4297SOL     OW24349   0.348   2.181   2.524  0.1088  0.0366  0.7137
 4297SOL    HW124350   0.269   2.223   2.559 -1.6400 -3.3991  0.8413
 4297SOL    HW224351   0.385   2.237   2.456  1.6101 -0.0952  1.4402
 4298SOL     OW24352   4.310   1.681   7.037  0.0009 -0.0855 -0.6270
 4298SOL    HW124353   4.279   1.771   7.028  1.5588  0.3857 -1.2633
 4298SOL    HW224354   4.294   1.665   7.130 -1.6142 -0.6622 -0.9995
 4299SOL     OW24355   3.165   0.782   1.789  0.3963  0.4848 -0.2109
 4299SOL    HW124356   3.213   0.862   1.767 -1.8721  1.3176 -2.1714
 4299SOL    HW224357   3.236   0.718   1.796  1.7207  1.9416 -0.2589
 4300SOL     OW24358   4.414   3.890   2.807 -0.2538 -0.1834  0.1437
 4300SOL    HW124359   4.475   3.819   2.825  2.1312  2.2903  1.7407
 4300SOL    HW224360   4.342   3.843   2.764  0.6008 -0.7144 -0.7199
 4301SOL     OW24361   2.164   0.278   6.981  0.4605  0.2513  0.3059
 4301SOL    HW124362   2.219   0.258   6.905 -1.5920  0.7005 -1.3009
 4301SOL    HW224363   2.088   0.320   6.940  0.6488 -0.0621 -0.3549
 4302SOL     OW24364   0.458   0.210   6.160  0.2450 -0.1296 -0.1525
 4302SOL    HW124365   0.385   0.197   6.099  0.2468  1.0152 -0.4069
 4302SOL    HW224366   0.417   0.192   6.244  0.2233  2.1985  0.3495
 4303SOL     OW24367   4.053   4.107  17.279 -0.1912 -0.2556 -0.0862
 4303SOL    HW124368   4.070   4.029  17.332 -1.3322 -0.8808 -0.6359
 4303SOL    HW224369   4.119   4.167  17.313  0.1219 -0.7089  0.1081
 4304SOL     OW24370   0.763   1.886  13.573  0.6019  0.3859  0.1491
 4304SOL    HW124371   0.702   1.849  13.510  2.0840  0.2162 -1.1791
 4304SOL    HW224372   0.709   1.898  13.651 -0.6083  0.6378 -0.7347
 4305SOL     OW24373   0.668   1.385   8.254  0.2902  0.1624 -0.4089
 4305SOL    HW124374   0.762   1.382   8.275 -0.1086 -1.5136  1.2310
 4305SOL    HW224375   0.661   1.316   8.188  1.0360 -0.5138  0.2108
 4306SOL     OW24376   4.088   2.165   3.065  0.0371  0.1845  0.3401
 4306SOL    HW124377   4.146   2.207   3.002  1.2041 -1.3926  0.3515
 4306SOL    HW224378   4.127   2.078   3.063 -2.2558 -0.8665  0.8516
 4307SOL     OW24379   0.461   3.770  15.522  0.5454 -0.6881  0.2474
 4307SOL    HW124380   0.515   3.798  15.448 -1.6066  1.2252 -0.6235
 4307SOL    HW224381   0.466   3.675  15.516 -2.0325 -0.9769  2.6703
 4308SOL     OW24382   2.953   2.065   0.544 -0.5622  0.2874 -0.0968
 4308SOL    HW124383   3.006   1.986   0.543  2.0016  1.9953 -0.3567
 4308SOL    HW224384   2.934   2.071   0.450  3.2107  3.1201 -0.6799
 4309SOL     OW24385   2.566   0.652  15.623 -0.0713 -0.0840  0.0690
 4309SOL    HW124386   2.580   0.704  15.702  0.1446 -1.6679  1.0653
 4309SOL    HW224387   2.641   0.593  15.628 -0.3681 -0.4583  0.1185
 4310SOL     OW24388   3.395   2.564   4.714  0.2872 -0.3668 -0.1387
 4310SOL    HW124389   3.434   2.499   4.655  0.8189  0.4125 -0.6477
 4310SOL    HW224390   3.446   2.559   4.795 -0.1477  0.9189  0.2101
 4311SOL     OW24391   3.114   2.507   4.679  0.3922 -0.5155  0.4332
 4311SOL    HW124392   3.122   2.414   4.701  0.0713 -0.0914  2.2857
 4311SOL    HW224393   3.205   2.532   4.692  0.3889 -0.8280  1.0460
 4312SOL     OW24394   4.158   1.198   5.278 -0.0256  0.0054 -0.0230
 4312SOL    HW124395   4.164   1.102   5.286  2.0966  0.0761 -0.8817
 4312SOL    HW224396   4.238   1.208   5.226 -0.2506 -1.0214 -0.5740
 4313SOL     OW24397   2.804   0.792   6.890 -0.1250 -0.0371 -0.2999
 4313SOL    HW124398   2.856   0.781   6.811 -1.9790 -0.5256 -1.4551
 4313SOL    HW224399   2.757   0.875   6.878 -0.4021  0.1424  2.0741
 4314SOL     OW24400   1.732   1.288   7.027  0.0362  0.1197  0.2610
 4314SOL    HW124401   1.785   1.336   6.963  0.5845 -1.3829 -0.4076
 4314SOL    HW224402   1.672   1.360   7.046  1.0649  1.0951 -0.1396
 4315SOL     OW24403   0.729   1.187   8.057  0.3203 -0.0459 -0.5184
 4315SOL    HW124404   0.822   1.174   8.075  0.3670  3.1508  1.3990
 4315SOL    HW224405   0.690   1.101   8.071 -1.0709  0.9029  1.3794
 4316SOL     OW24406   1.361   4.049   7.321 -0.3485  0.2509  0.0971
 4316SOL    HW124407   1.269   4.073   7.328 -1.0817 -2.4938 -0.0700
 4316SOL    HW224408   1.347   3.960   7.354 -3.2795  1.0454  0.9053
 4317SOL     OW24409   0.528   1.501  13.469  0.1706 -0.4051 -0.7569
 4317SOL    HW124410   0.516   1.581  13.519  2.0390 -0.4502 -0.2412
 4317SOL    HW224411   0.440   1.462  13.474 -0.3961  1.2192  2.0401
 4318SOL     OW24412   2.261   1.363   7.570 -0.8058 -0.3292  0.0626
 4318SOL    HW124413   2.251   1.313   7.490  0.4430  2.0923 -1.5946
 4318SOL    HW224414   2.273   1.287   7.628  2.6908 -0.3259 -0.6255
 4319SOL     OW24415   3.175   3.181   9.347 -0.3660 -0.0202 -0.2727
 4319SOL    HW124416   3.218   3.260   9.314 -0.9269  0.3690 -0.0680
 4319SOL    HW224417   3.170   3.192   9.442  2.4754 -0.7278 -0.0230
 4320SOL     OW24418   3.096   2.406   4.017 -0.6748 -0.0265  0.4557
 4320SOL    HW124419   3.165   2.447   4.071  0.1207  2.3154 -2.3454
 4320SOL    HW224420   3.075   2.343   4.086 -0.0023  0.2058  0.8740
 4321SOL     OW24421   1.179   2.406   7.062 -0.1176 -0.2575 -0.3298
 4321SOL    HW124422   1.109   2.471   7.061  1.3258  1.3323  2.4846
 4321SOL    HW224423   1.257   2.462   7.054  0.8902 -1.4764  0.9945
 4322SOL     OW24424   2.227   2.461   7.245 -0.0334  0.0531 -0.3969
 4322SOL    HW124425   2.263   2.530   7.301 -0.8505 -0.7811  1.1559
 4322SOL    HW224426   2.281   2.480   7.168  2.3580  1.7763  1.6859
 4323SOL     OW24427   1.210   4.158   7.650  0.4670  0.1525 -0.9206
 4323SOL    HW124428   1.280   4.222   7.662  0.1825  0.1866  0.5359
 4323SOL    HW224429   1.237   4.079   7.695  1.1757  1.6460  1.2706
 4324SOL     OW24430   1.982   2.179   3.223 -0.1297 -0.1566  0.1155
 4324SOL    HW124431   1.997   2.089   3.251  1.9990  0.8029  2.0444
 4324SOL    HW224432   2.006   2.168   3.131 -0.6130 -0.8585  0.0748
 4325SOL     OW24433   2.958   2.016  14.645 -0.3015  0.7378 -0.0356
 4325SOL    HW124434   2.880   2.068  14.626 -0.8611  0.9204  2.7586
 4325SOL    HW224435   2.929   1.973  14.725 -0.8488 -0.5013 -0.8969
 4326SOL     OW24436   3.923   2.493   2.244 -0.4115  0.2325  0.5211
 4326SOL    HW124437   3.998   2.436   2.262 -0.2298  0.6456  1.0656
 4326SOL    HW224438   3.860   2.457   2.306 -2.6949  0.9071 -1.3750
 4327SOL     OW24439   0.593   0.344   3.758  0.2561 -0.3974 -0.3717
 4327SOL    HW124440   0.623   0.395   3.683 -0.5772  0.5969 -0.0383
 4327SOL    HW224441   0.627   0.258   3.732  0.5596 -0.2884 -0.3424
 4328SOL     OW24442   4.263   3.885   2.188  0.2427 -0.8324  0.2295
 4328SOL    HW124443   4.177   3.926   2.182  1.0904  0.9768  0.3062
 4328SOL    HW224444   4.332   3.952   2.185 -1.5288  0.9740  0.2063
 4329SOL     OW24445   3.064   3.557   3.010  0.1056 -0.0370 -0.4129
 4329SOL    HW124446   3.067   3.572   2.916 -2.0166  1.1907 -0.2674
 4329SOL    HW224447   3.106   3.471   3.020 -0.4175 -0.3494 -0.9301
 4330SOL     OW24448   4.219   3.630   5.607 -0.1983 -0.1376 -0.3259
 4330SOL    HW124449   4.243   3.559   5.666  0.2307  0.4905  0.2511
 4330SOL    HW224450   4.225   3.582   5.524 -1.4007 -2.6572  1.0604
 4331SOL     OW24451   1.410   2.282   1.707  0.6255 -0.0264  0.7744
 4331SOL    HW124452   1.463   2.315   1.635  0.6749 -0.2264  0.7177
 4331SOL    HW224453   1.323   2.322   1.704 -0.2270 -1.9151  0.2543
 4332SOL     OW24454   0.075   2.024   2.785  0.8131  0.0275  0.2280
 4332SOL    HW124455   0.061   2.036   2.691  5.1765  2.0785 -0.1227
 4332SOL    HW224456   0.169   2.011   2.779  0.6136 -1.4675  0.3044
 4333SOL     OW24457   0.186   2.403  15.009 -0.2892 -0.0620 -0.0445
 4333SOL    HW124458   0.112   2.429  14.953 -0.5356  1.4021  0.9597
 4333SOL    HW224459   0.264   2.422  14.957 -2.8405  1.7058 -3.2333
 4334SOL     OW24460   0.045   3.796   1.495 -0.6188 -0.0722 -0.6453
 4334SOL    HW124461   0.033   3.881   1.452 -2.5877  0.0254  0.1021
 4334SOL    HW224462   4.702   3.810   1.563 -1.0575 -1.7485 -0.7116
 4335SOL     OW24463   1.131   2.784   4.208  0.0976  0.5622  0.2955
 4335SOL    HW124464   1.222   2.767   4.182  0.5582  0.2700  2.1193
 4335SOL    HW224465   1.105   2.700   4.245  2.5355 -0.5603 -0.5227
 4336SOL     OW24466   3.171   2.415  17.020  0.2858  0.1464 -0.6977
 4336SOL    HW124467   3.096   2.466  16.990 -0.7975 -1.9575 -1.5898
 4336SOL    HW224468   3.144   2.324  17.007  1.2168 -0.4015  1.2914
 4337SOL     OW24469   3.657   0.461   9.211  0.0817  0.3965  1.0313
 4337SOL    HW124470   3.681   0.369   9.205  0.1822  0.4591  0.4949
 4337SOL    HW224471   3.567   0.466   9.180 -0.4042 -3.0378  1.9236
 4338SOL     OW24472   1.485   4.690   1.090 -0.8195 -0.0126 -0.0009
 4338SOL    HW124473   1.458   0.042   1.142 -0.6255 -1.9073  2.8299
 4338SOL    HW224474   1.532   4.648   1.162 -0.2566  0.3083 -0.1865
 4339SOL     OW24475   0.723   3.515   0.408 -0.7555 -0.4579  0.1479
 4339SOL    HW124476   0.784   3.564   0.352 -0.7784 -0.7482 -0.1298
 4339SOL    HW224477   0.745   3.426   0.381 -0.0592 -0.5256  0.9181
 4340SOL     OW24478   0.457   2.793   9.421 -0.1106 -0.1349  0.0317
 4340SOL    HW124479   0.384   2.745   9.382 -1.4754  1.4766  0.5826
 4340SOL    HW224480   0.501   2.726   9.473 -0.0068  0.8466  1.2098
 4341SOL     OW24481   1.549   3.264   5.820 -0.4916 -0.4632  0.1675
 4341SOL    HW124482   1.550   3.182   5.772  3.2746 -1.1341  1.3651
 4341SOL    HW224483   1.622   3.315   5.783  0.3729 -0.5110  1.8050
 4342SOL     OW24484   3.506   1.952   2.691  0.6254  0.2431  0.6015
 4342SOL    HW124485   3.559   1.873   2.702 -0.0529 -0.2097  0.6161
 4342SOL    HW224486   3.544   2.008   2.758  1.1466 -0.2857  0.7414
 4343SOL     OW24487   1.630   1.374   2.630  0.6698  0.1192  0.0468
 4343SOL    HW124488   1.540   1.405   2.619  0.3986 -0.0319  1.8413
 4343SOL    HW224489   1.636   1.429   2.708  2.0691  0.0767 -0.0380
 4344SOL     OW24490   0.092   1.939   6.050  0.1318  0.2225 -0.5182
 4344SOL    HW124491   0.076   1.995   6.126  1.8397  1.2676 -0.9333
 4344SOL    HW224492   0.131   1.863   6.093 -1.5964 -0.6212 -0.4144
 4345SOL     OW24493   0.142   4.178   0.405  0.5044  0.3039 -0.3327
 4345SOL    HW124494   0.223   4.127   0.411  0.4022 -0.1273 -2.3984
 4345SOL    HW224495   0.104   4.185   0.492  0.9967  3.5557 -0.3697
 4346SOL     OW24496   3.848   0.306   2.953  0.0646  0.4332 -0.2903
 4346SOL    HW124497   3.806   0.249   3.018  2.1691 -0.5467  0.2049
 4346SOL    HW224498   3.828   0.266   2.868 -0.3900 -1.2028  0.5764
 4347SOL     OW24499   3.359   1.717   2.541  0.1923 -0.5508  0.3320
 4347SOL    HW124500   3.391   1.804   2.563 -0.5933 -0.6948  2.0502
 4347SOL    HW224501   3.265   1.735   2.536  0.7241  1.8868 -0.4816
 4348SOL     OW24502   1.430   3.837  11.364 -0.2260  0.2178 -0.1845
 4348SOL    HW124503   1.500   3.823  11.428 -1.6748  0.0634  1.3803
 4348SOL    HW224504   1.494   3.856  11.296 -3.0466  0.9527 -2.6305
 4349SOL     OW24505   2.184   0.660  13.699 -0.4172 -0.0065  0.7175
 4349SOL    HW124506   2.199   0.755  13.704 -0.1474 -0.1375  2.3209
 4349SOL    HW224507   2.189   0.630  13.789  0.3983  0.6029  0.8775
 4350SOL     OW24508   3.020   2.645   4.309 -0.1214  0.3756 -0.4342
 4350SOL    HW124509   3.063   2.708   4.367 -1.4513  1.4419 -0.6151
 4350SOL    HW224510   3.091   2.581   4.310  0.5160  1.0892  0.1007
 4351SOL     OW24511   3.893   1.957  16.181  0.2114  0.7347  0.2678
 4351SOL    HW124512   3.822   1.993  16.234 -0.5962  0.3524 -0.5601
 4351SOL    HW224513   3.860   1.869  16.164 -2.6680  1.5130  1.8072
 4352SOL     OW24514   0.109   2.510   3.222 -0.1992 -0.9888  0.0285
 4352SOL    HW124515   0.019   2.543   3.215 -0.2311 -1.2860 -1.0395
 4352SOL    HW224516   0.139   2.517   3.131 -2.0205  1.0761 -0.4288
 4353SOL     OW24517   1.331   3.351   5.160  0.1886  0.0050  0.1732
 4353SOL    HW124518   1.378   3.330   5.241  0.3746 -2.6210 -0.6160
 4353SOL    HW224519   1.340   3.270   5.109 -0.2609  0.3961 -0.5134
 4354SOL     OW24520   1.773   4.366   7.616  0.2553 -0.2568  0.3723
 4354SOL    HW124521   1.829   4.391   7.542 -0.8435 -2.9415 -1.3595
 4354SOL    HW224522   1.702   4.426   7.594 -0.4342 -0.6397  1.5927
 4355SOL     OW24523   1.039   4.064  11.397 -0.3210  0.5652  0.4814
 4355SOL    HW124524   1.085   4.141  11.430 -1.1470  1.1030  0.3522
 4355SOL    HW224525   1.036   4.010  11.476  2.2511 -0.8958 -0.3988
 4356SOL     OW24526   4.221   1.069   8.588 -0.9803  0.2181  0.2981
 4356SOL    HW124527   4.178   0.996   8.544  0.2057 -1.5848  2.1577
 4356SOL    HW224528   4.285   1.024   8.643 -1.6999  0.4705  1.3368
 4357SOL     OW24529   2.582   4.572   8.076 -0.2028 -0.2063  0.1293
 4357SOL    HW124530   2.496   4.540   8.050 -0.3683  0.9186 -0.7043
 4357SOL    HW224531   2.603   4.504   8.140  2.2081  0.9275  0.5349
 4358SOL     OW24532   1.509   1.353   7.433  0.0477  0.0350 -0.3954
 4358SOL    HW124533   1.484   1.422   7.371 -0.4138  0.2535  0.0299
 4358SOL    HW224534   1.604   1.361   7.430  0.1806 -1.6782 -0.6388
 4359SOL     OW24535   0.227   0.023   4.296 -0.2722  0.0236  0.2121
 4359SOL    HW124536   0.241   0.082   4.370 -0.7331 -0.0553  0.3577
 4359SOL    HW224537   0.136   4.717   4.302 -1.4683  3.6335 -0.4243
 4360SOL     OW24538   1.893   1.572   3.461 -0.1251  0.5934 -0.6177
 4360SOL    HW124539   1.957   1.505   3.437 -0.8754 -0.7091  1.0430
 4360SOL    HW224540   1.809   1.530   3.442  1.3572 -1.9366 -1.5418
 4361SOL     OW24541   2.886   0.873   3.904 -0.8920 -0.6891 -0.5983
 4361SOL    HW124542   2.938   0.824   3.968  0.9647  1.0762 -0.7625
 4361SOL    HW224543   2.901   0.820   3.827  0.7580 -2.1952  0.7589
 4362SOL     OW24544   2.202   2.644   2.029 -0.2933  0.3710 -0.2805
 4362SOL    HW124545   2.138   2.579   1.999  1.6363 -1.6286 -0.0685
 4362SOL    HW224546   2.251   2.671   1.951  0.8540 -0.3860  0.1732
 4363SOL     OW24547   1.914   2.152   8.545  0.5556  0.3481  0.4087
 4363SOL    HW124548   1.839   2.103   8.577  0.9052 -0.4042  0.0659
 4363SOL    HW224549   1.921   2.222   8.610  3.3043 -0.0649  0.5437
 4364SOL     OW24550   3.508   3.803   1.325  0.4337 -0.3474  0.1471
 4364SOL    HW124551   3.513   3.837   1.414  0.9241  0.2456 -0.1103
 4364SOL    HW224552   3.430   3.849   1.294  0.5982 -0.6721 -0.7284
 4365SOL     OW24553   4.059   1.773  11.021 -0.8395  0.3177 -0.0634
 4365SOL    HW124554   3.969   1.742  11.009 -0.1981 -2.2091  1.6162
 4365SOL    HW224555   4.116   1.700  10.995  0.7260  1.4691  0.1502
 4366SOL     OW24556   0.831   1.331   4.915 -0.4435  0.7650  0.1336
 4366SOL    HW124557   0.899   1.264   4.912  0.9255  2.1293  0.8118
 4366SOL    HW224558   0.763   1.270   4.945  1.5538 -1.1679  0.6904
 4367SOL     OW24559   4.236   3.142  16.053 -0.3202 -0.4757  0.2865
 4367SOL    HW124560   4.184   3.141  15.972 -0.3800  0.1360  0.3164
 4367SOL    HW224561   4.180   3.096  16.115 -2.4500  2.5727  0.5832
 4368SOL     OW24562   0.473   3.628   6.881 -0.2760 -0.1842  0.1098
 4368SOL    HW124563   0.527   3.584   6.816 -1.9537 -1.8903 -0.1101
 4368SOL    HW224564   0.536   3.642   6.952 -1.2574 -0.1341  0.9702
 4369SOL     OW24565   2.082   0.955  10.296 -0.6272  0.2571 -0.1789
 4369SOL    HW124566   2.163   0.949  10.246 -1.8735  1.0130 -2.2786
 4369SOL    HW224567   2.118   0.982  10.381 -0.1289  1.5437 -0.7994
 4370SOL     OW24568   4.251   3.077   7.660  0.0474 -0.0063  0.0469
 4370SOL    HW124569   4.297   3.045   7.582 -0.3021  1.2648 -0.6894
 4370SOL    HW224570   4.191   3.144   7.627  0.1463 -0.6346 -1.4134
 4371SOL     OW24571   3.556   1.587   6.330  0.1682 -0.3413  0.1826
 4371SOL    HW124572   3.496   1.516   6.353 -1.0580  0.4437 -0.5081
 4371SOL    HW224573   3.491   1.653   6.355  0.7030 -0.3630  1.6425
 4372SOL     OW24574   3.757   1.303   7.803  0.4911 -0.0099  0.6145
 4372SOL    HW124575   3.767   1.345   7.889  0.5851 -1.6123  1.3829
 4372SOL    HW224576   3.836   1.332   7.757  2.1006 -2.6687  1.6812
 4373SOL     OW24577   0.673   2.985   6.937  0.8999 -0.1938  0.1285
 4373SOL    HW124578   0.692   3.061   6.882  2.5051  0.8355  2.1006
 4373SOL    HW224579   0.715   3.013   7.018 -0.1816 -0.1610  0.6693
 4374SOL     OW24580   4.675   1.858   6.433 -0.6871 -0.0038  0.0660
 4374SOL    HW124581   0.031   1.834   6.482 -0.8315  0.7971  0.6783
 4374SOL    HW224582   4.645   1.776   6.392 -1.1894  0.5704 -0.7286
 4375SOL     OW24583   3.307   1.138   7.805  0.2672 -0.6745 -0.1146
 4375SOL    HW124584   3.249   1.063   7.820 -1.1034  0.7027  1.4224
 4375SOL    HW224585   3.374   1.126   7.873 -0.6064  2.2472  1.2672
 4376SOL     OW24586   4.373   1.970   5.914 -0.2162 -0.1924  0.3506
 4376SOL    HW124587   4.426   1.936   5.986 -0.1115  2.7583  1.6630
 4376SOL    HW224588   4.336   2.050   5.951  0.3223  0.7520 -1.1121
 4377SOL     OW24589   4.269   2.518  12.424  0.4841 -0.0088  0.4115
 4377SOL    HW124590   4.178   2.542  12.407  0.8496 -1.0443 -2.8720
 4377SOL    HW224591   4.298   2.484  12.339  0.9255 -0.8941  0.9082
 4378SOL     OW24592   3.790   3.976   5.224 -0.3356  0.6198  0.3308
 4378SOL    HW124593   3.875   4.016   5.208 -0.6933  1.7488  1.2267
 4378SOL    HW224594   3.796   3.887   5.189 -1.8150  0.6595 -0.0247
 4379SOL     OW24595   4.503   0.067   6.475  0.1877  0.1342 -0.2555
 4379SOL    HW124596   4.496   0.078   6.380  1.6852  0.7652 -0.3010
 4379SOL    HW224597   4.506   0.162   6.489  0.4494  0.1774 -0.6037
 4380SOL     OW24598   2.135   4.091   5.896 -0.7301 -0.3223  0.4201
 4380SOL    HW124599   2.125   4.090   5.991 -3.9254  1.4944  0.1002
 4380SOL    HW224600   2.198   4.162   5.892  0.3381 -1.3186 -0.3383
 4381SOL     OW24601   3.303   4.413  15.117  0.2581 -0.6315  0.0930
 4381SOL    HW124602   3.222   4.412  15.169 -0.3078 -1.3669 -0.7936
 4381SOL    HW224603   3.339   4.329  15.143  0.7327  0.0666  1.6513
 4382SOL     OW24604   3.320   4.284   2.920 -0.0001 -0.0343 -0.0934
 4382SOL    HW124605   3.329   4.189   2.925  0.0304  0.0582  1.6614
 4382SOL    HW224606   3.397   4.304   2.866 -1.2905 -0.3131 -2.0215
 4383SOL     OW24607   4.535   2.494   8.621 -0.6090 -0.4778  0.1296
 4383SOL    HW124608   4.596   2.451   8.561 -0.0773  0.9679 -0.3677
 4383SOL    HW224609   4.489   2.553   8.560  1.0757  1.7108  0.9876
 4384SOL     OW24610   0.200   1.730   6.184 -0.1555 -0.4305  0.0883
 4384SOL    HW124611   0.261   1.773   6.245  1.9669 -1.4565 -1.3031
 4384SOL    HW224612   0.150   1.674   6.243  1.5227 -1.3764  0.6241
 4385SOL     OW24613   1.577   2.372  17.374  0.6719  0.0981  0.2020
 4385SOL    HW124614   1.501   2.430  17.382  0.7638  0.7145 -3.2691
 4385SOL    HW224615   1.575   2.323  17.456 -0.4534 -0.7049 -0.3136
 4386SOL     OW24616   2.994   2.814   6.240  0.2643  0.0612  0.7344
 4386SOL    HW124617   2.972   2.762   6.163 -1.0391  1.8437 -0.0805
 4386SOL    HW224618   3.014   2.739   6.296 -1.7503 -1.6966 -0.8752
 4387SOL     OW24619   2.225   4.680   2.539  0.1496  0.8347  0.3641
 4387SOL    HW124620   2.184   4.599   2.509  0.3640 -0.1469  2.7185
 4387SOL    HW224621   2.256   4.720   2.458  1.4235  1.9226  1.3812
 4388SOL     OW24622   3.518   2.221   3.730 -0.0191 -0.3531 -0.5920
 4388SOL    HW124623   3.467   2.198   3.652 -0.8124  0.7292 -0.3987
 4388SOL    HW224624   3.604   2.193   3.699  0.3927  1.6498 -1.2727
 4389SOL     OW24625   3.551   2.002   3.159  0.1087 -0.1953 -0.4844
 4389SOL    HW124626   3.555   2.096   3.173  3.1011 -0.0485 -2.3844
 4389SOL    HW224627   3.626   1.978   3.214  0.0965  0.4510 -0.1848
 4390SOL     OW24628   0.457   0.992   5.815 -0.3692  0.4310  0.2920
 4390SOL    HW124629   0.507   1.030   5.743 -0.7326  1.3479  0.5325
 4390SOL    HW224630   0.524   0.965   5.878 -0.0747  0.5588  0.0374
 4391SOL     OW24631   0.853   1.301   7.094 -0.8766  0.0532  0.0710
 4391SOL    HW124632   0.863   1.374   7.155  1.0142 -0.2687  0.1543
 4391SOL    HW224633   0.917   1.240   7.132  0.1144 -0.7889 -2.9552
 4392SOL     OW24634   2.910   3.286  11.749  0.2429 -0.0670 -0.2693
 4392SOL    HW124635   3.004   3.288  11.729  0.2831  1.4668  0.0667
 4392SOL    HW224636   2.892   3.330  11.832 -0.5062  3.1387 -2.1506
 4393SOL     OW24637   1.506   0.029   8.922  0.1490 -0.3470 -0.6648
 4393SOL    HW124638   1.471   0.018   8.833 -1.0079 -1.1204 -0.1124
 4393SOL    HW224639   1.463   4.672   8.953  0.2120 -0.3181 -0.5078
 4394SOL     OW24640   2.221   0.937   5.303  0.0977  0.2263  0.1533
 4394SOL    HW124641   2.200   1.019   5.257  2.8753  1.6387  1.4128
 4394SOL    HW224642   2.266   0.880   5.241  0.3270  2.1264 -1.4290
 4395SOL     OW24643   1.863   1.430  14.159  0.1490  0.4115 -0.2617
 4395SOL    HW124644   1.852   1.448  14.252  1.0733  0.2379 -0.1214
 4395SOL    HW224645   1.770   1.424  14.141  0.5302 -0.7559 -1.8317
 4396SOL     OW24646   0.623   2.059   8.519 -0.1114 -0.6055  0.0186
 4396SOL    HW124647   0.539   2.023   8.492 -0.8078  0.9464  0.1301
 4396SOL    HW224648   0.676   1.980   8.535 -0.8524 -0.8384  1.3822
 4397SOL     OW24649   4.415   0.900   5.428  0.3601 -0.2188  0.6283
 4397SOL    HW124650   4.501   0.932   5.455  0.4862  0.2243 -0.3092
 4397SOL    HW224651   4.358   0.963   5.473  0.6317  1.3364 -1.2112
 4398SOL     OW24652   3.233   0.790  13.787 -0.0356  0.0370 -0.0175
 4398SOL    HW124653   3.241   0.734  13.865  1.5045  1.5630  0.9130
 4398SOL    HW224654   3.149   0.832  13.806 -0.0938 -0.3984  0.7122
 4399SOL     OW24655   1.325   2.009  13.624  0.4048 -0.4138 -0.0666
 4399SOL    HW124656   1.394   2.004  13.558 -0.4883  1.3595 -1.1193
 4399SOL    HW224657   1.254   1.957  13.585  0.1379  1.2059 -1.7191
 4400SOL     OW24658   4.273   1.373  13.813  0.3194 -0.2901 -0.4567
 4400SOL    HW124659   4.189   1.359  13.856  0.4511  1.1766  0.2701
 4400SOL    HW224660   4.244   1.421  13.735 -1.6489  0.6811  0.8723
 4401SOL     OW24661   1.784   0.447  15.869  0.3129 -0.0455 -0.4036
 4401SOL    HW124662   1.775   0.538  15.842 -0.4597 -0.1541 -0.5284
 4401SOL    HW224663   1.710   0.455  15.930 -0.6904 -0.5938 -1.5395
 4402SOL     OW24664   2.263   4.474   8.265  0.0018  0.2091 -0.1302
 4402SOL    HW124665   2.169   4.480   8.282 -0.6149  0.8135 -3.8942
 4402SOL    HW224666   2.261   4.460   8.171 -1.6979  1.1355 -0.2219
 4403SOL     OW24667   2.655   2.302   1.306 -0.5489  0.0568 -0.0011
 4403SOL    HW124668   2.672   2.396   1.305  1.0178 -0.2143  1.7381
 4403SOL    HW224669   2.594   2.307   1.231  1.1663  0.2482 -1.3899
 4404SOL     OW24670   3.689   4.090   3.799  0.2756  0.4644  0.1254
 4404SOL    HW124671   3.672   4.031   3.725  1.5579 -0.7915  0.8114
 4404SOL    HW224672   3.764   4.043   3.837  2.0931  2.6251 -0.7656
 4405SOL     OW24673   1.293   2.435   8.438 -0.1174 -0.3057 -0.2851
 4405SOL    HW124674   1.300   2.530   8.444  2.3145 -0.4847 -0.3094
 4405SOL    HW224675   1.377   2.400   8.471 -0.2749  0.5138  0.9858
 4406SOL     OW24676   1.196   1.709   2.477  0.6840 -0.1305 -0.3198
 4406SOL    HW124677   1.159   1.771   2.414  0.4516 -1.8723 -1.9054
 4406SOL    HW224678   1.142   1.632   2.459 -0.7211  0.5293  1.0860
 4407SOL     OW24679   1.195   0.095  16.956 -0.1417  0.5053  0.5813
 4407SOL    HW124680   1.176   0.078  17.048 -0.2988  0.5424  0.5546
 4407SOL    HW224681   1.121   0.061  16.907  1.1137  1.8625 -2.2882
 4408SOL     OW24682   3.505   2.948   4.227 -0.2834  0.0899  0.4712
 4408SOL    HW124683   3.435   2.927   4.289 -1.3639  1.3648 -0.2916
 4408SOL    HW224684   3.583   2.910   4.266 -1.0563 -0.3099  1.6076
 4409SOL     OW24685   2.602   1.440   5.121  0.6599 -0.8309  0.1517
 4409SOL    HW124686   2.657   1.439   5.043 -2.2182 -1.1861 -1.9079
 4409SOL    HW224687   2.513   1.445   5.084 -0.6746  1.2391  3.6603
 4410SOL     OW24688   3.779   4.425  12.570  0.1852 -0.1639 -0.5331
 4410SOL    HW124689   3.704   4.403  12.625  1.0372 -2.7408 -0.3929
 4410SOL    HW224690   3.850   4.390  12.624 -0.5950  0.7975  1.0834
 4411SOL     OW24691   2.116   0.198  17.165  0.1680  0.0672 -0.0835
 4411SOL    HW124692   2.160   0.273  17.123 -3.1681  2.0578  0.0064
 4411SOL    HW224693   2.188   0.135  17.171  0.4865  0.3990 -0.3779
 4412SOL     OW24694   3.671   2.875   6.171  0.1102  0.1761  0.3186
 4412SOL    HW124695   3.689   2.854   6.263 -0.6499 -1.5753  0.0665
 4412SOL    HW224696   3.583   2.840   6.158  0.4072 -0.3783 -0.1815
 4413SOL     OW24697   1.114   3.518   8.818 -0.0049 -0.0154 -0.3748
 4413SOL    HW124698   1.069   3.437   8.794 -2.4791  0.0965  3.7663
 4413SOL    HW224699   1.187   3.492   8.874 -1.8484 -1.2096  1.4912
 4414SOL     OW24700   0.489   4.011  17.227  0.6216 -0.3674  0.3701
 4414SOL    HW124701   0.426   3.941  17.243  1.2228 -0.7965  0.8776
 4414SOL    HW224702   0.433   4.077  17.186 -1.5962 -1.8737  0.9552
 4415SOL     OW24703   2.001   3.496  13.429 -0.0215  0.0368 -0.4754
 4415SOL    HW124704   2.019   3.589  13.417 -2.7392  0.5902 -0.2034
 4415SOL    HW224705   2.086   3.462  13.458 -0.0421 -0.2773 -0.7869
 4416SOL     OW24706   4.691   2.319   8.426 -0.2814  0.0645  0.4360
 4416SOL    HW124707   4.610   2.340   8.379  1.9320  1.8349 -2.5914
 4416SOL    HW224708   4.688   2.224   8.435 -2.0575  0.1510  0.7854
 4417SOL     OW24709   4.046   3.929   6.856  0.1778  0.3491 -0.1429
 4417SOL    HW124710   4.022   4.002   6.914  1.7291  1.1151 -0.4634
 4417SOL    HW224711   3.981   3.865   6.886  2.5667 -1.2515  1.6077
 4418SOL     OW24712   0.856   1.575  13.279 -0.2282  0.2328 -0.0413
 4418SOL    HW124713   0.882   1.614  13.363  0.3494 -0.4648  0.1096
 4418SOL    HW224714   0.928   1.513  13.268  0.3751  0.8374  0.4770
 4419SOL     OW24715   1.530   3.983   8.039 -0.1092 -0.1337  0.2793
 4419SOL    HW124716   1.558   3.948   7.955  0.6673  1.1418  0.0009
 4419SOL    HW224717   1.559   4.073   8.022  0.9287 -0.2211  1.6793
 4420SOL     OW24718   1.160   3.053   5.241 -0.2434 -0.6355 -0.6380
 4420SOL    HW124719   1.231   3.079   5.183  1.1805 -0.7797  1.0269
 4420SOL    HW224720   1.087   3.044   5.180 -0.5670  1.3115 -0.5178
 4421SOL     OW24721   0.989   1.317  10.830 -0.1461 -0.3536 -0.0398
 4421SOL    HW124722   1.070   1.270  10.810  0.5113  0.6232  0.3420
 4421SOL    HW224723   1.014   1.366  10.908 -0.8714  0.8684 -0.5852
 4422SOL     OW24724   0.018   0.592   5.601  0.0181 -0.0935 -0.0217
 4422SOL    HW124725   0.099   0.568   5.646 -1.2838 -1.1822  1.7510
 4422SOL    HW224726   0.006   0.683   5.627 -0.6140 -0.4418  0.9649
 4423SOL     OW24727   2.643   3.954   9.972 -0.8303  0.1711 -0.3697
 4423SOL    HW124728   2.642   3.900   9.893 -1.8030 -0.1449 -0.1438
 4423SOL    HW224729   2.729   3.939  10.010 -0.9789 -2.1021 -0.8948
 4424SOL     OW24730   2.237   0.564   6.851 -0.3378 -0.2325 -0.0271
 4424SOL    HW124731   2.213   0.482   6.807 -1.8738 -1.0754  2.3683
 4424SOL    HW224732   2.332   0.556   6.851 -0.3697 -0.6282  0.1277
 4425SOL     OW24733   0.716   0.235   6.744  0.7037  0.1019 -0.4390
 4425SOL    HW124734   0.745   0.189   6.822 -1.3689 -0.8718 -0.2183
 4425SOL    HW224735   0.742   0.174   6.675 -1.3586 -1.5353  0.2004
 4426SOL     OW24736   0.919   3.336   0.006  0.1657 -0.1487  0.5730
 4426SOL    HW124737   1.002   3.302   0.039  0.1268 -2.4104 -1.6955
 4426SOL    HW224738   0.915   3.296  17.615  0.5325 -0.4665  0.7082
 4427SOL     OW24739   0.121   3.203   9.261  0.5753  0.7404 -0.3375
 4427SOL    HW124740   0.110   3.186   9.168  0.6929 -1.5755  0.0721
 4427SOL    HW224741   0.034   3.187   9.299  0.5024 -0.6228 -1.0805
 4428SOL     OW24742   0.581   3.090  16.635 -0.2359 -0.5908  0.0738
 4428SOL    HW124743   0.618   3.174  16.608 -1.5442  0.1586  0.6432
 4428SOL    HW224744   0.562   3.094  16.728  1.4960 -0.5711  0.4342
 4429SOL     OW24745   2.514   3.871  12.595  0.0056 -0.3715 -0.6862
 4429SOL    HW124746   2.552   3.941  12.541  1.2694 -0.4880  0.0349
 4429SOL    HW224747   2.589   3.812  12.594  1.4021  1.4044 -0.7942
 4430SOL     OW24748   2.942   0.669  12.280 -0.3832  0.1587 -0.1653
 4430SOL    HW124749   3.006   0.638  12.344 -0.4538  0.9656  0.2962
 4430SOL    HW224750   2.965   0.606  12.212  0.6863  1.7417 -1.2614
 4431SOL     OW24751   1.587   3.522  16.532  0.3500  0.5370 -0.1737
 4431SOL    HW124752   1.566   3.493  16.621 -2.5759  0.7547 -0.7865
 4431SOL    HW224753   1.556   3.444  16.486 -0.1814 -0.5800  2.0701
 4432SOL     OW24754   0.940   0.960   3.848  0.0282  0.2374 -0.4893
 4432SOL    HW124755   0.991   0.891   3.890  0.2790  1.3720  1.0584
 4432SOL    HW224756   0.879   0.983   3.917 -1.3383 -1.6138 -1.0641
 4433SOL     OW24757   1.936   1.480   6.876  0.3061 -0.1664 -0.0675
 4433SOL    HW124758   2.011   1.511   6.825 -0.9880  1.4674 -0.9434
 4433SOL    HW224759   1.875   1.544   6.841 -1.4104 -1.7213  0.1074
 4434SOL     OW24760   4.287   1.057   6.646 -0.4597 -0.0655 -0.2348
 4434SOL    HW124761   4.334   1.114   6.707  1.0068 -2.1142  0.5664
 4434SOL    HW224762   4.309   1.091   6.559 -1.3996 -0.3994 -0.5977
 4435SOL     OW24763   4.374   2.404  12.636 -0.6204 -0.0191 -0.4235
 4435SOL    HW124764   4.407   2.339  12.574  1.0845  0.0286  0.4539
 4435SOL    HW224765   4.347   2.468  12.569 -1.3810  0.1139  0.0084
 4436SOL     OW24766   0.609   2.935   3.627  0.0104 -0.2377 -0.7464
 4436SOL    HW124767   0.582   2.913   3.716 -0.4794  0.0268 -0.8296
 4436SOL    HW224768   0.689   2.988   3.637 -1.9431  2.4026  1.1651
 4437SOL     OW24769   1.508   1.485   6.995  0.0983  0.2499 -0.1060
 4437SOL    HW124770   1.534   1.542   7.067  0.3627  2.1256 -1.6892
 4437SOL    HW224771   1.421   1.453   7.020  0.4380 -1.7579 -1.5337
 4438SOL     OW24772   3.782   3.565   5.761 -0.4218 -0.7249 -0.1338
 4438SOL    HW124773   3.803   3.472   5.768 -0.8567 -0.8421 -0.3640
 4438SOL    HW224774   3.840   3.599   5.828 -0.6455 -1.0407  0.2185
 4439SOL     OW24775   2.206   0.729   4.435  0.6780  0.1969 -0.5575
 4439SOL    HW124776   2.255   0.684   4.504 -0.8980 -1.2292 -0.3595
 4439SOL    HW224777   2.181   0.814   4.473  1.2627 -0.0585  0.4024
 4440SOL     OW24778   1.583   3.293   3.840 -0.4923  0.3420  0.4920
 4440SOL    HW124779   1.561   3.238   3.764 -0.2639 -0.5128  1.0398
 4440SOL    HW224780   1.653   3.242   3.882 -0.1982 -0.6801 -1.2218
 4441SOL     OW24781   3.631   0.966  11.754 -0.0577 -0.2685 -0.8236
 4441SOL    HW124782   3.725   0.954  11.749  0.1199  1.5632 -1.9492
 4441SOL    HW224783   3.602   0.918  11.677 -1.1802 -1.7015  0.4950
 4442SOL     OW24784   0.949   4.122   8.091  0.5217 -0.2665  0.5068
 4442SOL    HW124785   0.986   4.209   8.105  0.0589 -0.2290  1.4812
 4442SOL    HW224786   1.027   4.067   8.088  0.7198 -0.0733  2.1298
 4443SOL     OW24787   0.044   1.263   3.191 -0.0749 -0.3409 -0.1143
 4443SOL    HW124788   0.078   1.279   3.279 -0.2019  0.5862 -0.2377
 4443SOL    HW224789   4.694   1.323   3.179  0.2756  0.1827  0.3761
 4444SOL     OW24790   4.432   1.789   2.153 -0.0657 -0.5316 -0.2563
 4444SOL    HW124791   4.491   1.714   2.145  0.3312  0.0677 -3.0295
 4444SOL    HW224792   4.345   1.749   2.160 -0.0686  0.2400  3.8626
 4445SOL     OW24793   0.758   3.843  10.155 -0.0148  0.1163  0.1407
 4445SOL    HW124794   0.686   3.782  10.171 -0.5469  0.6722 -0.1529
 4445SOL    HW224795   0.825   3.789  10.115  1.4074  0.6377  1.8012
 4446SOL     OW24796   4.000   3.316  14.293  0.4466  0.2803 -0.3736
 4446SOL    HW124797   3.974   3.408  14.301 -0.9644 -0.4086  3.2935
 4446SOL    HW224798   4.061   3.316  14.220  0.1018  1.4912 -0.6595
 4447SOL     OW24799   0.511   3.174   2.071  0.3947  0.2559 -0.0938
 4447SOL    HW124800   0.455   3.098   2.086 -2.0965  1.7740 -1.6506
 4447SOL    HW224801   0.587   3.132   2.030 -1.2200 -2.1545 -0.6506
 4448SOL     OW24802   1.306   2.167   5.319  0.6574  0.3061  0.2646
 4448SOL    HW124803   1.284   2.083   5.280 -1.3124  1.4681 -1.1767
 4448SOL    HW224804   1.247   2.225   5.270 -1.3145 -0.3768  1.8448
 4449SOL     OW24805   4.657   2.927   6.576 -0.4897  0.3909  0.4436
 4449SOL    HW124806   4.661   2.888   6.664 -1.9694 -0.6969  0.0373
 4449SOL    HW224807   0.011   2.983   6.579 -2.3454  2.9621 -0.1331
 4450SOL     OW24808   2.738   3.646   7.168 -0.8594 -0.9766  0.0503
 4450SOL    HW124809   2.657   3.621   7.213 -0.8129  0.9826  1.2347
 4450SOL    HW224810   2.752   3.566   7.118 -0.1979 -0.0251 -1.2795
 4451SOL     OW24811   2.567   3.611   9.183  0.5192  0.0581  0.0737
 4451SOL    HW124812   2.577   3.516   9.187  0.9710  0.1136  0.2379
 4451SOL    HW224813   2.478   3.604   9.147  0.3026  0.5443  0.5122
 4452SOL     OW24814   3.309   3.742   5.966  0.1218  0.0955 -0.0813
 4452SOL    HW124815   3.394   3.786   5.958  0.1548  0.3918  1.8539
 4452SOL    HW224816   3.244   3.811   5.954  0.0045  0.1963  1.1653
 4453SOL     OW24817   3.933   0.226   6.081 -0.0821  0.6386  0.0146
 4453SOL    HW124818   3.896   0.232   5.993  0.4036  2.7561 -0.0515
 4453SOL    HW224819   4.021   0.259   6.065  0.1920 -0.5464 -0.9130
 4454SOL     OW24820   3.410   2.712   3.849  0.9407 -0.3737 -0.6564
 4454SOL    HW124821   3.356   2.762   3.787 -0.5376 -1.8461 -0.5562
 4454SOL    HW224822   3.375   2.624   3.837 -1.5739  0.7400 -1.6367
 4455SOL     OW24823   4.451   4.137   8.977 -0.3871 -0.2601 -0.4864
 4455SOL    HW124824   4.477   4.063   9.032 -0.9197  0.1724  0.3359
 4455SOL    HW224825   4.414   4.192   9.046  1.5753  0.1698  0.1989
 4456SOL     OW24826   1.594   2.542   4.168  0.1842  0.2733  0.0551
 4456SOL    HW124827   1.679   2.528   4.128  0.9011  0.1843  1.6131
 4456SOL    HW224828   1.539   2.480   4.120  0.7160  1.5526 -2.2323
 4457SOL     OW24829   0.224   2.375   1.492 -0.2175 -0.1527  0.3484
 4457SOL    HW124830   0.268   2.457   1.468  0.3666 -0.9021 -1.0841
 4457SOL    HW224831   0.229   2.312   1.420 -6.3384 -0.9072  0.5412
 4458SOL     OW24832   2.369   2.299   2.434  0.1964 -0.8268 -0.0823
 4458SOL    HW124833   2.449   2.260   2.397  0.2145  0.7722 -1.7544
 4458SOL    HW224834   2.377   2.269   2.524 -1.3788 -0.5216  0.1582
 4459SOL     OW24835   1.914   0.103  14.098  0.6014  0.4580 -0.3100
 4459SOL    HW124836   1.932   0.190  14.063  1.6928  0.2047 -0.3717
 4459SOL    HW224837   1.997   0.071  14.133 -0.0532 -0.0381  0.7945
 4460SOL     OW24838   2.914   3.462  11.991  0.6079  0.3565  0.0637
 4460SOL    HW124839   2.913   3.378  12.037  2.3458 -1.1007 -2.4794
 4460SOL    HW224840   3.003   3.456  11.955  0.6635  0.5694  0.1658
 4461SOL     OW24841   2.576   1.974   8.831  0.1657  0.0324  0.3328
 4461SOL    HW124842   2.552   2.021   8.751  1.6237 -0.8465 -0.6248
 4461SOL    HW224843   2.503   2.005   8.884 -0.2946 -1.3300  0.4758
 4462SOL     OW24844   0.234   1.545   4.865  0.1666 -0.1611  0.1236
 4462SOL    HW124845   0.329   1.534   4.865  0.3863  1.8150 -1.7677
 4462SOL    HW224846   0.212   1.495   4.786 -1.6615 -0.9530  1.1442
 4463SOL     OW24847   1.299   2.787   9.655 -0.5270 -0.1116  0.1693
 4463SOL    HW124848   1.285   2.747   9.569  0.8203  0.9493 -0.5376
 4463SOL    HW224849   1.212   2.823   9.673 -0.9836 -0.9673 -0.2968
 4464SOL     OW24850   2.462   4.432   9.082  0.1039 -0.0101 -0.2343
 4464SOL    HW124851   2.448   4.398   9.171 -0.0171 -0.6414 -0.4958
 4464SOL    HW224852   2.386   4.491   9.082 -0.7715 -1.1335 -1.5814
 4465SOL     OW24853   3.548   3.040   7.196  0.6098 -0.3658  0.2067
 4465SOL    HW124854   3.527   3.007   7.109  2.9720 -0.0450 -0.4779
 4465SOL    HW224855   3.546   2.958   7.245  1.9115 -1.8553 -2.2501
 4466SOL     OW24856   3.021   2.384  17.495 -0.0745  0.1932 -0.0516
 4466SOL    HW124857   3.074   2.449  17.449  2.8038 -1.6173  0.7296
 4466SOL    HW224858   2.940   2.428  17.520 -0.6275  0.0723 -1.5844
 4467SOL     OW24859   2.148   1.394   4.442  0.0080 -0.4267 -0.0546
 4467SOL    HW124860   2.104   1.342   4.375 -2.8240  0.2514  1.2798
 4467SOL    HW224861   2.234   1.358   4.419 -0.1720  0.8548 -2.7038
 4468SOL     OW24862   0.309   4.628   1.099  0.2906  0.1969  0.5045
 4468SOL    HW124863   0.297   4.666   1.012  3.2901  0.6137  0.2657
 4468SOL    HW224864   0.266   4.543   1.088 -2.6344  1.9083 -1.2301
 4469SOL     OW24865   0.049   2.960  11.212 -0.2240 -0.1504  0.0477
 4469SOL    HW124866   0.077   2.972  11.121 -1.4685 -2.9957 -0.6913
 4469SOL    HW224867   4.692   3.010  11.197  0.9261  1.4323 -0.9226
 4470SOL     OW24868   3.659   3.103   2.314 -0.1176  0.2265 -0.6175
 4470SOL    HW124869   3.671   3.028   2.255  0.8588 -0.1949  0.1181
 4470SOL    HW224870   3.741   3.152   2.304 -0.5233  0.3277 -3.4187
 4471SOL     OW24871   3.506   1.466   8.893  0.1090  0.2914  0.1040
 4471SOL    HW124872   3.480   1.524   8.965  1.1439  2.2488 -1.0719
 4471SOL    HW224873   3.541   1.535   8.837  1.2301 -0.1401  0.2573
 4472SOL     OW24874   0.003   3.598  15.065  0.0882 -0.2902 -0.3153
 4472SOL    HW124875   0.013   3.588  15.160 -3.1731  1.0582  0.1808
 4472SOL    HW224876   4.653   3.540  15.045 -0.6947  0.9922 -1.2039
 4473SOL     OW24877   2.559   3.508   3.907 -0.1607  0.3030 -0.2082
 4473SOL    HW124878   2.621   3.449   3.865 -0.3608 -0.4381  0.5229
 4473SOL    HW224879   2.597   3.526   3.993 -0.2401 -0.9500  0.0957
 4474SOL     OW24880   1.457   2.171   1.313  0.2840 -0.1301  0.4985
 4474SOL    HW124881   1.404   2.091   1.314 -0.9787  0.7326  1.9330
 4474SOL    HW224882   1.419   2.212   1.235 -0.1249 -0.4032  0.5511
 4475SOL     OW24883   4.123   0.640   6.342 -0.3328 -0.6139 -0.0623
 4475SOL    HW124884   4.172   0.664   6.264 -0.8822  1.1668  0.1263
 4475SOL    HW224885   4.125   0.715   6.402  0.1667 -0.1035 -0.7166
 4476SOL     OW24886   4.486   2.295   4.351 -0.0563 -0.2873  0.3279
 4476SOL    HW124887   4.470   2.273   4.443  1.2725  0.3485  0.7090
 4476SOL    HW224888   4.459   2.387   4.348  3.6929  0.8296  0.3305
 4477SOL     OW24889   4.647   4.412  14.469 -0.0431 -0.3044  0.3968
 4477SOL    HW124890   0.019   4.408  14.480 -0.0224 -2.2158 -0.4048
 4477SOL    HW224891   4.623   4.497  14.506  0.6462 -0.6785  1.7266
 4478SOL     OW24892   3.700   4.485   1.635  0.1960  0.2687 -0.3167
 4478SOL    HW124893   3.699   4.390   1.625  2.0765  0.0675  1.5054
 4478SOL    HW224894   3.684   4.520   1.547 -1.3820  1.8899  0.6012
 4479SOL     OW24895   3.042   4.021  15.160  0.0590  0.0416 -0.2780
 4479SOL    HW124896   3.084   4.001  15.244  0.0642  2.0296  0.2064
 4479SOL    HW224897   2.957   4.045  15.199 -0.9409  1.0520 -3.0728
 4480SOL     OW24898   4.546   1.887   5.686 -0.4376 -0.5344 -0.6126
 4480SOL    HW124899   4.488   1.908   5.613 -0.2672 -2.0193 -1.1586
 4480SOL    HW224900   4.494   1.927   5.756  0.3291  0.0999 -0.4068
 4481SOL     OW24901   4.529   4.605  10.241  0.0086 -0.6604 -0.3192
 4481SOL    HW124902   4.522   4.514  10.270  0.1523  0.0078  1.7701
 4481SOL    HW224903   4.478   4.660  10.300  0.5932 -1.5854  1.0240
 4482SOL     OW24904   2.345   0.462   4.193  0.2295 -0.1448 -0.2299
 4482SOL    HW124905   2.393   0.385   4.163  3.1782  0.6761  2.4089
 4482SOL    HW224906   2.408   0.494   4.257  0.0945  2.1161 -1.2041
 4483SOL     OW24907   3.493   0.837   5.650  0.2815  0.1579  0.1106
 4483SOL    HW124908   3.405   0.798   5.647  0.8278 -1.1325  1.0390
 4483SOL    HW224909   3.486   0.905   5.583  1.5405  0.0087 -0.1681
 4484SOL     OW24910   1.593   0.259  13.024  0.2020  0.6584 -0.3585
 4484SOL    HW124911   1.581   0.321  13.096  0.3885 -1.1920  1.2771
 4484SOL    HW224912   1.684   0.260  12.997 -0.3738 -0.1828 -2.2815
 4485SOL     OW24913   3.855   4.247   5.861 -0.7024 -0.4410 -0.0989
 4485SOL    HW124914   3.920   4.290   5.916  1.4125  1.8022 -4.3039
 4485SOL    HW224915   3.889   4.274   5.775  0.0661 -0.7854  0.0920
 4486SOL     OW24916   1.127   0.251   7.542  0.1391  0.1425 -0.5825
 4486SOL    HW124917   1.032   0.259   7.549  0.0894  0.4739 -1.6185
 4486SOL    HW224918   1.131   0.156   7.527  1.6796  0.1236 -0.0932
 4487SOL     OW24919   1.770   3.434   9.343  0.5124  0.3353 -0.3980
 4487SOL    HW124920   1.804   3.514   9.303  0.6375 -0.7734 -2.5089
 4487SOL    HW224921   1.788   3.442   9.437 -3.4778  1.2531  0.2934
 4488SOL     OW24922   2.979   0.102   9.534 -0.4335  0.2970 -0.0690
 4488SOL    HW124923   2.886   0.104   9.554 -0.1160  0.1879  1.4141
 4488SOL    HW224924   3.013   0.184   9.569 -0.1988  0.7418 -1.3242
 4489SOL     OW24925   3.143   3.777  14.062 -0.0817 -0.7661 -0.3281
 4489SOL    HW124926   3.113   3.858  14.021 -0.0283 -0.5518  0.0592
 4489SOL    HW224927   3.054   3.747  14.076 -0.8422  2.0741  1.0093
 4490SOL     OW24928   1.045   1.973   9.050  0.0656 -0.2079  0.0034
 4490SOL    HW124929   1.118   1.926   9.091  0.4167 -0.9700 -1.4964
 4490SOL    HW224930   0.999   1.905   9.001 -0.8353 -0.7226  1.5590
 4491SOL     OW24931   1.116   0.230   8.181 -0.0312  0.4640 -0.2123
 4491SOL    HW124932   1.103   0.324   8.167 -0.0697  0.4694 -0.1377
 4491SOL    HW224933   1.185   0.244   8.246 -1.3705  0.7994  1.1485
 4492SOL     OW24934   2.423   2.103   9.030  0.6137  0.0957  0.0271
 4492SOL    HW124935   2.353   2.164   9.009 -0.8698 -1.4952  0.2897
 4492SOL    HW224936   2.434   2.133   9.120 -2.0513 -0.2006  0.4513
 4493SOL     OW24937   2.148   1.548  14.192  0.2799  0.6981  0.0970
 4493SOL    HW124938   2.065   1.502  14.204  1.4517 -0.9740  1.6406
 4493SOL    HW224939   2.193   1.524  14.272 -0.9682  1.4095  1.0106
 4494SOL     OW24940   0.565   0.793   7.076  0.1858 -0.2686 -0.6118
 4494SOL    HW124941   0.488   0.849   7.068 -0.3342 -0.7188  1.1783
 4494SOL    HW224942   0.529   0.739   7.147 -1.3927 -0.1945 -1.3401
 4495SOL     OW24943   4.308   4.194   2.702 -0.1046 -0.0131  0.5985
 4495SOL    HW124944   4.256   4.231   2.774  2.9028  2.6339  1.3973
 4495SOL    HW224945   4.378   4.182   2.765 -0.2887  3.0931  1.4091
 4496SOL     OW24946   4.270   1.426   6.931  0.2172 -0.2370  0.0327
 4496SOL    HW124947   4.333   1.490   6.964 -2.5190  0.6250  3.6360
 4496SOL    HW224948   4.197   1.481   6.902  1.3517  0.7407 -1.0082
 4497SOL     OW24949   0.647   0.931   8.104  0.1317 -0.0516 -0.0012
 4497SOL    HW124950   0.640   0.950   8.198 -0.1846 -0.8340  0.1288
 4497SOL    HW224951   0.688   0.846   8.113  0.4921  0.1047 -0.1574
 4498SOL     OW24952   0.786   1.652  12.742  0.4016  0.3385 -0.1786
 4498SOL    HW124953   0.824   1.729  12.699 -1.2888  1.9463  1.1868
 4498SOL    HW224954   0.833   1.579  12.702  0.5246 -0.5231  1.5471
 4499SOL     OW24955   1.719   1.364   0.132  0.8801  0.0554 -0.1598
 4499SOL    HW124956   1.633   1.369   0.173  0.8843 -0.0258 -0.1430
 4499SOL    HW224957   1.754   1.444   0.171  1.3831 -0.5485  0.6294
 4500SOL     OW24958   2.400   4.399   6.757  0.1737  0.2120  0.0232
 4500SOL    HW124959   2.312   4.420   6.724  1.7271  3.6135 -1.9208
 4500SOL    HW224960   2.436   4.470   6.704  1.1024  0.1182  0.5320
 4501SOL     OW24961   2.014   4.315   1.938  0.5533 -0.2734 -0.1441
 4501SOL    HW124962   2.109   4.314   1.932  0.5539 -1.0371  0.0536
 4501SOL    HW224963   1.985   4.365   1.861 -2.3420  0.6793  1.5609
 4502SOL     OW24964   2.260   1.688   3.674  0.3082 -0.1648  0.4590
 4502SOL    HW124965   2.332   1.650   3.725  1.2610 -2.6359 -2.7342
 4502SOL    HW224966   2.313   1.727   3.604  0.2519 -0.9189 -0.0126
 4503SOL     OW24967   2.192   4.409   7.266  0.7728  0.3890  0.5136
 4503SOL    HW124968   2.102   4.377   7.272  1.0720 -0.3625  1.0552
 4503SOL    HW224969   2.207   4.452   7.350  1.6385 -0.5158  0.8196
 4504SOL     OW24970   1.090   4.191   2.464  0.1034 -0.1605 -0.1217
 4504SOL    HW124971   1.078   4.236   2.381 -1.6601  1.1630  0.8578
 4504SOL    HW224972   1.088   4.266   2.523 -2.0919 -0.1052 -0.2621
 4505SOL     OW24973   4.583   4.346   3.796 -0.7754  0.1427  0.6699
 4505SOL    HW124974   4.589   4.441   3.782  2.3863  0.1276  2.1162
 4505SOL    HW224975   4.660   4.315   3.748 -1.2591 -1.3871  0.8776
 4506SOL     OW24976   0.782   2.438  13.465  0.1951 -0.1941  0.5048
 4506SOL    HW124977   0.860   2.396  13.503  1.1076 -0.6958 -1.9095
 4506SOL    HW224978   0.773   2.516  13.520 -0.9084 -0.5469  0.8188
 4507SOL     OW24979   3.036   3.173   2.964  0.3823  0.2051  0.1095
 4507SOL    HW124980   2.971   3.116   3.006 -0.5873 -0.0429 -1.7154
 4507SOL    HW224981   3.079   3.118   2.899 -1.1333 -0.2373 -0.5191
 4508SOL     OW24982   1.722   1.261   1.875 -0.0095  0.0379 -0.3589
 4508SOL    HW124983   1.699   1.226   1.961 -0.0015 -1.0235 -0.7757
 4508SOL    HW224984   1.635   1.256   1.836 -0.9115  0.2993  1.6541
 4509SOL     OW24985   3.856   0.706   7.549  0.6752 -0.1473 -0.8599
 4509SOL    HW124986   3.899   0.741   7.628  1.7595  0.3687 -1.6712
 4509SOL    HW224987   3.843   0.617   7.580  0.7824 -0.2960 -1.2477
 4510SOL     OW24988   0.750   1.386   9.077 -0.1113 -0.3631 -0.7246
 4510SOL    HW124989   0.682   1.415   9.016  0.1582  0.6457 -0.5427
 4510SOL    HW224990   0.703   1.380   9.160 -0.3191 -0.3778 -0.8407
 4511SOL     OW24991   3.622   2.573   6.310  0.3123 -0.4616  0.0141
 4511SOL    HW124992   3.678   2.524   6.251  1.0799 -0.3101  0.6156
 4511SOL    HW224993   3.689   2.627   6.352 -1.2960  1.6266 -0.0934
 4512SOL     OW24994   0.284   3.302   9.521 -0.6833 -0.2844 -0.0887
 4512SOL    HW124995   0.325   3.373   9.470 -0.3882  1.5204  2.6701
 4512SOL    HW224996   0.279   3.241   9.448  1.8324  0.3933 -0.8381
 4513SOL     OW24997   4.384   3.747   4.194  0.0857 -0.0424 -0.1574
 4513SOL    HW124998   4.365   3.837   4.168  0.1879 -0.5134 -1.8520
 4513SOL    HW224999   4.346   3.708   4.115  0.6678  2.3180 -1.5962
 4514SOL     OW25000   2.801   4.039  11.158  0.5311  0.4703 -0.3751
 4514SOL    HW125001   2.895   4.036  11.141  0.6800 -2.9347  0.9796
 4514SOL    HW225002   2.770   4.057  11.069  0.7666  0.7609 -0.3969
 4515SOL     OW25003   4.057   3.117  13.714 -0.1196 -0.2504  0.1541
 4515SOL    HW125004   4.065   3.044  13.776  0.0023  0.5963  1.1468
 4515SOL    HW225005   4.011   3.072  13.644  0.5255 -0.1459 -0.3429
 4516SOL     OW25006   1.412   3.290  13.043 -0.3452 -0.6598  0.3007
 4516SOL    HW125007   1.483   3.353  13.033 -0.7790 -0.2913 -0.4166
 4516SOL    HW225008   1.459   3.207  13.041  2.2655  0.8345 -1.1160
 4517SOL     OW25009   1.292   2.044   6.076 -0.1297 -0.4883 -0.0993
 4517SOL    HW125010   1.298   2.134   6.044  0.3233 -0.5337 -0.1335
 4517SOL    HW225011   1.206   2.034   6.116  0.3997 -0.0843  1.1368
 4518SOL     OW25012   1.058   1.732   8.490  0.6293 -0.0170 -0.2760
 4518SOL    HW125013   1.084   1.821   8.515 -0.3165  0.4392 -0.9035
 4518SOL    HW225014   1.029   1.693   8.572 -1.2434  0.8591 -0.5087
 4519SOL     OW25015   1.679   1.973   3.702  0.3496 -0.0192 -0.3211
 4519SOL    HW125016   1.706   2.042   3.641  0.1368  0.6054  0.2909
 4519SOL    HW225017   1.668   1.902   3.639  1.6251 -1.2913  0.8884
 4520SOL     OW25018   1.498   4.347  12.944  0.2222  0.2525 -0.1498
 4520SOL    HW125019   1.450   4.380  13.021  0.7994 -0.3563  0.4708
 4520SOL    HW225020   1.420   4.338  12.889 -0.0874  1.8527  0.0218
 4521SOL     OW25021   2.880   0.156   3.013  0.0122 -0.1232  0.0967
 4521SOL    HW125022   2.955   0.215   3.021  1.6235 -2.2028  0.5270
 4521SOL    HW225023   2.826   0.212   2.957  0.7683  2.4686  2.0197
 4522SOL     OW25024   2.467   2.615   2.690  1.2539 -0.0238  0.1203
 4522SOL    HW125025   2.410   2.540   2.670  2.0577  0.2944 -3.2615
 4522SOL    HW225026   2.450   2.671   2.615  0.4317 -0.2248  0.1539
 4523SOL     OW25027   3.710   0.289  13.460 -0.3741 -0.0639  0.3411
 4523SOL    HW125028   3.733   0.200  13.488 -1.4060 -0.6339 -0.5998
 4523SOL    HW225029   3.774   0.339  13.510 -0.3215 -1.6409  1.8326
 4524SOL     OW25030   3.680   4.215   1.563 -0.1335  0.3168 -0.7708
 4524SOL    HW125031   3.762   4.177   1.532  1.4581  0.3348  3.3504
 4524SOL    HW225032   3.630   4.139   1.593 -2.3677  1.1833 -2.2444
 4525SOL     OW25033   0.977   3.536   3.851  0.3812  0.3029  0.5158
 4525SOL    HW125034   0.995   3.630   3.857 -0.6361  0.5674 -0.5275
 4525SOL    HW225035   1.055   3.516   3.799 -0.3308  0.4428 -0.5950
 4526SOL     OW25036   3.655   2.486   5.292  0.3304  0.4106  0.1581
 4526SOL    HW125037   3.641   2.406   5.343 -1.7145 -0.0121 -1.0608
 4526SOL    HW225038   3.740   2.463   5.256 -0.3627 -2.9542  0.6307
 4527SOL     OW25039   1.528   0.166   6.153  0.6325 -0.4692 -0.5719
 4527SOL    HW125040   1.559   0.078   6.172 -0.2078 -0.9136 -1.2664
 4527SOL    HW225041   1.437   0.162   6.124  0.2760 -0.5850  0.5440
 4528SOL     OW25042   2.595   3.776  15.003  0.2378 -0.0411 -0.0420
 4528SOL    HW125043   2.688   3.756  15.006  0.6330  1.4506 -2.0566
 4528SOL    HW225044   2.586   3.871  15.011 -0.1670  0.0891 -1.8661
 4529SOL     OW25045   4.245   4.342   3.904  0.6132 -0.4966  0.6996
 4529SOL    HW125046   4.228   4.364   3.813  1.4247  1.3069  0.9891
 4529SOL    HW225047   4.155   4.345   3.938  0.0963 -0.1183 -0.7146
 4530SOL     OW25048   0.342   2.388   9.873 -0.1340 -0.2729  0.3194
 4530SOL    HW125049   0.294   2.385   9.790 -0.9291  0.3072  0.7590
 4530SOL    HW225050   0.278   2.364   9.940  0.7994  0.4375  1.4664
 4531SOL     OW25051   2.291   2.797  14.160 -0.7713 -0.0263  0.4180
 4531SOL    HW125052   2.332   2.880  14.186 -1.6012  0.7015 -0.6239
 4531SOL    HW225053   2.348   2.772  14.088 -1.1076  0.1942  0.0776
 4532SOL     OW25054   3.468   2.666   2.733 -0.2722 -0.0416  0.1507
 4532SOL    HW125055   3.518   2.738   2.771 -0.6911  0.1059  0.4199
 4532SOL    HW225056   3.527   2.634   2.665 -2.0389  0.1211 -1.4783
 4533SOL     OW25057   2.119   1.025   2.691  0.2207 -0.7093 -0.3042
 4533SOL    HW125058   2.165   1.108   2.682 -0.0734 -0.6011 -0.8131
 4533SOL    HW225059   2.047   1.042   2.631  1.5650  0.8596 -1.4704
 4534SOL     OW25060   4.481   0.366   4.582 -0.4121  0.3007  0.5581
 4534SOL    HW125061   4.482   0.441   4.642 -0.3934  1.1535 -0.4910
 4534SOL    HW225062   4.502   0.296   4.643  2.1711  1.0776  0.5665
 4535SOL     OW25063   3.876   1.514  17.239  0.2121  0.3253  0.2768
 4535SOL    HW125064   3.826   1.481  17.314 -2.0036  0.2341 -1.2293
 4535SOL    HW225065   3.908   1.598  17.271  2.4930 -1.5669  2.9789
 4536SOL     OW25066   3.622   1.396   7.296 -0.7451 -0.0179 -0.4722
 4536SOL    HW125067   3.657   1.362   7.379  0.4746 -1.4269 -1.5672
 4536SOL    HW225068   3.528   1.382   7.299 -0.6167 -0.7278  0.2779
 4537SOL     OW25069   2.552   0.730   9.418  0.0328 -0.5897 -0.0870
 4537SOL    HW125070   2.514   0.817   9.425 -1.0769 -1.2855  2.4097
 4537SOL    HW225071   2.477   0.671   9.426 -0.7194  0.2916 -0.6369
 4538SOL     OW25072   4.676   2.251  11.962  0.3069 -0.0292  0.1541
 4538SOL    HW125073   4.654   2.254  11.869 -0.0677  3.2207  0.3547
 4538SOL    HW225074   4.662   2.342  11.989 -1.5526 -0.8675  1.9980
 4539SOL     OW25075   4.065   4.007   2.970  0.7126 -0.3497  0.2873
 4539SOL    HW125076   4.067   3.923   2.925  1.0105 -1.7428  2.8971
 4539SOL    HW225077   3.992   4.005   3.033  0.7880 -2.3293  0.2910
 4540SOL     OW25078   0.696   3.874   6.779  0.3961  0.2082  0.0714
 4540SOL    HW125079   0.740   3.898   6.860 -0.4741  1.0649  0.2892
 4540SOL    HW225080   0.638   3.950   6.776 -1.0306 -0.8282  1.6372
 4541SOL     OW25081   3.500   0.958   6.313 -0.0761  0.3378 -0.6684
 4541SOL    HW125082   3.532   1.009   6.388  2.3160 -1.0585 -0.7640
 4541SOL    HW225083   3.581   0.913   6.289 -0.4252 -1.4931  1.5833
 4542SOL     OW25084   2.126   1.224  11.070 -0.2781 -0.8693 -0.4211
 4542SOL    HW125085   2.141   1.140  11.113  1.1832  0.0556  0.8718
 4542SOL    HW225086   2.053   1.253  11.125  1.2879 -0.2541  1.3101
 4543SOL     OW25087   4.508   2.667   8.961 -0.4804  0.6631  0.3485
 4543SOL    HW125088   4.528   2.752   8.999 -2.0777  1.2375 -0.0774
 4543SOL    HW225089   4.600   2.640   8.955 -1.2293 -1.4645 -1.8659
 4544SOL     OW25090   3.041   1.119   5.234 -0.4113 -0.0254 -0.0198
 4544SOL    HW125091   3.110   1.090   5.174  0.3100  0.4062  0.5987
 4544SOL    HW225092   2.966   1.123   5.174  0.3938 -2.8167 -1.2197
 4545SOL     OW25093   0.938   4.492  14.085  0.1914  0.1034 -0.2630
 4545SOL    HW125094   0.936   4.401  14.114 -1.4337 -0.3765 -1.8660
 4545SOL    HW225095   0.895   4.544  14.153  1.5514  0.7690  0.0877
 4546SOL     OW25096   3.755   3.166   3.357 -0.3109 -0.4189 -0.5650
 4546SOL    HW125097   3.815   3.170   3.432  0.8390  1.0030 -1.5801
 4546SOL    HW225098   3.737   3.259   3.348 -1.4089 -0.6365 -0.5469
 4547SOL     OW25099   4.682   0.847   2.259  0.4665  0.1055  0.6131
 4547SOL    HW125100   0.014   0.917   2.223 -0.6485  0.0013 -1.3172
 4547SOL    HW225101   0.018   0.772   2.252 -2.7607 -2.5237  1.6648
 4548SOL     OW25102   0.609   3.344  14.853  0.0954  0.2622  0.7478
 4548SOL    HW125103   0.530   3.363  14.904  0.2575 -1.4368  1.6312
 4548SOL    HW225104   0.644   3.433  14.861 -2.9905  1.7519 -2.1932
 4549SOL     OW25105   1.814   0.022   4.972 -0.0254  0.2743  0.3573
 4549SOL    HW125106   1.870   4.715   4.901  0.0543  0.1396  0.4766
 4549SOL    HW225107   1.811   0.113   4.942 -1.5168  1.3343  3.6715
 4550SOL     OW25108   2.703   0.907   0.942 -0.4577 -0.2438  0.4461
 4550SOL    HW125109   2.664   0.819   0.935  1.5809 -1.1496  0.3121
 4550SOL    HW225110   2.779   0.903   1.001  1.1961  0.9572 -1.5992
 4551SOL     OW25111   2.147   1.784  16.087 -0.9481 -0.8089  0.1073
 4551SOL    HW125112   2.191   1.710  16.046  1.3001  0.3494  0.4243
 4551SOL    HW225113   2.189   1.779  16.173 -0.7060 -1.6685 -0.0584
 4552SOL     OW25114   0.366   3.332   0.434 -0.1658 -0.3159  0.6708
 4552SOL    HW125115   0.351   3.339   0.340  0.3422  0.7527  0.6636
 4552SOL    HW225116   0.361   3.238   0.449  0.1296 -0.0778  2.3528
 4553SOL     OW25117   0.249   0.177   7.427  0.2880 -0.3468  0.5712
 4553SOL    HW125118   0.266   0.226   7.507 -0.9760 -0.1360  0.7119
 4553SOL    HW225119   0.330   0.156   7.381  1.2001  1.1845  1.4770
 4554SOL     OW25120   4.025   1.497   5.030  0.5008  0.5012  0.4925
 4554SOL    HW125121   4.039   1.515   4.937  1.5275 -0.7474  0.4152
 4554SOL    HW225122   3.979   1.579   5.048  0.2875  0.5858 -0.4151
 4555SOL     OW25123   2.484   3.046   4.580 -0.2967  0.0372 -0.7612
 4555SOL    HW125124   2.564   3.020   4.534  0.4670  0.6011  0.2682
 4555SOL    HW225125   2.422   2.992   4.530 -1.7481 -0.8771  2.0168
 4556SOL     OW25126   0.425   0.798   2.693 -0.1547  0.4571 -0.0067
 4556SOL    HW125127   0.453   0.738   2.624  1.3337  1.8516 -0.6155
 4556SOL    HW225128   0.426   0.730   2.760  0.7949  2.0219  1.5655
 4557SOL     OW25129   2.623   2.522   8.903  0.0061  0.0095 -0.5052
 4557SOL    HW125130   2.675   2.466   8.845  0.9772  1.2992 -0.8794
 4557SOL    HW225131   2.671   2.528   8.986 -0.0485 -0.5892 -0.4297
 4558SOL     OW25132   4.540   0.009  16.695  0.1875 -0.5369 -0.8399
 4558SOL    HW125133   4.447   0.032  16.697  0.5429  0.7341  0.6411
 4558SOL    HW225134   4.555   4.718  16.602 -0.0258  0.5209 -1.0343
 4559SOL     OW25135   4.132   1.330   2.644  0.3445 -0.0732 -0.0252
 4559SOL    HW125136   4.160   1.407   2.595 -0.9558  0.1904 -0.3642
 4559SOL    HW225137   4.075   1.378   2.704 -0.3740 -0.8755 -0.0686
 4560SOL     OW25138   0.814   2.844   4.497  0.1882 -0.4846  0.1665
 4560SOL    HW125139   0.731   2.888   4.511 -0.3005 -1.1041 -0.8141
 4560SOL    HW225140   0.785   2.780   4.433 -3.4144  0.1035  1.2243
 4561SOL     OW25141   0.135   2.577   5.176  0.0833 -0.3523  0.7385
 4561SOL    HW125142   0.083   2.556   5.254  0.8004 -1.7267  0.8452
 4561SOL    HW225143   0.154   2.489   5.144 -2.5691 -1.1671  1.3634
 4562SOL     OW25144   0.781   1.576   5.229  0.1485  0.0453 -0.3105
 4562SOL    HW125145   0.789   1.670   5.212 -2.2066  0.0969 -1.1516
 4562SOL    HW225146   0.748   1.587   5.319  1.4151  0.4325  0.1012
 4563SOL     OW25147   2.608   3.050   6.448  0.0542 -0.0108 -0.2901
 4563SOL    HW125148   2.628   2.969   6.401  1.9558  0.2409  0.0678
 4563SOL    HW225149   2.602   3.015   6.537  0.1836 -0.2250 -0.3651
 4564SOL     OW25150   1.295   1.825   6.873  0.1523 -0.5180  0.1817
 4564SOL    HW125151   1.235   1.892   6.907  1.1012  0.6196 -0.3710
 4564SOL    HW225152   1.348   1.804   6.950  0.8685 -1.8192 -0.6755
 4565SOL     OW25153   1.121   2.183   7.238  0.5144  0.1030  0.3237
 4565SOL    HW125154   1.033   2.163   7.206  0.5934 -1.9453  1.3534
 4565SOL    HW225155   1.145   2.230   7.159  2.3432 -0.9243  0.2802
 4566SOL     OW25156   0.886   4.611  13.425  0.1151 -0.2250  0.1197
 4566SOL    HW125157   0.911   4.542  13.363 -0.1900  0.2639 -0.5453
 4566SOL    HW225158   0.967   4.661  13.427 -1.2966  1.9730  1.5631
 4567SOL     OW25159   3.891   2.601   5.796 -0.2596  0.1457  0.1198
 4567SOL    HW125160   3.868   2.693   5.788 -2.0716 -0.0999  2.4232
 4567SOL    HW225161   3.852   2.575   5.713 -1.0385  0.2048  0.4618
 4568SOL     OW25162   2.129   3.573   6.553  0.0770  0.6497  0.1833
 4568SOL    HW125163   2.156   3.512   6.484 -0.2121  1.3747 -0.5684
 4568SOL    HW225164   2.206   3.625   6.575  0.2376  0.5867 -0.2215
 4569SOL     OW25165   1.630   0.947   3.102  0.5250 -0.7120  0.5526
 4569SOL    HW125166   1.586   1.028   3.075  1.3838 -0.2657  0.4958
 4569SOL    HW225167   1.551   0.910   3.139 -1.6498 -0.0908 -3.4132
 4570SOL     OW25168   0.989   3.670   5.925 -0.3468 -0.0116  0.4018
 4570SOL    HW125169   1.059   3.620   5.884 -1.3383  0.9783 -2.4826
 4570SOL    HW225170   0.914   3.628   5.883 -0.9565  0.3725  1.0853
 4571SOL     OW25171   0.366   2.360  14.595  0.5757  0.4898 -0.1245
 4571SOL    HW125172   0.345   2.279  14.642 -0.0031  1.3336  1.0491
 4571SOL    HW225173   0.453   2.348  14.558  0.9511  2.4749  0.1237
 4572SOL     OW25174   2.123   3.641   8.439  0.0711  0.1388 -0.2293
 4572SOL    HW125175   2.029   3.653   8.454  0.0008 -0.6009 -0.0609
 4572SOL    HW225176   2.159   3.719   8.480  0.1860 -0.0606  0.0517
 4573SOL     OW25177   2.190   0.728  14.837 -0.1533  0.2114  0.1307
 4573SOL    HW125178   2.235   0.683  14.766  0.3342 -1.5033  1.5174
 4573SOL    HW225179   2.150   0.800  14.787 -1.2373 -1.2031 -1.0564
 4574SOL     OW25180   3.155   0.215   4.719 -0.3683  0.1135  0.3469
 4574SOL    HW125181   3.108   0.223   4.802 -1.2448  0.9615 -0.2373
 4574SOL    HW225182   3.149   0.307   4.696  0.8021 -0.0292 -0.5548
 4575SOL     OW25183   0.563   0.979  10.870 -0.6502  0.1499 -0.3619
 4575SOL    HW125184   0.656   0.981  10.896 -1.2147 -0.5361  1.7485
 4575SOL    HW225185   0.523   1.016  10.949  1.4339 -1.0302  1.2536
 4576SOL     OW25186   1.314   0.487   0.522 -0.2411 -0.2860 -0.3208
 4576SOL    HW125187   1.229   0.506   0.483  0.0041  1.6117  0.0474
 4576SOL    HW225188   1.294   0.403   0.565  1.0785 -0.0365  0.8101
 4577SOL     OW25189   2.428   4.174   9.004 -0.3913  0.0137 -0.6730
 4577SOL    HW125190   2.450   4.266   9.014 -1.3568 -0.0083  1.5977
 4577SOL    HW225191   2.513   4.137   8.979 -0.7718 -0.7640 -0.8411
 4578SOL     OW25192   0.639   2.771   2.646 -0.0180  0.9277 -0.0743
 4578SOL    HW125193   0.549   2.768   2.676 -0.5732  0.1896 -1.8401
 4578SOL    HW225194   0.657   2.862   2.670  0.7384  0.7075  0.1985
 4579SOL     OW25195   4.239   3.216   3.971 -0.1539  0.3322  0.2989
 4579SOL    HW125196   4.164   3.275   3.962 -0.2951 -0.2849 -2.6289
 4579SOL    HW225197   4.236   3.152   3.900  0.8535 -0.0716  0.6211
 4580SOL     OW25198   0.431   0.345   1.327  0.2617  0.1826  0.2678
 4580SOL    HW125199   0.451   0.260   1.366 -0.9979 -0.5741 -0.7298
 4580SOL    HW225200   0.432   0.328   1.232  1.6440  0.2056  0.2742
 4581SOL     OW25201   2.267   1.126  16.390  0.1979  0.3358 -0.0477
 4581SOL    HW125202   2.296   1.046  16.346  3.2211  1.4188  0.0050
 4581SOL    HW225203   2.233   1.170  16.312  0.1201  0.3915  0.0174
 4582SOL     OW25204   0.307   2.288   7.672  0.1345  0.5969 -0.0059
 4582SOL    HW125205   0.387   2.285   7.725 -0.2592  1.4796  0.6325
 4582SOL    HW225206   0.329   2.353   7.605  2.5592 -1.3679 -1.1144
 4583SOL     OW25207   0.580   2.742  13.508 -0.0137 -0.2026 -0.1960
 4583SOL    HW125208   0.654   2.708  13.559  0.1860  0.2102 -0.2101
 4583SOL    HW225209   0.520   2.766  13.577  1.0826  0.7033  0.4468
 4584SOL     OW25210   1.874   3.091  16.019  0.0441  0.5245 -0.2938
 4584SOL    HW125211   1.962   3.073  16.051 -0.3446 -0.6555  0.1024
 4584SOL    HW225212   1.878   3.074  15.925 -1.2879  2.5546 -0.7377
 4585SOL     OW25213   3.987   0.898  17.422  0.6289 -0.0749 -0.0373
 4585SOL    HW125214   4.016   0.983  17.455  0.3582  0.7229 -1.9009
 4585SOL    HW225215   3.908   0.892  17.475 -0.7609  3.6257 -1.6970
 4586SOL     OW25216   1.852   2.720   4.894 -0.2223  0.1905 -0.6124
 4586SOL    HW125217   1.902   2.638   4.891  1.2592  1.0346  1.5957
 4586SOL    HW225218   1.839   2.729   4.988  3.5078 -0.2887 -0.0770
 4587SOL     OW25219   1.384   0.801   3.594  0.0372 -0.3943 -0.0678
 4587SOL    HW125220   1.340   0.803   3.678  1.1685 -0.8258  0.5313
 4587SOL    HW225221   1.468   0.755   3.594  0.7565  0.9375  2.5056
 4588SOL     OW25222   3.169   3.938   2.793  0.2415 -0.1647  0.2704
 4588SOL    HW125223   3.220   3.924   2.873 -1.0392  2.6553  1.6076
 4588SOL    HW225224   3.115   4.016   2.810 -0.9038 -1.3961  2.2491
 4589SOL     OW25225   4.565   1.431   8.549 -0.5705  0.5247 -0.5668
 4589SOL    HW125226   4.594   1.522   8.552  2.4052 -0.4325 -0.0924
 4589SOL    HW225227   4.627   1.387   8.607 -1.1744  0.3726 -0.0438
 4590SOL     OW25228   1.950   3.206   4.656  0.2088  0.4607  0.1829
 4590SOL    HW125229   1.949   3.188   4.750  1.9280  1.5529  0.4071
 4590SOL    HW225230   1.915   3.128   4.614  1.3916  0.7072 -1.2493
 4591SOL     OW25231   3.196   0.614   6.461  0.0634 -0.5534 -0.2544
 4591SOL    HW125232   3.259   0.683   6.480  0.6717 -1.5359  1.2685
 4591SOL    HW225233   3.137   0.667   6.408  3.0675  0.1714 -2.8411
 4592SOL     OW25234   1.062   0.432   1.178  0.1058  0.3559  0.4276
 4592SOL    HW125235   1.050   0.354   1.231 -0.3900 -1.6312 -2.6007
 4592SOL    HW225236   1.156   0.450   1.174  0.3511 -1.0823 -0.2253
 4593SOL     OW25237   3.195   0.651  14.021 -0.1844  0.0958 -0.3912
 4593SOL    HW125238   3.110   0.694  14.028 -1.4044 -1.9741 -2.6070
 4593SOL    HW225239   3.232   0.664  14.109 -1.4264  2.2544 -0.1907
 4594SOL     OW25240   0.702   2.307   8.290 -0.0343  1.1056 -0.1501
 4594SOL    HW125241   0.785   2.275   8.327 -0.7264 -0.1965  0.2906
 4594SOL    HW225242   0.682   2.361   8.366 -1.4104  1.1419 -0.5365
 4595SOL     OW25243   2.569   3.174   8.495 -0.1170  0.0920  0.3359
 4595SOL    HW125244   2.577   3.184   8.400 -1.6085 -0.6504  0.1372
 4595SOL    HW225245   2.512   3.247   8.520 -3.4115 -3.3966  2.8804
 4596SOL     OW25246   3.288   2.539   8.632  0.1191 -0.7203  0.2095
 4596SOL    HW125247   3.248   2.493   8.707 -1.3831  1.3263  0.6721
 4596SOL    HW225248   3.379   2.557   8.654 -0.1955  0.3148  0.6480
 4597SOL     OW25249   0.803   1.603  10.857  0.5829 -0.0192  0.4054
 4597SOL    HW125250   0.768   1.615  10.945 -3.3299  0.0694 -1.1344
 4597SOL    HW225251   0.885   1.560  10.882  0.7835 -0.4085 -0.9041
 4598SOL     OW25252   2.080   0.746   4.724 -0.3466  0.4276  0.2534
 4598SOL    HW125253   2.132   0.826   4.712  0.0002  0.4945  2.1755
 4598SOL    HW225254   2.153   0.684   4.727 -1.5646 -1.0277 -0.5037
 4599SOL     OW25255   4.453   2.364   3.994  0.3767  0.0015  0.4662
 4599SOL    HW125256   4.358   2.358   3.984  0.2034 -2.5591  3.9079
 4599SOL    HW225257   4.464   2.278   4.035 -0.3962 -2.2194 -3.9324
 4600SOL     OW25258   2.007   3.473  15.694  1.0237  0.2719 -0.4288
 4600SOL    HW125259   1.932   3.452  15.751  0.8841 -2.2683 -1.5355
 4600SOL    HW225260   2.078   3.430  15.742  2.5251 -0.6706 -3.4903
 4601SOL     OW25261   1.917   1.427   1.769 -0.1318  0.3066 -0.0041
 4601SOL    HW125262   1.847   1.380   1.814 -1.4962  0.8986 -1.4912
 4601SOL    HW225263   1.868   1.508   1.756 -2.2368 -0.6687  1.9148
 4602SOL     OW25264   0.681   2.817  16.198  0.7056 -0.2507  0.5169
 4602SOL    HW125265   0.596   2.776  16.219  0.0436  1.0604  0.3745
 4602SOL    HW225266   0.673   2.809  16.103  0.9222  0.1309  0.4681
 4603SOL     OW25267   1.626   0.192   9.944  0.0915 -0.3147 -0.2842
 4603SOL    HW125268   1.684   0.153  10.008  2.8468  3.4238 -0.5525
 4603SOL    HW225269   1.545   0.143   9.959  0.5294 -0.8970  0.1471
 4604SOL     OW25270   1.595   1.057  13.288 -0.1975 -0.2948 -0.4926
 4604SOL    HW125271   1.688   1.044  13.308 -0.7821 -0.8465  1.8379
 4604SOL    HW225272   1.609   1.124  13.221 -1.2444  0.4213 -0.0008
 4605SOL     OW25273   0.177   4.242   4.977 -0.2984  0.4148 -0.0384
 4605SOL    HW125274   0.231   4.308   5.020 -2.1579  1.4409  0.6844
 4605SOL    HW225275   0.150   4.299   4.905 -2.9931  0.4671  1.0282
 4606SOL     OW25276   1.940   0.714   0.077 -0.1206  0.3548 -0.2630
 4606SOL    HW125277   1.920   0.623   0.056 -1.1316  0.7941 -1.1861
 4606SOL    HW225278   2.027   0.705   0.117 -0.6897 -1.5619  0.5176
 4607SOL     OW25279   2.631   4.626   9.747  0.4438  0.0724 -0.3353
 4607SOL    HW125280   2.629   4.575   9.829  0.1982  0.6476  0.0127
 4607SOL    HW225281   2.586   4.703   9.781  1.4906 -0.4976  2.3669
 4608SOL     OW25282   3.941   4.598  13.416  0.3228 -0.3541  0.0355
 4608SOL    HW125283   4.023   4.571  13.375  0.4972 -2.7546  1.9898
 4608SOL    HW225284   3.896   4.514  13.418  0.3407 -0.3549  0.3874
 4609SOL     OW25285   4.390   3.448  11.306  0.2679 -0.3268 -0.4936
 4609SOL    HW125286   4.424   3.473  11.220 -0.0310  1.8846  0.0165
 4609SOL    HW225287   4.436   3.511  11.362  0.4271  1.1162 -2.2573
 4610SOL     OW25288   3.553   2.441   4.928  0.0144  0.3941 -0.1769
 4610SOL    HW125289   3.529   2.361   4.883  0.0962 -0.0594  0.5802
 4610SOL    HW225290   3.519   2.420   5.016  2.3264  0.5260  0.7405
 4611SOL     OW25291   3.174   4.398   3.640  0.2414  0.2889 -0.5690
 4611SOL    HW125292   3.171   4.488   3.607  2.0418  0.5380 -0.0175
 4611SOL    HW225293   3.149   4.354   3.558  1.9681 -0.0741 -0.8841
 4612SOL     OW25294   3.158   0.703  14.635 -0.0393  0.6481  0.0828
 4612SOL    HW125295   3.074   0.736  14.602 -0.4443 -1.2229 -0.7462
 4612SOL    HW225296   3.173   0.625  14.583  1.3152  0.2069  1.1302
 4613SOL     OW25297   2.826   0.104   8.228 -0.3972  0.0868  0.0440
 4613SOL    HW125298   2.864   0.026   8.187 -1.9172 -1.1528  0.9900
 4613SOL    HW225299   2.767   0.121   8.155 -1.5405  3.2817  1.7345
 4614SOL     OW25300   0.917   1.924   3.209 -0.5723  0.1949  0.5782
 4614SOL    HW125301   0.895   2.017   3.206 -0.6736  0.1227 -0.8612
 4614SOL    HW225302   0.884   1.895   3.124  1.1672  2.8243 -0.9932
 4615SOL     OW25303   0.753   3.379   8.955  0.2773 -0.1972  0.1363
 4615SOL    HW125304   0.792   3.453   8.909  0.7677  0.9070  2.2958
 4615SOL    HW225305   0.668   3.418   8.977  1.6137  2.1985  1.1201
 4616SOL     OW25306   4.421   3.902   5.603 -0.3145  0.0298  0.2802
 4616SOL    HW125307   4.436   3.996   5.605  0.0042  0.0104 -1.2428
 4616SOL    HW225308   4.486   3.863   5.661 -0.4607  0.5840  0.8243
 4617SOL     OW25309   0.483   0.866   1.319 -0.8973  0.2043 -0.2567
 4617SOL    HW125310   0.397   0.887   1.357 -0.1725  0.6365  1.1275
 4617SOL    HW225311   0.466   0.775   1.291  0.2196  0.2089 -0.9277
 4618SOL     OW25312   1.084   1.069   4.722 -0.2073  0.4391 -0.1851
 4618SOL    HW125313   1.069   1.156   4.686 -1.2442  0.1742 -0.3851
 4618SOL    HW225314   1.011   1.069   4.784 -1.6214  1.1038 -1.8510
 4619SOL     OW25315   3.502   0.619  16.383  0.1118 -0.0107  0.4871
 4619SOL    HW125316   3.453   0.537  16.373 -0.3210  0.5613 -2.0620
 4619SOL    HW225317   3.588   0.585  16.408  0.1603  1.0034  1.6993
 4620SOL     OW25318   1.590   4.696   9.704  0.3065 -0.1122 -0.2521
 4620SOL    HW125319   1.605   0.048   9.648  1.1238  2.3571  3.2692
 4620SOL    HW225320   1.664   4.710   9.764 -0.7571  0.9805  0.8101
 4621SOL     OW25321   4.678   0.734   6.003  0.6191  0.1329 -0.1189
 4621SOL    HW125322   4.595   0.699   6.034 -0.3307  1.5127 -1.1580
 4621SOL    HW225323   4.707   0.792   6.073 -0.3214  2.1213 -1.4033
 4622SOL     OW25324   1.653   2.588   1.705 -0.6578  0.4276 -0.6702
 4622SOL    HW125325   1.612   2.517   1.656  0.6026 -0.7182 -0.0390
 4622SOL    HW225326   1.592   2.601   1.778 -1.0834 -0.5553 -0.8453
 4623SOL     OW25327   3.580   1.225  11.723 -0.2926 -0.0724 -0.3925
 4623SOL    HW125328   3.591   1.131  11.733 -0.8310 -0.0730  0.2480
 4623SOL    HW225329   3.634   1.237  11.646  0.9535  3.9146  1.1083
 4624SOL     OW25330   2.716   3.289   3.836  0.3868 -0.0494 -0.5956
 4624SOL    HW125331   2.733   3.307   3.743  2.9705  1.8697  0.2479
 4624SOL    HW225332   2.733   3.197   3.855  1.3227  0.0795 -0.7930
 4625SOL     OW25333   1.374   0.121  10.004 -0.0657 -0.0915 -0.2082
 4625SOL    HW125334   1.309   0.054  10.025  0.1746 -0.5184 -0.8251
 4625SOL    HW225335   1.320   0.188   9.963  0.2237  0.0078 -0.4300
 4626SOL     OW25336   0.069   0.110  14.839 -0.1590 -0.6594  0.0077
 4626SOL    HW125337   0.005   0.039  14.827  0.5002 -0.7665 -3.1016
 4626SOL    HW225338   0.145   0.064  14.803 -0.5167 -1.2412 -0.0193
 4627SOL     OW25339   4.107   1.619   8.374  0.0666  0.3180 -0.3179
 4627SOL    HW125340   4.130   1.537   8.331 -0.0982 -0.1758  0.5354
 4627SOL    HW225341   4.012   1.609   8.377 -0.0286  1.4679  0.6312
 4628SOL     OW25342   3.446   4.321  11.626 -0.3555 -0.1106 -0.5537
 4628SOL    HW125343   3.536   4.324  11.658 -0.4635 -0.2136 -0.2367
 4628SOL    HW225344   3.433   4.226  11.626 -0.5870 -0.0922  1.5068
 4629SOL     OW25345   2.433   3.668   7.932 -0.2606  0.1462  0.0992
 4629SOL    HW125346   2.426   3.663   8.027  0.3343 -0.6489  0.1004
 4629SOL    HW225347   2.510   3.614   7.915  0.0820  0.9689 -0.9664
 4630SOL     OW25348   2.294   1.095   6.684  0.3623 -0.2360 -0.3593
 4630SOL    HW125349   2.199   1.091   6.696  0.3702  0.8165  0.0762
 4630SOL    HW225350   2.329   1.025   6.738  0.1840 -0.2026 -0.2008
 4631SOL     OW25351   4.242   3.292   9.187 -0.4114  0.2825 -0.2965
 4631SOL    HW125352   4.282   3.228   9.128 -0.6277  1.4470 -1.7072
 4631SOL    HW225353   4.316   3.348   9.207  1.2177 -2.3366  1.0012
 4632SOL     OW25354   4.660   2.439  13.431  0.2683 -0.1249  0.2729
 4632SOL    HW125355   0.019   2.467  13.390 -1.1178 -0.5377 -2.7603
 4632SOL    HW225356   4.679   2.372  13.498 -0.7668  0.1520  0.8374
 4633SOL     OW25357   1.823   2.105   6.063 -0.0351 -0.5700  0.2460
 4633SOL    HW125358   1.749   2.069   6.014 -0.5328  1.9321 -0.8204
 4633SOL    HW225359   1.893   2.052   6.024 -0.1118  0.0376 -0.6954
 4634SOL     OW25360   2.883   2.820   9.020 -0.1001  0.2844 -0.1473
 4634SOL    HW125361   2.822   2.858   8.957  0.1702  2.5977  0.9709
 4634SOL    HW225362   2.917   2.743   8.975  0.1157  0.0779  0.3670
 4635SOL     OW25363   3.227   2.857   7.567 -0.0462  0.0562  0.4163
 4635SOL    HW125364   3.287   2.836   7.639 -1.0956 -2.3294  0.6160
 4635SOL    HW225365   3.239   2.951   7.552  0.1212 -0.4276 -2.4125
 4636SOL     OW25366   2.014   1.048   6.469  0.1797  0.5321  0.2683
 4636SOL    HW125367   2.006   0.970   6.415  0.4963  0.9300 -0.3549
 4636SOL    HW225368   2.099   1.077   6.435  0.8624 -2.8896 -0.9776
 4637SOL     OW25369   3.952   4.134   8.076 -0.0797  0.6024 -0.0253
 4637SOL    HW125370   3.960   4.039   8.066 -2.3897  0.7182 -2.7336
 4637SOL    HW225371   4.008   4.170   8.008 -0.5977  0.4383 -0.5377
 4638SOL     OW25372   2.992   0.310   2.087 -0.4517  0.4530  0.2278
 4638SOL    HW125373   2.948   0.235   2.046 -1.5865  1.0691  0.2986
 4638SOL    HW225374   2.950   0.383   2.041  0.1549  0.6036 -0.0888
 4639SOL     OW25375   2.896   2.659   1.796 -0.4438  0.1849 -0.8253
 4639SOL    HW125376   2.950   2.580   1.786 -0.4742 -0.1449  1.6513
 4639SOL    HW225377   2.882   2.677   1.703 -3.4641  0.0741 -0.4058
 4640SOL     OW25378   3.903   2.557   9.101 -0.0083  0.1572 -0.2384
 4640SOL    HW125379   3.811   2.575   9.083 -0.0874  0.4625  0.4868
 4640SOL    HW225380   3.895   2.462   9.109  1.7912  0.1087  0.9618
 4641SOL     OW25381   3.057   3.218  12.599 -0.3772  0.1759 -0.3362
 4641SOL    HW125382   3.133   3.206  12.656 -0.6748  2.4083  0.5239
 4641SOL    HW225383   2.984   3.194  12.656 -1.1440 -0.5463 -1.6230
 4642SOL     OW25384   0.244   4.353   8.424 -0.0931 -0.1943  0.0425
 4642SOL    HW125385   0.171   4.291   8.432 -0.2691 -0.1701 -1.3639
 4642SOL    HW225386   0.264   4.334   8.332  1.5061 -1.2425  0.6014
 4643SOL     OW25387   1.482   3.490   4.290 -0.7212  0.5425  0.9048
 4643SOL    HW125388   1.552   3.514   4.230 -1.8076 -0.1037 -0.6228
 4643SOL    HW225389   1.408   3.505   4.232 -0.8865  3.3340  1.8092
 4644SOL     OW25390   1.135   1.966   4.531  0.2756  0.1450  0.6281
 4644SOL    HW125391   1.193   1.959   4.607 -0.0112 -3.2148  0.5700
 4644SOL    HW225392   1.116   2.060   4.529  1.0020  0.2578 -0.7615
 4645SOL     OW25393   2.597   1.442   3.244 -0.3418 -0.1842 -0.5938
 4645SOL    HW125394   2.679   1.480   3.212 -0.4981 -1.0287 -2.0039
 4645SOL    HW225395   2.529   1.488   3.195  1.8324  1.3626 -2.1977
 4646SOL     OW25396   4.112   4.640   6.614  0.3499 -0.4854 -0.0138
 4646SOL    HW125397   4.067   4.662   6.533  0.3755 -2.5381 -0.5799
 4646SOL    HW225398   4.156   4.558   6.594 -0.0520 -1.0403  1.3721
 4647SOL     OW25399   3.368   2.882   8.523 -0.5200 -0.8836  0.8702
 4647SOL    HW125400   3.320   2.947   8.574  1.9553  2.0757 -0.6032
 4647SOL    HW225401   3.457   2.887   8.559 -1.2653 -0.3969  2.6278
 4648SOL     OW25402   4.722   3.307   6.783  0.2002 -0.0137 -0.1070
 4648SOL    HW125403   0.064   3.308   6.853 -1.4627 -1.3562  1.4807
 4648SOL    HW225404   4.711   3.402   6.771 -1.1900 -0.1795 -0.2196
 4649SOL     OW25405   0.923   2.089   5.043 -0.0229 -0.6894 -0.0073
 4649SOL    HW125406   0.935   2.152   4.972 -0.1387  1.0817  1.5263
 4649SOL    HW225407   1.008   2.094   5.087 -0.9836  2.0665  1.5892
 4650SOL     OW25408   3.582   3.369   2.399  0.4096  0.2792  0.1384
 4650SOL    HW125409   3.599   3.443   2.340  1.7311 -1.4091 -1.5928
 4650SOL    HW225410   3.615   3.404   2.481  0.5436 -0.3872  0.3641
 4651SOL     OW25411   3.735   1.942   1.709 -0.4186 -0.0497  0.5445
 4651SOL    HW125412   3.829   1.940   1.691 -1.0364 -2.1992 -2.4392
 4651SOL    HW225413   3.727   1.862   1.761 -1.2903  0.9102  1.8689
 4652SOL     OW25414   2.436   4.015   4.541  0.4579  0.5431 -0.7777
 4652SOL    HW125415   2.492   3.985   4.469 -0.4780  0.1589 -1.3434
 4652SOL    HW225416   2.511   4.038   4.595  0.5330  0.4822 -0.8572
 4653SOL     OW25417   1.275   4.467   6.037  0.1214 -0.2482 -0.1873
 4653SOL    HW125418   1.251   4.455   6.129 -1.0369  2.8655 -0.1056
 4653SOL    HW225419   1.281   4.562   6.028  3.7492 -0.4707 -0.3395
 4654SOL     OW25420   3.339   3.644   4.235  0.5871  0.3642 -0.3726
 4654SOL    HW125421   3.251   3.676   4.255  0.3746  0.5242 -1.5980
 4654SOL    HW225422   3.337   3.619   4.143  3.1954 -0.9391 -0.0642
 4655SOL     OW25423   0.526   2.135  13.213  0.3793 -0.2449  0.1853
 4655SOL    HW125424   0.491   2.062  13.264  0.1083  1.6455  2.6967
 4655SOL    HW225425   0.505   2.111  13.122 -0.1520 -2.8717  1.0081
 4656SOL     OW25426   1.337   4.688   3.182  0.2512  0.0763 -0.2568
 4656SOL    HW125427   1.421   4.711   3.142  0.5437  1.4269  1.1556
 4656SOL    HW225428   1.281   0.003   3.115  0.1615  0.3912 -0.0045
 4657SOL     OW25429   0.630   3.893  16.700 -0.9284  0.1629  0.8107
 4657SOL    HW125430   0.703   3.832  16.686 -0.7167  0.6064 -0.0179
 4657SOL    HW225431   0.620   3.881  16.795  0.6617  1.4645  1.1388
 4658SOL     OW25432   4.071   4.599  10.253  0.3224 -0.2930 -0.7236
 4658SOL    HW125433   4.089   4.522  10.307 -2.6992  0.0745  0.7764
 4658SOL    HW225434   4.124   4.592  10.173  1.2763  0.0215 -0.1071
 4659SOL     OW25435   1.302   0.458   4.279 -0.3937  0.5611  0.0472
 4659SOL    HW125436   1.313   0.365   4.296 -2.0661  0.3282 -0.1584
 4659SOL    HW225437   1.386   0.485   4.243 -0.4774  1.3087  0.4141
 4660SOL     OW25438   0.227   2.304  15.714  0.8073 -0.0255  0.8543
 4660SOL    HW125439   0.179   2.385  15.731 -1.0529 -0.3564 -2.7249
 4660SOL    HW225440   0.240   2.315  15.620 -0.9953  0.5378  0.6802
 4661SOL     OW25441   2.988   0.556   3.986  0.6229 -0.5113 -0.2133
 4661SOL    HW125442   3.021   0.637   4.026 -1.1995 -0.3168  0.8864
 4661SOL    HW225443   2.978   0.573   3.893  0.3695 -0.8137 -0.2394
 4662SOL     OW25444   1.731   2.453  15.276  0.2898 -0.5646 -0.0980
 4662SOL    HW125445   1.748   2.544  15.251  0.7960 -0.4525  0.6498
 4662SOL    HW225446   1.753   2.416  15.190 -0.7405  1.1647 -1.1058
 4663SOL     OW25447   2.330   3.206   8.301  0.2872  0.0353  0.3725
 4663SOL    HW125448   2.322   3.301   8.296 -0.0072 -0.1377 -2.6291
 4663SOL    HW225449   2.241   3.176   8.280  0.6561  1.1486 -2.8359
 4664SOL     OW25450   1.265   2.452   1.525  0.2803 -0.7869 -0.4149
 4664SOL    HW125451   1.211   2.446   1.604  0.2606  4.6035 -0.0164
 4664SOL    HW225452   1.239   2.537   1.489  0.1582 -0.2142  1.0204
 4665SOL     OW25453   2.866   1.349   9.811 -0.5636 -0.3926  0.1593
 4665SOL    HW125454   2.945   1.367   9.861  0.1145 -3.4070  0.1915
 4665SOL    HW225455   2.837   1.286   9.877  0.1828 -0.6358  0.2528
 4666SOL     OW25456   3.525   3.208   2.653 -0.8198 -0.2676  0.5245
 4666SOL    HW125457   3.518   3.299   2.683 -1.5031 -0.5918  1.3758
 4666SOL    HW225458   3.618   3.193   2.666 -0.9588 -1.3523  0.2264
 4667SOL     OW25459   2.752   0.852   8.098  0.0878  0.4889 -0.3578
 4667SOL    HW125460   2.767   0.908   8.174 -2.8713 -0.0831  0.6683
 4667SOL    HW225461   2.744   0.916   8.027  0.9071 -0.6008 -1.4201
 4668SOL     OW25462   2.377   2.302  16.067  0.6569  0.2393  0.2562
 4668SOL    HW125463   2.438   2.232  16.044 -0.9790 -0.7780 -1.0150
 4668SOL    HW225464   2.383   2.309  16.162  1.9021 -0.1939  0.2042
 4669SOL     OW25465   2.054   2.572   2.364  0.4803 -0.7063 -0.0314
 4669SOL    HW125466   2.105   2.599   2.288 -0.5412  1.8721  0.1867
 4669SOL    HW225467   1.975   2.612   2.326  1.3455 -1.7724 -2.8776
 4670SOL     OW25468   3.386   1.128   6.965 -0.2532 -0.0962 -0.3576
 4670SOL    HW125469   3.469   1.176   6.960 -0.0676 -0.6003 -2.3766
 4670SOL    HW225470   3.378   1.119   6.870 -1.9924  0.5096 -0.2631
 4671SOL     OW25471   4.263   0.325   3.643  0.0376 -0.1223  0.3475
 4671SOL    HW125472   4.337   0.350   3.588 -0.7288  1.4195  0.0129
 4671SOL    HW225473   4.299   0.325   3.732  0.6666 -0.1606  0.0943
 4672SOL     OW25474   1.892   3.987   4.051  1.0611  0.6926 -0.1164
 4672SOL    HW125475   1.987   3.993   4.055  1.0347 -0.1207  1.4272
 4672SOL    HW225476   1.870   4.080   4.062 -0.0674  0.6524 -2.1334
 4673SOL     OW25477   3.090   1.296   8.305  0.6907  0.0318  0.3236
 4673SOL    HW125478   3.086   1.359   8.233  0.5931  0.8683  1.0695
 4673SOL    HW225479   3.149   1.349   8.359 -0.0275  0.5511  0.5993
 4674SOL     OW25480   2.088   0.849   3.537  0.1066 -0.3848 -0.8792
 4674SOL    HW125481   2.077   0.754   3.547  0.5163 -0.6156 -2.4765
 4674SOL    HW225482   2.100   0.869   3.629 -1.1104  1.7240 -1.1822
 4675SOL     OW25483   1.006   4.471   8.138  0.2367  0.2543  0.0536
 4675SOL    HW125484   1.049   4.524   8.206 -2.2913  0.7622  1.2597
 4675SOL    HW225485   0.930   4.426   8.176  0.4444 -0.0504  0.1071
 4676SOL     OW25486   1.087   4.649   2.276 -0.8350  0.0257 -0.1214
 4676SOL    HW125487   1.159   4.614   2.329 -0.2451 -0.3257 -1.1567
 4676SOL    HW225488   1.121   0.010   2.246 -0.5834  0.2913  0.9083
 4677SOL     OW25489   0.714   4.442   5.815  1.0076 -0.2463  0.2146
 4677SOL    HW125490   0.656   4.377   5.775 -0.4295  0.9329  0.3348
 4677SOL    HW225491   0.755   4.480   5.737  0.0922 -0.6085 -0.4477
 4678SOL     OW25492   2.666   2.419   2.684  0.0233  0.3809 -0.3416
 4678SOL    HW125493   2.662   2.378   2.598  0.5713 -2.4456  1.0168
 4678SOL    HW225494   2.618   2.502   2.676 -1.4140 -0.2881  1.3752
 4679SOL     OW25495   2.512   0.986   2.052 -0.2691  0.0382 -0.2536
 4679SOL    HW125496   2.555   1.068   2.077 -0.2986 -0.0766  0.1783
 4679SOL    HW225497   2.590   0.933   2.034 -0.7663 -0.2107 -1.6184
 4680SOL     OW25498   2.680   4.494  12.473  0.0489 -0.1935  0.2930
 4680SOL    HW125499   2.624   4.561  12.435  0.0035  1.1081  2.6399
 4680SOL    HW225500   2.646   4.493  12.562  0.1630  0.4714  0.3395
 4681SOL     OW25501   0.937   1.343   8.378  0.0450 -0.0550  0.6328
 4681SOL    HW125502   0.993   1.411   8.415 -0.2136  1.4572 -1.7329
 4681SOL    HW225503   0.946   1.359   8.284  1.1424  1.5939  1.0149
 4682SOL     OW25504   0.155   3.760   4.610 -0.5938 -0.6393 -0.8090
 4682SOL    HW125505   0.061   3.741   4.619 -0.2922 -1.9178 -0.3261
 4682SOL    HW225506   0.164   3.748   4.515  0.4404  0.1166 -0.8052
 4683SOL     OW25507   2.860   0.580  15.742  0.5639 -0.0077 -0.2046
 4683SOL    HW125508   2.903   0.521  15.804 -1.3446 -0.0940  1.0181
 4683SOL    HW225509   2.890   0.666  15.772  1.2170 -0.3152  0.0334
 4684SOL     OW25510   3.632   0.345   4.790 -0.2149 -1.0746 -0.6268
 4684SOL    HW125511   3.569   0.395   4.842 -0.9399 -0.8941 -1.6788
 4684SOL    HW225512   3.562   0.289   4.755 -0.6173  0.2791 -1.9805
 4685SOL     OW25513   4.165   2.084   5.186 -0.1955 -0.0321 -0.4773
 4685SOL    HW125514   4.078   2.049   5.167  1.5540 -4.0723 -0.9986
 4685SOL    HW225515   4.188   2.118   5.099 -2.2676 -1.4170 -1.5725
 4686SOL     OW25516   2.201   0.989   0.029  0.2276  0.1279 -0.1560
 4686SOL    HW125517   2.127   1.034   0.070  0.2988 -0.5189  0.6835
 4686SOL    HW225518   2.275   1.024   0.078 -0.2820  1.7891 -0.5845
 4687SOL     OW25519   3.883   3.820   4.487 -0.4656 -0.6725 -0.4512
 4687SOL    HW125520   3.896   3.912   4.465 -2.0185  0.1403  1.9951
 4687SOL    HW225521   3.820   3.804   4.416 -2.3258  4.4612  0.0800
 4688SOL     OW25522   3.381   2.472  12.213 -0.4308  0.1678 -0.5636
 4688SOL    HW125523   3.328   2.433  12.144 -4.0416  1.4981  1.4884
 4688SOL    HW225524   3.470   2.464  12.178  0.0798  0.4558  0.6501
 4689SOL     OW25525   2.298   1.594   5.075  0.1262  0.5593 -0.1179
 4689SOL    HW125526   2.341   1.648   5.009  0.6345 -0.4871 -0.6376
 4689SOL    HW225527   2.264   1.529   5.014  0.5648  0.0353  0.2033
 4690SOL     OW25528   1.904   2.534  16.716  0.4982  0.2033 -0.7119
 4690SOL    HW125529   1.835   2.509  16.777  1.0130 -0.9338 -0.5981
 4690SOL    HW225530   1.852   2.530  16.635 -2.2551  1.2569  0.9954
 4691SOL     OW25531   1.513   3.496   9.374 -0.0236 -0.2121  0.2690
 4691SOL    HW125532   1.454   3.422   9.360  1.9288 -2.4198  3.7902
 4691SOL    HW225533   1.598   3.456   9.357  0.2737 -0.4211  2.2589
 4692SOL     OW25534   3.911   2.084  12.701 -0.1929  0.2026 -1.0542
 4692SOL    HW125535   3.887   2.064  12.611  0.7828 -0.7268 -1.0982
 4692SOL    HW225536   3.971   2.153  12.674 -0.9757  2.1594  2.0956
 4693SOL     OW25537   0.926   2.879   0.985 -0.2343  0.1996 -0.3988
 4693SOL    HW125538   0.931   2.931   1.065  0.7421  2.0892 -1.6768
 4693SOL    HW225539   0.841   2.894   0.943 -0.1657  1.4942 -0.0577
 4694SOL     OW25540   4.236   2.075   3.463 -0.0641 -0.3424 -0.9374
 4694SOL    HW125541   4.309   2.035   3.414  1.0150 -1.5266  1.6402
 4694SOL    HW225542   4.261   2.167   3.464  3.0525 -1.1779  0.0337
 4695SOL     OW25543   0.318   1.659   5.935 -0.0231  0.3823  0.3597
 4695SOL    HW125544   0.369   1.592   5.982 -0.2185 -0.2370 -0.3043
 4695SOL    HW225545   0.274   1.695   6.012  0.8893  0.1375  0.9957
 4696SOL     OW25546   0.345   1.537  15.581  0.6858  0.3897 -0.9205
 4696SOL    HW125547   0.311   1.488  15.506  1.6331 -2.4722  0.5130
 4696SOL    HW225548   0.398   1.606  15.542 -0.5736  0.9611 -1.6367
 4697SOL     OW25549   2.655   4.407  11.739  0.0461  0.3643  0.8528
 4697SOL    HW125550   2.680   4.469  11.671 -1.7850 -1.9425 -1.9024
 4697SOL    HW225551   2.575   4.441  11.779 -0.6423 -0.4644  0.1828
 4698SOL     OW25552   3.232   0.129   6.674  0.9144 -0.2785  0.1307
 4698SOL    HW125553   3.214   0.045   6.717  1.6707 -0.1263  0.7462
 4698SOL    HW225554   3.169   0.190   6.712  1.6914  0.9617 -0.6088
 4699SOL     OW25555   1.786   3.263   9.142  0.2451  0.3085  0.3391
 4699SOL    HW125556   1.781   3.195   9.209  2.7612 -0.5643 -0.3369
 4699SOL    HW225557   1.833   3.320   9.203  1.5722 -1.2170  0.7523
 4700SOL     OW25558   2.853   0.006   3.454 -0.2180  0.0629  0.3249
 4700SOL    HW125559   2.852   0.101   3.442  1.1967 -0.0076 -0.3293
 4700SOL    HW225560   2.815   0.002   3.542  0.3301 -0.3476  0.5446
 4701SOL     OW25561   0.577   3.102   5.015  0.3902  0.3686 -0.2132
 4701SOL    HW125562   0.638   3.129   4.946  1.0037  1.0547  0.5952
 4701SOL    HW225563   0.512   3.051   4.967  0.1078 -1.8145  2.5068
 4702SOL     OW25564   0.604   0.448   0.969 -0.2249 -0.0474  0.4824
 4702SOL    HW125565   0.529   0.409   1.015 -0.7264  1.8834  1.2945
 4702SOL    HW225566   0.594   0.543   0.975  1.3894  0.1705 -0.3119
 4703SOL     OW25567   3.440   0.550   3.549 -0.5608  0.0458  0.6324
 4703SOL    HW125568   3.372   0.586   3.606 -2.9708 -2.9893 -0.3581
 4703SOL    HW225569   3.396   0.471   3.517  1.5301 -1.2213  0.8323
 4704SOL     OW25570   2.757   1.049  10.341  0.4472  0.3240  0.5846
 4704SOL    HW125571   2.840   1.067  10.297 -0.0829  1.1212 -0.0880
 4704SOL    HW225572   2.767   1.106  10.418  1.1589  1.3671 -0.2887
 4705SOL     OW25573   2.569   3.433  10.419  0.4567  0.2813  0.0332
 4705SOL    HW125574   2.653   3.399  10.389  0.4150 -1.2170  1.6242
 4705SOL    HW225575   2.558   3.353  10.470 -0.2205  1.5576  1.8671
 4706SOL     OW25576   1.591   4.199   8.519 -0.1439  0.5032  0.0215
 4706SOL    HW125577   1.529   4.138   8.559  1.7740 -0.8662  0.8580
 4706SOL    HW225578   1.672   4.189   8.568 -0.6339 -5.9485 -0.4653
 4707SOL     OW25579   4.133   4.077  14.193  0.6668 -0.1739  0.1020
 4707SOL    HW125580   4.154   4.069  14.099 -1.4753 -0.4459 -0.3384
 4707SOL    HW225581   4.220   4.102  14.225  0.4521 -1.7309  1.8545
 4708SOL     OW25582   2.075   4.252   4.659  0.3777  0.1655 -0.2920
 4708SOL    HW125583   2.015   4.235   4.732  2.1626 -0.0076  1.1378
 4708SOL    HW225584   2.141   4.296   4.713 -0.6368  1.6617 -0.2585
 4709SOL     OW25585   3.069   3.521   7.199 -0.4766  0.2444  0.5330
 4709SOL    HW125586   2.995   3.477   7.156  0.6565 -0.3691 -0.7839
 4709SOL    HW225587   3.119   3.452   7.242 -0.5756 -1.3115 -1.8364
 4710SOL     OW25588   2.435   1.975   8.101 -0.0091  1.0923  0.2364
 4710SOL    HW125589   2.516   1.950   8.146 -0.2305  2.4161  1.3579
 4710SOL    HW225590   2.368   1.912   8.128 -0.6310  1.6709  0.0295
 4711SOL     OW25591   1.694   0.844  10.260  0.3698 -0.0834 -0.9837
 4711SOL    HW125592   1.712   0.758  10.298  1.4467  0.5816  0.0031
 4711SOL    HW225593   1.664   0.887  10.340 -0.7249 -1.9444 -0.3872
 4712SOL     OW25594   3.272   4.275   6.201 -0.0058 -0.1904  0.1411
 4712SOL    HW125595   3.254   4.296   6.293  0.6135  1.3701 -0.0982
 4712SOL    HW225596   3.362   4.243   6.204  0.1275 -0.0116 -1.8543
 4713SOL     OW25597   2.182   3.924   6.574  0.2186 -0.0793 -0.7177
 4713SOL    HW125598   2.115   3.919   6.506 -0.7684  0.5379  0.2162
 4713SOL    HW225599   2.215   4.009   6.545  1.7532 -0.3517  0.1881
 4714SOL     OW25600   2.926   1.196   7.945  0.2365  0.3181  0.2113
 4714SOL    HW125601   2.911   1.222   8.036 -0.4589 -1.0878  0.4995
 4714SOL    HW225602   2.937   1.284   7.909 -0.8533 -0.5077 -2.1542
 4715SOL     OW25603   3.759   4.476   3.120  0.2589 -0.6242  0.0502
 4715SOL    HW125604   3.823   4.504   3.055  0.0820  0.0304  0.1628
 4715SOL    HW225605   3.733   4.396   3.074  0.1264 -1.4122  1.4948
 4716SOL     OW25606   3.172   3.318  10.992 -0.7806  0.2461 -0.1860
 4716SOL    HW125607   3.085   3.296  10.958 -1.0977  0.1607  0.6852
 4716SOL    HW225608   3.177   3.412  10.976  0.3248  0.2390  0.0786
 4717SOL     OW25609   4.403   1.971   8.332  0.1374 -0.2013  0.1350
 4717SOL    HW125610   4.492   1.973   8.296 -0.0389  1.7735 -0.1827
 4717SOL    HW225611   4.391   1.878   8.354  0.2908 -0.3419 -0.3666
 4718SOL     OW25612   0.972   3.003   3.436  0.4921  0.3878  0.4306
 4718SOL    HW125613   1.022   2.965   3.364  2.3499  0.7219  1.5708
 4718SOL    HW225614   0.911   2.934   3.463  1.0445 -0.2616  0.0158
 4719SOL     OW25615   2.798   0.343   2.576 -0.1375  0.3351 -0.2670
 4719SOL    HW125616   2.808   0.255   2.612  0.5424 -0.7718 -3.1423
 4719SOL    HW225617   2.867   0.331   2.510 -0.8156 -0.1715 -0.8856
 4720SOL     OW25618   2.486   2.914   8.929 -0.1770  0.2198  0.2369
 4720SOL    HW125619   2.556   2.889   8.868  1.5615  0.9533  1.9214
 4720SOL    HW225620   2.535   2.944   9.006 -1.2767  1.0954  0.5877
 4721SOL     OW25621   3.723   1.960   9.201  0.3810 -0.4579 -0.0550
 4721SOL    HW125622   3.683   1.913   9.274  0.3111  0.0955  0.2652
 4721SOL    HW225623   3.810   1.921   9.210  0.4547 -0.4935 -0.9266
 4722SOL     OW25624   1.384   1.523   2.553  0.0081 -0.0088  0.1954
 4722SOL    HW125625   1.445   1.539   2.481  1.4583 -0.0904  1.4021
 4722SOL    HW225626   1.316   1.589   2.537  0.6729  1.0612  1.7232
 4723SOL     OW25627   4.445   1.875   9.197 -0.0130 -1.0856  0.9509
 4723SOL    HW125628   4.425   1.796   9.148 -0.2937  0.5478 -1.5607
 4723SOL    HW225629   4.428   1.934   9.124  0.7076  1.8908  3.1566
 4724SOL     OW25630   2.676   1.762   8.691  0.4885 -0.2731 -0.4433
 4724SOL    HW125631   2.638   1.820   8.756  0.2527 -1.2972  0.3271
 4724SOL    HW225632   2.688   1.677   8.732  3.2819  0.0078 -0.6648
 4725SOL     OW25633   4.410   1.636   4.031 -0.3229  0.1838 -0.0694
 4725SOL    HW125634   4.471   1.705   4.004  0.3476 -0.0830  0.7720
 4725SOL    HW225635   4.359   1.683   4.096  0.4335 -0.9670  1.3361
 4726SOL     OW25636   4.317   1.906   8.908 -0.1367 -0.4848 -0.0374
 4726SOL    HW125637   4.244   1.908   8.971  0.5131 -0.8730  0.7263
 4726SOL    HW225638   4.301   1.825   8.861  1.4563  0.5710 -2.3743
 4727SOL     OW25639   1.511   3.353   7.030 -0.7278  0.3904  0.0408
 4727SOL    HW125640   1.569   3.292   7.076  0.4182  0.4854 -1.2714
 4727SOL    HW225641   1.578   3.400   6.980  0.9459 -1.3622  0.6490
 4728SOL     OW25642   3.244   4.705   5.824 -0.0329 -0.0725  0.3299
 4728SOL    HW125643   3.162   4.662   5.797 -0.1081 -1.6218  2.9697
 4728SOL    HW225644   3.295   4.624   5.827 -0.2777 -0.2395  0.0261
 4729SOL     OW25645   1.488   0.246   4.351  0.3638 -0.6386  0.6661
 4729SOL    HW125646   1.413   0.188   4.346 -1.5846  2.1467 -2.8140
 4729SOL    HW225647   1.552   0.209   4.290 -1.1921 -0.2624 -1.1895
 4730SOL     OW25648   3.168   2.206   2.019  0.5375  0.1361 -0.4179
 4730SOL    HW125649   3.148   2.116   2.044 -0.2701  0.1225 -1.1337
 4730SOL    HW225650   3.255   2.185   1.985 -0.1109 -0.4843 -1.7069
 4731SOL     OW25651   0.079   0.638   7.055  0.1898 -0.1952 -0.0143
 4731SOL    HW125652   0.030   0.670   6.978 -0.1465  0.5316  0.5069
 4731SOL    HW225653   0.170   0.652   7.030  0.2761 -1.6273 -0.5460
 4732SOL     OW25654   3.503   1.777  13.256 -0.3666  0.1587 -0.3154
 4732SOL    HW125655   3.533   1.813  13.172 -1.4535 -1.3260 -1.3423
 4732SOL    HW225656   3.489   1.688  13.225  0.5688 -0.2547  0.4522
 4733SOL     OW25657   2.916   4.174   6.649  0.4532 -0.4618  0.7701
 4733SOL    HW125658   2.902   4.104   6.584  1.1393 -0.5735  0.7372
 4733SOL    HW225659   2.897   4.121   6.727 -0.5007 -2.0961 -0.5633
 4734SOL     OW25660   1.442   2.565  11.590 -0.6689 -0.1831 -0.5613
 4734SOL    HW125661   1.531   2.598  11.581 -0.9040  0.5555 -0.1594
 4734SOL    HW225662   1.393   2.609  11.520 -0.0708  3.2789  1.2231
 4735SOL     OW25663   2.718   0.004   9.520 -0.0656 -0.2606  0.5150
 4735SOL    HW125664   2.675   4.691   9.597  0.4389 -0.1643  0.8389
 4735SOL    HW225665   2.714   4.664   9.449 -1.0915 -2.6197  2.6776
 4736SOL     OW25666   4.033   4.505   5.901 -0.3873 -0.0556 -0.4444
 4736SOL    HW125667   3.961   4.544   5.853 -0.3014 -0.2779 -0.7559
 4736SOL    HW225668   4.101   4.560   5.862  0.3407  0.0229  0.9386
 4737SOL     OW25669   2.985   4.546   2.313 -0.2238 -0.6522 -0.7351
 4737SOL    HW125670   2.905   4.591   2.340 -0.1177 -0.6861 -0.3604
 4737SOL    HW225671   3.055   4.609   2.330 -2.8343  1.8269  0.7384
 4738SOL     OW25672   2.136   1.945   7.709 -0.0423 -0.4935  0.4189
 4738SOL    HW125673   2.169   2.014   7.767  4.3121 -0.0520 -2.5724
 4738SOL    HW225674   2.149   1.995   7.629 -1.2171  1.0995  1.2365
 4739SOL     OW25675   2.735   3.364   7.492 -0.2780 -0.2527  0.1543
 4739SOL    HW125676   2.685   3.360   7.573 -0.4484 -2.9601 -0.0966
 4739SOL    HW225677   2.680   3.427   7.445 -0.3938 -0.5544 -0.1196
 4740SOL     OW25678   1.793   3.435  14.351 -0.7081 -0.6538  0.1098
 4740SOL    HW125679   1.720   3.442  14.413 -2.0881 -0.4462 -1.5502
 4740SOL    HW225680   1.755   3.470  14.271  1.0015 -0.0049 -0.4139
 4741SOL     OW25681   3.485   1.009   3.567  0.1146 -0.0805 -0.2824
 4741SOL    HW125682   3.472   0.950   3.493  0.5403  0.4049 -0.7491
 4741SOL    HW225683   3.399   1.006   3.607 -0.1277 -1.6533 -0.9189
 4742SOL     OW25684   0.647   3.439  16.217  0.0436 -0.0116  0.3100
 4742SOL    HW125685   0.631   3.383  16.141 -2.3151  0.9077  0.1173
 4742SOL    HW225686   0.577   3.501  16.198  1.7692  1.2526 -1.8309
 4743SOL     OW25687   1.256   3.017   2.881 -0.2945 -0.2509  0.0757
 4743SOL    HW125688   1.305   2.938   2.900 -0.8083 -0.3176  1.1029
 4743SOL    HW225689   1.310   3.058   2.813 -0.6211 -1.7539 -1.0855
 4744SOL     OW25690   1.636   2.889   7.281 -0.7567 -0.1827 -0.2556
 4744SOL    HW125691   1.639   2.797   7.310 -4.4382 -0.5587 -1.1086
 4744SOL    HW225692   1.720   2.919   7.316 -2.6772  0.3183  3.9897
 4745SOL     OW25693   2.049   3.891   4.572  0.0007 -0.3474 -0.2998
 4745SOL    HW125694   1.987   3.961   4.552 -0.9528 -1.5188 -1.3895
 4745SOL    HW225695   2.130   3.927   4.536  0.7789 -1.7236  0.0886
 4746SOL     OW25696   3.631   2.257  15.573  0.6281 -0.1079 -0.1517
 4746SOL    HW125697   3.629   2.172  15.530  2.0796 -0.3279  0.2121
 4746SOL    HW225698   3.585   2.304  15.504  1.3809 -0.3338 -0.7993
 4747SOL     OW25699   1.706   4.314  10.257  0.1599 -0.3512  0.0821
 4747SOL    HW125700   1.741   4.323  10.168  0.4605  0.5891  0.2966
 4747SOL    HW225701   1.682   4.406  10.266  0.3283 -0.4317  1.3520
 4748SOL     OW25702   1.911   1.231   0.666 -0.4565  0.1612  0.2778
 4748SOL    HW125703   1.912   1.161   0.731 -0.9044  1.0033  1.1966
 4748SOL    HW225704   1.862   1.179   0.603 -0.1065  0.1599  0.0090
 4749SOL     OW25705   1.004   1.197   1.939 -0.7435  0.1639  0.1705
 4749SOL    HW125706   1.065   1.125   1.926  2.8741  3.4161 -0.9507
 4749SOL    HW225707   0.943   1.194   1.866 -0.6236 -1.2133  0.1217
 4750SOL     OW25708   4.170   3.386   7.979  0.3771  0.0662  0.0414
 4750SOL    HW125709   4.127   3.312   7.935  1.4862 -0.6168  0.0983
 4750SOL    HW225710   4.165   3.360   8.071 -0.1785  2.4672  0.6721
 4751SOL     OW25711   2.895   4.447   7.633  0.0387  0.1270  0.7676
 4751SOL    HW125712   2.866   4.464   7.723 -1.7057 -2.5112  0.6974
 4751SOL    HW225713   2.957   4.519   7.617 -0.7559  0.3179 -1.4069
 4752SOL     OW25714   3.247   2.063   4.813 -0.5268 -0.2807 -0.3306
 4752SOL    HW125715   3.228   2.064   4.720 -1.5262 -0.8509 -0.1324
 4752SOL    HW225716   3.170   2.016   4.845  0.6856 -2.5481 -0.7224
 4753SOL     OW25717   2.253   1.969   5.623 -0.1461 -0.4333 -0.3713
 4753SOL    HW125718   2.334   2.009   5.592  0.4446 -2.4200 -1.3922
 4753SOL    HW225719   2.281   1.955   5.714 -0.4908 -2.3550 -0.5708
 4754SOL     OW25720   3.910   2.933   8.002  0.2576 -0.1201 -0.1132
 4754SOL    HW125721   3.912   2.888   7.918 -3.0642  3.0670 -1.8756
 4754SOL    HW225722   3.846   2.878   8.046 -1.0982  3.2428  2.1924
 4755SOL     OW25723   0.029   3.771   5.418 -0.3638  0.0756 -0.3367
 4755SOL    HW125724   0.120   3.758   5.393  0.3148  2.0664  1.1158
 4755SOL    HW225725   4.696   3.695   5.400 -0.7035  0.2437  0.0156
 4756SOL     OW25726   4.325   3.791   6.662  0.0010 -0.1042 -0.0174
 4756SOL    HW125727   4.266   3.790   6.587 -0.6129 -4.1507  0.5059
 4756SOL    HW225728   4.387   3.730   6.621 -0.4548  0.6906 -1.8651
 4757SOL     OW25729   2.411   2.540   3.193  0.0196  0.0885  0.5495
 4757SOL    HW125730   2.372   2.625   3.212  1.7592  1.3237 -1.3559
 4757SOL    HW225731   2.333   2.506   3.148  0.1480  0.2340  0.2140
 4758SOL     OW25732   2.180   1.273   1.948 -0.3569 -0.2350  0.0303
 4758SOL    HW125733   2.158   1.278   2.041  1.9953  2.1626  0.4676
 4758SOL    HW225734   2.159   1.181   1.931 -0.0118 -0.1457 -0.8809
 4759SOL     OW25735   1.782   4.676   0.853 -0.6206  0.2476 -0.1503
 4759SOL    HW125736   1.713   0.018   0.848  1.3934  2.3579 -0.7056
 4759SOL    HW225737   1.853   4.722   0.899  1.2340 -2.9161  0.1828
 4760SOL     OW25738   0.324   3.534   8.415  0.2563  0.4153 -0.4888
 4760SOL    HW125739   0.256   3.578   8.363  0.2170  1.2941  0.3157
 4760SOL    HW225740   0.369   3.483   8.348  0.8378 -1.3029  1.2272
 4761SOL     OW25741   2.852   3.540   2.783  0.3644 -0.4581  0.0811
 4761SOL    HW125742   2.855   3.444   2.779 -0.2827 -0.4639 -0.3451
 4761SOL    HW225743   2.860   3.551   2.688  1.8349 -1.4820  0.0961
 4762SOL     OW25744   1.568   0.002   7.387 -0.0502  0.6037  0.1004
 4762SOL    HW125745   1.489   0.037   7.347 -0.8330  0.7507  1.7509
 4762SOL    HW225746   1.638   0.022   7.324 -0.7690  0.8385 -0.6126
 4763SOL     OW25747   1.609   4.408   2.999 -0.2826  0.4306  0.3789
 4763SOL    HW125748   1.555   4.331   3.013  1.0676 -0.1204  2.5026
 4763SOL    HW225749   1.618   4.401   2.904 -1.8443 -2.0945  0.4506
 4764SOL     OW25750   1.375   0.147   9.249  0.3731 -0.6420  0.2259
 4764SOL    HW125751   1.458   0.101   9.257 -0.1075 -1.3986  0.8638
 4764SOL    HW225752   1.334   0.118   9.330 -0.4349  3.1862  1.2066
 4765SOL     OW25753   1.681   3.470   4.117 -0.0532  0.1329 -0.0731
 4765SOL    HW125754   1.707   3.415   4.190  1.3170  0.5827 -0.2305
 4765SOL    HW225755   1.746   3.447   4.050  1.7208  1.1468  1.2948
 4766SOL     OW25756   2.460   2.739   4.380  0.0631  0.3829 -0.4437
 4766SOL    HW125757   2.460   2.730   4.475  0.9030  1.4923 -0.3335
 4766SOL    HW225758   2.553   2.725   4.359  0.0777 -2.4302  1.4364
 4767SOL     OW25759   4.400   3.660   5.994  0.3435  0.0715  0.0172
 4767SOL    HW125760   4.393   3.644   6.088  3.1887  2.3025  0.5938
 4767SOL    HW225761   4.366   3.576   5.962 -2.0294  0.6200  1.0813
 4768SOL     OW25762   3.566   0.816   8.815 -0.4122  0.0097 -0.3015
 4768SOL    HW125763   3.601   0.821   8.905 -1.3461  0.7666  0.0268
 4768SOL    HW225764   3.538   0.725   8.823 -1.5033  0.2453 -1.4821
 4769SOL     OW25765   1.861   3.265   5.732 -0.1013 -0.1921 -0.2266
 4769SOL    HW125766   1.869   3.202   5.803  0.5454 -0.0279 -0.1562
 4769SOL    HW225767   1.868   3.217   5.649 -1.7665 -0.4584 -0.2111
 4770SOL     OW25768   3.174   2.488   6.797  0.3863 -0.8925  0.2965
 4770SOL    HW125769   3.142   2.404   6.764  0.0500 -1.7111  2.7430
 4770SOL    HW225770   3.100   2.509   6.855  1.3990 -0.2696  1.3576
 4771SOL     OW25771   3.290   3.893   5.343  0.5958 -0.4943 -0.4478
 4771SOL    HW125772   3.353   3.850   5.400 -2.1242  1.0113  3.6871
 4771SOL    HW225773   3.348   3.915   5.270  0.6405 -0.2405 -0.3335
 4772SOL     OW25774   2.795   2.242   6.747 -0.5256 -0.0619  0.0116
 4772SOL    HW125775   2.783   2.158   6.790 -1.4120 -0.1521 -0.4124
 4772SOL    HW225776   2.889   2.244   6.727 -0.1231  0.4773  1.8675
 4773SOL     OW25777   4.587   2.241   6.391 -0.0925  0.2029  0.9908
 4773SOL    HW125778   4.603   2.328   6.428  0.2520  0.9866 -1.0502
 4773SOL    HW225779   4.491   2.243   6.393 -0.1647 -1.5251 -0.8714
 4774SOL     OW25780   2.345   2.474   5.917  0.4062 -0.3748 -0.2171
 4774SOL    HW125781   2.306   2.452   5.833  0.4814  1.4156 -0.7214
 4774SOL    HW225782   2.267   2.508   5.961 -0.1797 -3.0545  0.7833
 4775SOL     OW25783   0.905   0.464   0.123 -0.0780  0.2214 -0.1371
 4775SOL    HW125784   0.924   0.480   0.216 -1.7375 -1.7416  0.5294
 4775SOL    HW225785   0.815   0.435   0.133  0.7618 -3.0404 -2.1259
 4776SOL     OW25786   1.505   3.083  13.833 -0.7811  0.6356 -1.0178
 4776SOL    HW125787   1.428   3.120  13.875  0.8093  0.0665  2.3704
 4776SOL    HW225788   1.456   3.008  13.800 -1.0422  0.5502 -0.4398
 4777SOL     OW25789   0.075   2.840   8.227 -0.0704 -0.2284  0.2401
 4777SOL    HW125790   0.070   2.788   8.146  0.2918 -1.2801  0.8957
 4777SOL    HW225791   0.087   2.925   8.185 -1.8314  0.4575  1.1448
 4778SOL     OW25792   3.557   1.390   5.463 -0.2648 -0.0578  0.3496
 4778SOL    HW125793   3.545   1.469   5.517 -1.7212 -1.1139  1.5688
 4778SOL    HW225794   3.607   1.337   5.526  1.7286  0.2159 -0.9861
 4779SOL     OW25795   0.977   3.300   7.042 -0.1579  0.5251  0.5467
 4779SOL    HW125796   0.984   3.345   6.958  1.3572  1.1245  0.9772
 4779SOL    HW225797   1.008   3.364   7.107 -0.1047 -1.4777  2.4842
 4780SOL     OW25798   0.522   1.203   2.481  0.1949  0.8341 -0.1072
 4780SOL    HW125799   0.508   1.206   2.386 -1.5588 -4.4492  0.0333
 4780SOL    HW225800   0.541   1.296   2.497  0.1861  0.7259  0.5310
 4781SOL     OW25801   1.516   1.511   5.971 -0.0514  0.3630  0.3859
 4781SOL    HW125802   1.486   1.431   5.927 -2.7049  1.8866 -0.5445
 4781SOL    HW225803   1.452   1.570   5.932 -0.4116 -0.0198  0.3960
 4782SOL     OW25804   1.018   3.885   4.628 -0.1546 -0.2565  0.2518
 4782SOL    HW125805   1.030   3.912   4.537 -2.1214 -1.4507 -0.3523
 4782SOL    HW225806   1.106   3.885   4.667  0.2237 -1.3018 -0.6032
 4783SOL     OW25807   2.327   0.889  15.026  0.0640  0.1255 -0.1879
 4783SOL    HW125808   2.293   0.842  14.949  0.2833  1.4191 -1.0729
 4783SOL    HW225809   2.282   0.973  15.023 -1.9123 -1.0321 -3.6089
 4784SOL     OW25810   2.700   0.845   5.342 -0.0310 -0.1941  0.4996
 4784SOL    HW125811   2.606   0.853   5.357  0.3436 -1.4550  3.6186
 4784SOL    HW225812   2.719   0.928   5.386 -0.4543 -0.2736  0.8437
 4785SOL     OW25813   3.964   0.336   7.430  0.4318 -0.6510 -0.4317
 4785SOL    HW125814   3.960   0.282   7.352  0.5588 -0.5424 -0.5141
 4785SOL    HW225815   3.872   0.338   7.454  0.4191  0.3733 -0.5635
 4786SOL     OW25816   0.591   2.172   8.075  0.3018 -0.1623  0.5011
 4786SOL    HW125817   0.617   2.231   8.145  2.2755 -0.3173 -0.1140
 4786SOL    HW225818   0.500   2.161   8.102  0.2955 -1.8850 -0.1724
 4787SOL     OW25819   2.825   4.681  10.476  0.1701 -0.0169  0.2555
 4787SOL    HW125820   2.756   4.622  10.506 -0.0012 -0.4269 -0.9536
 4787SOL    HW225821   2.784   0.045  10.473 -2.5612 -1.3263 -0.6083
 4788SOL     OW25822   0.716   1.944  15.134  0.6372 -0.2758 -0.1172
 4788SOL    HW125823   0.642   1.907  15.086 -0.4283  1.6840  0.0076
 4788SOL    HW225824   0.653   1.974  15.200  0.4438  1.5836 -1.1694
 4789SOL     OW25825   1.285   4.591   9.778 -0.5914  0.7814 -0.7607
 4789SOL    HW125826   1.215   4.601   9.713 -0.4316 -0.9680 -1.2000
 4789SOL    HW225827   1.332   4.674   9.785 -0.2041  0.7089 -2.7499
 4790SOL     OW25828   1.122   1.558   9.663 -0.5562  0.4558  0.0927
 4790SOL    HW125829   1.056   1.627   9.657 -0.9912  0.0698  0.4239
 4790SOL    HW225830   1.146   1.543   9.572 -1.6523 -2.1544  0.2283
 4791SOL     OW25831   4.184   4.467  17.265 -0.0403 -0.2160 -0.1984
 4791SOL    HW125832   4.156   4.557  17.279  0.3831 -0.1229  0.0210
 4791SOL    HW225833   4.161   4.455  17.172 -1.4008 -3.2400  0.5277
 4792SOL     OW25834   0.475   1.433   8.497  0.0998  0.0890 -0.1423
 4792SOL    HW125835   0.406   1.475   8.446 -0.8597 -0.2251  0.8754
 4792SOL    HW225836   0.519   1.385   8.427 -0.4825 -0.1277 -0.3607
 4793SOL     OW25837   3.509   3.009   6.920 -0.3391  0.8302  0.3484
 4793SOL    HW125838   3.536   2.924   6.885 -2.9340  0.3441 -0.4250
 4793SOL    HW225839   3.573   3.067   6.878  1.9341 -2.6487 -0.9387
 4794SOL     OW25840   0.304   4.164   2.455 -0.2798 -0.1055  0.0814
 4794SOL    HW125841   0.237   4.166   2.523 -1.1853  2.3513 -0.9055
 4794SOL    HW225842   0.254   4.164   2.374  0.5667 -0.6140 -0.4453
 4795SOL     OW25843   0.345   0.152   9.280  0.4238 -0.0642 -0.2459
 4795SOL    HW125844   0.296   0.070   9.279  0.9706 -0.4030  0.5670
 4795SOL    HW225845   0.395   0.130   9.359 -0.7368  0.3998  0.6110
 4796SOL     OW25846   0.931   0.698   3.147  0.4599  0.0883  0.0305
 4796SOL    HW125847   0.866   0.669   3.211 -0.1259 -0.7982 -0.9643
 4796SOL    HW225848   0.882   0.767   3.103  0.8198  0.5884  0.4257
 4797SOL     OW25849   4.193   4.479   1.502 -0.3318  0.2589  0.3776
 4797SOL    HW125850   4.200   4.573   1.488 -1.6055  0.2801 -0.0956
 4797SOL    HW225851   4.258   4.462   1.569 -1.9106 -0.2932  1.7635
 4798SOL     OW25852   2.581   0.401   5.935  0.3042 -0.1879  0.0728
 4798SOL    HW125853   2.669   0.372   5.911  0.5444  0.8053 -0.2232
 4798SOL    HW225854   2.564   0.364   6.022  1.9752 -0.5696  0.2460
 4799SOL     OW25855   1.277   2.906   1.490 -0.0224 -0.3637 -0.2972
 4799SOL    HW125856   1.227   2.891   1.411  0.9096 -0.1494 -0.9246
 4799SOL    HW225857   1.213   2.880   1.557  1.2940 -0.2843  0.9991
 4800SOL     OW25858   2.985   4.435   6.895 -0.3279 -0.7005 -0.5145
 4800SOL    HW125859   2.905   4.392   6.867 -0.1627 -0.6400 -1.0801
 4800SOL    HW225860   3.035   4.356   6.918  1.4644  0.4965 -0.2251
 4801SOL     OW25861   1.896   4.091   4.524  0.2136 -0.7394 -0.1201
 4801SOL    HW125862   1.956   4.166   4.523  1.5346 -1.7697  1.2540
 4801SOL    HW225863   1.846   4.110   4.604 -0.5843  0.6378 -0.9356
 4802SOL     OW25864   3.259   4.052  14.586 -0.3818  0.2050 -0.4400
 4802SOL    HW125865   3.177   4.100  14.577 -1.3519 -1.2221  0.9286
 4802SOL    HW225866   3.249   3.987  14.517 -1.6030  0.1116 -0.1656
 4803SOL     OW25867   2.852   2.308  15.281  0.2959  0.3051 -0.8801
 4803SOL    HW125868   2.891   2.249  15.218  0.6926  1.7018 -1.9475
 4803SOL    HW225869   2.908   2.302  15.359 -0.7909  0.9320 -0.0412
 4804SOL     OW25870   1.312   3.024   8.213 -0.4312  0.0649 -0.1701
 4804SOL    HW125871   1.390   2.969   8.209 -0.1975  0.1603  3.3305
 4804SOL    HW225872   1.348   3.108   8.183  0.9819 -0.3864  0.2785
 4805SOL     OW25873   0.629   0.827  17.264  0.0864 -0.1120  0.5456
 4805SOL    HW125874   0.632   0.848  17.171 -1.2584  1.2517  0.8181
 4805SOL    HW225875   0.662   0.737  17.264 -1.6767 -0.7487 -0.7767
 4806SOL     OW25876   4.552   1.520   0.303 -0.5530 -0.5229 -0.0958
 4806SOL    HW125877   4.610   1.477   0.365  1.8737  0.7024 -1.5150
 4806SOL    HW225878   4.488   1.565   0.359  0.0765  2.1391 -1.5091
 4807SOL     OW25879   0.767   2.426   1.340 -0.1737 -0.7616  0.1753
 4807SOL    HW125880   0.733   2.514   1.331 -0.6950 -1.3786 -3.6441
 4807SOL    HW225881   0.688   2.373   1.345 -0.6080 -0.0115  1.3250
 4808SOL     OW25882   0.871   0.184   7.591 -0.0629  0.7944  0.3028
 4808SOL    HW125883   0.859   0.093   7.617  1.8705  0.3543 -0.3563
 4808SOL    HW225884   0.796   0.203   7.535  0.2074  1.7928  0.2727
 4809SOL     OW25885   2.499   2.290   1.087 -0.1739 -0.1071 -0.0290
 4809SOL    HW125886   2.422   2.265   1.036 -0.4154 -0.4447  0.5004
 4809SOL    HW225887   2.495   2.384   1.066  1.4399  0.1362  0.7306
 4810SOL     OW25888   2.629   1.350   7.923  0.2448  0.2774 -0.1097
 4810SOL    HW125889   2.630   1.325   8.015  1.2443 -1.1509 -0.5227
 4810SOL    HW225890   2.534   1.365   7.924  0.0514 -1.0777  2.4532
 4811SOL     OW25891   3.159   1.673   3.827  0.0276  0.1948 -0.2892
 4811SOL    HW125892   3.159   1.675   3.923 -0.1009 -2.5138 -0.2380
 4811SOL    HW225893   3.116   1.591   3.803  0.7455 -0.2511 -0.0343
 4812SOL     OW25894   2.093   2.216  11.932  0.1104  0.1353  0.1620
 4812SOL    HW125895   2.096   2.123  11.910  2.7034  0.4292 -0.7514
 4812SOL    HW225896   2.051   2.243  11.850 -0.1599 -1.0351 -0.0733
 4813SOL     OW25897   3.440   1.924  17.095  0.1436 -0.6551 -0.2350
 4813SOL    HW125898   3.403   1.902  17.009  2.1733 -0.3513 -1.1970
 4813SOL    HW225899   3.368   1.907  17.155 -0.1507  0.0657 -0.3778
 4814SOL     OW25900   0.649   4.471   0.556 -0.7036  0.3824  0.1834
 4814SOL    HW125901   0.569   4.517   0.528  1.3783  2.4960 -2.3155
 4814SOL    HW225902   0.690   4.542   0.606 -0.3334  2.3806 -2.9317
 4815SOL     OW25903   0.786   1.481   6.051  0.5012  0.0202 -0.0872
 4815SOL    HW125904   0.774   1.501   5.958 -0.7747  0.1053  0.0933
 4815SOL    HW225905   0.804   1.388   6.044 -0.1712  0.0848 -2.8052
 4816SOL     OW25906   1.516   1.413   5.076 -0.1003 -0.2649  0.1954
 4816SOL    HW125907   1.506   1.499   5.036 -1.8459 -1.6480 -2.3236
 4816SOL    HW225908   1.545   1.360   5.002  0.3195 -1.1541  0.9918
 4817SOL     OW25909   2.219   1.131   1.621  0.3305  0.5892  0.1493
 4817SOL    HW125910   2.196   1.096   1.707  0.3655 -0.5009 -0.2745
 4817SOL    HW225911   2.303   1.172   1.642  0.6214 -0.6452  1.3626
 4818SOL     OW25912   3.188   2.060   7.060 -0.3814 -0.4700  0.0666
 4818SOL    HW125913   3.155   2.143   7.095 -1.1806 -1.0405  0.6789
 4818SOL    HW225914   3.112   2.019   7.019 -0.8047  1.7887 -1.3617
 4819SOL     OW25915   3.972   4.536   1.688 -1.0611  0.2893 -0.1629
 4819SOL    HW125916   3.880   4.513   1.671 -2.0801  2.7213  1.9439
 4819SOL    HW225917   4.001   4.463   1.742 -0.3710  0.3986 -0.3852
 4820SOL     OW25918   2.739   1.021   4.856 -0.0526  0.4517  0.3674
 4820SOL    HW125919   2.790   1.001   4.778  1.2641  2.9924  0.5655
 4820SOL    HW225920   2.677   0.948   4.857  0.0260  0.3915  0.7098
 4821SOL     OW25921   2.282   4.348   2.403 -0.3118 -0.3301 -0.1634
 4821SOL    HW125922   2.275   4.275   2.342 -0.0545  0.0148 -0.6037
 4821SOL    HW225923   2.329   4.410   2.347 -1.0548  1.1393  0.8266
 4822SOL     OW25924   0.374   1.466   3.586  0.9371 -0.1576 -0.0125
 4822SOL    HW125925   0.460   1.506   3.581  1.7516 -1.6474  2.1542
 4822SOL    HW225926   0.321   1.542   3.609 -0.3545 -1.1416  0.2886
 4823SOL     OW25927   1.770   4.026  16.031  0.1632  0.4573  0.1653
 4823SOL    HW125928   1.717   3.959  16.074  0.2595  0.4279  0.2376
 4823SOL    HW225929   1.726   4.013  15.947 -0.6311  0.6818  0.5458
 4824SOL     OW25930   0.459   3.788   3.456  0.5087  0.0948  0.0162
 4824SOL    HW125931   0.411   3.744   3.526 -0.4059  0.9912 -0.0439
 4824SOL    HW225932   0.518   3.717   3.430  2.1606  1.3822  0.2586
 4825SOL     OW25933   0.807   0.438   4.948  0.3310 -1.0350 -0.3893
 4825SOL    HW125934   0.899   0.455   4.928  0.2565 -0.7113 -0.4470
 4825SOL    HW225935   0.780   0.515   4.997 -0.7508 -1.7881  0.2022
 4826SOL     OW25936   3.166   0.650   2.366  0.0975  0.2792 -0.3327
 4826SOL    HW125937   3.077   0.673   2.392  1.0008  0.9332  2.1276
 4826SOL    HW225938   3.167   0.668   2.272 -2.4262 -1.3846 -0.6661
 4827SOL     OW25939   1.053   4.549   8.449 -0.0900 -0.4317  0.1773
 4827SOL    HW125940   1.081   4.624   8.501  0.9280  0.6488 -1.9165
 4827SOL    HW225941   1.144   4.526   8.428  0.3154  1.0272  0.3330
 4828SOL     OW25942   0.049   0.063   6.805 -0.3495 -0.1578  0.0606
 4828SOL    HW125943   0.101   0.127   6.854  0.1512 -0.9983  0.6350
 4828SOL    HW225944   4.681   0.074   6.831  0.1704  1.5332  1.1140
 4829SOL     OW25945   4.547   4.191  14.160  0.0035 -0.4939 -0.1635
 4829SOL    HW125946   4.513   4.226  14.242  0.9073 -0.4534  0.1928
 4829SOL    HW225947   4.469   4.198  14.104 -0.9845  1.5559  1.4519
 4830SOL     OW25948   3.111   2.227   6.793 -0.1911 -0.3906  0.1826
 4830SOL    HW125949   3.081   2.253   6.880  3.8763  2.3712  0.7150
 4830SOL    HW225950   3.131   2.138   6.821  0.4933 -0.0723  0.7011
 4831SOL     OW25951   1.084   2.131   1.059  0.2882  0.4542  0.1653
 4831SOL    HW125952   1.124   2.045   1.074 -1.6211 -0.4452  0.0834
 4831SOL    HW225953   1.024   2.101   0.991  0.8508 -2.0066  0.7409
 4832SOL     OW25954   0.770   0.293   8.062 -0.2703  0.0611  0.5432
 4832SOL    HW125955   0.720   0.244   8.128  2.3117 -1.1785  1.5568
 4832SOL    HW225956   0.801   0.363   8.118  0.4756 -0.4381  0.7509
 4833SOL     OW25957   4.459   0.159   2.773  0.2992 -0.3319  0.6712
 4833SOL    HW125958   4.408   0.091   2.728  1.1654  2.2116 -4.1248
 4833SOL    HW225959   4.397   0.232   2.766  0.1982 -0.3904  0.9356
 4834SOL     OW25960   3.296   0.077   0.836  0.6546  0.8435 -0.7411
 4834SOL    HW125961   3.291   4.708   0.864 -0.5179  1.1639  0.0653
 4834SOL    HW225962   3.215   0.092   0.788 -0.6590  1.2801  1.6196
 4835SOL     OW25963   3.905   2.714  13.555  0.3584  0.3127  0.3534
 4835SOL    HW125964   3.957   2.707  13.635 -3.1529  0.3857  2.6453
 4835SOL    HW225965   3.919   2.805  13.528 -2.1021  0.5775 -0.0273
 4836SOL     OW25966   3.225   3.506   6.909  0.2318 -0.2029 -0.2967
 4836SOL    HW125967   3.254   3.567   6.978 -1.1899 -1.6902  1.6047
 4836SOL    HW225968   3.223   3.428   6.965 -0.6617 -0.2969 -0.4631
 4837SOL     OW25969   1.189   0.640   3.169 -0.4221  0.2524 -0.5481
 4837SOL    HW125970   1.168   0.554   3.132  1.9463  0.4170 -2.2628
 4837SOL    HW225971   1.102   0.680   3.164 -0.3809  0.2103 -1.5435
 4838SOL     OW25972   2.890   3.325   0.425  0.0788  0.4913 -0.1624
 4838SOL    HW125973   2.861   3.270   0.352  2.0779 -0.4319 -0.2546
 4838SOL    HW225974   2.981   3.295   0.427 -0.1349 -0.2883 -2.4390
 4839SOL     OW25975   0.362   3.731   2.402 -0.1634  0.1799  0.4211
 4839SOL    HW125976   0.442   3.783   2.399  0.0116 -0.0608  1.0115
 4839SOL    HW225977   0.328   3.768   2.483 -1.5762 -1.0277  0.3770
 4840SOL     OW25978   0.319   2.128   5.808 -0.0123 -0.1144 -0.4686
 4840SOL    HW125979   0.226   2.119   5.830  0.0657  2.2628  0.8341
 4840SOL    HW225980   0.332   2.056   5.747 -1.9536 -0.0531 -0.9603
 4841SOL     OW25981   1.442   0.849  15.985 -0.2476  0.1272 -0.6368
 4841SOL    HW125982   1.479   0.877  15.902 -0.4218 -1.6108 -1.2952
 4841SOL    HW225983   1.348   0.863  15.970 -0.6581 -1.7353  0.1739
 4842SOL     OW25984   0.427   0.112  15.542 -0.6667  0.3636 -0.2523
 4842SOL    HW125985   0.493   0.170  15.504 -1.3578 -0.7763 -3.2072
 4842SOL    HW225986   0.376   0.090  15.464  2.5565 -2.7105 -1.4653
 4843SOL     OW25987   1.869   1.203   6.650 -0.0342  0.1712  0.1516
 4843SOL    HW125988   1.930   1.244   6.711  0.9719  0.4667 -1.0567
 4843SOL    HW225989   1.928   1.142   6.606  0.5369 -0.3537  1.6556
 4844SOL     OW25990   3.435   1.778   7.374 -0.2838 -0.1343 -0.5067
 4844SOL    HW125991   3.490   1.755   7.299  0.6908 -1.0607  0.4978
 4844SOL    HW225992   3.443   1.697   7.425  1.0302  0.1136 -0.3353
 4845SOL     OW25993   3.137   3.543   8.388  0.3180  0.3529  0.4164
 4845SOL    HW125994   3.095   3.519   8.471 -0.7321  0.1250 -0.1711
 4845SOL    HW225995   3.144   3.453   8.356  2.2916  0.3547  0.8643
 4846SOL     OW25996   2.193   4.364   3.726  0.0601 -0.8118 -0.1868
 4846SOL    HW125997   2.117   4.307   3.741  1.5965 -2.7561  0.2384
 4846SOL    HW225998   2.143   4.424   3.671  0.7932 -1.0211 -1.1010
 4847SOL     OW25999   1.245   3.539   5.799 -0.2364  0.1061  0.5816
 4847SOL    HW126000   1.231   3.600   5.726 -0.8538  0.1374  0.7251
 4847SOL    HW226001   1.331   3.569   5.829  0.1598  0.9158 -1.3388
 4848SOL     OW26002   1.124   1.797   6.422  0.5698  0.2671  0.3713
 4848SOL    HW126003   1.207   1.755   6.446  0.0966 -1.1157 -0.3986
 4848SOL    HW226004   1.078   1.731   6.370  0.8827  0.2053  0.1718
 4849SOL     OW26005   2.154   0.677   0.266  0.2875  0.3440  0.4469
 4849SOL    HW126006   2.152   0.593   0.312 -1.3586  0.4150  0.4959
 4849SOL    HW226007   2.236   0.718   0.296 -0.5170  0.5813  2.3520
 4850SOL     OW26008   3.640   2.908   0.882 -0.2818  0.4620  0.0970
 4850SOL    HW126009   3.559   2.860   0.897 -0.6068  1.3077  1.0708
 4850SOL    HW226010   3.612   2.986   0.930 -0.7945  1.4762 -1.8486
 4851SOL     OW26011   1.088   3.604  17.068 -0.7321 -0.0922 -0.8189
 4851SOL    HW126012   1.013   3.619  17.125  0.4043 -0.1910  0.6839
 4851SOL    HW226013   1.109   3.694  17.045 -0.9842 -0.6534 -3.3031
 4852SOL     OW26014   0.785   3.384  12.731 -0.1336 -0.0264 -0.0174
 4852SOL    HW126015   0.772   3.462  12.676 -1.8878  0.3948  0.9982
 4852SOL    HW226016   0.698   3.384  12.770  0.1249 -1.4435  0.5315
 4853SOL     OW26017   0.846   0.915   0.496  0.0865  0.2247 -0.2914
 4853SOL    HW126018   0.927   0.965   0.512  1.1085 -1.9565  1.3407
 4853SOL    HW226019   0.793   0.988   0.465 -0.6342 -0.9647 -1.8247
 4854SOL     OW26020   1.824   2.262   7.526  0.1242  0.0538  0.3675
 4854SOL    HW126021   1.864   2.196   7.470  1.6496  0.3692  1.0891
 4854SOL    HW226022   1.766   2.305   7.463  0.8714 -0.2706 -0.5579
 4855SOL     OW26023   3.532   4.392  10.799  0.0498 -0.2673  0.3211
 4855SOL    HW126024   3.528   4.478  10.841 -2.0059 -0.7990  1.1850
 4855SOL    HW226025   3.618   4.360  10.827 -0.7406 -2.4084  0.3284
 4856SOL     OW26026   0.259   2.488   7.920 -0.2827 -0.5119  0.6206
 4856SOL    HW126027   0.272   2.500   7.826 -1.4935  0.9275  0.6379
 4856SOL    HW226028   0.263   2.579   7.948  1.4813 -1.2628  2.8283
 4857SOL     OW26029   1.852   3.973   5.097 -0.2219 -0.1552  0.6184
 4857SOL    HW126030   1.837   4.008   5.010  2.0495  0.1963  0.3834
 4857SOL    HW226031   1.893   4.044   5.146 -0.3196 -1.5251  2.7196
 4858SOL     OW26032   0.973   1.257   5.977  0.3730 -0.3257 -0.0204
 4858SOL    HW126033   1.045   1.208   5.938  1.8853  0.5761  1.6420
 4858SOL    HW226034   0.902   1.193   5.971  1.9422 -1.9321 -1.3403
 4859SOL     OW26035   2.664   0.600   3.411  0.0121 -0.7163 -0.4038
 4859SOL    HW126036   2.731   0.571   3.473  0.3109 -1.6204 -1.1457
 4859SOL    HW226037   2.666   0.546   3.333 -1.7617  0.9785 -1.6286
 4860SOL     OW26038   3.018   3.281  15.387  0.2682 -0.6927 -0.1580
 4860SOL    HW126039   2.952   3.348  15.406  2.2213  1.0714  0.3898
 4860SOL    HW226040   3.010   3.280  15.292  2.0814  2.7550 -0.3359
 4861SOL     OW26041   4.470   3.032   6.120 -0.1075  0.4193 -0.3011
 4861SOL    HW126042   4.520   2.950   6.117  0.6515  0.8752  0.0200
 4861SOL    HW226043   4.539   3.096   6.106 -0.1911  0.4631 -0.5198
 4862SOL     OW26044   3.138   2.506   1.778 -0.2148  0.1005 -0.1470
 4862SOL    HW126045   3.122   2.413   1.789  1.5630 -0.5036 -2.7461
 4862SOL    HW226046   3.122   2.519   1.685  0.2636 -1.0555 -0.3808
 4863SOL     OW26047   0.146   4.505   5.176  0.2321  0.2333 -0.4052
 4863SOL    HW126048   0.074   4.558   5.209 -0.4297 -0.5378 -0.6261
 4863SOL    HW226049   0.174   4.466   5.259 -0.6206 -0.4577 -0.4407
 4864SOL     OW26050   1.324   1.973  12.738  0.1837  0.4678 -0.1188
 4864SOL    HW126051   1.237   2.011  12.728  0.7270  1.4357 -1.1749
 4864SOL    HW226052   1.347   1.996  12.828  2.0166 -0.8708 -0.2302
 4865SOL     OW26053   0.439   2.511   6.287  0.0346 -0.4468 -0.1033
 4865SOL    HW126054   0.441   2.597   6.328 -1.6118  0.4799 -1.9763
 4865SOL    HW226055   0.445   2.448   6.359  1.0544  1.0656  1.1187
 4866SOL     OW26056   2.862   2.413  12.829 -0.3510 -0.3159  0.0912
 4866SOL    HW126057   2.799   2.481  12.852  0.3112 -0.5501  2.5913
 4866SOL    HW226058   2.931   2.457  12.877 -0.4414 -1.3403  1.1544
 4867SOL     OW26059   3.222   0.358   1.527 -0.4538  0.0055 -0.7245
 4867SOL    HW126060   3.166   0.434   1.512 -0.5118 -0.2668 -1.9084
 4867SOL    HW226061   3.258   0.347   1.439 -0.7490  0.5012 -0.9046
 4868SOL     OW26062   0.809   4.649   2.415  0.1870 -0.2142  0.2794
 4868SOL    HW126063   0.898   4.654   2.380  0.7818 -0.7716  1.7320
 4868SOL    HW226064   0.767   4.594   2.348 -1.8014  0.3272  1.0822
 4869SOL     OW26065   0.952   3.039  12.816 -0.2952  0.3695  0.5697
 4869SOL    HW126066   0.887   3.065  12.881 -1.8860  0.2286 -0.9715
 4869SOL    HW226067   1.031   3.086  12.843 -1.6740  1.4217  2.7799
 4870SOL     OW26068   3.638   3.426   1.066  0.1205  0.4247 -0.1304
 4870SOL    HW126069   3.595   3.460   1.144 -1.2947 -0.9082 -0.3020
 4870SOL    HW226070   3.677   3.344   1.095 -0.5644  0.1622  0.0630
 4871SOL     OW26071   4.295   1.374  12.534 -0.5737  0.2867 -0.2220
 4871SOL    HW126072   4.254   1.315  12.597  1.4151 -1.7484 -0.8340
 4871SOL    HW226073   4.215   1.416  12.500 -1.0371 -0.6024 -0.2168
 4872SOL     OW26074   3.410   4.522  15.836  0.1154 -0.1414 -0.3834
 4872SOL    HW126075   3.495   4.497  15.799  0.4485 -1.1739  1.0793
 4872SOL    HW226076   3.403   4.461  15.909 -0.0553  0.8473  0.4209
 4873SOL     OW26077   3.035   1.452   5.573  0.7816 -0.0039  0.4698
 4873SOL    HW126078   2.946   1.447   5.608  0.7271  0.1066  0.3487
 4873SOL    HW226079   3.098   1.467   5.643 -1.3367 -1.7970  2.7232
 4874SOL     OW26080   3.836   2.323   0.135  0.5875  0.1338  0.1411
 4874SOL    HW126081   3.767   2.263   0.108  0.5043  0.6049 -0.6971
 4874SOL    HW226082   3.899   2.314   0.063  1.9891 -0.2390  1.4096
 4875SOL     OW26083   0.818   3.581   6.341  0.1964 -0.5758 -0.0823
 4875SOL    HW126084   0.886   3.638   6.305 -1.8156  1.7242 -0.2321
 4875SOL    HW226085   0.853   3.494   6.323 -0.8262 -1.1142  0.5363
 4876SOL     OW26086   2.902   4.071   4.824 -0.2087  0.1984 -0.0228
 4876SOL    HW126087   2.913   4.113   4.739 -1.7337  2.2229  0.7760
 4876SOL    HW226088   2.949   4.138   4.873  0.6761 -0.3708 -0.0871
 4877SOL     OW26089   3.985   3.401   6.102  0.0653  0.0113 -0.0565
 4877SOL    HW126090   3.905   3.349   6.109  1.0443 -1.5724 -0.5912
 4877SOL    HW226091   3.990   3.434   6.192 -0.1022  0.8929 -0.3702
 4878SOL     OW26092   1.120   2.498   4.955 -0.0824 -0.2700 -0.0168
 4878SOL    HW126093   1.181   2.509   4.883  1.7433 -1.3525  1.3338
 4878SOL    HW226094   1.155   2.567   5.012  3.0637 -1.7608 -0.1144
 4879SOL     OW26095   3.232   0.721  14.899 -0.7134  0.0650 -0.1912
 4879SOL    HW126096   3.229   0.727  14.803  0.4921 -0.2980 -0.2437
 4879SOL    HW226097   3.326   0.710  14.907 -0.8852  0.8517  2.9192
 4880SOL     OW26098   4.125   2.065  11.523  0.2210 -0.6829 -0.2198
 4880SOL    HW126099   4.218   2.090  11.520 -0.0223  0.3213  0.5482
 4880SOL    HW226100   4.086   2.077  11.437 -0.2309  1.7950  0.3337
 4881SOL     OW26101   2.279   2.135   6.916  0.2358 -0.4928 -0.2767
 4881SOL    HW126102   2.185   2.154   6.915  0.3602  0.1926  1.6041
 4881SOL    HW226103   2.286   2.093   6.830  1.8460  1.2453 -0.9930
 4882SOL     OW26104   4.441   1.626   5.769  0.3768  0.1948  0.7217
 4882SOL    HW126105   4.485   1.691   5.714 -0.9393 -0.5732 -1.2606
 4882SOL    HW226106   4.371   1.673   5.813 -0.6724  1.2425 -2.0473
 4883SOL     OW26107   0.311   2.270   3.541  0.0579 -0.2971 -0.1733
 4883SOL    HW126108   0.303   2.223   3.458 -1.1357  1.3993 -1.0220
 4883SOL    HW226109   0.368   2.340   3.509  0.5880  0.1230  1.6695
 4884SOL     OW26110   3.147   1.415   2.259  0.0528  0.6936  0.5137
 4884SOL    HW126111   3.186   1.403   2.346  1.7468 -0.3690 -0.3786
 4884SOL    HW226112   3.227   1.389   2.213 -0.6184 -1.3279  0.4706
 4885SOL     OW26113   4.695   4.150   7.481  0.6592 -0.2186 -0.3227
 4885SOL    HW126114   4.693   4.054   7.480  1.1145 -0.2214 -0.9588
 4885SOL    HW226115   4.606   4.163   7.451 -0.0609  0.7629  2.1975
 4886SOL     OW26116   1.429   1.724   4.637 -0.5702  0.7042  0.4365
 4886SOL    HW126117   1.446   1.711   4.543  1.5813 -0.5146  1.0022
 4886SOL    HW226118   1.496   1.662   4.666 -0.1040  1.6350  1.3464
 4887SOL     OW26119   3.774   3.254   4.788  0.7826  0.2647  0.2318
 4887SOL    HW126120   3.776   3.316   4.715  0.4937  1.1917  1.0148
 4887SOL    HW226121   3.698   3.295   4.828 -1.6704 -1.7950 -2.2850
 4888SOL     OW26122   2.255   4.415   2.832  0.0849  0.0694 -0.5332
 4888SOL    HW126123   2.163   4.393   2.845 -0.3139  0.3979 -2.7705
 4888SOL    HW226124   2.288   4.390   2.918  0.7209 -0.6339 -0.9874
 4889SOL     OW26125   3.410   2.400   4.082 -0.3231  0.3750  0.0832
 4889SOL    HW126126   3.381   2.355   4.003  0.1020  1.6824 -0.8123
 4889SOL    HW226127   3.501   2.418   4.060 -0.1579  0.1022  0.5309
 4890SOL     OW26128   1.607   2.700   6.175 -0.3113 -0.0498  0.2462
 4890SOL    HW126129   1.664   2.660   6.240 -0.0489 -2.6505 -1.5697
 4890SOL    HW226130   1.531   2.648   6.201  0.5456 -0.9885  0.8817
 4891SOL     OW26131   4.713   4.498   4.515 -0.3664 -0.2971 -0.0619
 4891SOL    HW126132   0.070   4.501   4.567 -0.0793  0.2478 -0.5469
 4891SOL    HW226133   0.006   4.575   4.461  1.1656 -0.9313 -0.5077
 4892SOL     OW26134   2.177   2.443   4.152 -0.1418  0.6012 -0.0473
 4892SOL    HW126135   2.233   2.431   4.076 -0.1074 -1.2141  0.2484
 4892SOL    HW226136   2.094   2.404   4.122  0.7378 -0.1408 -1.5049
 4893SOL     OW26137   3.754   1.296   8.822 -0.3836  0.1731 -0.3265
 4893SOL    HW126138   3.750   1.244   8.742  0.2301  1.4168 -1.1684
 4893SOL    HW226139   3.664   1.317   8.846  0.0291  1.7540 -0.1608
 4894SOL     OW26140   1.664   1.908   6.956  0.3025  0.2857 -0.3240
 4894SOL    HW126141   1.605   1.957   6.899  0.8792  1.1076 -0.2172
 4894SOL    HW226142   1.611   1.902   7.035  1.7566  3.4303  0.8934
 4895SOL     OW26143   1.732   4.023   6.470  0.2117 -0.0247  0.4793
 4895SOL    HW126144   1.668   3.960   6.437  2.1768 -2.7796  2.0104
 4895SOL    HW226145   1.729   4.089   6.401 -1.3400 -0.0018  0.5687
 4896SOL     OW26146   4.579   4.706  16.169  0.1709  0.3003 -0.2880
 4896SOL    HW126147   4.628   4.635  16.128  0.9001  0.3973  0.4189
 4896SOL    HW226148   4.531   0.015  16.093 -1.3366 -2.3584 -0.4415
 4897SOL     OW26149   4.417   0.298   6.792  0.0170  0.2845  0.1694
 4897SOL    HW126150   4.464   0.301   6.709  2.2579 -2.7466  1.2774
 4897SOL    HW226151   4.457   0.222   6.835 -0.5555  1.3631  2.6332
 4898SOL     OW26152   0.014   2.723   4.130 -0.1071  0.7847 -0.5724
 4898SOL    HW126153   4.722   2.666   4.054 -0.0575 -0.0900  0.0679
 4898SOL    HW226154   0.007   2.809   4.088  0.9395  0.4133 -1.5219
 4899SOL     OW26155   3.889   4.131  16.693  0.1737  0.0870  0.3420
 4899SOL    HW126156   3.975   4.113  16.730  0.8375  1.0018 -0.7710
 4899SOL    HW226157   3.868   4.051  16.646 -1.8287  1.1300 -0.5299
 4900SOL     OW26158   4.474   0.133   6.187  0.8615  0.2408  0.5554
 4900SOL    HW126159   4.384   0.164   6.191  0.8837  0.2785  0.7226
 4900SOL    HW226160   4.520   0.212   6.159  0.9093  0.3223  0.8666
 4901SOL     OW26161   4.593   3.738  15.450 -0.2874  0.1042 -0.2858
 4901SOL    HW126162   4.572   3.830  15.469  1.4202  0.3630  0.3313
 4901SOL    HW226163   4.510   3.701  15.482 -1.2108  2.1493 -0.3276
 4902SOL     OW26164   0.518   2.379   7.465 -0.0673 -0.4982  0.1279
 4902SOL    HW126165   0.514   2.469   7.434  2.2729  0.6038  3.0122
 4902SOL    HW226166   0.462   2.340   7.399  1.6050  0.6614 -1.9726
 4903SOL     OW26167   2.115   4.328   4.247  0.5957 -0.1374  0.0913
 4903SOL    HW126168   2.101   4.382   4.169 -1.8501 -0.0714  0.6049
 4903SOL    HW226169   2.140   4.247   4.202 -1.2291 -0.8568  0.3710
 4904SOL     OW26170   2.083   1.493   7.858  0.5340  0.1398  0.1507
 4904SOL    HW126171   2.048   1.566   7.909 -1.1351 -0.3269 -0.3186
 4904SOL    HW226172   2.034   1.500   7.776 -0.4432  1.0799  0.8101
 4905SOL     OW26173   0.252   1.056   4.988 -0.4427 -0.2740  0.0087
 4905SOL    HW126174   0.180   1.037   5.048 -0.0117  2.8178  1.4686
 4905SOL    HW226175   0.196   1.099   4.923  0.6756 -3.1415 -2.8800
 4906SOL     OW26176   1.881   0.587   2.099 -0.2351 -0.3432  0.4323
 4906SOL    HW126177   1.894   0.638   2.019  0.0966  0.0907  0.7581
 4906SOL    HW226178   1.960   0.611   2.147  0.9791  0.1861 -1.8300
 4907SOL     OW26179   1.464   1.279   9.073  0.2829 -0.5798  0.0396
 4907SOL    HW126180   1.489   1.337   9.146  2.9310 -0.9463 -0.5911
 4907SOL    HW226181   1.511   1.200   9.098  3.2596  0.9523 -0.7580
 4908SOL     OW26182   0.371   2.530   4.912 -0.1074 -0.5118  0.1432
 4908SOL    HW126183   0.281   2.562   4.907  0.4750  1.3227  1.2216
 4908SOL    HW226184   0.376   2.528   5.008  1.4546  0.0395  0.0658
 4909SOL     OW26185   0.851   2.701  11.447  0.2506 -0.2547 -0.3286
 4909SOL    HW126186   0.932   2.705  11.498 -1.8106  3.3363  2.6309
 4909SOL    HW226187   0.801   2.627  11.481  0.6699 -0.2770  0.2467
 4910SOL     OW26188   1.177   3.477   1.012  0.2353 -0.5622  0.2209
 4910SOL    HW126189   1.170   3.443   0.923  0.2446 -1.8655  0.7227
 4910SOL    HW226190   1.269   3.467   1.034  0.6118  1.1636 -0.6003
 4911SOL     OW26191   0.883   0.590  11.412  0.6564  0.2731  0.0406
 4911SOL    HW126192   0.823   0.520  11.388 -0.9709  1.4038  0.8224
 4911SOL    HW226193   0.835   0.667  11.382 -1.1672 -0.9896 -0.2424
 4912SOL     OW26194   3.724   3.646  12.702 -0.3825 -0.4212 -0.1445
 4912SOL    HW126195   3.736   3.581  12.633 -0.5286  1.5644 -2.0451
 4912SOL    HW226196   3.633   3.623  12.723  0.2172 -2.2699  0.4442
 4913SOL     OW26197   3.590   1.815   3.969 -0.1002  0.5291  0.2528
 4913SOL    HW126198   3.523   1.747   3.966  0.4121 -0.0661  2.0612
 4913SOL    HW226199   3.584   1.831   4.064 -0.0118 -1.2160  0.5602
 4914SOL     OW26200   4.379   1.020   5.001 -1.2038 -0.4358  0.1624
 4914SOL    HW126201   4.319   0.997   4.930  2.1301 -0.0731 -2.7590
 4914SOL    HW226202   4.323   0.989   5.073  0.8080 -3.1345  0.6038
 4915SOL     OW26203   0.285   2.586   7.660  0.4196 -0.2257 -0.4145
 4915SOL    HW126204   0.331   2.656   7.614  0.8457 -0.5751 -0.5197
 4915SOL    HW226205   0.196   2.622   7.666 -0.2460 -1.4473 -2.7627
 4916SOL     OW26206   3.303   2.059   8.363  0.4452  0.2956  0.0618
 4916SOL    HW126207   3.342   2.135   8.407  2.5639 -0.5894 -0.2801
 4916SOL    HW226208   3.356   1.993   8.407  0.5642  1.5590  1.7942
 4917SOL     OW26209   3.050   0.943   2.125  0.2471  0.1479  0.0599
 4917SOL    HW126210   3.117   1.008   2.104 -0.7089  0.4821 -1.9523
 4917SOL    HW226211   3.101   0.863   2.134 -1.4296 -0.9924 -0.6672
 4918SOL     OW26212   1.935   3.148   2.225 -0.1126 -0.2481  0.0749
 4918SOL    HW126213   1.981   3.093   2.161 -2.3513 -1.1035 -0.7971
 4918SOL    HW226214   1.955   3.238   2.198  1.0752 -0.8280 -0.9703
 4919SOL     OW26215   2.201   2.413   8.466  0.3824  0.9293  0.2876
 4919SOL    HW126216   2.167   2.500   8.445 -0.8553  0.3771 -0.0043
 4919SOL    HW226217   2.196   2.372   8.379 -0.4541  0.0903  0.7430
 4920SOL     OW26218   3.107   3.158   2.152 -0.0953 -0.0831 -0.1298
 4920SOL    HW126219   3.128   3.140   2.061  0.3315  2.1536 -0.4647
 4920SOL    HW226220   3.193   3.145   2.194  1.2754  1.3821 -2.5188
 4921SOL     OW26221   3.244   2.804  16.474  0.6990  0.7018 -0.3660
 4921SOL    HW126222   3.217   2.723  16.432  1.7704 -0.4988  1.2274
 4921SOL    HW226223   3.331   2.821  16.439  0.0806  1.0381 -1.7153
 4922SOL     OW26224   4.093   3.013  16.239 -0.8906  0.5120  0.1239
 4922SOL    HW126225   4.081   2.923  16.271 -0.7734  0.8860  1.2258
 4922SOL    HW226226   4.013   3.050  16.276 -1.3422 -0.8040  0.4655
 4923SOL     OW26227   2.509   1.583   3.886 -0.4603 -0.1216  0.3005
 4923SOL    HW126228   2.564   1.616   3.956  1.3092  1.5700 -1.8740
 4923SOL    HW226229   2.573   1.603   3.818 -1.0353 -0.2722 -0.2926
 4924SOL     OW26230   2.105   2.484   2.606  0.0361  0.5057 -0.5062
 4924SOL    HW126231   2.122   2.575   2.629 -2.6062  0.4024  1.9756
 4924SOL    HW226232   2.060   2.486   2.522 -1.6389 -0.1442  0.3651
 4925SOL     OW26233   3.926   2.766   5.421 -0.3764  0.4711 -0.2093
 4925SOL    HW126234   4.007   2.817   5.413 -1.1707  1.8025  0.2150
 4925SOL    HW226235   3.927   2.705   5.348 -2.8762 -0.9894  1.0078
 4926SOL     OW26236   1.035   1.982   6.205 -0.3648  0.6675  0.7872
 4926SOL    HW126237   1.089   1.905   6.224 -0.0605  0.7400  0.2049
 4926SOL    HW226238   0.959   1.956   6.258  0.5344 -1.8064  0.8628
 4927SOL     OW26239   3.492   2.587   9.332 -0.6241  0.2882  0.0093
 4927SOL    HW126240   3.549   2.608   9.259 -0.8768  0.9567 -0.0005
 4927SOL    HW226241   3.471   2.494   9.330 -0.7834  0.3564 -1.3129
 4928SOL     OW26242   0.397   0.017  10.332  0.3531 -0.1419  0.0856
 4928SOL    HW126243   0.417   4.692  10.412  0.7538 -3.0173 -1.7777
 4928SOL    HW226244   0.304   4.720  10.327 -0.0550  1.6814  0.0687
 4929SOL     OW26245   2.639   0.237   6.783  0.4370 -0.0460 -0.3002
 4929SOL    HW126246   2.648   0.142   6.784 -2.9150 -0.3871 -1.1315
 4929SOL    HW226247   2.703   0.258   6.850 -0.6162  2.9998 -0.2433
 4930SOL     OW26248   0.253   0.852   4.723 -0.0840  0.1886  0.2483
 4930SOL    HW126249   0.234   0.865   4.816  1.3202  0.3882  0.5049
 4930SOL    HW226250   0.339   0.893   4.714 -0.1493  0.5594  1.3563
 4931SOL     OW26251   3.485   3.502   1.328 -0.8255  0.0390  0.4368
 4931SOL    HW126252   3.560   3.497   1.388 -0.4995 -1.6342 -0.1088
 4931SOL    HW226253   3.454   3.592   1.323 -1.7650 -0.3158  0.0015
 4932SOL     OW26254   3.541   4.636  14.253  0.1952 -0.4148 -0.0306
 4932SOL    HW126255   3.463   4.621  14.306  0.5971 -0.8696  0.4238
 4932SOL    HW226256   3.592   4.687  14.316  1.3963  0.0657 -1.4056
 4933SOL     OW26257   1.283   0.575  15.213  0.1017 -0.2531  0.5674
 4933SOL    HW126258   1.309   0.505  15.153  1.2610  0.6574  0.0078
 4933SOL    HW226259   1.337   0.650  15.189 -0.1936  0.2601  1.4910
 4934SOL     OW26260   0.063   4.364   9.691 -0.1668 -0.0648 -0.1212
 4934SOL    HW126261   0.047   4.298   9.624  0.2199 -0.9994  0.7049
 4934SOL    HW226262   0.140   4.330   9.737  0.2088  0.7769 -0.1298
 4935SOL     OW26263   0.237   1.185  16.995  0.0499 -0.3234  0.2124
 4935SOL    HW126264   0.179   1.218  16.926 -0.4026  1.1416  1.3130
 4935SOL    HW226265   0.190   1.104  17.016 -0.5954 -0.1034 -0.3868
 4936SOL     OW26266   4.035   3.401  15.749 -0.7301 -0.2468 -0.1533
 4936SOL    HW126267   3.973   3.410  15.677  1.0108 -0.9156 -1.7596
 4936SOL    HW226268   4.002   3.472  15.804 -0.7605 -1.6146  1.5769
 4937SOL     OW26269   1.453   3.443   3.088  0.0352 -0.3455 -0.6940
 4937SOL    HW126270   1.471   3.380   3.158 -0.6444 -0.8130 -0.9290
 4937SOL    HW226271   1.491   3.385   3.022 -0.0151 -3.2937  1.8538
 4938SOL     OW26272   3.640   0.245   5.677 -0.5248 -0.3695  0.3102
 4938SOL    HW126273   3.652   0.270   5.585 -1.6302 -1.0215 -0.0126
 4938SOL    HW226274   3.569   0.180   5.678 -1.3830  0.5653  0.0066
 4939SOL     OW26275   0.944   2.225   6.150 -0.0886 -0.1886 -0.3425
 4939SOL    HW126276   0.981   2.137   6.160 -1.0202 -0.3896  1.3650
 4939SOL    HW226277   1.018   2.276   6.185  0.8712 -3.2834  2.1781
 4940SOL     OW26278   1.801   3.309  17.074 -0.2271  0.1787  0.0181
 4940SOL    HW126279   1.800   3.383  17.135  2.8884  0.2498 -0.0453
 4940SOL    HW226280   1.877   3.332  17.020  1.3105 -3.9392  0.4633
 4941SOL     OW26281   2.690   2.923   3.473 -0.6599 -0.5972 -0.7162
 4941SOL    HW126282   2.718   2.865   3.543 -0.7665 -0.4908 -0.5863
 4941SOL    HW226283   2.748   2.901   3.400 -1.9564 -0.9291 -1.6574
 4942SOL     OW26284   1.070   4.227  17.374 -0.3647  0.0178  0.3324
 4942SOL    HW126285   1.056   4.322  17.373 -0.8746 -0.0757 -0.6775
 4942SOL    HW226286   0.983   4.195  17.400 -0.1944 -0.1580  0.6884
 4943SOL     OW26287   2.011   4.067  16.175 -0.5621  0.1247  0.0260
 4943SOL    HW126288   1.925   4.046  16.139 -0.8857 -0.4636  1.1471
 4943SOL    HW226289   2.015   4.162  16.186  1.2177 -0.0762  1.1927
 4944SOL     OW26290   4.481   3.604   5.505 -0.4018 -0.3802 -0.9707
 4944SOL    HW126291   4.438   3.528   5.466  1.4839 -1.2310 -1.3812
 4944SOL    HW226292   4.407   3.655   5.538  0.4724 -0.1659  0.6947
 4945SOL     OW26293   2.125   4.466   5.239  0.0622 -0.4389  0.4324
 4945SOL    HW126294   2.112   4.374   5.218 -2.7673 -0.0106  0.2669
 4945SOL    HW226295   2.039   4.486   5.277  1.3526  2.1407  2.0194
 4946SOL     OW26296   1.269   4.268   4.928  0.4277 -0.0234 -0.2214
 4946SOL    HW126297   1.338   4.276   4.993  0.7616  0.9098 -0.6826
 4946SOL    HW226298   1.216   4.199   4.968 -0.0658  0.1435 -0.5841
 4947SOL     OW26299   4.481   1.463  14.902  0.1784  0.0875 -0.2274
 4947SOL    HW126300   4.525   1.522  14.964 -1.4754  1.1088 -0.0195
 4947SOL    HW226301   4.453   1.401  14.969 -2.3250 -0.9991 -2.2951
 4948SOL     OW26302   1.052   3.045   7.747  0.5056 -0.1429  0.5713
 4948SOL    HW126303   0.963   3.079   7.743  0.7089  0.4065  0.7304
 4948SOL    HW226304   1.039   2.999   7.830 -0.9608 -0.7329  0.0077
 4949SOL     OW26305   4.508   1.507   3.591  0.5846 -0.1624 -0.1648
 4949SOL    HW126306   4.497   1.413   3.606  1.5824  0.0527  1.9358
 4949SOL    HW226307   4.542   1.521   3.503  0.5858  0.8138 -0.0111
 4950SOL     OW26308   4.103   4.261   4.743  0.5028  0.4294 -0.2678
 4950SOL    HW126309   4.144   4.179   4.772  2.5918  1.2406 -0.9341
 4950SOL    HW226310   4.120   4.255   4.649 -1.0868  0.4375 -0.5659
 4951SOL     OW26311   3.507   2.445   9.628 -0.3683  0.3522 -0.0950
 4951SOL    HW126312   3.596   2.433   9.661 -0.9925  1.5782  2.0209
 4951SOL    HW226313   3.465   2.494   9.698 -1.4186 -0.7628  0.0350
 4952SOL     OW26314   3.640   2.869   3.507  0.0076 -0.2558 -0.6299
 4952SOL    HW126315   3.732   2.896   3.508 -0.7395  2.2165 -0.6672
 4952SOL    HW226316   3.594   2.951   3.494 -0.7794 -0.5715  0.1973
 4953SOL     OW26317   1.760   3.301   7.954 -0.2987  0.2016 -0.0173
 4953SOL    HW126318   1.680   3.271   7.912  0.2333 -0.6387 -0.4120
 4953SOL    HW226319   1.796   3.213   7.949 -0.5176  0.1996 -1.5373
 4954SOL     OW26320   0.940   3.887  17.453  0.3446  0.7693  0.2573
 4954SOL    HW126321   0.904   3.973  17.429  1.7959  1.8102  1.8181
 4954SOL    HW226322   0.902   3.872  17.539  3.1921  0.2247  1.4147
 4955SOL     OW26323   2.377   4.172   2.779 -0.1122  0.2614  0.4556
 4955SOL    HW126324   2.375   4.118   2.858  0.5873  1.6427  1.4111
 4955SOL    HW226325   2.320   4.245   2.803 -0.3306  0.5709 -0.9616
 4956SOL     OW26326   2.813   3.772   4.173  0.0821 -0.0183 -0.1070
 4956SOL    HW126327   2.792   3.737   4.087 -0.8526 -0.5456  0.3309
 4956SOL    HW226328   2.759   3.716   4.228  0.3266  0.4934  0.6649
 4957SOL     OW26329   2.033   2.929  12.217  0.4240 -0.4447 -0.1426
 4957SOL    HW126330   2.071   2.846  12.248 -1.1394 -1.0584  0.1419
 4957SOL    HW226331   2.093   2.960  12.150  1.7991  0.0683  1.3272
 4958SOL     OW26332   3.437   1.626   3.594 -0.2933 -0.0679 -0.1144
 4958SOL    HW126333   3.520   1.578   3.587 -0.2406  0.1342 -0.8724
 4958SOL    HW226334   3.408   1.581   3.673  2.0495  1.8572  1.8402
 4959SOL     OW26335   1.378   3.398   7.927  0.3608  0.2190 -0.6372
 4959SOL    HW126336   1.449   3.461   7.938  0.2787  0.9826 -4.5217
 4959SOL    HW226337   1.319   3.430   7.858 -0.6128  2.3438  1.2052
 4960SOL     OW26338   0.149   1.035   0.003 -0.3050 -0.4354  0.7962
 4960SOL    HW126339   0.171   0.997   0.087  2.5196  1.3223  0.8397
 4960SOL    HW226340   0.081   0.977  17.662 -0.6676  0.0808  0.6300
 4961SOL     OW26341   3.160   3.627   1.534  0.4042 -0.6340 -0.5190
 4961SOL    HW126342   3.121   3.557   1.587 -0.8942 -0.8466 -1.7620
 4961SOL    HW226343   3.089   3.688   1.514 -0.8209 -1.0394  2.5726
 4962SOL     OW26344   2.522   2.447   8.110  0.3229 -0.7031 -0.4896
 4962SOL    HW126345   2.444   2.395   8.127 -1.9076  2.7844 -0.1562
 4962SOL    HW226346   2.481   2.524   8.072 -1.6269 -1.5031 -0.0206
 4963SOL     OW26347   2.844   0.324   6.940 -0.4679 -0.0638  0.2198
 4963SOL    HW126348   2.806   0.378   7.008 -5.1199 -2.9023 -0.1241
 4963SOL    HW226349   2.919   0.283   6.984 -0.4247 -3.4458 -2.9574
 4964SOL     OW26350   2.848   4.353   2.837 -0.1302 -0.1183 -0.1650
 4964SOL    HW126351   2.789   4.402   2.895  0.5590 -0.0425  0.4713
 4964SOL    HW226352   2.794   4.282   2.803 -1.8625  0.4601  1.3684
 4965SOL     OW26353   1.029   3.166   0.347  0.2720  0.0461  0.4638
 4965SOL    HW126354   1.099   3.229   0.365 -1.2249  1.7060  0.4325
 4965SOL    HW226355   1.044   3.161   0.252  0.8734 -0.5109  0.5866
 4966SOL     OW26356   2.344   1.011   1.423  0.1190 -0.1675  0.3177
 4966SOL    HW126357   2.398   1.076   1.378 -0.5497 -1.3351 -2.1065
 4966SOL    HW226358   2.298   1.061   1.491  0.3415  0.2116  0.1900
 4967SOL     OW26359   1.281   3.168   4.240  0.1372 -0.1887 -0.4470
 4967SOL    HW126360   1.310   3.105   4.306  3.7337  0.4413 -1.4529
 4967SOL    HW226361   1.330   3.141   4.163  0.0851 -1.2710 -0.1061
 4968SOL     OW26362   2.256   3.480   8.251  0.1111  0.4476  0.2370
 4968SOL    HW126363   2.211   3.517   8.327 -1.4917  0.0480 -0.5228
 4968SOL    HW226364   2.329   3.541   8.240  2.7827 -2.8183  0.1712
 4969SOL     OW26365   3.975   0.804  13.003  1.0564 -0.5370  0.7147
 4969SOL    HW126366   3.892   0.788  13.049 -0.0175  2.1527 -0.3251
 4969SOL    HW226367   4.036   0.824  13.074 -1.6088  1.1482  2.5314
 4970SOL     OW26368   0.686   0.561   3.976  0.0376 -0.3322  0.0692
 4970SOL    HW126369   0.613   0.512   3.937 -0.0928 -0.0300 -0.0663
 4970SOL    HW226370   0.770   0.527   3.945  0.5436  0.1009  0.9674
 4971SOL     OW26371   3.177   0.780   8.619 -0.2089  0.2816  0.2590
 4971SOL    HW126372   3.153   0.748   8.705 -0.0977  1.1465  0.6089
 4971SOL    HW226373   3.096   0.825   8.595  0.6141  0.9822 -1.2210
 4972SOL     OW26374   4.385   2.051  15.643  0.2518 -0.5749  0.0151
 4972SOL    HW126375   4.477   2.023  15.642  0.1951 -0.7815  0.4923
 4972SOL    HW226376   4.370   2.018  15.732 -2.5622  0.1984 -0.1993
 4973SOL     OW26377   3.830   4.171   8.549 -0.1126 -0.3330 -0.6236
 4973SOL    HW126378   3.917   4.204   8.529  0.1463 -0.8382 -0.3308
 4973SOL    HW226379   3.789   4.177   8.462 -1.3298 -0.4792 -0.0605
 4974SOL     OW26380   1.745   2.853   1.710  0.0920 -0.2594 -0.4736
 4974SOL    HW126381   1.721   2.762   1.694 -0.7722 -0.2850  1.0306
 4974SOL    HW226382   1.667   2.899   1.678  1.1277  1.1540 -0.9763
 4975SOL     OW26383   3.812   2.945  14.412 -0.4733 -0.4116 -0.0504
 4975SOL    HW126384   3.842   2.933  14.322  0.8892  0.2800  0.3085
 4975SOL    HW226385   3.788   3.038  14.410 -0.1957 -0.2974  1.7210
 4976SOL     OW26386   0.388   2.926   1.675 -0.3264 -0.0432  0.0888
 4976SOL    HW126387   0.366   3.005   1.626 -0.9883 -0.2255  0.1021
 4976SOL    HW226388   0.301   2.899   1.703  0.5022 -0.2480  2.4798
 4977SOL     OW26389   3.370   0.748  13.506  0.6612  0.4419  0.2970
 4977SOL    HW126390   3.406   0.661  13.493  0.2279  0.6871 -2.5824
 4977SOL    HW226391   3.361   0.751  13.601 -1.5845 -4.2239  0.2423
 4978SOL     OW26392   4.666   4.636   3.718  0.0686  0.4682  0.0191
 4978SOL    HW126393   4.635   4.710   3.665  0.3727  1.1828  0.8519
 4978SOL    HW226394   0.036   4.629   3.695 -1.3299 -0.6226 -5.3427
 4979SOL     OW26395   1.468   3.084   7.556  0.6213 -0.6072  0.2967
 4979SOL    HW126396   1.466   3.097   7.461  1.4145  0.2210  0.3968
 4979SOL    HW226397   1.376   3.071   7.581 -0.1168 -0.4149 -2.2810
 4980SOL     OW26398   2.615   3.061   9.123 -0.0019  0.2170 -0.3937
 4980SOL    HW126399   2.689   3.101   9.168  1.0987 -1.0413 -1.1091
 4980SOL    HW226400   2.581   3.139   9.079  1.1767  0.4007 -0.9536
 4981SOL     OW26401   1.351   3.198   6.359 -0.0328 -0.3910  0.2208
 4981SOL    HW126402   1.435   3.155   6.378  0.9948  0.9860 -1.2493
 4981SOL    HW226403   1.337   3.248   6.439 -0.3303 -0.1716  0.0302
 4982SOL     OW26404   4.116   3.518   4.702  0.1108  0.0974 -0.3653
 4982SOL    HW126405   4.076   3.594   4.661  0.1253 -0.3863 -1.2732
 4982SOL    HW226406   4.044   3.493   4.759  1.2408 -0.8610  0.6543
 4983SOL     OW26407   1.044   1.951   1.448 -0.3311  0.4800 -0.1079
 4983SOL    HW126408   1.021   1.859   1.463  4.3997 -0.8835 -1.1883
 4983SOL    HW226409   0.963   2.001   1.436 -0.8035 -0.2666 -0.0682
 4984SOL     OW26410   3.422   3.919   4.293  0.5335 -0.0892  0.0685
 4984SOL    HW126411   3.488   3.947   4.230  2.0581  1.3017  2.2692
 4984SOL    HW226412   3.345   3.924   4.236  0.4721 -1.0137  0.0594
 4985SOL     OW26413   1.365   4.620  10.452 -0.0055 -0.0133  0.0711
 4985SOL    HW126414   1.419   4.591  10.379  0.1429  1.2104 -0.3141
 4985SOL    HW226415   1.421   4.584  10.521  1.1062 -1.2629 -1.5065
 4986SOL     OW26416   4.715   3.228  11.510  0.6257  0.1012  0.1141
 4986SOL    HW126417   4.641   3.270  11.554  0.2493  0.4823 -0.8738
 4986SOL    HW226418   4.696   3.137  11.530 -2.2996  0.7921  0.4599
 4987SOL     OW26419   1.002   1.382   4.699 -0.4150 -0.4327 -0.0253
 4987SOL    HW126420   1.040   1.453   4.648 -1.0865 -0.1063 -0.0808
 4987SOL    HW226421   0.941   1.427   4.758  2.1958  1.3213  1.3198
 4988SOL     OW26422   3.313   0.985   3.342 -0.0669 -0.3420  0.0284
 4988SOL    HW126423   3.221   0.978   3.368  0.2192 -1.0372  0.8564
 4988SOL    HW226424   3.320   0.901   3.297  0.9416  0.3825 -1.1806
 4989SOL     OW26425   1.368   0.803   2.498  0.0608 -0.1843  0.1263
 4989SOL    HW126426   1.396   0.731   2.442  2.3618  2.0215 -1.5786
 4989SOL    HW226427   1.395   0.869   2.435 -0.5272 -0.4294 -0.3737
 4990SOL     OW26428   4.557   2.101   2.930 -0.0165  0.1986  0.1683
 4990SOL    HW126429   4.496   2.027   2.929  1.5061 -1.0517 -0.8735
 4990SOL    HW226430   4.637   2.072   2.886 -1.3055 -1.2581 -1.2175
 4991SOL     OW26431   1.129   0.700   2.138 -0.2484  0.4620  0.8536
 4991SOL    HW126432   1.043   0.659   2.126  1.7305 -3.3689 -0.4190
 4991SOL    HW226433   1.102   0.782   2.178 -0.3839  1.5932 -1.5681
 4992SOL     OW26434   1.074   0.951  10.832  0.0661  0.4869  0.0480
 4992SOL    HW126435   1.102   0.943  10.923 -0.6276 -0.3014  0.1917
 4992SOL    HW226436   0.982   0.966  10.854 -0.2397 -0.2345 -0.7735
 4993SOL     OW26437   3.933   4.249   5.001  0.6626 -0.1330 -0.3313
 4993SOL    HW126438   3.974   4.177   5.048  0.2574  0.3419  0.7313
 4993SOL    HW226439   3.912   4.211   4.915  0.5874 -0.1234 -0.3167
 4994SOL     OW26440   0.661   4.544  10.293 -0.0685 -0.4209 -0.6058
 4994SOL    HW126441   0.608   4.580  10.364 -0.3947 -0.5681 -0.7767
 4994SOL    HW226442   0.616   4.463  10.269 -0.0220 -1.3775  2.6612
 4995SOL     OW26443   4.637   3.449   6.298 -0.9688  0.0865  0.0116
 4995SOL    HW126444   4.693   3.497   6.238 -1.5888  1.2749  0.3976
 4995SOL    HW226445   4.567   3.420   6.240 -1.1915  1.3158 -0.3163
 4996SOL     OW26446   4.195   2.887   5.668  0.0898 -0.1087 -0.1573
 4996SOL    HW126447   4.257   2.917   5.601 -0.4433 -2.2110 -1.6047
 4996SOL    HW226448   4.120   2.946   5.678  0.1918 -0.0017 -0.0301
 4997SOL     OW26449   1.165   0.195   3.342 -0.1075  0.1400 -0.1502
 4997SOL    HW126450   1.217   0.202   3.422 -2.0179  1.0917  0.9890
 4997SOL    HW226451   1.142   0.102   3.348 -0.1424  0.2036  0.6379
 4998SOL     OW26452   1.581   1.671   4.395  0.1978  0.1637  0.0517
 4998SOL    HW126453   1.512   1.733   4.373  2.1442  2.5102  0.6050
 4998SOL    HW226454   1.645   1.731   4.431  1.3535 -0.3801 -1.0870
 4999SOL     OW26455   2.991   3.952  14.436  0.5480 -0.1274  0.3775
 4999SOL    HW126456   2.993   4.043  14.464  2.1943  0.3223 -1.2250
 4999SOL    HW226457   2.965   3.904  14.515  1.7195 -1.4188 -0.0230
 5000SOL     OW26458   0.709   3.294  11.763  0.3522  0.2711 -0.6849
 5000SOL    HW126459   0.714   3.326  11.853 -3.2713 -1.5513  0.1775
 5000SOL    HW226460   0.738   3.367  11.708 -0.1294  0.0222 -1.2747
 5001SOL     OW26461   0.405   3.473   9.331 -0.4539 -0.3900  0.5816
 5001SOL    HW126462   0.349   3.445   9.259 -1.0261  0.0532  0.8610
 5001SOL    HW226463   0.488   3.447   9.291  0.4185  1.7138  1.0201
 5002SOL     OW26464   2.458   3.444   6.561  0.1301  0.0882  0.9572
 5002SOL    HW126465   2.496   3.431   6.474  0.1294 -1.6875  1.2280
 5002SOL    HW226466   2.435   3.537   6.555  2.2343  0.5643  0.2973
 5003SOL     OW26467   4.569   1.990  11.509  0.0691  0.0257 -0.0451
 5003SOL    HW126468   4.486   2.037  11.520  0.4230  0.5901  0.2092
 5003SOL    HW226469   4.527   1.922  11.457  0.4943  0.1985 -0.6213
 5004SOL     OW26470   0.745   3.130  12.637  0.5451  0.4370 -0.4372
 5004SOL    HW126471   0.820   3.093  12.591  1.3270  1.6258 -0.1096
 5004SOL    HW226472   0.786   3.209  12.670  0.6050 -0.9326  2.7464
 5005SOL     OW26473   3.148   0.385  15.093 -0.4655  0.2999 -0.1468
 5005SOL    HW126474   3.144   0.300  15.049  3.0595 -0.4176  0.9131
 5005SOL    HW226475   3.120   0.447  15.025 -0.7514 -0.3448 -0.6209
 5006SOL     OW26476   2.317   1.878  13.183  0.1869 -0.6989  0.1230
 5006SOL    HW126477   2.245   1.941  13.179 -1.1612 -2.3619 -2.6824
 5006SOL    HW226478   2.381   1.915  13.243 -1.2330  1.9104  0.0250
 5007SOL     OW26479   0.066   3.700   5.791 -0.1839  0.3315  0.2505
 5007SOL    HW126480   0.016   3.623   5.764 -0.1896 -0.0555  1.3972
 5007SOL    HW226481   4.709   3.745   5.818 -1.4586 -0.0597 -2.8532
 5008SOL     OW26482   1.017   2.275  13.588  1.0146 -0.1431 -0.2085
 5008SOL    HW126483   1.098   2.301  13.544 -0.5527  1.9833 -1.8456
 5008SOL    HW226484   1.047   2.196  13.633  1.4949  0.0482 -0.1981
 5009SOL     OW26485   0.459   4.126   4.101  0.2300 -1.0460 -0.0852
 5009SOL    HW126486   0.467   4.185   4.026 -1.0113 -0.7116  0.0517
 5009SOL    HW226487   0.442   4.182   4.177  0.7522 -1.0609  0.0438
 5010SOL     OW26488   2.655   0.680   5.640 -0.1975 -0.2876  0.1768
 5010SOL    HW126489   2.705   0.673   5.722 -0.3546 -1.4673  0.1730
 5010SOL    HW226490   2.705   0.621   5.584  1.8136  0.7457  0.8657
 5011SOL     OW26491   0.947   3.138   6.472 -0.3695  0.3512  0.0990
 5011SOL    HW126492   0.911   3.207   6.416 -0.7491 -1.3367 -1.7780
 5011SOL    HW226493   0.977   3.189   6.546 -0.9966  0.4782  0.2627
 5012SOL     OW26494   4.430   2.838  11.223 -0.5918  0.7306  0.5178
 5012SOL    HW126495   4.352   2.875  11.183 -0.5552  0.9621  0.6589
 5012SOL    HW226496   4.448   2.770  11.158 -2.6285 -0.1660  0.9021
 5013SOL     OW26497   2.886   4.158   8.160 -0.1439  0.0889  0.1890
 5013SOL    HW126498   2.946   4.231   8.148  1.1216 -1.2062 -1.4426
 5013SOL    HW226499   2.946   4.099   8.205 -0.2154  0.2451  0.4899
 5014SOL     OW26500   2.759   4.188   5.690 -0.5279 -0.4542  0.0170
 5014SOL    HW126501   2.742   4.094   5.687  0.4996 -0.5902 -1.5461
 5014SOL    HW226502   2.834   4.187   5.750 -0.0359  0.5821 -0.5860
 5015SOL     OW26503   1.297   1.569   9.867 -0.5184  0.0424 -0.2351
 5015SOL    HW126504   1.232   1.567   9.797 -0.8962 -0.9558  0.1384
 5015SOL    HW226505   1.258   1.615   9.942  1.2397 -0.6168  1.0730
 5016SOL     OW26506   3.031   4.696   3.810  0.5724 -0.6056  0.4263
 5016SOL    HW126507   3.093   4.626   3.792  3.3442  1.6681  1.2169
 5016SOL    HW226508   2.944   4.662   3.786  0.3308 -0.3998  1.0081
 5017SOL     OW26509   4.417   1.455  13.489 -0.2914 -0.1037 -0.0159
 5017SOL    HW126510   4.333   1.461  13.534 -0.7191  1.1672 -1.0032
 5017SOL    HW226511   4.442   1.546  13.477 -1.8494  0.4759  1.1602
 5018SOL     OW26512   2.321   2.205   0.887  0.5365  0.5202 -0.0528
 5018SOL    HW126513   2.360   2.245   0.809  1.0499  1.6656  0.7933
 5018SOL    HW226514   2.239   2.249   0.909  0.0639 -0.1623 -0.4536
 5019SOL     OW26515   1.841   0.888  15.605 -0.3108  0.3901  0.4347
 5019SOL    HW126516   1.892   0.812  15.576  0.5500 -0.0888  3.1539
 5019SOL    HW226517   1.780   0.906  15.533 -0.5886 -0.0856  0.5464
 5020SOL     OW26518   4.067   3.754   1.884  0.5761 -0.7624  0.1718
 5020SOL    HW126519   3.994   3.738   1.824  1.1225 -2.6180 -0.0121
 5020SOL    HW226520   4.040   3.841   1.912 -0.6789 -1.3002  0.6713
 5021SOL     OW26521   2.469   4.183  11.838 -0.1718  0.2344 -0.2542
 5021SOL    HW126522   2.480   4.217  11.926 -1.7410  3.4073 -1.2899
 5021SOL    HW226523   2.513   4.249  11.784  0.4450 -0.8095 -1.0254
 5022SOL     OW26524   4.180   2.418  13.134  0.0977 -0.2509  0.4721
 5022SOL    HW126525   4.177   2.456  13.046 -0.9387  0.3507  0.7748
 5022SOL    HW226526   4.182   2.324  13.113  0.1319 -0.3322  0.8509
 5023SOL     OW26527   3.103   0.533   9.135  0.1018 -0.5887  0.3786
 5023SOL    HW126528   3.108   0.627   9.153  1.7087 -0.3017 -1.6611
 5023SOL    HW226529   3.084   0.502   9.223 -1.1310 -1.0123 -0.0349
 5024SOL     OW26530   0.573   3.855   5.670 -0.0441 -0.4452  0.1277
 5024SOL    HW126531   0.634   3.927   5.686  0.1554 -0.2708 -1.3616
 5024SOL    HW226532   0.561   3.869   5.576 -1.6451  1.7779  0.6566
 5025SOL     OW26533   0.385   2.821  14.849  0.1788 -0.7533 -0.1046
 5025SOL    HW126534   0.354   2.801  14.761 -0.8282  0.1166  0.0501
 5025SOL    HW226535   0.455   2.885  14.833 -1.3621  1.0522  0.2981
 5026SOL     OW26536   4.486   3.556  12.072 -0.0162  0.1767 -0.0019
 5026SOL    HW126537   4.575   3.562  12.036  0.4505  0.8493  1.2297
 5026SOL    HW226538   4.458   3.465  12.074  0.8770 -0.0880  0.7692
 5027SOL     OW26539   1.056   2.722   5.395  0.0622 -0.2161 -0.1593
 5027SOL    HW126540   1.094   2.708   5.482 -0.9347  0.3550  0.3705
 5027SOL    HW226541   0.983   2.780   5.417  0.2032  0.2273 -0.8960
 5028SOL     OW26542   4.329   2.648   3.031  0.0033  0.4205 -0.8459
 5028SOL    HW126543   4.266   2.609   3.091  0.9089  0.9427  0.4363
 5028SOL    HW226544   4.271   2.693   2.969 -1.4269 -1.2484 -0.7177
 5029SOL     OW26545   3.686   2.690  10.271  0.5378  0.3859  0.2351
 5029SOL    HW126546   3.636   2.732  10.201 -0.6661 -0.5474  0.5346
 5029SOL    HW226547   3.755   2.643  10.224  1.0819 -1.7026  3.1419
 5030SOL     OW26548   4.116   1.125   9.371 -0.0164 -0.5304 -0.5597
 5030SOL    HW126549   4.062   1.079   9.306  1.1636 -1.3048 -0.9890
 5030SOL    HW226550   4.130   1.213   9.338 -1.3197 -0.6994 -1.5686
 5031SOL     OW26551   0.385   2.209   4.566  0.4886  0.0904  0.7860
 5031SOL    HW126552   0.351   2.263   4.637 -1.2990 -0.1243  0.0823
 5031SOL    HW226553   0.304   2.163   4.546  2.5519 -2.1610 -2.4029
 5032SOL     OW26554   0.151   1.625   8.815  0.4811  0.1473 -0.4071
 5032SOL    HW126555   0.200   1.632   8.897 -2.4874 -0.8506  1.4567
 5032SOL    HW226556   0.211   1.662   8.751  1.3949  2.1179  1.5695
 5033SOL     OW26557   2.680   3.629  10.128 -0.2455  0.0882 -0.1531
 5033SOL    HW126558   2.712   3.667  10.047  1.5300  1.2018  1.0680
 5033SOL    HW226559   2.727   3.547  10.140  0.7166  0.5920 -0.5250
 5034SOL     OW26560   3.164   4.228   6.510 -0.7003  0.0065  0.0534
 5034SOL    HW126561   3.074   4.225   6.541 -0.7335 -0.4435 -0.0889
 5034SOL    HW226562   3.183   4.151   6.563 -0.0687  1.7518  2.3722
 5035SOL     OW26563   3.210   1.211  11.983  0.1086  0.2809  0.4974
 5035SOL    HW126564   3.180   1.140  11.926 -2.6488  2.6750 -1.0857
 5035SOL    HW226565   3.151   1.196  12.057  0.2029  1.4831  0.8223
 5036SOL     OW26566   0.063   3.440  12.275  0.4235  0.7218 -0.2158
 5036SOL    HW126567   0.022   3.357  12.299  0.1952  1.1102  0.7564
 5036SOL    HW226568   4.711   3.494  12.302 -1.3578 -0.9979 -1.7163
 5037SOL     OW26569   3.687   1.356   4.923 -0.2440 -0.0502 -0.0189
 5037SOL    HW126570   3.767   1.369   4.972  0.9188  0.5076 -2.0582
 5037SOL    HW226571   3.632   1.334   4.998  1.3636  0.5906  1.3195
 5038SOL     OW26572   0.548   3.929  16.148  0.3899 -0.0375 -0.8635
 5038SOL    HW126573   0.500   3.965  16.074 -1.3141  0.3029  0.4074
 5038SOL    HW226574   0.577   3.842  16.121 -0.2403 -0.7327  0.6619
 5039SOL     OW26575   4.222   3.717   3.028  0.5996 -0.3530  0.4170
 5039SOL    HW126576   4.213   3.732   3.122 -1.1412  1.5527 -0.0672
 5039SOL    HW226577   4.317   3.707   3.019  0.7263 -0.5215  1.9465
 5040SOL     OW26578   0.782   3.901   8.881 -0.6387  0.1452 -0.2293
 5040SOL    HW126579   0.745   3.915   8.794 -1.4078  0.1990  0.1058
 5040SOL    HW226580   0.874   3.915   8.859 -0.3801  0.4839  1.0653
 5041SOL     OW26581   0.372   2.492   4.287 -0.3398  0.1187 -0.5795
 5041SOL    HW126582   0.412   2.405   4.294 -1.4162 -0.1957  1.6728
 5041SOL    HW226583   0.312   2.479   4.214  0.8506 -0.4177 -1.4638
 5042SOL     OW26584   4.572   3.137   7.126  0.0103  0.5294  0.2776
 5042SOL    HW126585   4.646   3.137   7.187  1.0112  2.5498 -0.9331
 5042SOL    HW226586   4.553   3.229   7.109 -0.2007  0.0299 -2.2497
 5043SOL     OW26587   3.041   1.748   7.094 -0.0217 -0.3126 -0.4161
 5043SOL    HW126588   3.107   1.787   7.151  0.1986  0.0490 -0.9240
 5043SOL    HW226589   3.021   1.812   7.026 -0.6466 -0.3674 -0.2873
 5044SOL     OW26590   2.624   0.461   8.290  0.4993 -0.2372 -0.1865
 5044SOL    HW126591   2.575   0.496   8.216  1.1195  0.0803 -0.4526
 5044SOL    HW226592   2.581   0.377   8.307 -2.0270  0.5943 -2.6969
 5045SOL     OW26593   3.820   3.867  11.266 -0.9763  0.1150  0.0168
 5045SOL    HW126594   3.762   3.797  11.236 -1.8737  1.0782 -0.4987
 5045SOL    HW226595   3.778   3.884  11.350  1.8784  3.5708  0.7299
 5046SOL     OW26596   2.348   4.341  10.083 -0.2368 -0.0293  0.4731
 5046SOL    HW126597   2.367   4.404  10.153 -1.9051  1.1240 -0.1109
 5046SOL    HW226598   2.431   4.294  10.072  0.3645  1.1395 -0.0029
 5047SOL     OW26599   0.117   4.487  17.172  0.6161 -0.4158  0.0637
 5047SOL    HW126600   0.138   4.562  17.117  2.4665 -1.2280 -0.3176
 5047SOL    HW226601   0.176   4.500  17.246  0.4225 -0.8660  0.2961
 5048SOL     OW26602   0.819   1.160   7.571 -0.4584  0.1030 -0.0850
 5048SOL    HW126603   0.887   1.225   7.585 -0.7968  0.2836  0.7259
 5048SOL    HW226604   0.747   1.209   7.532  1.0190 -0.4555 -3.5735
 5049SOL     OW26605   0.905   4.285   3.159  0.1463 -0.2507  0.5601
 5049SOL    HW126606   0.970   4.354   3.174 -0.5572  0.9155 -1.8331
 5049SOL    HW226607   0.944   4.212   3.111  1.4633 -0.6056  2.1579
 5050SOL     OW26608   1.846   1.107   5.229  0.3550  0.9606 -0.0425
 5050SOL    HW126609   1.931   1.116   5.186  1.0339 -1.7454  0.7421
 5050SOL    HW226610   1.818   1.023   5.194  0.3318  0.6456  0.7320
 5051SOL     OW26611   0.322   4.485   1.381 -0.5155  0.1899  0.6223
 5051SOL    HW126612   0.369   4.459   1.302 -1.2857 -1.5237  0.7257
 5051SOL    HW226613   0.337   4.579   1.388 -0.0609  0.2567 -1.1809
 5052SOL     OW26614   4.268   0.231   4.897  0.3812 -0.0997 -0.5202
 5052SOL    HW126615   4.266   0.315   4.851  3.4882  0.1109 -0.2546
 5052SOL    HW226616   4.197   0.236   4.962  0.0355 -1.6619 -0.7634
 5053SOL     OW26617   3.611   4.525   2.232  0.1806  0.0305 -0.0287
 5053SOL    HW126618   3.703   4.546   2.249  0.2801 -1.3763  1.1531
 5053SOL    HW226619   3.570   4.604   2.196  0.9654  0.1759 -0.6184
 5054SOL     OW26620   0.538   4.081   8.254 -0.8815 -0.3576  0.7390
 5054SOL    HW126621   0.630   4.099   8.273 -0.5157 -1.8522  0.3549
 5054SOL    HW226622   0.551   4.020   8.181  0.3931 -0.6194  1.1954
 5055SOL     OW26623   4.407   2.450   2.837  0.1146  0.2208  0.1053
 5055SOL    HW126624   4.468   2.507   2.789 -1.0189 -0.0867 -1.6923
 5055SOL    HW226625   4.374   2.515   2.899 -0.8584 -0.1121 -0.0686
 5056SOL     OW26626   4.177   2.689   9.058  0.4712  0.0534  0.2829
 5056SOL    HW126627   4.084   2.690   9.080  0.6108 -1.4102  0.9997
 5056SOL    HW226628   4.186   2.722   8.969 -1.8652 -3.4734 -1.2596
 5057SOL     OW26629   1.932   0.415   2.775  0.0216  0.1609 -0.3791
 5057SOL    HW126630   1.837   0.405   2.774  0.0411  0.0217 -1.1016
 5057SOL    HW226631   1.958   0.334   2.732 -0.4093  0.1941 -0.7024
 5058SOL     OW26632   2.803   2.821   9.281 -0.6481  0.1883 -0.5527
 5058SOL    HW126633   2.888   2.837   9.321 -1.8405  2.0750  1.2513
 5058SOL    HW226634   2.826   2.824   9.188  1.4920  4.9122  0.1403
 5059SOL     OW26635   3.873   3.257   1.519  0.4400 -0.3963 -0.1061
 5059SOL    HW126636   3.894   3.231   1.609 -0.0342  0.8463  0.3706
 5059SOL    HW226637   3.962   3.282   1.496  0.4280 -0.7448 -0.5182
 5060SOL     OW26638   1.979   3.563  11.500  0.4112  0.1224  0.0318
 5060SOL    HW126639   2.055   3.508  11.516 -0.2282 -0.4562  1.0887
 5060SOL    HW226640   2.025   3.643  11.526  1.0194 -0.2600  0.1357
 5061SOL     OW26641   0.062   2.984   5.337 -0.1613  0.3532 -0.8850
 5061SOL    HW126642   0.071   3.079   5.343 -0.3787  0.1916  2.2585
 5061SOL    HW226643   0.020   2.961   5.420 -1.7180 -0.1919 -1.8255
 5062SOL     OW26644   0.177   0.617  17.627  0.0956  0.7739 -0.2819
 5062SOL    HW126645   0.111   0.688  17.625 -0.4058  0.3782  1.7114
 5062SOL    HW226646   0.136   0.562  17.561 -1.8555  1.6022  0.1973
 5063SOL     OW26647   3.257   2.786   3.642 -0.4736  0.0505 -0.3958
 5063SOL    HW126648   3.237   2.854   3.577 -1.0420 -0.3813 -0.6712
 5063SOL    HW226649   3.167   2.781   3.674 -0.9276 -0.8077 -1.8249
 5064SOL     OW26650   1.837   0.790   9.221 -0.1534  0.7071 -0.5590
 5064SOL    HW126651   1.853   0.723   9.154 -1.1645 -0.5840  0.4898
 5064SOL    HW226652   1.756   0.753   9.255  0.2536  1.8190  1.6016
 5065SOL     OW26653   0.548   4.707   3.350  0.3121  0.5700  0.3846
 5065SOL    HW126654   0.515   4.625   3.312  0.0610  1.4512 -1.3090
 5065SOL    HW226655   0.476   0.047   3.349  0.5248  0.8192  1.5545
 5066SOL     OW26656   3.152   0.233  10.549  0.2971 -0.4345  0.0615
 5066SOL    HW126657   3.120   0.174  10.481 -1.4956  3.0782 -2.1121
 5066SOL    HW226658   3.134   0.178  10.625 -0.6563  0.5684  0.5677
 5067SOL     OW26659   4.339   3.883   7.910 -0.1681  0.2493 -0.1421
 5067SOL    HW126660   4.392   3.923   7.979 -0.6991  1.8969 -0.6889
 5067SOL    HW226661   4.281   3.826   7.960 -1.4019  0.9470 -0.7570
 5068SOL     OW26662   2.122   4.533  14.603 -0.0287 -0.1864  0.1843
 5068SOL    HW126663   2.192   4.492  14.654  1.4127  1.0494 -0.8180
 5068SOL    HW226664   2.163   4.561  14.522  0.9405 -0.9689  0.3907
 5069SOL     OW26665   3.796   3.952  17.413 -0.2554  0.5165 -0.2743
 5069SOL    HW126666   3.869   3.928  17.470  1.3295 -1.4182 -3.1277
 5069SOL    HW226667   3.723   3.913  17.461  1.2816  0.9025  2.3219
 5070SOL     OW26668   0.620   4.344  12.298 -0.7553 -0.0971  0.3733
 5070SOL    HW126669   0.688   4.343  12.366  0.3898 -2.0097 -0.8142
 5070SOL    HW226670   0.666   4.334  12.215 -1.2023  0.2971  0.0795
 5071SOL     OW26671   0.049   0.723   3.353 -0.0819 -0.4064 -0.5101
 5071SOL    HW126672   0.061   0.802   3.301  0.7492  1.0846  1.9655
 5071SOL    HW226673   0.118   0.734   3.418 -0.6773 -1.0989  0.2290
 5072SOL     OW26674   0.340   4.097   4.436 -0.5595 -0.0691  0.8805
 5072SOL    HW126675   0.324   4.012   4.395  1.1210 -0.0652  0.2128
 5072SOL    HW226676   0.387   4.073   4.516 -0.8711  2.2167  1.7452
 5073SOL     OW26677   1.646   2.627   3.787 -0.1402  0.1704 -0.3964
 5073SOL    HW126678   1.686   2.677   3.858  0.0645 -2.8847  1.6471
 5073SOL    HW226679   1.564   2.590   3.820 -0.3193  0.7047 -0.2415
 5074SOL     OW26680   2.163   0.471   9.172 -0.3857 -0.0770 -0.2940
 5074SOL    HW126681   2.104   0.477   9.247  2.9372  1.2512  2.1963
 5074SOL    HW226682   2.166   0.377   9.154  0.6350 -0.2618  0.8376
 5075SOL     OW26683   1.019   3.275   1.119 -0.8499  0.2371 -0.2082
 5075SOL    HW126684   0.938   3.324   1.113 -0.9256 -0.2960 -3.6381
 5075SOL    HW226685   1.087   3.336   1.091 -1.4879  0.9800 -0.1094
 5076SOL     OW26686   4.083   2.266  11.751 -0.0240  0.3042 -0.0428
 5076SOL    HW126687   4.094   2.197  11.686  0.1954  0.1084  0.2049
 5076SOL    HW226688   4.129   2.230  11.826  0.2541 -1.2888 -0.9798
 5077SOL     OW26689   0.038   1.420   8.282 -0.3192  0.2310 -0.0964
 5077SOL    HW126690   4.667   1.409   8.295  0.1905 -1.5375  2.0486
 5077SOL    HW226691   0.057   1.360   8.210 -0.7211 -0.7028  0.5805
 5078SOL     OW26692   0.330   2.052   8.052  0.5579  0.2453 -0.0289
 5078SOL    HW126693   0.276   2.101   7.990 -1.8186 -2.0130  0.2496
 5078SOL    HW226694   0.302   1.969   8.013  2.0463 -1.4556  2.5601
 5079SOL     OW26695   4.401   4.715   4.202 -0.3115 -0.0589 -0.0376
 5079SOL    HW126696   4.312   0.013   4.173 -0.2796 -1.5538 -1.2470
 5079SOL    HW226697   4.418   4.653   4.131 -0.4931  0.1126 -0.2289
 5080SOL     OW26698   2.280   2.105   3.842  0.2438 -0.2748 -0.1477
 5080SOL    HW126699   2.221   2.101   3.767  0.0960 -1.4407  0.0378
 5080SOL    HW226700   2.218   2.086   3.913 -0.9138  1.4902 -0.6677
 5081SOL     OW26701   4.174   2.847  11.056 -0.6671  0.0697  0.3792
 5081SOL    HW126702   4.241   2.865  10.989 -0.7744 -0.2608  0.1847
 5081SOL    HW226703   4.165   2.752  11.052  0.7597 -0.0446 -0.4767
 5082SOL     OW26704   2.404   2.764   5.765  0.6465 -0.2533 -0.5080
 5082SOL    HW126705   2.372   2.674   5.755 -2.8542  1.1131 -1.5969
 5082SOL    HW226706   2.335   2.782   5.828  0.9272  1.3690 -0.6645
 5083SOL     OW26707   3.381   1.086   5.791 -0.1301 -0.1394  0.2474
 5083SOL    HW126708   3.311   1.029   5.760 -0.2295  0.7825 -1.2167
 5083SOL    HW226709   3.426   1.028   5.851  0.4842  1.0111  0.9046
 5084SOL     OW26710   3.415   0.208   3.761 -0.7449  0.3398  0.2543
 5084SOL    HW126711   3.500   0.181   3.726 -0.8643  0.1747  0.0898
 5084SOL    HW226712   3.357   0.151   3.710 -1.4829 -0.0884  1.5776
 5085SOL     OW26713   2.165   2.573   6.221  0.3361  0.4135 -0.3579
 5085SOL    HW126714   2.134   2.544   6.136  0.1205  0.4896 -0.3071
 5085SOL    HW226715   2.140   2.666   6.226  0.1165  0.4916 -2.8103
 5086SOL     OW26716   1.544   2.293  13.481 -0.1267 -0.1925 -0.5503
 5086SOL    HW126717   1.596   2.233  13.535  2.2116  1.7185 -0.6655
 5086SOL    HW226718   1.573   2.262  13.395  0.5826  0.0267 -0.3954
 5087SOL     OW26719   0.618   3.659  17.126 -0.7132 -0.3274  0.0697
 5087SOL    HW126720   0.713   3.658  17.139 -0.7404 -3.0516  0.1455
 5087SOL    HW226721   0.583   3.677  17.213  1.1223 -0.9567  0.9418
 5088SOL     OW26722   0.832   4.136  17.488 -0.2023 -0.2481 -0.1282
 5088SOL    HW126723   0.780   4.173  17.417 -0.1255  2.2921  1.1466
 5088SOL    HW226724   0.793   4.168  17.569  1.2374 -0.6839  0.7480
 5089SOL     OW26725   4.227   2.078   6.507  0.0295  0.0501 -0.5819
 5089SOL    HW126726   4.314   2.061   6.542 -0.4190  1.9185  1.4185
 5089SOL    HW226727   4.250   2.107   6.418  2.0670 -0.6966 -0.2942
 5090SOL     OW26728   1.750   2.171   3.488 -0.2637 -0.2378 -0.0926
 5090SOL    HW126729   1.697   2.140   3.415 -1.9263 -1.2884  1.5338
 5090SOL    HW226730   1.820   2.231   3.463  0.1138 -1.1797 -1.2911
 5091SOL     OW26731   2.611   0.242   1.093  0.2322  0.3780  0.3056
 5091SOL    HW126732   2.584   0.152   1.108  0.2362  0.3790  0.3193
 5091SOL    HW226733   2.527   0.282   1.114 -0.4861 -0.7000 -0.5814
 5092SOL     OW26734   3.648   0.595   7.305 -0.4058  0.9594 -0.3500
 5092SOL    HW126735   3.581   0.663   7.313 -1.1935  0.0489  0.7948
 5092SOL    HW226736   3.719   0.650   7.272  0.7080 -0.4194 -0.2716
 5093SOL     OW26737   2.040   0.523   4.361 -0.0915  0.6594 -0.2343
 5093SOL    HW126738   1.958   0.567   4.382  0.7887  2.5820 -0.7413
 5093SOL    HW226739   2.103   0.595   4.357 -0.2136  0.7482 -0.6110
 5094SOL     OW26740   2.545   0.660   6.881  0.1738 -0.6361  0.0593
 5094SOL    HW126741   2.614   0.627   6.824 -0.8458 -0.0218 -1.5402
 5094SOL    HW226742   2.602   0.714   6.936 -0.6130  2.3210 -2.0303
 5095SOL     OW26743   2.062   1.995  13.943  0.2432 -0.6956 -0.3643
 5095SOL    HW126744   2.052   1.919  14.001  1.2771 -0.2819  0.3590
 5095SOL    HW226745   2.069   2.065  14.008 -1.1108 -0.2465 -0.7043
 5096SOL     OW26746   2.825   1.077   5.805  0.3774  0.5098  0.3583
 5096SOL    HW126747   2.876   1.025   5.867 -2.4136 -0.2325  2.0255
 5096SOL    HW226748   2.735   1.044   5.810  0.1893  0.8681 -0.6021
 5097SOL     OW26749   1.536   0.441  13.229 -0.0197 -0.2872 -0.4287
 5097SOL    HW126750   1.543   0.412  13.320 -1.1620 -0.1706 -0.3032
 5097SOL    HW226751   1.519   0.535  13.238 -1.9851 -0.4110 -2.8923
 5098SOL     OW26752   1.263   1.944  13.253 -0.2626  0.4531 -0.3649
 5098SOL    HW126753   1.319   1.902  13.188 -0.1656 -0.8071  0.5220
 5098SOL    HW226754   1.321   1.929  13.327 -0.4312  0.5539 -0.2113
 5099SOL     OW26755   2.423   0.595   8.151  0.4294  0.3612 -0.3124
 5099SOL    HW126756   2.430   0.689   8.135 -0.4910  0.0931 -2.3887
 5099SOL    HW226757   2.435   0.576   8.058  1.0747 -0.0445 -0.1478
 5100SOL     OW26758   0.037   3.505  12.610  0.0572  0.7197  0.3178
 5100SOL    HW126759   0.127   3.536  12.596  0.1801  0.0850 -0.2916
 5100SOL    HW226760   4.713   3.540  12.535 -0.4561 -0.6811 -0.0004
 5101SOL     OW26761   0.513   2.652  17.196  0.0437  0.6759 -0.0020
 5101SOL    HW126762   0.577   2.581  17.195 -0.7504 -0.0704  0.9811
 5101SOL    HW226763   0.567   2.730  17.192  0.8243  0.0791 -1.0764
 5102SOL     OW26764   1.586   3.672   3.982 -0.3714  0.0153 -0.3684
 5102SOL    HW126765   1.624   3.590   4.012  0.8874  0.8324  0.2472
 5102SOL    HW226766   1.613   3.733   4.050  0.7594  1.6847 -2.3175
 5103SOL     OW26767   1.580   3.198   2.450 -0.2291 -0.0701  0.3917
 5103SOL    HW126768   1.492   3.163   2.464 -0.5300  0.8701  0.7963
 5103SOL    HW226769   1.603   3.132   2.384  1.4661  1.4379 -0.5244
 5104SOL     OW26770   4.271   4.266  16.107  0.3350  0.1302 -0.2977
 5104SOL    HW126771   4.337   4.317  16.060 -0.4339  0.8152 -0.6140
 5104SOL    HW226772   4.249   4.331  16.174  2.6757 -0.1050  0.7224
 5105SOL     OW26773   2.340   1.426   6.673  0.5966  0.3464 -0.3330
 5105SOL    HW126774   2.366   1.340   6.706  0.5249 -0.3863 -2.1887
 5105SOL    HW226775   2.254   1.411   6.634 -0.0393 -1.8954  1.9303
 5106SOL     OW26776   1.527   0.087   2.997 -0.3681  0.7715  0.5633
 5106SOL    HW126777   1.455   0.071   2.935  0.5746 -2.0225  0.1636
 5106SOL    HW226778   1.601   0.094   2.936 -0.7819 -1.1223 -0.1743
 5107SOL     OW26779   3.419   0.520   6.117 -0.4400  0.0875  0.6764
 5107SOL    HW126780   3.388   0.609   6.100  1.2445  0.5029 -0.2623
 5107SOL    HW226781   3.498   0.539   6.167  0.8751 -0.7215 -1.0980
 5108SOL     OW26782   2.946   1.480   6.475 -0.3489 -0.4568 -0.0224
 5108SOL    HW126783   2.867   1.467   6.422 -0.6878 -0.3814  0.4610
 5108SOL    HW226784   2.971   1.388   6.483 -0.4447 -0.2256  3.2050
 5109SOL     OW26785   1.135   2.861   1.248 -0.3210  0.2673  0.0458
 5109SOL    HW126786   1.203   2.904   1.195 -0.0768 -0.0061  0.1346
 5109SOL    HW226787   1.059   2.918   1.241 -1.3162 -1.1006 -0.2979
 5110SOL     OW26788   0.698   0.202   0.835  0.1377 -0.0222 -0.3198
 5110SOL    HW126789   0.651   0.202   0.919  0.3953  0.2076 -0.1751
 5110SOL    HW226790   0.780   0.244   0.862 -0.5499  1.9179 -1.2525
 5111SOL     OW26791   4.496   3.566   1.955  0.6320 -0.3462  0.4455
 5111SOL    HW126792   4.467   3.476   1.949 -1.4480  0.4269 -0.8227
 5111SOL    HW226793   4.440   3.614   1.895  1.6018  2.0272  1.4210
 5112SOL     OW26794   2.282   3.672   0.486  0.5222 -0.1636 -0.1234
 5112SOL    HW126795   2.321   3.756   0.463 -1.8337  0.7815 -0.6157
 5112SOL    HW226796   2.214   3.668   0.419  0.5096  1.5800 -0.2131
 5113SOL     OW26797   0.517   2.661   6.711 -0.3944 -0.0364  0.2131
 5113SOL    HW126798   0.547   2.578   6.675  1.3815  1.3192 -1.4303
 5113SOL    HW226799   0.499   2.707   6.629  0.8345 -0.4689 -0.3044
 5114SOL     OW26800   0.691   4.372  16.725  0.2714  0.0086  0.2215
 5114SOL    HW126801   0.607   4.386  16.681  0.3620 -0.2109 -0.0168
 5114SOL    HW226802   0.710   4.315  16.651  1.5375  0.8212 -0.0679
 5115SOL     OW26803   1.587   3.819  16.150  0.1506 -0.7736 -0.2754
 5115SOL    HW126804   1.500   3.785  16.132 -0.1213  0.9102 -2.2254
 5115SOL    HW226805   1.625   3.756  16.211 -0.9610 -0.4166  0.7643
 5116SOL     OW26806   4.525   1.693   6.816  0.0336  0.4568 -0.4898
 5116SOL    HW126807   4.475   1.698   6.898  0.9149  0.3345  0.0515
 5116SOL    HW226808   4.584   1.767   6.829 -0.0264  0.3573  0.3614
 5117SOL     OW26809   3.468   3.894  11.240 -0.0681 -0.1516 -0.1055
 5117SOL    HW126810   3.405   3.872  11.309  0.9516 -1.7313  0.3064
 5117SOL    HW226811   3.518   3.814  11.247  0.9957  0.4599 -0.7409
 5118SOL     OW26812   2.482   0.472   3.909 -0.8534  0.0810  0.3377
 5118SOL    HW126813   2.474   0.566   3.891  1.3661  0.4661  1.4014
 5118SOL    HW226814   2.476   0.481   4.004  3.0294  1.2143  0.4453
 5119SOL     OW26815   0.733   2.794   7.708 -0.2678  0.2680  0.5599
 5119SOL    HW126816   0.727   2.701   7.731 -1.5932  0.3167  0.3987
 5119SOL    HW226817   0.760   2.824   7.795  1.8277 -3.2365  1.0822
 5120SOL     OW26818   1.979   0.280   7.272 -0.3484  0.5011 -0.8047
 5120SOL    HW126819   2.037   0.221   7.319  0.7411  2.8102  0.7476
 5120SOL    HW226820   2.039   0.342   7.230  0.8415  0.8482  1.3888
 5121SOL     OW26821   3.220   0.053   8.372  0.1338 -0.0453 -0.0828
 5121SOL    HW126822   3.165   0.120   8.332  0.4155  0.2404  0.0064
 5121SOL    HW226823   3.253   0.096   8.450 -0.8805  0.0522  0.2849
 5122SOL     OW26824   1.733   2.344   7.770  0.2083  0.0592 -0.3634
 5122SOL    HW126825   1.806   2.310   7.822  1.0047  2.0698 -0.1671
 5122SOL    HW226826   1.776   2.331   7.686 -0.9725  0.2793 -1.0039
 5123SOL     OW26827   2.037   2.987  12.585 -0.0389  0.2014 -0.0364
 5123SOL    HW126828   2.031   2.925  12.657  1.6843  2.2567  1.8754
 5123SOL    HW226829   2.130   2.983  12.563  0.5142 -0.1961  2.3800
 5124SOL     OW26830   2.041   1.091  16.874  0.7265 -0.1434 -0.0835
 5124SOL    HW126831   2.054   1.097  16.968  0.1351 -0.4418  0.0223
 5124SOL    HW226832   2.126   1.128  16.851  0.8024 -0.7990 -0.8628
 5125SOL     OW26833   2.871   2.777  12.241  0.3695  0.5122 -0.6243
 5125SOL    HW126834   2.934   2.716  12.204 -0.3133 -0.1606 -0.6853
 5125SOL    HW226835   2.901   2.786  12.332 -2.6065 -0.4880  0.4690
 5126SOL     OW26836   0.402   0.125  13.383  0.3660  0.4611 -0.3656
 5126SOL    HW126837   0.495   0.114  13.401  0.2111  1.4664  1.1179
 5126SOL    HW226838   0.399   0.156  13.293  2.9984  1.5645 -0.0750
 5127SOL     OW26839   3.746   4.644   5.009 -0.3403  0.1609 -0.0961
 5127SOL    HW126840   3.712   0.001   5.049  1.4155  1.8805 -2.0501
 5127SOL    HW226841   3.670   4.599   4.972  0.5220  1.7914 -3.8860
 5128SOL     OW26842   2.356   2.978   8.468 -0.1368  0.0778 -0.0536
 5128SOL    HW126843   2.351   3.022   8.384 -0.7468 -0.0290 -0.0769
 5128SOL    HW226844   2.438   3.018   8.495 -0.6669  1.5494 -0.6816
 5129SOL     OW26845   2.500   4.452   8.656 -0.3373  0.2772 -0.6857
 5129SOL    HW126846   2.463   4.404   8.582  0.3142 -2.1950  0.5777
 5129SOL    HW226847   2.543   4.380   8.702 -1.3944 -0.5876 -1.0389
 5130SOL     OW26848   0.244   3.830   9.062  0.4940  0.7010 -0.1479
 5130SOL    HW126849   0.238   3.779   8.981 -0.4218 -0.3951  0.6229
 5130SOL    HW226850   0.319   3.889   9.052  2.2203 -1.4253  0.1966
 5131SOL     OW26851   4.341   4.272   6.175 -0.3664 -0.1014 -0.2428
 5131SOL    HW126852   4.378   4.334   6.112  0.7586 -1.5437 -1.0065
 5131SOL    HW226853   4.256   4.245   6.138 -0.6421 -0.0470  0.3450
 5132SOL     OW26854   4.453   1.209   6.780 -0.8645 -0.0348  0.0319
 5132SOL    HW126855   4.462   1.245   6.868 -0.0232 -2.3009  0.8805
 5132SOL    HW226856   4.449   1.293   6.734 -0.7083 -1.0965 -1.8863
 5133SOL     OW26857   2.723   1.725   0.385 -0.3635 -0.8446 -0.2536
 5133SOL    HW126858   2.795   1.666   0.359 -0.1824 -0.6327 -0.2306
 5133SOL    HW226859   2.710   1.689   0.472 -1.3264  1.1029  0.3818
 5134SOL     OW26860   0.203   1.445   6.271 -0.3048 -0.2039 -0.3217
 5134SOL    HW126861   0.167   1.460   6.183  2.0223 -0.1604 -1.2523
 5134SOL    HW226862   0.249   1.364   6.252 -1.6585 -0.6530 -1.7721
 5135SOL     OW26863   0.581   3.880  13.228 -0.2944  0.0671 -0.8264
 5135SOL    HW126864   0.492   3.860  13.199  0.5930 -0.5257 -3.1457
 5135SOL    HW226865   0.587   3.825  13.306 -1.9475 -1.6464 -1.9183
 5136SOL     OW26866   2.877   3.093  17.686  0.2957  0.0452  0.2603
 5136SOL    HW126867   2.951   3.143  17.651  0.7861 -0.3715  0.7071
 5136SOL    HW226868   2.826   3.098  17.605 -0.1612  0.3802  0.5682
 5137SOL     OW26869   0.472   2.618   8.266 -0.1775  0.0475  0.1772
 5137SOL    HW126870   0.399   2.678   8.249  0.9494  0.8315 -1.9946
 5137SOL    HW226871   0.493   2.643   8.356 -1.0146 -1.1480  0.6964
 5138SOL     OW26872   4.319   3.397   6.929 -0.3413 -0.2031  0.3749
 5138SOL    HW126873   4.249   3.446   6.885  1.8284  2.4368 -0.1244
 5138SOL    HW226874   4.331   3.327   6.864 -1.6300 -0.3407  0.2942
 5139SOL     OW26875   1.258   1.755   2.168 -0.2825 -0.2596 -0.2158
 5139SOL    HW126876   1.325   1.823   2.172  1.5354 -2.0552 -0.3508
 5139SOL    HW226877   1.198   1.795   2.231 -1.8581 -0.2271 -1.7277
 5140SOL     OW26878   0.400   2.707   7.939 -0.0776  0.0760 -0.0725
 5140SOL    HW126879   0.398   2.746   7.851 -1.2788  2.0866  0.8449
 5140SOL    HW226880   0.412   2.783   7.996 -0.1078  1.0010 -1.2986
 5141SOL     OW26881   1.160   3.584   0.574 -0.0772 -0.5837 -0.2532
 5141SOL    HW126882   1.113   3.552   0.497  0.4140  1.8471 -1.5705
 5141SOL    HW226883   1.245   3.618   0.545  0.2399 -0.4664  0.7865
 5142SOL     OW26884   2.276   0.837   2.027  0.4117 -0.1346  0.7313
 5142SOL    HW126885   2.354   0.885   2.055 -0.1301  1.6122 -0.8312
 5142SOL    HW226886   2.320   0.760   1.991  2.5456  1.1691  0.5583
 5143SOL     OW26887   2.128   4.198   5.146 -0.3996  0.6273 -0.1052
 5143SOL    HW126888   2.203   4.139   5.145  0.7774  2.1313 -1.2174
 5143SOL    HW226889   2.089   4.185   5.059  1.3114  0.5439 -0.8757
 5144SOL     OW26890   3.218   2.391   7.540 -0.3648  0.7425  0.1639
 5144SOL    HW126891   3.228   2.467   7.483  4.1282  0.5807  0.7249
 5144SOL    HW226892   3.125   2.397   7.559 -0.5461  2.4617 -1.3478
 5145SOL     OW26893   2.271   2.495   5.631  0.0835  0.1772  0.4950
 5145SOL    HW126894   2.336   2.503   5.561 -0.4596  0.9938  0.0867
 5145SOL    HW226895   2.193   2.506   5.577 -1.1132 -1.3521  1.9499
 5146SOL     OW26896   1.222   1.814   7.619 -0.0584 -0.3249 -0.4119
 5146SOL    HW126897   1.261   1.873   7.556 -1.0598  1.7104  0.8806
 5146SOL    HW226898   1.265   1.820   7.704 -1.0006 -1.4934  0.1699
 5147SOL     OW26899   3.428   2.649   5.252  0.2632 -0.5917 -0.6786
 5147SOL    HW126900   3.354   2.600   5.288 -2.0148  3.0064 -0.4659
 5147SOL    HW226901   3.494   2.581   5.263  0.1079 -0.5675  0.4650
 5148SOL     OW26902   2.733   3.397   6.119 -0.2327  0.2043  0.3738
 5148SOL    HW126903   2.774   3.316   6.089  2.6384  2.6672 -2.2238
 5148SOL    HW226904   2.806   3.458   6.123 -1.6665  1.9271  0.6395
 5149SOL     OW26905   1.371   0.452   1.124 -0.4096 -0.0037  0.1897
 5149SOL    HW126906   1.454   0.491   1.151  0.5961 -2.7029  0.9100
 5149SOL    HW226907   1.351   0.523   1.063  1.1205  1.1904  1.0865
 5150SOL     OW26908   3.630   1.149   2.244 -0.3231 -0.0477  0.1630
 5150SOL    HW126909   3.690   1.081   2.276 -0.6752 -0.2096  0.4819
 5150SOL    HW226910   3.609   1.202   2.321 -1.6056 -1.1943  0.6131
 5151SOL     OW26911   2.519   3.369   6.898  0.2472  0.5068  0.0370
 5151SOL    HW126912   2.610   3.398   6.905  0.1797  0.5398  0.7660
 5151SOL    HW226913   2.476   3.439   6.947 -1.5654 -1.2829  0.9968
 5152SOL     OW26914   3.316   1.565   9.077  0.5213 -0.3024 -0.3478
 5152SOL    HW126915   3.293   1.518   9.156 -0.7990  1.5694  0.3839
 5152SOL    HW226916   3.260   1.514   9.018  0.1330 -1.3412  0.9503
 5153SOL     OW26917   4.663   0.246   4.136  0.2022 -0.1489 -0.0355
 5153SOL    HW126918   4.677   0.189   4.211 -0.6559 -1.5132 -0.9174
 5153SOL    HW226919   0.030   0.278   4.134 -0.3702  1.4823  0.0939
 5154SOL     OW26920   2.787   3.137  16.533  0.1086  0.2465 -0.3687
 5154SOL    HW126921   2.882   3.125  16.525  0.1446 -1.4796  2.3304
 5154SOL    HW226922   2.785   3.219  16.582 -0.1172 -1.2499  2.1387
 5155SOL     OW26923   4.197   3.360   7.212  0.1281 -0.6104 -0.6743
 5155SOL    HW126924   4.265   3.357   7.144  1.0025  0.6984  0.1374
 5155SOL    HW226925   4.237   3.426   7.269 -1.5461 -0.1292 -0.0472
 5156SOL     OW26926   4.249   4.044   4.809 -0.5767  0.7146 -0.2611
 5156SOL    HW126927   4.321   3.984   4.791 -1.3237 -0.4480  0.5980
 5156SOL    HW226928   4.274   4.075   4.896 -0.3084 -1.0756  0.2984
 5157SOL     OW26929   2.555   4.064   2.282 -0.3777 -0.0507 -0.1282
 5157SOL    HW126930   2.551   4.073   2.377 -1.2115 -0.6091 -0.1076
 5157SOL    HW226931   2.649   4.065   2.265  0.3357 -1.7140  3.7411
 5158SOL     OW26932   4.479   4.555   6.957  0.3593  0.1663  0.6073
 5158SOL    HW126933   4.463   4.494   6.885  2.0766  1.0003 -0.4812
 5158SOL    HW226934   4.562   4.525   6.996  0.2221  0.2670  0.9769
 5159SOL     OW26935   0.745   1.119   6.044 -0.1505 -0.3332 -0.2634
 5159SOL    HW126936   0.705   1.039   6.010 -1.5542  0.0358  0.5239
 5159SOL    HW226937   0.692   1.137   6.122 -1.3819 -0.9122 -0.9751
 5160SOL     OW26938   2.563   2.407   6.759  0.7683  0.2754  0.6418
 5160SOL    HW126939   2.649   2.365   6.760  0.4067 -0.4898 -0.8253
 5160SOL    HW226940   2.512   2.354   6.698  1.8300  2.0789 -1.8030
 5161SOL     OW26941   1.850   4.087   1.983 -0.6478  0.4219  0.9232
 5161SOL    HW126942   1.874   4.062   1.894 -1.6776 -2.6442  1.5140
 5161SOL    HW226943   1.909   4.160   2.000 -1.5699  1.0288  1.5261
 5162SOL     OW26944   1.608   3.329   2.906  0.2732 -0.0838  0.4296
 5162SOL    HW126945   1.635   3.421   2.910  1.1040 -0.3399  0.6785
 5162SOL    HW226946   1.657   3.300   2.829 -0.0233 -0.7397  0.4873
 5163SOL     OW26947   3.345   4.594   0.275  0.8407 -0.6094  0.0467
 5163SOL    HW126948   3.301   4.624   0.355 -0.0143 -1.5474 -0.0712
 5163SOL    HW226949   3.399   4.672   0.261 -1.6355  0.6922 -2.2620
 5164SOL     OW26950   1.358   1.447   7.711  0.4551  0.6829  0.3534
 5164SOL    HW126951   1.375   1.429   7.618 -0.2060  0.6910  0.2324
 5164SOL    HW226952   1.380   1.362   7.749 -0.6565 -0.3647 -1.3574
 5165SOL     OW26953   1.287   1.622  14.449 -0.6168  0.2894 -0.2100
 5165SOL    HW126954   1.292   1.526  14.440  0.1066  0.3352 -0.2863
 5165SOL    HW226955   1.192   1.629  14.443 -0.8065 -1.0375  1.2465
 5166SOL     OW26956   1.817   2.748  12.939 -0.3711 -0.1178 -0.3057
 5166SOL    HW126957   1.752   2.726  12.872 -0.0123 -2.7488  0.2209
 5166SOL    HW226958   1.836   2.839  12.917  2.6366 -0.9087 -0.9544
 5167SOL     OW26959   2.696   3.685   4.404 -0.3693 -0.1572  0.3410
 5167SOL    HW126960   2.744   3.667   4.485  2.0726  0.5063 -0.9433
 5167SOL    HW226961   2.621   3.629   4.423 -0.3286 -0.2515  0.2240
 5168SOL     OW26962   0.904   3.465   2.098  0.3233  0.2087  0.4281
 5168SOL    HW126963   0.904   3.551   2.057 -1.9579  0.4494  0.9398
 5168SOL    HW226964   0.911   3.405   2.023 -0.7935  0.7403 -0.1122
 5169SOL     OW26965   2.195   4.219   6.483  0.4024  0.2674  0.6335
 5169SOL    HW126966   2.281   4.253   6.458 -0.0842 -0.8392 -2.6182
 5169SOL    HW226967   2.139   4.293   6.506  0.5417  0.7632 -0.6324
 5170SOL     OW26968   0.736   0.606  10.637  0.3242 -0.5909 -0.2860
 5170SOL    HW126969   0.683   0.557  10.699  2.7959 -2.5390  0.2818
 5170SOL    HW226970   0.682   0.685  10.632 -0.3367 -1.0150  0.1126
 5171SOL     OW26971   1.709   4.454   6.046  0.4706  0.1304  0.0315
 5171SOL    HW126972   1.642   4.423   5.985 -2.5921  2.7368  2.0895
 5171SOL    HW226973   1.776   4.386   6.033  1.5573  1.7151 -2.5590
 5172SOL     OW26974   3.068   2.663   3.258  0.7704 -0.5242  0.3794
 5172SOL    HW126975   3.155   2.640   3.224 -0.2812 -3.5543 -0.2471
 5172SOL    HW226976   3.108   2.719   3.324 -0.2623 -0.4863  0.9793
 5173SOL     OW26977   4.551   2.793   6.112 -0.0573 -0.6551  0.4871
 5173SOL    HW126978   4.584   2.737   6.042  2.0450  1.1616  0.0261
 5173SOL    HW226979   4.609   2.766   6.184  0.7646  0.7033  0.3294
 5174SOL     OW26980   3.322   2.936   6.267 -0.1297 -0.1320 -0.8186
 5174SOL    HW126981   3.228   2.923   6.260 -0.4407  1.8704 -0.2728
 5174SOL    HW226982   3.331   2.981   6.351 -0.0898 -2.4016  0.3868
 5175SOL     OW26983   3.710   4.304  11.674  0.5109 -0.2062 -0.3670
 5175SOL    HW126984   3.773   4.328  11.742 -1.1225  2.4838  0.1782
 5175SOL    HW226985   3.756   4.244  11.615 -2.3342 -0.9341 -1.8761
 5176SOL     OW26986   1.348   0.915  12.039 -0.9369 -0.2328  0.2958
 5176SOL    HW126987   1.354   0.870  12.124  2.7615 -0.2902 -0.0050
 5176SOL    HW226988   1.302   0.854  11.981 -0.2926  2.0701 -2.6326
 5177SOL     OW26989   3.293   4.171  17.456  0.2534 -0.2715  0.0675
 5177SOL    HW126990   3.298   4.250  17.509 -0.7812 -0.9450  1.1817
 5177SOL    HW226991   3.283   4.211  17.369  0.1216 -0.8708 -0.1926
 5178SOL     OW26992   1.652   0.881  16.564  0.0994  0.6495  0.3615
 5178SOL    HW126993   1.726   0.914  16.615 -0.8337  0.9927  1.4748
 5178SOL    HW226994   1.668   0.935  16.486  1.3472 -0.2913 -0.0424
 5179SOL     OW26995   1.481   3.262   5.387  0.2383  0.2219 -0.3818
 5179SOL    HW126996   1.550   3.199   5.370 -1.2529 -1.2598 -0.9150
 5179SOL    HW226997   1.413   3.199   5.411  0.7512 -0.4375 -0.6537
 5180SOL     OW26998   3.971   4.038   3.939 -0.2675  0.2854 -0.2551
 5180SOL    HW126999   3.992   3.967   4.000  0.0998 -0.3264 -1.0870
 5180SOL    HW227000   3.957   4.100   4.011 -0.2920 -0.1031  0.0756
 5181SOL     OW27001   3.025   1.943   9.274  0.4625 -0.0399 -0.0482
 5181SOL    HW127002   3.043   2.037   9.275 -1.9298  0.4026  1.6504
 5181SOL    HW227003   3.103   1.903   9.235 -1.9969 -2.2993 -2.6229
 5182SOL     OW27004   3.494   4.012   1.647  0.2146 -0.3394  0.0603
 5182SOL    HW127005   3.541   3.959   1.712  0.4887  1.2872  1.1751
 5182SOL    HW227006   3.427   3.948   1.621 -2.5951  2.7013 -0.1561
 5183SOL     OW27007   2.522   4.008  11.279 -0.1399  0.1446 -0.2709
 5183SOL    HW127008   2.527   4.017  11.374  0.8206  1.2068 -0.4138
 5183SOL    HW227009   2.607   4.038  11.246 -0.0933 -1.5489 -1.6832
 5184SOL     OW27010   3.522   0.100   7.532 -0.3414 -0.2322 -0.1152
 5184SOL    HW127011   3.462   0.173   7.518  0.5647  0.7155  0.9697
 5184SOL    HW227012   3.499   0.040   7.461 -2.2504  2.6640 -1.9272
 5185SOL     OW27013   2.774   0.313   9.238 -0.2199  0.3580 -0.3205
 5185SOL    HW127014   2.844   0.249   9.245 -0.7214  0.0996  2.0829
 5185SOL    HW227015   2.712   0.270   9.296  0.6654  0.1996  0.5111
 5186SOL     OW27016   2.068   2.449   5.972  0.2393  0.6621  0.1306
 5186SOL    HW127017   1.979   2.443   6.006 -0.4817 -0.7509 -2.0495
 5186SOL    HW227018   2.058   2.380   5.907 -0.1999 -1.6058  2.5864
 5187SOL     OW27019   1.961   1.436   7.156 -0.1014 -0.6100  0.5096
 5187SOL    HW127020   1.961   1.452   7.062 -0.8253  0.4006  0.6849
 5187SOL    HW227021   1.993   1.345   7.154 -1.7351 -1.0743 -3.2940
 5188SOL     OW27022   2.318   3.733   4.682 -0.2524  0.3958 -0.2272
 5188SOL    HW127023   2.354   3.657   4.637 -2.4110 -1.3697  1.0174
 5188SOL    HW227024   2.224   3.717   4.689 -0.1490 -0.3780 -0.7365
 5189SOL     OW27025   1.561   4.273   7.937  0.1145  0.0150  0.3582
 5189SOL    HW127026   1.535   4.305   7.851  0.3887  1.2790  0.7552
 5189SOL    HW227027   1.474   4.267   7.976 -0.9873 -1.7473 -2.3624
 5190SOL     OW27028   3.869   1.960   7.062  0.0675 -0.3740 -0.2850
 5190SOL    HW127029   3.869   1.972   7.157  2.0131  2.2638 -0.6219
 5190SOL    HW227030   3.779   1.984   7.041  0.7942  0.9380 -1.8870
 5191SOL     OW27031   4.265   2.285   9.093  0.4018 -0.1973 -0.2545
 5191SOL    HW127032   4.345   2.233   9.101  1.4248  1.7333  2.1073
 5191SOL    HW227033   4.297   2.372   9.116  3.1744 -0.9548 -1.2657
 5192SOL     OW27034   3.911   1.662   4.504  0.3008 -0.4027 -0.0016
 5192SOL    HW127035   3.873   1.694   4.586  1.5723 -0.2089  0.5088
 5192SOL    HW227036   3.840   1.612   4.464  0.4414  1.6141 -2.7287
 5193SOL     OW27037   2.489   2.190  15.523 -0.0937  0.1266  0.1999
 5193SOL    HW127038   2.582   2.200  15.542  0.1435  2.1407 -2.1333
 5193SOL    HW227039   2.458   2.280  15.512 -2.7760 -0.4726  2.5278
 5194SOL     OW27040   2.151   1.473   3.340  0.2591  0.5020  0.2327
 5194SOL    HW127041   2.211   1.409   3.381  0.5929  1.5766  1.4089
 5194SOL    HW227042   2.190   1.560   3.345 -1.2934  1.1024  1.8851
 5195SOL     OW27043   2.800   0.612   5.227  0.3061 -0.2746  0.0926
 5195SOL    HW127044   2.761   0.552   5.291  0.4531 -0.6041 -0.1240
 5195SOL    HW227045   2.755   0.689   5.261 -0.6881 -1.3785  1.2904
 5196SOL     OW27046   3.226   1.397   6.668  0.2859  0.0386 -0.2028
 5196SOL    HW127047   3.254   1.415   6.757  1.3296  2.6307 -1.0338
 5196SOL    HW227048   3.191   1.310   6.682 -0.4164  0.5886  1.3755
 5197SOL     OW27049   3.249   1.852   9.049  0.2104 -0.2105  0.4660
 5197SOL    HW127050   3.203   1.769   9.061  0.5359 -0.6897 -1.6351
 5197SOL    HW227051   3.333   1.822   9.084  0.6809  0.7909  0.2032
 5198SOL     OW27052   4.717   0.834   5.722 -0.1049 -0.0054  0.1322
 5198SOL    HW127053   4.721   0.834   5.818 -0.6150 -4.5724  0.1450
 5198SOL    HW227054   0.053   0.904   5.696  0.9370 -1.6873 -1.9967
 5199SOL     OW27055   0.627   0.848  16.990 -0.0908  0.4052  0.5243
 5199SOL    HW127056   0.575   0.929  16.987 -0.7341 -0.0797 -1.8154
 5199SOL    HW227057   0.657   0.844  16.899  0.8497 -2.9106  0.9893
 5200SOL     OW27058   0.185   3.817   6.466  0.1375  0.0323  0.2647
 5200SOL    HW127059   0.134   3.897   6.474 -0.3718 -0.2941  0.2726
 5200SOL    HW227060   0.263   3.854   6.424  0.1327 -0.3406 -0.0746
 5201SOL     OW27061   1.671   4.511  11.002 -0.1933  0.4589 -0.2991
 5201SOL    HW127062   1.669   4.439  10.939 -0.6257  0.5600 -0.4064
 5201SOL    HW227063   1.733   4.478  11.066  0.1279 -1.5106 -1.6190
 5202SOL     OW27064   1.379   3.063   7.296  0.0228 -0.0090  0.3810
 5202SOL    HW127065   1.321   2.988   7.311  0.1052  0.3129  2.3067
 5202SOL    HW227066   1.467   3.025   7.299  0.6947  1.5535  0.6339
 5203SOL     OW27067   4.641   2.277   8.913 -0.9296 -0.3548 -0.6058
 5203SOL    HW127068   0.008   2.249   8.901 -0.2284  0.7773  2.1785
 5203SOL    HW227069   4.666   2.370   8.916 -1.7417 -0.1257 -0.8053
 5204SOL     OW27070   0.365   3.990   0.485 -0.2975 -0.1934 -0.0890
 5204SOL    HW127071   0.375   4.013   0.577  0.4215 -2.3499  0.3734
 5204SOL    HW227072   0.368   3.895   0.494  2.5311 -0.1252 -0.3229
 5205SOL     OW27073   3.721   2.093   3.594 -0.1634 -0.5244 -0.1469
 5205SOL    HW127074   3.669   2.014   3.582  0.7457 -1.2204  0.4840
 5205SOL    HW227075   3.814   2.068   3.598 -0.1661 -0.3217  1.1347
 5206SOL     OW27076   0.335   1.264   7.658 -0.3456 -0.3008 -0.5059
 5206SOL    HW127077   0.333   1.169   7.648 -1.1213 -0.2385 -0.9868
 5206SOL    HW227078   0.404   1.285   7.720 -2.5922 -3.7653  3.1153
 5207SOL     OW27079   4.201   0.918   7.287  0.6292  0.5605  0.4179
 5207SOL    HW127080   4.144   0.849   7.253  1.0039  1.6864 -2.4800
 5207SOL    HW227081   4.145   0.943   7.361 -1.1160 -3.0212  0.2849
 5208SOL     OW27082   1.288   1.631   5.839  0.0272 -0.6807  0.0153
 5208SOL    HW127083   1.258   1.588   5.759 -1.3484 -0.0072  0.1622
 5208SOL    HW227084   1.255   1.719   5.823  3.3389  0.1154 -2.4048
 5209SOL     OW27085   0.804   3.252   8.666  0.3969  0.0603 -0.0959
 5209SOL    HW127086   0.791   3.336   8.710 -1.9384 -0.0688 -0.5263
 5209SOL    HW227087   0.880   3.214   8.710 -0.3471 -2.1733 -0.7545
 5210SOL     OW27088   0.959   0.560   3.452  0.0333 -0.0971  0.2868
 5210SOL    HW127089   1.014   0.631   3.417  0.2426 -0.6253 -0.4543
 5210SOL    HW227090   1.017   0.540   3.526 -0.6091  1.2463  1.1498
 5211SOL     OW27091   2.847   0.106   0.577  0.2463 -0.7009 -0.3701
 5211SOL    HW127092   2.875   0.193   0.548 -0.3631 -0.2760  0.3233
 5211SOL    HW227093   2.787   0.086   0.505 -0.1945  0.6106 -0.3571
 5212SOL     OW27094   2.201   1.267  16.163 -0.2063  0.0410 -0.0233
 5212SOL    HW127095   2.156   1.242  16.082 -3.0251  0.5057  1.4081
 5212SOL    HW227096   2.136   1.312  16.216 -0.5329  0.6525 -0.9434
 5213SOL     OW27097   1.021   3.192   1.851 -0.2739 -0.4493 -0.2970
 5213SOL    HW127098   1.071   3.219   1.929 -0.7597  0.7851 -0.4239
 5213SOL    HW227099   0.990   3.276   1.818  0.5977  0.1086  0.2959
 5214SOL     OW27100   3.674   2.065  16.353  0.0422  0.1850  0.0340
 5214SOL    HW127101   3.639   2.079  16.266  0.4431 -0.8609 -0.2968
 5214SOL    HW227102   3.616   2.111  16.413 -2.5666 -0.2926 -2.1636
 5215SOL     OW27103   1.582   2.077   7.740 -0.5581 -0.1213 -0.5347
 5215SOL    HW127104   1.648   2.146   7.736  0.6851 -1.3959 -1.3965
 5215SOL    HW227105   1.528   2.088   7.662 -1.1071 -1.3423 -0.3173
 5216SOL     OW27106   2.843   3.202   6.469  0.2995  0.0721  0.3078
 5216SOL    HW127107   2.779   3.144   6.428 -1.4435  1.8166  0.5623
 5216SOL    HW227108   2.790   3.244   6.536 -1.0382  1.3959 -1.5630
 5217SOL     OW27109   4.145   2.589  11.056 -0.4887  0.1490 -0.1871
 5217SOL    HW127110   4.138   2.499  11.023 -2.6563  0.7647 -1.3753
 5217SOL    HW227111   4.155   2.570  11.150  0.4272 -0.5972 -0.4389
 5218SOL     OW27112   0.120   2.590  11.011  0.0521 -0.4471 -0.2819
 5218SOL    HW127113   0.106   2.498  10.990  0.1077 -0.4054 -0.5034
 5218SOL    HW227114   0.152   2.596  11.101  0.8193 -0.2429 -0.5706
 5219SOL     OW27115   0.619   3.402   5.094  0.4613 -0.2902  0.8233
 5219SOL    HW127116   0.626   3.337   5.024 -0.5453  1.4089 -0.8649
 5219SOL    HW227117   0.663   3.352   5.163  1.3432 -0.7111 -0.0361
 5220SOL     OW27118   3.096   1.909   6.476 -0.0963  0.2373 -0.1587
 5220SOL    HW127119   3.038   1.922   6.401  1.1085 -0.9224 -1.3084
 5220SOL    HW227120   3.125   1.817   6.480 -2.8853 -0.6806 -1.2148
 5221SOL     OW27121   3.148   4.446   5.078 -0.1369  0.1261 -0.5642
 5221SOL    HW127122   3.203   4.430   5.155  0.5486 -0.0363 -1.0823
 5221SOL    HW227123   3.063   4.471   5.114  0.5817 -0.0973  1.2840
 5222SOL     OW27124   4.063   1.492   5.870  0.2227 -0.6784  0.3667
 5222SOL    HW127125   4.119   1.570   5.867  1.7058 -1.8156 -1.1487
 5222SOL    HW227126   4.054   1.475   5.776  1.7367  2.2885 -0.3384
 5223SOL     OW27127   3.460   3.594   3.465 -0.2539  1.0906  0.3612
 5223SOL    HW127128   3.464   3.506   3.428 -0.4202  1.1155  0.2837
 5223SOL    HW227129   3.366   3.602   3.478 -0.4377  2.4423 -1.7011
 5224SOL     OW27130   4.062   2.059   9.340 -0.5271  0.1615  0.0876
 5224SOL    HW127131   4.111   2.101   9.411  1.9738  1.2279 -2.2596
 5224SOL    HW227132   4.015   1.990   9.386  2.2244 -0.7825  1.5392
 5225SOL     OW27133   1.071   3.406   5.144  0.1390 -0.1948 -0.1943
 5225SOL    HW127134   1.167   3.407   5.143  0.1451  0.1287  0.5160
 5225SOL    HW227135   1.034   3.432   5.060  1.5146 -0.0657 -0.7555
 5226SOL     OW27136   2.240   1.772  16.870 -0.5796 -0.2357 -0.7007
 5226SOL    HW127137   2.318   1.776  16.926 -2.0443  0.0303  1.2833
 5226SOL    HW227138   2.177   1.748  16.937  1.8031  1.7270  2.2398
 5227SOL     OW27139   1.215   0.987   3.304 -0.7354  0.1884 -0.0662
 5227SOL    HW127140   1.161   1.027   3.236  1.5680  3.4058 -0.0199
 5227SOL    HW227141   1.273   0.933   3.251  0.6291  1.7128 -0.1306
 5228SOL     OW27142   3.688   0.620  13.357 -0.0254 -0.0668 -0.1283
 5228SOL    HW127143   3.725   0.689  13.412  0.5946  1.0883 -1.9705
 5228SOL    HW227144   3.697   0.647  13.265  0.0025 -1.1609 -0.4487
 5229SOL     OW27145   2.518   1.880   4.018  0.0539 -0.3532 -0.1636
 5229SOL    HW127146   2.447   1.943   4.016 -0.4505 -0.8326  2.5368
 5229SOL    HW227147   2.547   1.892   4.109  0.3825  0.7488 -0.4201
 5230SOL     OW27148   3.110   3.921   2.309 -0.1811 -0.3961 -0.2191
 5230SOL    HW127149   3.068   3.935   2.394  1.1196 -0.3834  0.4278
 5230SOL    HW227150   3.145   4.007   2.286  0.6813 -0.6158  0.2484
 5231SOL     OW27151   4.175   1.899  16.133 -0.1119  0.2613 -0.4083
 5231SOL    HW127152   4.086   1.870  16.117  0.2997  0.8199 -3.5986
 5231SOL    HW227153   4.148   1.974  16.186 -0.5781  0.6243 -1.1745
 5232SOL     OW27154   2.982   2.992   2.702  0.4057  0.2128 -0.1469
 5232SOL    HW127155   2.981   3.033   2.616  0.6485  1.6103  0.5150
 5232SOL    HW227156   3.074   2.967   2.691  0.5019  1.1951 -1.5922
 5233SOL     OW27157   1.215   4.465   7.547 -0.1772  0.1907 -0.1160
 5233SOL    HW127158   1.257   4.479   7.633  1.6645  0.4239 -1.0481
 5233SOL    HW227159   1.209   4.370   7.541 -0.4394  0.1153  1.2021
 5234SOL     OW27160   1.809   4.673   9.892  0.0218  0.0783  0.4262
 5234SOL    HW127161   1.818   4.593   9.944 -2.4402  0.1804  0.9863
 5234SOL    HW227162   1.845   0.011   9.957  1.3069 -0.6018  0.3642
 5235SOL     OW27163   3.027   4.029   9.238 -0.4350  0.0387 -0.5548
 5235SOL    HW127164   2.995   4.032   9.148  1.0385 -0.0866 -1.0928
 5235SOL    HW227165   3.121   4.018   9.224 -0.1416  3.8188 -1.4812
 5236SOL     OW27166   3.042   3.891   1.475 -0.3170  0.4321 -0.0563
 5236SOL    HW127167   3.069   3.982   1.462  0.6451  0.1519 -0.0265
 5236SOL    HW227168   2.950   3.900   1.501  0.3206  2.1893  1.6366
 5237SOL     OW27169   2.245   1.482   3.958 -0.2335  0.1448 -0.5451
 5237SOL    HW127170   2.329   1.502   3.916  0.0563 -0.4691 -0.2611
 5237SOL    HW227171   2.258   1.388   3.965  1.5321  0.1882 -3.0222
 5238SOL     OW27172   3.640   1.243   3.538  0.6173  0.1115  0.2472
 5238SOL    HW127173   3.719   1.205   3.500  1.3382  0.3220  1.5612
 5238SOL    HW227174   3.593   1.163   3.564  0.2400 -0.7366 -3.0151
 5239SOL     OW27175   1.017   1.988   4.019 -0.0004  0.1550 -0.0380
 5239SOL    HW127176   0.951   1.922   4.040  0.1571 -0.2187 -0.7078
 5239SOL    HW227177   1.070   1.964   4.095  1.3502 -1.3950 -1.4826
 5240SOL     OW27178   1.009   2.477   0.852  0.4422 -0.2334 -0.0502
 5240SOL    HW127179   0.999   2.461   0.945  1.0652  0.2622  0.1069
 5240SOL    HW227180   1.030   2.571   0.851 -1.5744  0.2273  0.4523
 5241SOL     OW27181   3.721   1.608   2.060 -0.3281 -0.6071  0.0795
 5241SOL    HW127182   3.643   1.643   2.103 -1.5069 -2.5795 -0.4394
 5241SOL    HW227183   3.710   1.514   2.071  1.5283 -0.7616  0.6048
 5242SOL     OW27184   2.478   0.295   7.448  0.6036 -0.2390 -0.1123
 5242SOL    HW127185   2.473   0.203   7.421  1.8889 -0.9968  2.1620
 5242SOL    HW227186   2.452   0.358   7.382  1.2434  2.5839  2.3468
 5243SOL     OW27187   3.093   3.962   8.272  0.8740 -0.0348  0.2881
 5243SOL    HW127188   3.186   3.957   8.251  0.9132 -0.2119  0.5006
 5243SOL    HW227189   3.093   3.962   8.368  1.3757 -1.3869  0.2855
 5244SOL     OW27190   0.717   2.991   8.479 -0.4543  0.6374 -0.2264
 5244SOL    HW127191   0.676   3.052   8.541  0.7230 -1.1491  2.3260
 5244SOL    HW227192   0.716   3.045   8.400  2.1119 -0.7722 -1.2116
 5245SOL     OW27193   2.095   3.945  12.026  0.6393  0.8419 -0.7592
 5245SOL    HW127194   2.091   4.021  11.968  1.1681  2.9905  2.0640
 5245SOL    HW227195   2.122   3.873  11.968 -0.5720 -2.2927  2.5446
 5246SOL     OW27196   4.478   4.166   2.980 -0.0564  0.0186  0.5023
 5246SOL    HW127197   4.427   4.151   3.060  1.2233 -1.2097  1.0877
 5246SOL    HW227198   4.492   4.075   2.953  1.2147 -0.6181  3.2644
 5247SOL     OW27199   2.418   4.106   9.839  0.3590 -0.4145  0.0989
 5247SOL    HW127200   2.439   4.014   9.848  3.5141  0.1398 -1.7157
 5247SOL    HW227201   2.496   4.145   9.878 -1.4830  2.4115  0.9769
 5248SOL     OW27202   3.973   0.800   4.983  0.3581 -0.0260  0.0367
 5248SOL    HW127203   3.894   0.798   4.928  1.7397 -0.2333 -1.9293
 5248SOL    HW227204   3.993   0.708   5.000 -0.7181 -0.2565  0.0504
 5249SOL     OW27205   4.117   1.541  10.869  0.1071 -0.0393 -0.0339
 5249SOL    HW127206   4.058   1.561  10.797 -0.4911 -1.1751  0.1339
 5249SOL    HW227207   4.194   1.582  10.831 -0.0043  0.3714  0.1803
 5250SOL     OW27208   1.362   4.075   2.074 -0.2092  0.3612 -0.4106
 5250SOL    HW127209   1.450   4.037   2.085 -1.2199 -1.5151  1.1906
 5250SOL    HW227210   1.328   4.052   2.160  2.5862  0.0622  0.6331
 5251SOL     OW27211   1.095   0.794   5.395  0.1796  0.8854  0.2045
 5251SOL    HW127212   1.081   0.758   5.307 -1.6095 -0.6951  1.1488
 5251SOL    HW227213   1.139   0.726   5.446 -0.3431  0.9792  0.7771
 5252SOL     OW27214   0.697   3.638   5.197 -0.1182 -0.2598 -0.2773
 5252SOL    HW127215   0.689   3.668   5.106  0.8729  1.5405  0.2273
 5252SOL    HW227216   0.653   3.553   5.189  1.6095 -1.1402 -0.4495
 5253SOL     OW27217   2.748   1.632   4.050 -0.1220 -0.1895 -0.0563
 5253SOL    HW127218   2.761   1.722   4.020 -1.7517 -0.6652 -2.1936
 5253SOL    HW227219   2.779   1.636   4.141 -0.1332  1.0375 -0.1034
 5254SOL     OW27220   1.354   2.360  11.360  0.0338 -0.2172 -0.4637
 5254SOL    HW127221   1.419   2.340  11.293 -0.1120  3.6708 -1.7652
 5254SOL    HW227222   1.400   2.322  11.435  2.2238  0.0855 -1.6537
 5255SOL     OW27223   4.496   0.473   9.077 -0.4779 -0.2215 -0.4508
 5255SOL    HW127224   4.442   0.431   9.144 -0.7561  2.2605  0.8833
 5255SOL    HW227225   4.480   0.426   8.995  1.3589 -0.9165 -0.4184
 5256SOL     OW27226   4.429   0.959  13.611 -0.1155 -0.1025  0.1945
 5256SOL    HW127227   4.432   0.979  13.518  1.0186  0.1994  0.2937
 5256SOL    HW227228   4.463   1.047  13.627  1.1878 -0.7482  0.9666
 5257SOL     OW27229   2.774   0.494   7.128 -0.2295 -0.2709  0.8241
 5257SOL    HW127230   2.770   0.473   7.221 -0.8466 -0.5725  0.7266
 5257SOL    HW227231   2.791   0.588   7.126  0.7386 -0.4581  0.3563
 5258SOL     OW27232   1.880   0.876   5.776  0.1580 -0.8740  0.2552
 5258SOL    HW127233   1.809   0.828   5.733 -0.0425  0.7409 -1.2042
 5258SOL    HW227234   1.947   0.817   5.740  0.6514 -0.4567  0.4860
 5259SOL     OW27235   0.591   3.325  10.497  0.0342 -0.2958 -0.2513
 5259SOL    HW127236   0.574   3.263  10.568 -3.3592 -0.2574 -1.0246
 5259SOL    HW227237   0.504   3.362  10.482  0.2052  0.6970  1.2469
 5260SOL     OW27238   1.011   1.492  13.534 -0.5691 -0.2918  0.1479
 5260SOL    HW127239   0.949   1.517  13.602 -1.8883 -1.3954 -0.6647
 5260SOL    HW227240   1.062   1.573  13.529 -0.2399 -0.3612  2.4208
 5261SOL     OW27241   4.008   3.370   4.040  0.1154  0.8633 -0.7164
 5261SOL    HW127242   4.019   3.426   4.117 -1.0110  2.2645 -1.5634
 5261SOL    HW227243   3.945   3.426   3.995 -0.7056 -0.8066 -1.6335
 5262SOL     OW27244   2.613   3.746   2.006  0.3559 -0.2535 -0.0046
 5262SOL    HW127245   2.597   3.655   1.981  2.1646 -0.4284 -0.5231
 5262SOL    HW227246   2.666   3.777   1.932 -1.2629  0.9738 -0.6376
 5263SOL     OW27247   4.433   4.089   2.194 -0.1159  0.1021  0.1823
 5263SOL    HW127248   4.475   4.021   2.247  2.2129  0.5673 -1.0849
 5263SOL    HW227249   4.505   4.152   2.197 -0.7516  0.8653 -0.5319
 5264SOL     OW27250   1.641   2.774   8.420  0.1418 -0.3500 -0.6593
 5264SOL    HW127251   1.602   2.817   8.344 -1.3636  0.3677  0.5253
 5264SOL    HW227252   1.716   2.829   8.441  0.1602  0.5302 -3.0931
 5265SOL     OW27253   3.272   0.306   9.365 -0.0622  0.6280 -0.0820
 5265SOL    HW127254   3.299   0.390   9.402 -0.0085  2.0270 -3.3034
 5265SOL    HW227255   3.181   0.297   9.392  1.0894 -2.2563  2.9943
 5266SOL     OW27256   3.792   3.412  10.297  0.1879 -0.3030 -0.3414
 5266SOL    HW127257   3.733   3.480  10.263  0.9237  0.6455  0.2784
 5266SOL    HW227258   3.842   3.403  10.216  1.7980 -2.0777  0.8762
 5267SOL     OW27259   1.500   1.320   0.279  0.0101 -0.2132 -0.1725
 5267SOL    HW127260   1.439   1.324   0.353 -0.8162  0.9291 -0.9153
 5267SOL    HW227261   1.441   1.297   0.208 -1.7394  0.2789  1.1204
 5268SOL     OW27262   0.286   1.028   5.317  0.2490 -0.2218  0.1157
 5268SOL    HW127263   0.375   1.030   5.280 -1.0999 -0.3837 -3.1348
 5268SOL    HW227264   0.305   1.092   5.386 -0.3715 -1.0235  1.0238
 5269SOL     OW27265   0.102   4.188   7.699 -0.4818  0.3819 -0.4633
 5269SOL    HW127266   0.047   4.160   7.627  2.8383 -2.5927 -1.8456
 5269SOL    HW227267   0.046   4.166   7.773 -0.9497 -0.0020 -0.9365
 5270SOL     OW27268   0.324   1.123  11.354 -0.2514 -0.5686 -0.1227
 5270SOL    HW127269   0.342   1.119  11.448  1.0861 -1.6399 -0.4102
 5270SOL    HW227270   0.248   1.065  11.351  0.5262 -1.5412 -1.1856
 5271SOL     OW27271   0.412   1.147   2.765 -0.2631  0.0412 -0.1674
 5271SOL    HW127272   0.438   1.238   2.781  0.3060  0.1481 -1.7729
 5271SOL    HW227273   0.316   1.153   2.765 -0.3509 -1.5390 -0.8269
 5272SOL     OW27274   1.770   2.353  15.004  0.4033 -0.1755  0.1754
 5272SOL    HW127275   1.729   2.284  14.952 -0.2524  0.8521 -0.6704
 5272SOL    HW227276   1.825   2.393  14.936  1.2376  3.9088  3.1985
 5273SOL     OW27277   1.465   2.808   6.573  0.3798 -0.5441  0.0575
 5273SOL    HW127278   1.504   2.823   6.659  0.0046 -1.2604  0.3520
 5273SOL    HW227279   1.371   2.811   6.590  0.4580 -0.8407  0.5278
 5274SOL     OW27280   3.989   3.939   8.872 -0.0208 -0.2707  0.0868
 5274SOL    HW127281   4.014   3.904   8.786  2.5213  2.8794 -0.4485
 5274SOL    HW227282   4.074   3.929   8.914  1.0668 -0.5459 -2.1843
 5275SOL     OW27283   1.290   4.075  14.388  0.0422  0.2206 -0.4390
 5275SOL    HW127284   1.278   4.049  14.297 -1.4422  0.1327 -0.2217
 5275SOL    HW227285   1.372   4.125  14.380  1.3173 -1.5489  1.4927
 5276SOL     OW27286   0.960   3.671  14.900 -0.0550 -0.8202 -0.1343
 5276SOL    HW127287   1.054   3.691  14.904 -0.1936 -0.1862 -0.0482
 5276SOL    HW227288   0.935   3.680  14.808  1.8381  2.0711 -0.3729
 5277SOL     OW27289   1.653   3.969  14.064  0.0139  0.1853 -0.3276
 5277SOL    HW127290   1.585   3.942  14.001 -0.2681  0.4284 -0.1266
 5277SOL    HW227291   1.625   4.057  14.088 -1.0197 -0.0081 -0.8100
 5278SOL     OW27292   3.349   2.724   9.507  0.5203 -0.3246  0.4754
 5278SOL    HW127293   3.342   2.780   9.430  2.9766 -1.4166 -0.5560
 5278SOL    HW227294   3.414   2.665   9.468 -0.7178 -2.0391  0.9842
 5279SOL     OW27295   2.500   3.805   7.391  0.1172 -0.1921 -0.3857
 5279SOL    HW127296   2.476   3.845   7.307  0.6811 -0.1167 -0.5124
 5279SOL    HW227297   2.554   3.729   7.369  2.3945  1.9532 -2.3041
 5280SOL     OW27298   0.262   2.131  13.376 -0.3977  0.3197 -0.5547
 5280SOL    HW127299   0.333   2.194  13.358 -1.8872  2.4828  1.1823
 5280SOL    HW227300   0.307   2.047  13.383 -1.1547 -0.0017  0.3489
 5281SOL     OW27301   3.577   3.690   2.739  0.3251  0.0347  0.0585
 5281SOL    HW127302   3.639   3.761   2.756 -2.1458  2.6036 -1.6335
 5281SOL    HW227303   3.506   3.726   2.687  0.0781 -0.9532 -0.2864
 5282SOL     OW27304   3.516   0.760   6.541  0.6655 -0.0665 -0.6023
 5282SOL    HW127305   3.532   0.665   6.543  1.8235  0.1492  0.0045
 5282SOL    HW227306   3.510   0.790   6.451  0.8588  0.3919 -0.4582
 5283SOL     OW27307   0.015   1.906   2.542 -0.1920  0.1713  0.6774
 5283SOL    HW127308   4.702   1.837   2.487  1.5718  0.1693 -0.5090
 5283SOL    HW227309   0.107   1.909   2.516 -0.2670 -1.2929  0.2223
 5284SOL     OW27310   0.058   4.585   3.348 -0.4167 -0.1478  0.3430
 5284SOL    HW127311   0.019   4.671   3.335 -0.1540 -0.2896 -1.3217
 5284SOL    HW227312   0.068   4.553   3.259 -0.3443  0.2492  0.2129
 5285SOL     OW27313   3.676   2.100   9.683 -0.0424 -0.0090 -0.1024
 5285SOL    HW127314   3.665   2.134   9.771 -2.1043  0.0009 -0.3570
 5285SOL    HW227315   3.602   2.039   9.677  2.5992 -2.9055 -3.2387
 5286SOL     OW27316   1.166   0.738   0.451  0.0532 -0.2755  0.8703
 5286SOL    HW127317   1.244   0.791   0.439  1.1556 -2.1681 -0.4471
 5286SOL    HW227318   1.175   0.713   0.543  0.5668  1.7870  1.3727
 5287SOL     OW27319   1.581   2.537   4.440 -0.1374  0.1520 -0.5487
 5287SOL    HW127320   1.664   2.511   4.401  0.3031 -0.2165  0.6449
 5287SOL    HW227321   1.546   2.603   4.380 -1.4977 -0.3385 -0.2922
 5288SOL     OW27322   1.593   2.301   5.806 -0.4499  0.0635  0.6511
 5288SOL    HW127323   1.602   2.316   5.712 -0.9791 -1.6391  0.3269
 5288SOL    HW227324   1.583   2.389   5.841  1.2828 -0.1241  1.6278
 5289SOL     OW27325   1.311   4.483  13.132  0.2094 -0.3617 -0.2394
 5289SOL    HW127326   1.221   4.453  13.146  0.4780 -1.3235 -0.5577
 5289SOL    HW227327   1.310   4.575  13.159  0.2996 -1.1160  2.3704
 5290SOL     OW27328   0.709   4.203  17.244  0.3336  0.0520  0.1874
 5290SOL    HW127329   0.653   4.262  17.194 -1.6167 -0.5352  1.6557
 5290SOL    HW227330   0.644   4.135  17.262  0.6804 -0.4341 -0.4065
 5291SOL     OW27331   0.614   0.338  13.620  0.0922 -0.0146 -0.8226
 5291SOL    HW127332   0.521   0.363  13.620 -0.3624 -1.7043 -1.6268
 5291SOL    HW227333   0.606   0.245  13.642  1.3959  0.4286  1.4926
 5292SOL     OW27334   1.848   4.508   9.679  0.2101 -0.0005  0.4978
 5292SOL    HW127335   1.863   4.588   9.729 -2.5862 -0.3425  1.8947
 5292SOL    HW227336   1.782   4.460   9.729 -0.8746  0.5820 -0.3842
 5293SOL     OW27337   1.252   2.308   3.383  0.2724  0.3258 -0.3084
 5293SOL    HW127338   1.198   2.248   3.434  2.4030  0.2010  1.8613
 5293SOL    HW227339   1.301   2.241   3.335 -0.9125  0.1162 -1.2103
 5294SOL     OW27340   3.371   3.695   1.068  0.5114  0.4560 -0.0756
 5294SOL    HW127341   3.292   3.647   1.094  1.2053 -1.0647 -0.7906
 5294SOL    HW227342   3.359   3.787   1.093 -1.5409 -0.1013  1.0739
 5295SOL     OW27343   4.610   4.025  11.219  0.3133  0.0344 -0.2085
 5295SOL    HW127344   4.586   4.115  11.197  1.9630  0.5861  0.2047
 5295SOL    HW227345   4.624   4.036  11.314 -2.0405 -2.5367  0.4262
 5296SOL     OW27346   0.779   3.135   7.164 -0.4312  0.1764  0.0767
 5296SOL    HW127347   0.823   3.202   7.112 -0.0468  0.7266  1.1008
 5296SOL    HW227348   0.734   3.190   7.228 -1.5069 -0.4191 -0.1619
 5297SOL     OW27349   4.420   0.039  17.178  0.3124  0.0733 -0.1616
 5297SOL    HW127350   4.445   4.707  17.104 -1.9840 -2.0942  0.7086
 5297SOL    HW227351   4.424   4.699  17.250 -1.6708 -1.7476 -1.6564
 5298SOL     OW27352   3.172   1.296  17.694 -0.1051  0.3809  0.2703
 5298SOL    HW127353   3.189   1.317   0.091 -1.2218 -2.4963  1.1130
 5298SOL    HW227354   3.165   1.385  17.657 -0.9086 -0.4932 -1.6915
 5299SOL     OW27355   1.960   3.820   8.212 -0.7039 -0.2267  0.0964
 5299SOL    HW127356   1.984   3.898   8.263  1.4077  0.8141 -2.4935
 5299SOL    HW227357   1.939   3.761   8.285 -0.6921 -1.0676 -0.5825
 5300SOL     OW27358   0.338   1.997   0.383  0.0504 -0.0265 -0.1798
 5300SOL    HW127359   0.416   2.052   0.390  1.8270 -2.6475  0.5227
 5300SOL    HW227360   0.269   2.055   0.416 -0.1561  0.6531 -1.7739
 5301SOL     OW27361   1.762   0.579  10.323  0.8042 -0.1156 -0.1952
 5301SOL    HW127362   1.785   0.537  10.406  0.6764 -0.3882 -0.2979
 5301SOL    HW227363   1.828   0.542  10.265  0.5671  1.6588 -1.5793
 5302SOL     OW27364   1.992   0.547   2.523 -0.6676 -0.1476  0.6414
 5302SOL    HW127365   1.944   0.562   2.604 -2.7157  0.2684 -0.6455
 5302SOL    HW227366   2.067   0.601   2.549 -1.2970  0.6989  0.6790
 5303SOL     OW27367   1.480   0.418  10.023  0.2323 -0.0654  0.2744
 5303SOL    HW127368   1.498   0.494   9.969 -0.9257 -0.4806 -0.6835
 5303SOL    HW227369   1.535   0.353   9.979 -0.2175 -0.4578  0.2962
 5304SOL     OW27370   4.009   1.527   0.642  0.0147  0.8922 -0.7976
 5304SOL    HW127371   4.079   1.471   0.610  1.8079  1.8471  1.4294
 5304SOL    HW227372   4.021   1.600   0.582  1.0801  1.0853 -0.3617
 5305SOL     OW27373   3.387   3.250   4.992  0.3603  0.4279  0.3104
 5305SOL    HW127374   3.364   3.291   5.075  2.3287 -2.5105  2.3214
 5305SOL    HW227375   3.457   3.191   5.020  2.2741  2.2754 -0.5862
 5306SOL     OW27376   1.952   1.483   0.744  0.3410 -0.4627  0.1629
 5306SOL    HW127377   1.906   1.403   0.720 -0.4109  0.2634 -0.8465
 5306SOL    HW227378   2.024   1.476   0.681 -1.1849  0.1430 -1.6335
 5307SOL     OW27379   0.805   2.179   9.559 -0.1579 -0.6460  0.2399
 5307SOL    HW127380   0.851   2.124   9.496  0.3230  0.0760 -0.0460
 5307SOL    HW227381   0.775   2.246   9.498 -1.2609 -1.6985 -0.3807
 5308SOL     OW27382   2.348   4.368  14.617 -0.2410  0.2035 -0.2946
 5308SOL    HW127383   2.384   4.285  14.649  0.0168  0.8161  0.9775
 5308SOL    HW227384   2.378   4.356  14.527  1.4842 -0.8026  0.4088
 5309SOL     OW27385   2.731   1.989   1.807  0.1330 -0.0454  0.5146
 5309SOL    HW127386   2.782   1.990   1.726 -0.3368 -1.5514  0.1960
 5309SOL    HW227387   2.657   1.938   1.774  0.5978  0.5074 -1.3847
 5310SOL     OW27388   3.844   1.744   6.865  0.3889 -0.2028 -0.3079
 5310SOL    HW127389   3.756   1.716   6.838  0.3331 -0.7200  0.4004
 5310SOL    HW227390   3.836   1.819   6.924 -2.0579 -0.7688  0.0933
 5311SOL     OW27391   1.953   2.271   7.926 -0.2911  0.3245  0.1805
 5311SOL    HW127392   1.950   2.223   8.009 -0.7146 -0.1935 -0.1360
 5311SOL    HW227393   2.042   2.258   7.894  0.0092  1.1590  0.6804
 5312SOL     OW27394   3.750   1.646   3.256  0.2612  0.1159 -0.0533
 5312SOL    HW127395   3.728   1.737   3.237 -0.3180  0.2228  1.1847
 5312SOL    HW227396   3.773   1.663   3.347  1.1963 -2.0202  0.1125
 5313SOL     OW27397   1.747   1.653   6.775  0.0177 -0.0083  0.6848
 5313SOL    HW127398   1.743   1.719   6.844  2.1933  1.0939 -0.2249
 5313SOL    HW227399   1.763   1.701   6.693 -0.9634  0.2736  0.6570
 5314SOL     OW27400   1.441   1.351   9.896 -0.5526  0.3275  0.3710
 5314SOL    HW127401   1.401   1.437   9.888 -0.7825 -0.0488 -2.4734
 5314SOL    HW227402   1.530   1.366   9.863 -0.5696 -1.0757 -0.3318
 5315SOL     OW27403   3.506   4.385  11.363  0.0300  0.1958 -0.1614
 5315SOL    HW127404   3.563   4.314  11.333 -1.5633  0.5790 -4.0742
 5315SOL    HW227405   3.491   4.376  11.456 -0.5193  3.1275  0.0315
 5316SOL     OW27406   1.706   4.245   3.808  0.4608  0.4172 -0.2650
 5316SOL    HW127407   1.636   4.309   3.803  0.8907  0.9637  0.7281
 5316SOL    HW227408   1.655   4.165   3.801  0.2304  0.7381 -2.2682
 5317SOL     OW27409   0.572   1.132   6.245 -0.6688  0.2841  0.4316
 5317SOL    HW127410   0.522   1.092   6.316  1.9102 -0.5945  1.7329
 5317SOL    HW227411   0.501   1.162   6.189  1.2306  2.1896 -0.9633
 5318SOL     OW27412   0.982   1.738   7.921  0.1073  0.4158 -0.2353
 5318SOL    HW127413   0.891   1.759   7.902  0.4845  2.1282 -0.1506
 5318SOL    HW227414   0.989   1.657   7.871 -2.7368 -0.4029  0.6943
 5319SOL     OW27415   2.089   1.710   3.908  0.4008 -0.4822  0.0426
 5319SOL    HW127416   2.132   1.724   3.824  1.1109 -3.0551 -0.0244
 5319SOL    HW227417   2.121   1.621   3.924  1.1549  0.4071  3.4056
 5320SOL     OW27418   1.887   2.089  15.136  0.0730 -0.5233 -0.1273
 5320SOL    HW127419   1.909   2.150  15.066  1.8776 -0.7094  0.2844
 5320SOL    HW227420   1.791   2.094  15.134  0.2895  4.0879  1.3258
 5321SOL     OW27421   2.243   4.632  12.563  0.6154  0.1127  0.0273
 5321SOL    HW127422   2.246   4.619  12.469  1.2257  1.2135 -0.1060
 5321SOL    HW227423   2.206   4.720  12.574 -1.4759 -0.6704 -0.7819
 5322SOL     OW27424   3.958   3.249   3.576  1.3360  0.0976 -0.1407
 5322SOL    HW127425   4.015   3.202   3.516 -0.5900 -1.7851 -0.4905
 5322SOL    HW227426   4.013   3.325   3.596  0.6779 -0.7655  5.0197
 5323SOL     OW27427   2.353   3.911   9.065 -0.7246  0.3079  0.5601
 5323SOL    HW127428   2.301   3.904   9.145  0.7043 -1.5375  1.3339
 5323SOL    HW227429   2.363   4.007   9.063  1.2154  0.0981 -0.3414
 5324SOL     OW27430   2.168   4.049  10.898 -0.5226 -0.0133  0.3736
 5324SOL    HW127431   2.095   3.996  10.930  0.5872 -1.4582  0.4924
 5324SOL    HW227432   2.130   4.098  10.824  1.7038  2.1324  0.6447
 5325SOL     OW27433   3.847   0.926   6.909 -0.0973  0.4700 -0.7359
 5325SOL    HW127434   3.774   0.876   6.871 -1.1598  0.8261  0.8423
 5325SOL    HW227435   3.818   1.015   6.886  0.5231  0.5877 -1.0602
 5326SOL     OW27436   3.797   1.633  10.973 -0.5603 -0.0446 -0.1638
 5326SOL    HW127437   3.733   1.563  10.986 -1.2781  0.3505 -1.5636
 5326SOL    HW227438   3.833   1.608  10.888  0.8249 -2.3557  1.1131
 5327SOL     OW27439   2.065   3.974   7.574  0.0848  0.2569  0.2713
 5327SOL    HW127440   2.056   4.056   7.525  0.1917  0.2435  0.2290
 5327SOL    HW227441   2.113   3.923   7.509  1.2410 -0.5617  1.7660
 5328SOL     OW27442   0.671   3.058   4.213  0.3975 -0.0910 -0.0736
 5328SOL    HW127443   0.678   2.980   4.158  0.5239 -1.1434  1.4536
 5328SOL    HW227444   0.753   3.044   4.259  0.7267  0.3597 -0.5203
 5329SOL     OW27445   4.578   0.430   2.549  0.2750 -0.0321 -0.9326
 5329SOL    HW127446   4.509   0.371   2.521 -0.0525  0.8368 -1.9645
 5329SOL    HW227447   4.657   0.379   2.532  1.1284  1.1452 -0.5701
 5330SOL     OW27448   4.571   4.106  16.023 -0.3420  0.4363  0.0175
 5330SOL    HW127449   4.483   4.070  16.011 -0.7537  1.1356  0.9614
 5330SOL    HW227450   4.550   4.193  15.990 -0.2757  0.7885  0.8892
 5331SOL     OW27451   0.313   3.502  10.180 -0.3950 -0.1495  0.0413
 5331SOL    HW127452   0.286   3.421  10.137 -2.5103  1.2724 -1.2463
 5331SOL    HW227453   0.231   3.549  10.171  1.0507  2.7634  2.1470
 5332SOL     OW27454   1.422   3.734   2.421 -0.3098  0.0622 -0.0259
 5332SOL    HW127455   1.335   3.753   2.387 -1.2314 -0.6633  1.8898
 5332SOL    HW227456   1.423   3.642   2.448 -0.9071 -0.1051 -0.5824
 5333SOL     OW27457   3.956   2.848   4.243  0.0879 -0.0216  0.4711
 5333SOL    HW127458   3.908   2.874   4.322 -0.3251  2.0450 -0.4816
 5333SOL    HW227459   3.994   2.929   4.210 -2.3174  0.9183  0.0580
 5334SOL     OW27460   1.873   0.314   6.301  0.3562  0.1319 -0.7086
 5334SOL    HW127461   1.907   0.227   6.279  2.1728  0.2307  1.6734
 5334SOL    HW227462   1.923   0.365   6.238  1.2411  0.1130 -0.0251
 5335SOL     OW27463   0.624   4.469   7.308 -0.6862  0.8832  0.3890
 5335SOL    HW127464   0.614   4.478   7.213  2.7797  1.4117  0.0941
 5335SOL    HW227465   0.550   4.408   7.319 -0.6193  0.9069  0.9283
 5336SOL     OW27466   2.020   1.974   5.928 -0.3788 -0.9511  0.2427
 5336SOL    HW127467   2.002   1.929   5.846 -1.4231 -0.3378  0.1376
 5336SOL    HW227468   2.021   1.906   5.995 -0.5807 -2.6931 -1.5344
 5337SOL     OW27469   4.474   3.822  11.932 -0.3145 -0.1925 -0.6631
 5337SOL    HW127470   4.555   3.832  11.983 -1.2312  2.2266  0.2787
 5337SOL    HW227471   4.438   3.737  11.957  1.7989 -0.4516  1.6128
 5338SOL     OW27472   2.348   2.452  11.196 -0.3087 -0.1401  0.1956
 5338SOL    HW127473   2.269   2.410  11.230 -0.1105 -0.8112 -0.1576
 5338SOL    HW227474   2.403   2.373  11.190 -0.8243 -0.6025  1.5607
 5339SOL     OW27475   1.751   1.027   2.847 -0.2611 -0.6674 -1.1153
 5339SOL    HW127476   1.715   0.984   2.925  0.5349 -0.9296 -0.8924
 5339SOL    HW227477   1.801   1.099   2.885 -1.0175  0.3591 -2.0853
 5340SOL     OW27478   0.808   3.685   7.544  0.5800  0.1180  0.2598
 5340SOL    HW127479   0.726   3.715   7.503 -0.1809 -1.6527  0.4838
 5340SOL    HW227480   0.796   3.710   7.636 -1.4373 -0.7116  0.2296
 5341SOL     OW27481   1.299   1.735  10.270 -0.4582  0.1060  0.1563
 5341SOL    HW127482   1.259   1.659  10.228 -0.8806 -1.3756  3.2766
 5341SOL    HW227483   1.352   1.695  10.339  0.4655  1.2791  0.1397
 5342SOL     OW27484   2.510   2.793   2.386  0.8813  0.4508  0.2550
 5342SOL    HW127485   2.440   2.728   2.393  2.4167 -0.9954  2.3908
 5342SOL    HW227486   2.458   2.871   2.368  0.7769  0.6452  1.3998
 5343SOL     OW27487   2.273   4.603   9.173  0.1160 -0.0015  0.3336
 5343SOL    HW127488   2.188   4.613   9.129 -0.5660 -1.0968  1.3785
 5343SOL    HW227489   2.251   4.525   9.225 -0.7022  1.1111  1.6409
 5344SOL     OW27490   3.180   0.334   6.371  0.2358 -0.0930  0.6794
 5344SOL    HW127491   3.165   0.356   6.279 -0.8969 -1.1014  0.6167
 5344SOL    HW227492   3.196   0.422   6.406 -0.5111  0.4956 -0.4332
 5345SOL     OW27493   0.746   0.271   1.401  0.4281 -0.0073  0.4347
 5345SOL    HW127494   0.793   0.250   1.321 -1.4682 -3.4947  0.2358
 5345SOL    HW227495   0.678   0.204   1.403  1.5746 -1.1019  2.5531
 5346SOL     OW27496   2.768   0.485  12.367  0.4281  0.6681  0.1205
 5346SOL    HW127497   2.839   0.529  12.319 -0.8929  1.7410 -0.8258
 5346SOL    HW227498   2.748   0.416  12.304  0.5674  0.0685  0.7323
 5347SOL     OW27499   1.440   1.323   1.897  0.0168  0.3350  0.2479
 5347SOL    HW127500   1.434   1.386   1.825 -0.0272  0.1129  0.0553
 5347SOL    HW227501   1.413   1.378   1.970 -4.2669 -1.8015  0.2676
 5348SOL     OW27502   0.379   0.540  17.101  0.0499 -0.1186  0.3187
 5348SOL    HW127503   0.464   0.564  17.137  0.1880 -0.2773  0.1035
 5348SOL    HW227504   0.403   0.505  17.014 -1.4624  1.9090 -0.9085
 5349SOL     OW27505   3.751   1.338  14.829 -0.2840  0.2790  0.8320
 5349SOL    HW127506   3.691   1.413  14.821  0.9705  1.2318  0.2743
 5349SOL    HW227507   3.830   1.378  14.793 -0.7903  2.3793  2.0671
 5350SOL     OW27508   2.207   3.989  16.332  0.0289  0.0834 -0.9997
 5350SOL    HW127509   2.147   4.013  16.261 -0.2221  0.1475 -0.7674
 5350SOL    HW227510   2.150   3.973  16.408 -1.6042 -1.8867 -2.6447
 5351SOL     OW27511   1.776   4.154   5.342  0.0099 -0.4868 -0.5172
 5351SOL    HW127512   1.761   4.225   5.279 -0.6344  1.2769  1.6155
 5351SOL    HW227513   1.835   4.201   5.402 -1.0581 -1.2491  1.1423
 5352SOL     OW27514   4.593   3.238   2.101  0.6657  0.2360  0.8682
 5352SOL    HW127515   4.610   3.285   2.182  0.9906  0.0534  0.9035
 5352SOL    HW227516   4.501   3.218   2.119  0.7882  0.0967  1.3105
 5353SOL     OW27517   1.187   2.851   6.573  0.1663 -0.0340 -0.3244
 5353SOL    HW127518   1.223   2.922   6.626 -1.6629  1.0902 -0.5851
 5353SOL    HW227519   1.109   2.834   6.625 -0.4995 -0.4289 -1.4433
 5354SOL     OW27520   1.983   3.352   6.767  0.4015 -0.0720 -0.0099
 5354SOL    HW127521   2.071   3.351   6.730  0.8707 -0.5552  1.1635
 5354SOL    HW227522   1.965   3.258   6.771  1.5520 -0.1333  3.2151
 5355SOL     OW27523   1.914   1.185   2.556 -0.0519 -0.2459 -0.0787
 5355SOL    HW127524   1.935   1.176   2.462  3.1031 -0.3325  0.6309
 5355SOL    HW227525   1.820   1.168   2.549  0.5696 -3.1756 -1.0351
 5356SOL     OW27526   1.863   3.691   6.503  0.0934 -0.7535 -0.4246
 5356SOL    HW127527   1.884   3.777   6.467  3.4544 -2.4838 -2.6107
 5356SOL    HW227528   1.948   3.651   6.520 -1.0895 -3.3474 -0.6782
 5357SOL     OW27529   4.029   2.675   7.303 -0.3421  0.7051 -0.0910
 5357SOL    HW127530   4.088   2.721   7.363  0.3204 -0.6765  0.3368
 5357SOL    HW227531   3.987   2.744   7.252 -0.1258  0.6901 -0.2908
 5358SOL     OW27532   1.771   0.974  17.661 -0.1741  0.6431 -0.7665
 5358SOL    HW127533   1.747   0.890   0.004  0.5801  0.7781  0.0312
 5358SOL    HW227534   1.816   1.028   0.031 -0.6279  0.1150 -0.0156
 5359SOL     OW27535   1.697   3.750   5.341 -0.4250  0.0903  0.1406
 5359SOL    HW127536   1.723   3.837   5.371  1.4688 -0.0300 -1.1585
 5359SOL    HW227537   1.602   3.745   5.355 -0.3678 -1.6820 -0.1156
 5360SOL     OW27538   1.124   2.531   6.086  0.4400  0.2424  0.2382
 5360SOL    HW127539   1.103   2.512   6.178  1.1722  2.0949  0.7964
 5360SOL    HW227540   1.143   2.625   6.093 -0.7646  0.5275 -0.3417
 5361SOL     OW27541   2.459   2.077  17.602 -0.1041 -0.0677 -0.0236
 5361SOL    HW127542   2.463   2.110  17.692  1.2457  3.7778 -1.4608
 5361SOL    HW227543   2.409   2.147  17.560  0.1506 -1.1049 -2.0389
 5362SOL     OW27544   0.611   1.283   3.887  0.4426 -0.1791  0.6390
 5362SOL    HW127545   0.647   1.211   3.940 -0.0516 -0.9968 -0.1506
 5362SOL    HW227546   0.518   1.262   3.885 -0.5185  4.0736  0.8328
 5363SOL     OW27547   0.909   3.461   9.201  0.0600 -0.5247  0.3341
 5363SOL    HW127548   0.827   3.509   9.216 -0.4773 -1.2956 -0.1281
 5363SOL    HW227549   0.871   3.399   9.138 -0.0521 -0.2883  0.1661
 5364SOL     OW27550   0.109   2.538   2.674  0.1887 -0.5999  0.6213
 5364SOL    HW127551   0.013   2.538   2.674  0.1933 -0.2737 -0.1954
 5364SOL    HW227552   0.117   2.633   2.677 -0.4080 -0.4536 -2.3927
 5365SOL     OW27553   0.379   3.717  16.780  0.4113  0.0063 -0.2110
 5365SOL    HW127554   0.422   3.802  16.781 -0.4386  0.4198  0.7589
 5365SOL    HW227555   0.360   3.702  16.873  1.8561 -0.1766  0.0633
 5366SOL     OW27556   2.332   4.247   5.934  0.3862 -0.0093 -0.1296
 5366SOL    HW127557   2.420   4.209   5.939  0.7373  1.2401  3.3530
 5366SOL    HW227558   2.321   4.301   6.013 -1.5830  0.2864 -0.6099
 5367SOL     OW27559   0.540   0.813   3.871  0.3407  0.0091 -0.1783
 5367SOL    HW127560   0.448   0.817   3.843  0.2935 -0.5208 -0.1068
 5367SOL    HW227561   0.537   0.758   3.949 -0.7212  1.9058  1.1040
 5368SOL     OW27562   0.069   0.157  14.379  0.4030  0.0167  0.4877
 5368SOL    HW127563   0.010   0.108  14.322  1.1727 -0.5844  0.2097
 5368SOL    HW227564   0.094   0.091  14.444  1.4524 -0.1707 -0.1021
 5369SOL     OW27565   2.970   1.707   9.447  0.7882 -0.7666 -0.0428
 5369SOL    HW127566   2.983   1.799   9.422 -0.5872 -0.8384 -1.0227
 5369SOL    HW227567   2.927   1.676   9.367  1.5641 -2.1825  0.0891
 5370SOL     OW27568   4.485   3.527   4.308  0.0299  0.3280  0.0142
 5370SOL    HW127569   4.441   3.606   4.277  1.1140  0.4038 -1.3194
 5370SOL    HW227570   4.514   3.547   4.397  0.8019  0.9120 -0.3775
 5371SOL     OW27571   1.249   0.668   7.370 -0.2202 -0.7451  0.3144
 5371SOL    HW127572   1.287   0.581   7.382 -1.3204 -0.9750  2.1803
 5371SOL    HW227573   1.216   0.676   7.460  1.5555 -1.2337  1.0165
 5372SOL     OW27574   1.648   0.611   9.856  0.4480  0.3524 -0.2382
 5372SOL    HW127575   1.672   0.637   9.767 -0.9073  1.5371 -0.2562
 5372SOL    HW227576   1.717   0.651   9.908  0.5309 -0.4730  0.2878
 5373SOL     OW27577   3.541   3.452   6.148 -0.1843 -0.4544  0.1508
 5373SOL    HW127578   3.541   3.538   6.190 -2.6208 -0.1525 -0.4801
 5373SOL    HW227579   3.465   3.418   6.197 -1.7223  2.6477 -0.0800
 5374SOL     OW27580   2.220   3.553   2.649  0.0046  0.0241 -0.0329
 5374SOL    HW127581   2.158   3.627   2.650 -2.0276 -1.6969  0.9503
 5374SOL    HW227582   2.208   3.510   2.565  0.9584 -1.1038  0.4154
 5375SOL     OW27583   0.142   1.546  15.888 -0.9236 -0.1368  0.0073
 5375SOL    HW127584   0.076   1.480  15.909 -0.3853 -0.9793 -0.9690
 5375SOL    HW227585   0.229   1.518  15.917 -1.4729 -1.7353  0.1178
 5376SOL     OW27586   2.036   1.420   5.978  0.4219  0.1981 -0.1476
 5376SOL    HW127587   1.942   1.438   5.980 -0.1930 -2.7550 -2.2451
 5376SOL    HW227588   2.045   1.372   5.896 -0.9175  1.2452 -0.9071
 5377SOL     OW27589   1.806   3.987  10.642  0.2406  0.2395  0.3717
 5377SOL    HW127590   1.881   4.046  10.652  0.5447  0.1896 -1.7352
 5377SOL    HW227591   1.730   4.045  10.634 -0.7619 -0.6927  2.9062
 5378SOL     OW27592   2.732   0.890   2.336  0.6118  0.8210  0.3819
 5378SOL    HW127593   2.804   0.845   2.380  0.3318  0.1063  0.1026
 5378SOL    HW227594   2.666   0.856   2.397 -1.7556  2.7188 -1.1273
 5379SOL     OW27595   3.440   0.736   9.266  0.3958  0.2013  0.3208
 5379SOL    HW127596   3.353   0.777   9.261  0.5886  0.4509 -0.9256
 5379SOL    HW227597   3.423   0.673   9.337 -1.9906 -0.6704 -1.0274
 5380SOL     OW27598   1.103   0.965   0.808 -0.0136  0.4274 -0.2446
 5380SOL    HW127599   1.189   0.993   0.838 -0.1662  2.1428 -1.3902
 5380SOL    HW227600   1.060   1.016   0.876  1.8238  2.3884 -0.5645
 5381SOL     OW27601   3.962   4.170   0.337 -0.0814 -0.0512  0.2156
 5381SOL    HW127602   3.893   4.135   0.281  1.0713 -2.0797  0.0229
 5381SOL    HW227603   3.904   4.210   0.401 -0.5280  0.8328 -0.7480
 5382SOL     OW27604   1.802   4.526   3.368  0.4185  0.1071  0.0989
 5382SOL    HW127605   1.838   4.594   3.424  0.6985  0.3142 -0.3369
 5382SOL    HW227606   1.771   4.569   3.288  0.5625 -0.1277 -0.0862
 5383SOL     OW27607   4.506   0.605   6.184 -0.0075  0.2927 -0.2387
 5383SOL    HW127608   4.464   0.629   6.267  1.2962 -0.9533  0.7603
 5383SOL    HW227609   4.541   0.520   6.207 -0.7762  0.1313  0.3591
 5384SOL     OW27610   4.442   0.532  16.943 -0.2242  0.3681  0.0189
 5384SOL    HW127611   4.498   0.567  17.013  0.3680  1.2771 -0.9134
 5384SOL    HW227612   4.385   0.476  16.995  1.1322 -0.4514  0.6414
 5385SOL     OW27613   3.303   4.293  10.706 -0.0658 -0.0763  0.0390
 5385SOL    HW127614   3.272   4.384  10.713  2.2572  0.8722 -2.2598
 5385SOL    HW227615   3.393   4.308  10.733 -0.6227  2.9372  0.2364
 5386SOL     OW27616   0.468   3.242   7.828  0.0638  0.0488  0.2916
 5386SOL    HW127617   0.404   3.305   7.861 -0.7108 -0.1165 -0.8834
 5386SOL    HW227618   0.501   3.212   7.912  0.7449 -0.1357 -0.0428
 5387SOL     OW27619   0.940   3.087   4.470 -0.7491 -0.8576 -0.4378
 5387SOL    HW127620   0.923   2.994   4.485 -1.7713 -0.5674  0.1298
 5387SOL    HW227621   0.967   3.075   4.378 -0.7610 -2.1562 -0.2681
 5388SOL     OW27622   4.382   1.231   5.944  0.7867 -0.2630  0.7824
 5388SOL    HW127623   4.348   1.291   5.877  0.0644 -0.8975  0.5862
 5388SOL    HW227624   4.363   1.145   5.908 -0.1576  0.3110 -0.0853
 5389SOL     OW27625   1.380   3.041  15.320 -0.1063 -0.7857 -0.1758
 5389SOL    HW127626   1.354   3.077  15.235 -3.1943 -4.3515 -0.7264
 5389SOL    HW227627   1.397   2.948  15.308  1.2157 -0.3833 -1.4623
 5390SOL     OW27628   1.326   1.066   8.485 -0.2126 -0.1308 -0.1208
 5390SOL    HW127629   1.263   1.012   8.533 -2.2707  1.8908 -0.4980
 5390SOL    HW227630   1.289   1.060   8.397  1.0337 -1.4456 -0.5497
 5391SOL     OW27631   1.372   2.202  17.261  0.7399  0.2739 -0.3341
 5391SOL    HW127632   1.300   2.264  17.271  1.7918  1.2755  0.9452
 5391SOL    HW227633   1.439   2.262  17.229  0.6636 -0.2666 -1.5213
 5392SOL     OW27634   3.897   3.551   2.138  0.2577 -0.5240 -0.2766
 5392SOL    HW127635   3.896   3.471   2.085 -2.4861 -0.1300 -0.8290
 5392SOL    HW227636   3.837   3.607   2.088  1.4916 -0.3616 -1.5560
 5393SOL     OW27637   3.740   1.044   2.955  0.0568  0.5068 -0.8527
 5393SOL    HW127638   3.676   0.995   3.008  2.1567 -0.0661  1.1600
 5393SOL    HW227639   3.798   0.974   2.925 -1.8898 -1.5046  0.0387
 5394SOL     OW27640   1.186   4.136   2.780 -0.4054  0.2089  0.0663
 5394SOL    HW127641   1.189   4.041   2.768 -0.3453  0.2059  0.1072
 5394SOL    HW227642   1.105   4.156   2.828  0.0379 -0.8773  1.2609
 5395SOL     OW27643   1.769   0.334   8.509  0.6460  0.2411 -0.5578
 5395SOL    HW127644   1.827   0.395   8.553  0.9897 -0.2228 -0.3724
 5395SOL    HW227645   1.810   0.252   8.536 -1.4641 -0.8900 -0.7465
 5396SOL     OW27646   4.669   3.291  14.361 -0.2796  0.1365 -0.1286
 5396SOL    HW127647   0.037   3.266  14.378 -0.1182  1.0446  0.3412
 5396SOL    HW227648   4.629   3.209  14.391 -2.4145  0.8162 -1.0945
 5397SOL     OW27649   2.448   2.371  11.843 -0.9335  0.0348 -0.2219
 5397SOL    HW127650   2.364   2.414  11.859 -0.5013 -0.2800  2.9804
 5397SOL    HW227651   2.446   2.365  11.748  3.6845  1.9972 -0.4800
 5398SOL     OW27652   0.147   0.426   4.497 -0.1209  0.3198 -0.0417
 5398SOL    HW127653   0.208   0.478   4.550  1.4590 -0.6968 -0.8670
 5398SOL    HW227654   0.188   0.341   4.507 -0.0429  0.2548 -0.9282
 5399SOL     OW27655   2.932   1.614  12.122  0.1071 -0.0290 -0.0032
 5399SOL    HW127656   3.004   1.636  12.182 -1.7291 -1.7898  2.8284
 5399SOL    HW227657   2.862   1.592  12.183 -0.8872  0.8653 -0.8289
 5400SOL     OW27658   0.367   4.657   3.874 -0.2689 -0.6263  0.2858
 5400SOL    HW127659   0.412   4.722   3.928 -1.3017 -0.6720  1.1921
 5400SOL    HW227660   0.281   4.698   3.883  1.2476  2.0630  2.6084
 5401SOL     OW27661   0.961   1.832  14.744 -0.5202  0.7155  0.0846
 5401SOL    HW127662   1.051   1.841  14.714 -0.5389  1.2684  0.1943
 5401SOL    HW227663   0.940   1.767  14.676  0.6637  0.0218  0.3968
 5402SOL     OW27664   0.176   2.822   0.455 -0.2545 -0.0403  0.1480
 5402SOL    HW127665   0.149   2.815   0.364 -2.2702 -1.5040  0.8571
 5402SOL    HW227666   0.095   2.802   0.502  0.3611  0.8965  1.6184
 5403SOL     OW27667   0.614   2.975   7.374  0.3085  0.4220  0.5970
 5403SOL    HW127668   0.673   3.037   7.418  3.1377 -1.9648  0.1651
 5403SOL    HW227669   0.568   3.027   7.308  1.7656  1.5104  0.4286
 5404SOL     OW27670   0.653   0.745  14.577 -0.3676  0.3240  0.2214
 5404SOL    HW127671   0.597   0.792  14.515  0.8703  0.3650 -0.8566
 5404SOL    HW227672   0.598   0.727  14.654 -0.5912 -0.2102 -0.0629
 5405SOL     OW27673   0.633   0.776   8.795 -0.5836 -0.8422  0.1770
 5405SOL    HW127674   0.578   0.851   8.819  0.1722 -0.3104  0.2587
 5405SOL    HW227675   0.702   0.793   8.859 -0.0988  1.0057 -0.8233
 5406SOL     OW27676   4.096   1.209   3.891  0.5497 -0.0047 -0.0753
 5406SOL    HW127677   4.095   1.288   3.945 -1.3795 -0.3080  0.3344
 5406SOL    HW227678   4.025   1.159   3.930  1.7330 -0.9915  0.8403
 5407SOL     OW27679   1.305   2.001   4.770  0.1292  0.0128 -0.3942
 5407SOL    HW127680   1.284   1.915   4.807  1.2946  0.6946  1.7997
 5407SOL    HW227681   1.392   1.987   4.732  0.8069 -0.3297  1.3181
 5408SOL     OW27682   2.087   2.571   5.424  0.2706  0.2469  0.1110
 5408SOL    HW127683   2.023   2.606   5.486  0.4902  0.4125  0.2416
 5408SOL    HW227684   2.124   2.646   5.377  1.1305 -0.7049 -0.7428
 5409SOL     OW27685   0.309   3.465   4.332  0.4371 -0.4564 -0.0688
 5409SOL    HW127686   0.294   3.441   4.423  0.1538  1.1088  0.2922
 5409SOL    HW227687   0.253   3.540   4.315  1.0348 -0.3534 -1.5673
 5410SOL     OW27688   0.764   1.828   9.456 -0.6269 -0.6533 -0.1332
 5410SOL    HW127689   0.796   1.788   9.537 -1.7151  0.0104  0.6304
 5410SOL    HW227690   0.847   1.845   9.412 -1.0923  2.5572  0.1712
 5411SOL     OW27691   3.310   0.762   6.863 -0.1570 -0.0959  0.6806
 5411SOL    HW127692   3.236   0.805   6.820 -0.2055  1.3579  2.2321
 5411SOL    HW227693   3.311   0.671   6.833  1.2110 -0.5002  1.9403
 5412SOL     OW27694   3.366   1.878   0.609 -0.3817  0.0652 -0.1787
 5412SOL    HW127695   3.299   1.834   0.557 -0.4146  0.9333 -0.8683
 5412SOL    HW227696   3.413   1.935   0.547 -0.3590 -2.0662 -2.1375
 5413SOL     OW27697   2.892   2.095   0.304  0.2784  0.7548 -0.1706
 5413SOL    HW127698   2.804   2.063   0.286  0.2864  0.8797 -0.4371
 5413SOL    HW227699   2.892   2.187   0.275 -1.1636  0.5508 -0.8363
 5414SOL     OW27700   1.415   0.846   5.710  0.5603 -0.8328  0.0410
 5414SOL    HW127701   1.456   0.917   5.660  0.4823 -0.0008  1.1700
 5414SOL    HW227702   1.501   0.806   5.721  0.6664 -1.3987 -2.6595
 5415SOL     OW27703   4.364   1.957  13.554  0.2475 -0.6025 -0.4593
 5415SOL    HW127704   4.296   2.019  13.528 -0.1480  0.0691  2.1476
 5415SOL    HW227705   4.444   2.003  13.530 -0.5132  1.3952  0.8424
 5416SOL     OW27706   1.584   0.906   3.841 -0.0941  0.2130  0.1467
 5416SOL    HW127707   1.509   0.966   3.840 -2.4138 -2.6796  0.3645
 5416SOL    HW227708   1.597   0.890   3.934  0.1619  1.8874  0.3918
 5417SOL     OW27709   2.551   2.583   3.601  0.6354  0.4692 -0.3251
 5417SOL    HW127710   2.506   2.666   3.620  0.5656  0.1593  0.8833
 5417SOL    HW227711   2.521   2.538   3.681  0.5790 -0.5266 -0.9134
 5418SOL     OW27712   2.245   0.022   4.732  0.7524 -0.4748 -0.4043
 5418SOL    HW127713   2.323   0.021   4.677  1.0211  1.5874 -0.0675
 5418SOL    HW227714   2.178   0.010   4.664 -0.7709 -2.8165  1.5113
 5419SOL     OW27715   3.452   2.791  10.178 -0.2087  0.0209  0.1335
 5419SOL    HW127716   3.437   2.720  10.115  1.2780 -0.8155  0.7340
 5419SOL    HW227717   3.394   2.762  10.249  0.0552  0.7502  0.6364
 5420SOL     OW27718   0.107   0.996  14.360 -0.9223 -0.3661 -0.1410
 5420SOL    HW127719   0.163   1.030  14.430  0.3229  0.9475 -1.8022
 5420SOL    HW227720   0.158   0.959  14.289  0.6100  3.2781 -0.9573
 5421SOL     OW27721   3.183   3.884   3.359 -0.1213 -0.2334  0.0023
 5421SOL    HW127722   3.147   3.940   3.427 -0.0186  0.9480 -0.9146
 5421SOL    HW227723   3.108   3.887   3.299 -2.2282 -2.8085  2.5103
 5422SOL     OW27724   3.633   3.922  17.649  0.0365  0.3708  0.1396
 5422SOL    HW127725   3.595   3.922   0.043 -1.4418  0.1668 -0.4933
 5422SOL    HW227726   3.696   3.992  17.665 -0.4895  1.1531 -1.2429
 5423SOL     OW27727   2.164   0.134   7.429 -0.0465  0.0388  0.1962
 5423SOL    HW127728   2.241   0.086   7.398 -0.9635  0.3266 -2.5162
 5423SOL    HW227729   2.120   0.068   7.483 -1.5205 -0.2943 -1.3946
 5424SOL     OW27730   4.467   3.876   8.546  0.2511 -0.6737  0.3989
 5424SOL    HW127731   4.451   3.786   8.574 -0.5952 -0.7151 -0.2174
 5424SOL    HW227732   4.425   3.915   8.623 -0.6691 -0.3798 -0.2658
 5425SOL     OW27733   4.062   2.502   8.800  0.5911  0.2151  0.6766
 5425SOL    HW127734   4.094   2.412   8.788  1.0172  0.2122  1.8568
 5425SOL    HW227735   4.141   2.556   8.789  0.3591  0.3429 -0.3344
 5426SOL     OW27736   4.347   3.193   3.595 -0.5648  0.1503 -0.3008
 5426SOL    HW127737   4.423   3.250   3.607  0.4025 -1.2328  0.1319
 5426SOL    HW227738   4.293   3.247   3.537 -0.9406  0.5385  0.4079
 5427SOL     OW27739   1.056   2.052   6.948  0.4472 -0.5591  0.6162
 5427SOL    HW127740   0.970   2.094   6.952  0.2338 -0.9470  0.2080
 5427SOL    HW227741   1.041   1.987   6.879 -1.3109  0.7625 -0.2578
 5428SOL     OW27742   0.619   0.217   7.836 -0.3432 -0.2659 -0.0949
 5428SOL    HW127743   0.637   0.287   7.773 -1.8930 -0.4701 -0.7685
 5428SOL    HW227744   0.682   0.239   7.904 -1.5463 -1.0674  1.2723
 5429SOL     OW27745   3.060   0.742  16.055 -0.4558  0.2217 -0.8269
 5429SOL    HW127746   3.013   0.752  15.973  1.1651  0.5677 -1.7116
 5429SOL    HW227747   3.139   0.705  16.016 -0.8770 -2.3982  0.7586
 5430SOL     OW27748   3.045   0.824   0.644  0.0525 -0.0806  0.2650
 5430SOL    HW127749   3.087   0.868   0.570 -0.6044 -0.6028 -0.4164
 5430SOL    HW227750   2.969   0.877   0.666 -0.4012 -1.9321  3.2220
 5431SOL     OW27751   0.454   0.303  10.266  0.0063 -0.3673 -0.2308
 5431SOL    HW127752   0.427   0.213  10.287 -0.3494 -0.7386 -2.2385
 5431SOL    HW227753   0.396   0.346  10.328 -0.5980 -0.0493 -1.0192
 5432SOL     OW27754   3.931   2.968   2.047 -0.2375 -0.2967 -0.0467
 5432SOL    HW127755   3.928   2.971   1.951 -3.1225  0.7075  0.0635
 5432SOL    HW227756   3.929   2.874   2.063  1.8970  0.1396  2.6789
 5433SOL     OW27757   0.759   1.858   5.231  0.3404 -0.0916  0.3178
 5433SOL    HW127758   0.779   1.948   5.254 -1.1488  0.5397 -0.8423
 5433SOL    HW227759   0.670   1.858   5.267 -0.5342 -3.5793 -1.7641
 5434SOL     OW27760   0.938   0.941   6.233  0.3255  0.0588 -0.5531
 5434SOL    HW127761   0.859   0.922   6.184  0.1960 -0.5383 -0.1071
 5434SOL    HW227762   0.935   1.037   6.238 -2.7210 -0.0481 -0.3257
 5435SOL     OW27763   2.503   2.724   4.070 -0.1681  0.2363 -0.3960
 5435SOL    HW127764   2.421   2.758   4.035 -1.2245 -0.1689  1.6776
 5435SOL    HW227765   2.517   2.658   4.002  0.3279 -0.7994  0.7153
 5436SOL     OW27766   0.953   1.348  14.242 -0.6065  0.1928  0.3131
 5436SOL    HW127767   0.912   1.302  14.169 -0.0259  0.0266  0.0892
 5436SOL    HW227768   0.969   1.429  14.192 -0.2725  0.1887  0.4122
 5437SOL     OW27769   1.974   1.778  13.077 -0.5117 -0.2003  0.4001
 5437SOL    HW127770   2.020   1.750  12.997 -2.1366 -0.1484 -0.5514
 5437SOL    HW227771   1.928   1.699  13.105  2.3875 -2.3341 -0.8212
 5438SOL     OW27772   1.623   3.092   4.520 -0.0939 -0.5112  0.1397
 5438SOL    HW127773   1.553   3.045   4.474  0.9365 -1.1715 -0.7388
 5438SOL    HW227774   1.689   3.023   4.511  0.6876 -0.0429  2.2870
 5439SOL     OW27775   3.372   3.620  11.286 -0.0322 -0.0531 -0.0436
 5439SOL    HW127776   3.459   3.581  11.293  0.2675  0.4416 -1.1058
 5439SOL    HW227777   3.363   3.683  11.357 -2.0330 -0.1221 -0.2206
 5440SOL     OW27778   4.173   3.678  11.091  0.1860  0.1729  0.5776
 5440SOL    HW127779   4.174   3.659  11.185 -1.0556 -0.5208  0.4562
 5440SOL    HW227780   4.116   3.755  11.089  1.3837  1.0898  1.3908
 5441SOL     OW27781   1.390   2.010   1.851 -0.0496 -0.1060 -0.0231
 5441SOL    HW127782   1.377   2.053   1.766  0.5290  0.3169  0.1048
 5441SOL    HW227783   1.318   2.051   1.900  2.1536  0.2463  2.8900
 5442SOL     OW27784   1.819   0.543   7.196 -0.0835 -0.0308 -0.5098
 5442SOL    HW127785   1.878   0.551   7.121 -0.5907  1.3846 -0.7503
 5442SOL    HW227786   1.752   0.479   7.172  0.9220 -0.6420 -1.6719
 5443SOL     OW27787   4.336   0.914   3.783 -0.1998  0.0825 -0.1459
 5443SOL    HW127788   4.341   0.994   3.835  1.0281  1.8375 -3.0218
 5443SOL    HW227789   4.276   0.871   3.845  0.9527 -3.3683 -1.4044
 5444SOL     OW27790   2.586   4.487   1.236  0.3064 -0.4751 -1.0148
 5444SOL    HW127791   2.619   4.406   1.274  0.8431 -0.8298 -2.2379
 5444SOL    HW227792   2.605   4.546   1.308 -0.4078 -1.3916 -0.0901
 5445SOL     OW27793   3.887   1.934   8.947 -0.3539 -0.1954 -0.5944
 5445SOL    HW127794   3.942   1.865   8.983 -1.0618  0.2165  1.3132
 5445SOL    HW227795   3.939   2.013   8.962  1.0907 -1.2783  0.0840
 5446SOL     OW27796   1.186   1.387   8.991 -0.1010  0.3251 -0.2768
 5446SOL    HW127797   1.226   1.396   9.077  2.1713 -0.3864 -1.2717
 5446SOL    HW227798   1.098   1.357   9.016  0.1306  0.8875  1.1930
 5447SOL     OW27799   1.135   2.460  11.188 -0.1837 -0.2829  0.3551
 5447SOL    HW127800   1.184   2.378  11.194  0.2148 -0.0182  0.7213
 5447SOL    HW227801   1.074   2.426  11.123  0.4196 -0.7201  0.0078
 5448SOL     OW27802   2.235   3.043   2.319 -0.1582 -0.0329  0.2146
 5448SOL    HW127803   2.280   3.048   2.234 -1.4632  0.6007 -0.4346
 5448SOL    HW227804   2.162   3.104   2.309  0.4791  0.9521  1.6500
 5449SOL     OW27805   2.369   3.649   4.048  0.6502  0.0228 -0.3703
 5449SOL    HW127806   2.327   3.588   4.110  2.5756  0.5896  1.4812
 5449SOL    HW227807   2.378   3.602   3.965 -0.7409  1.2817 -1.2504
 5450SOL     OW27808   1.620   1.103   2.598  0.3162 -0.0145 -0.1851
 5450SOL    HW127809   1.662   1.071   2.678  0.9364  1.5901  0.1433
 5450SOL    HW227810   1.623   1.198   2.606 -2.1693 -0.1904  2.5841
 5451SOL     OW27811   3.108   2.813   8.219 -0.0195  0.1128  0.6299
 5451SOL    HW127812   3.096   2.900   8.258 -0.6098  1.1608 -1.9144
 5451SOL    HW227813   3.027   2.774   8.250 -0.8279 -0.1671 -1.8907
 5452SOL     OW27814   3.481   4.519  10.269 -0.4786  0.4569  0.7051
 5452SOL    HW127815   3.409   4.583  10.270 -0.7032  0.1495  5.6515
 5452SOL    HW227816   3.542   4.550  10.336  0.3122  1.4577 -0.4782
 5453SOL     OW27817   0.961   3.334   2.651 -0.2824  0.1578 -0.1858
 5453SOL    HW127818   0.956   3.363   2.742  0.4282 -0.2576 -0.0193
 5453SOL    HW227819   0.928   3.245   2.663 -1.3611  0.6878  0.7999
 5454SOL     OW27820   3.518   2.791   8.240 -0.3818  0.5837  0.0011
 5454SOL    HW127821   3.531   2.879   8.274  2.2047 -0.1498  0.9662
 5454SOL    HW227822   3.423   2.783   8.235 -0.3259 -1.1459  1.5280
 5455SOL     OW27823   0.599   1.041   3.573  0.2521  0.2674  0.1596
 5455SOL    HW127824   0.513   1.006   3.595  1.1101 -1.0160  1.5273
 5455SOL    HW227825   0.652   0.966   3.603  1.5280 -0.1586 -3.1808
 5456SOL     OW27826   3.258   1.333   2.486  0.1679  0.0021  0.1247
 5456SOL    HW127827   3.244   1.379   2.569 -0.4575  1.8961 -1.0483
 5456SOL    HW227828   3.207   1.252   2.493  1.0293 -0.7782 -2.5900
 5457SOL     OW27829   2.903   2.548  16.938 -0.2653 -0.5377  0.1482
 5457SOL    HW127830   2.875   2.621  16.993 -0.7369 -0.1792 -0.5613
 5457SOL    HW227831   2.868   2.478  16.992  0.1391  0.6389  1.9278
 5458SOL     OW27832   3.148   2.755   1.913 -0.5770 -0.2677  0.1559
 5458SOL    HW127833   3.174   2.708   1.833 -0.0623 -0.6002  0.5159
 5458SOL    HW227834   3.058   2.767   1.882 -0.7113  3.3585  2.0658
 5459SOL     OW27835   1.394   0.922  10.851  0.0458  0.2181 -0.0927
 5459SOL    HW127836   1.403   0.832  10.821 -3.1418 -0.2376  0.3146
 5459SOL    HW227837   1.306   0.943  10.819 -0.2597  0.1552  0.7243
 5460SOL     OW27838   4.687   1.970   8.119  0.6305  0.8241  0.3597
 5460SOL    HW127839   4.623   1.901   8.105  0.0696  1.9466 -2.5139
 5460SOL    HW227840   0.031   1.931   8.175  0.1184 -0.4382  0.0883
 5461SOL     OW27841   3.142   0.506   4.704  0.5051  0.0540  0.4338
 5461SOL    HW127842   3.226   0.541   4.671 -0.3366 -0.6475 -2.4186
 5461SOL    HW227843   3.106   0.500   4.616 -0.1050  1.2415  0.6087
 5462SOL     OW27844   4.349   3.962   9.737  0.1732 -0.7730  0.5747
 5462SOL    HW127845   4.309   3.945   9.652 -1.8278 -1.6638  1.7095
 5462SOL    HW227846   4.441   3.972   9.711 -0.0464  0.9146  0.4216
 5463SOL     OW27847   4.467   2.012   2.591 -0.1286  0.0431  0.3913
 5463SOL    HW127848   4.560   1.990   2.592 -0.5204 -1.6028  1.4349
 5463SOL    HW227849   4.438   1.944   2.651  0.7335 -0.1345  0.6059
 5464SOL     OW27850   2.254   2.722   2.930  0.0298  0.4239 -0.0141
 5464SOL    HW127851   2.299   2.773   2.997  1.5267  0.2462 -0.8951
 5464SOL    HW227852   2.219   2.650   2.983  1.4955 -0.4118 -0.1831
 5465SOL     OW27853   2.107   1.690   4.863  0.5669  0.0081 -0.1429
 5465SOL    HW127854   2.202   1.676   4.857  0.6231  0.1605  0.3970
 5465SOL    HW227855   2.113   1.767   4.920  0.5870  1.4221 -2.0601
 5466SOL     OW27856   4.699   1.727   7.279 -0.1976 -0.9068 -0.3619
 5466SOL    HW127857   0.061   1.769   7.284 -0.4226 -0.8617  3.2104
 5466SOL    HW227858   4.663   1.760   7.196 -0.4143 -1.3402 -0.4423
 5467SOL     OW27859   2.199   4.563   6.898 -0.3524 -0.2183 -0.2041
 5467SOL    HW127860   2.215   4.637   6.956  2.2881  0.7000 -2.0743
 5467SOL    HW227861   2.246   4.496   6.949 -0.4835  0.6158  0.9992
 5468SOL     OW27862   2.794   1.833   2.536 -0.5254  0.4555 -0.2531
 5468SOL    HW127863   2.755   1.820   2.450 -0.8774 -0.9288  0.1139
 5468SOL    HW227864   2.856   1.904   2.518 -0.3369 -0.1432 -1.9287
 5469SOL     OW27865   0.592   1.507   2.472  0.1391 -0.1305  0.0643
 5469SOL    HW127866   0.556   1.540   2.555 -0.5450 -0.8898  0.0638
 5469SOL    HW227867   0.644   1.583   2.445 -0.5783 -0.1941 -1.4865
 5470SOL     OW27868   2.662   2.945  12.153 -0.2650 -0.2094 -0.3430
 5470SOL    HW127869   2.624   2.895  12.081  0.0596  1.0042 -1.3516
 5470SOL    HW227870   2.713   2.883  12.205 -0.4941  0.9534  1.2740
 5471SOL     OW27871   4.092   2.082   9.049 -0.5311 -0.4807 -0.2412
 5471SOL    HW127872   4.119   2.173   9.061 -0.7636 -0.6655  1.6338
 5471SOL    HW227873   4.082   2.060   9.141  0.2030 -0.0017 -0.0482
 5472SOL     OW27874   1.664   3.089   0.862  0.6342 -0.3556  0.1955
 5472SOL    HW127875   1.623   3.006   0.840 -0.0919 -0.0338  0.3451
 5472SOL    HW227876   1.610   3.113   0.937  0.2316  0.5880 -0.3973
 5473SOL     OW27877   2.958   2.279   7.010  0.2103  0.6327 -0.4026
 5473SOL    HW127878   2.862   2.288   7.007  0.3039  1.3157 -1.3667
 5473SOL    HW227879   2.971   2.322   7.094  0.6558  3.2069 -1.7897
 5474SOL     OW27880   2.618   4.357  14.790 -0.6625 -0.0113 -0.0096
 5474SOL    HW127881   2.711   4.354  14.769 -1.0558 -0.6093 -1.6499
 5474SOL    HW227882   2.636   4.332  14.881  2.8987  2.4791 -0.0236
 5475SOL     OW27883   3.025   0.391   2.979 -0.5730  0.0435  0.7168
 5475SOL    HW127884   2.989   0.455   2.918 -2.1126  0.1789  1.7784
 5475SOL    HW227885   3.027   0.439   3.062 -0.8081 -1.4113  1.5733
 5476SOL     OW27886   2.300   2.287   8.113 -0.2531 -0.0977  0.3031
 5476SOL    HW127887   2.209   2.276   8.142 -1.5220 -0.4136 -3.8499
 5476SOL    HW227888   2.327   2.196   8.126 -1.2148 -0.4668 -0.3214
 5477SOL     OW27889   2.628   2.887   0.307  0.2809 -0.3611 -0.0288
 5477SOL    HW127890   2.646   2.796   0.330  2.8088 -0.0222 -0.7087
 5477SOL    HW227891   2.713   2.915   0.273  2.2076 -2.3879  3.1253
 5478SOL     OW27892   0.322   3.734   8.817  0.6680 -0.2380  0.4293
 5478SOL    HW127893   0.409   3.745   8.777  0.3600  1.2908  0.1637
 5478SOL    HW227894   0.295   3.655   8.772 -2.7289  1.3014 -0.2349
 5479SOL     OW27895   4.554   3.635  13.989  0.3508 -0.0470  0.6936
 5479SOL    HW127896   4.506   3.718  13.990 -1.3827 -1.0179 -1.6727
 5479SOL    HW227897   4.640   3.669  13.963 -1.4003  0.8898 -3.8979
 5480SOL     OW27898   3.153   3.424  11.836  0.9813 -0.2121 -0.1404
 5480SOL    HW127899   3.216   3.469  11.892  0.1259  0.0179  0.6274
 5480SOL    HW227900   3.168   3.469  11.752  1.0511  2.5649  1.3728
 5481SOL     OW27901   4.122   0.420   5.397 -0.1501  0.4276  0.0286
 5481SOL    HW127902   4.118   0.401   5.491  1.1221  2.3990  0.4861
 5481SOL    HW227903   4.202   0.370   5.376 -0.9878 -1.0042  0.2747
 5482SOL     OW27904   2.298   4.128   7.244  0.2595  0.1736  0.4418
 5482SOL    HW127905   2.377   4.181   7.250 -0.2314  0.5489  3.2189
 5482SOL    HW227906   2.232   4.178   7.292  0.9372  1.9170 -0.4542
 5483SOL     OW27907   0.717   4.077  10.311 -0.2638 -0.1664  0.0008
 5483SOL    HW127908   0.776   4.126  10.253  0.1231 -1.1917 -0.4721
 5483SOL    HW227909   0.722   3.994  10.263  1.7539  1.2853 -2.3181
 5484SOL     OW27910   2.275   2.748   8.661 -0.3559  0.3582 -0.2761
 5484SOL    HW127911   2.284   2.808   8.587 -0.7506  0.9055  0.1174
 5484SOL    HW227912   2.367   2.746   8.688 -0.2559  1.2918 -0.5569
 5485SOL     OW27913   0.641   2.546   2.964  0.7925 -0.0011 -0.1101
 5485SOL    HW127914   0.588   2.515   2.891 -1.7994  2.3076  0.7845
 5485SOL    HW227915   0.605   2.635   2.963  0.2107 -0.2745 -2.3897
 5486SOL     OW27916   3.785   2.967   3.795 -0.5296 -0.0162  0.0761
 5486SOL    HW127917   3.796   3.021   3.873  0.2865 -1.8258  1.1924
 5486SOL    HW227918   3.702   2.932   3.825  0.0336 -1.2990  0.1184
 5487SOL     OW27919   4.079   0.240  15.659  0.3186 -0.1333 -0.1603
 5487SOL    HW127920   4.174   0.248  15.670  0.3113  0.7076 -0.7588
 5487SOL    HW227921   4.062   0.295  15.583  0.9459  0.8182  0.3838
 5488SOL     OW27922   0.325   1.307   4.352 -0.4308  0.3530  0.5315
 5488SOL    HW127923   0.406   1.357   4.347  0.1759 -0.6760  0.1764
 5488SOL    HW227924   0.311   1.295   4.258  1.4049 -0.2131  0.3394
 5489SOL     OW27925   1.783   3.246   8.732 -0.2858 -0.4714  0.1199
 5489SOL    HW127926   1.770   3.321   8.789 -0.8501  0.1173 -0.7944
 5489SOL    HW227927   1.878   3.249   8.722 -0.2757 -0.1656  0.3218
 5490SOL     OW27928   0.538   3.476   4.799 -0.3591  0.4952  0.0162
 5490SOL    HW127929   0.459   3.525   4.820 -1.4233 -1.1122 -0.1774
 5490SOL    HW227930   0.552   3.439   4.886  1.5627  0.5970 -0.2372
 5491SOL     OW27931   4.416   4.295   0.068  0.0283  0.1492  0.2305
 5491SOL    HW127932   4.398   4.389   0.077  2.5162  0.5990  0.3853
 5491SOL    HW227933   4.332   4.264   0.103  0.5826 -2.5794 -0.8335
 5492SOL     OW27934   4.681   1.188   2.406  0.1702 -0.0390  0.1802
 5492SOL    HW127935   4.607   1.232   2.364 -0.2892 -1.6033 -0.6532
 5492SOL    HW227936   4.723   1.264   2.445 -0.5816  1.0255 -1.0867
 5493SOL     OW27937   1.940   0.371  10.262 -0.1882  0.2850 -0.2286
 5493SOL    HW127938   2.023   0.355  10.308 -1.9428 -1.9103  2.1718
 5493SOL    HW227939   1.883   0.363  10.339 -0.9810 -0.0850 -0.8553
 5494SOL     OW27940   2.085   1.639  14.804  0.2637 -0.2729 -0.6101
 5494SOL    HW127941   2.173   1.627  14.841 -0.5724 -2.8016  0.5846
 5494SOL    HW227942   2.052   1.690  14.878  0.5012 -1.8040  0.5617
 5495SOL     OW27943   4.415   3.616   8.618 -0.1300 -0.1236  0.1027
 5495SOL    HW127944   4.393   3.630   8.710  0.8506  1.1786  0.1286
 5495SOL    HW227945   4.361   3.541   8.591 -0.2043 -0.3234  0.8097
 5496SOL     OW27946   2.538   2.461   7.523 -0.1153  0.0922  0.1172
 5496SOL    HW127947   2.593   2.393   7.484  0.4434 -0.1722  1.3635
 5496SOL    HW227948   2.597   2.519   7.571 -0.0071 -0.9825  1.2903
 5497SOL     OW27949   1.084   2.658   8.669 -0.0570  0.1030  0.3742
 5497SOL    HW127950   1.151   2.621   8.726  0.1946 -0.5579 -0.3501
 5497SOL    HW227951   1.040   2.720   8.727 -2.4400 -1.7322  0.5038
 5498SOL     OW27952   2.345   2.305   5.320  0.5527 -0.3073  0.4573
 5498SOL    HW127953   2.275   2.241   5.335  1.9142 -1.8851  0.1006
 5498SOL    HW227954   2.299   2.387   5.338  2.0609  0.3006  1.5478
 5499SOL     OW27955   2.599   2.272   1.699 -0.5270  0.0540 -0.2162
 5499SOL    HW127956   2.608   2.206   1.631  2.4113  0.8729 -0.6369
 5499SOL    HW227957   2.686   2.274   1.738  0.4811 -1.1022 -2.4048
 5500SOL     OW27958   0.468   3.546   3.205 -0.1616 -0.4403 -0.2277
 5500SOL    HW127959   0.561   3.560   3.224 -0.3987  3.9547 -2.1855
 5500SOL    HW227960   0.409   3.571   3.277  3.1009  1.4707  1.8317
 5501SOL     OW27961   1.502   2.706   3.325 -0.0720  0.2135 -0.0005
 5501SOL    HW127962   1.588   2.747   3.332  0.8982 -1.5868 -1.3347
 5501SOL    HW227963   1.470   2.749   3.245  0.7589  1.7047  0.4623
 5502SOL     OW27964   1.467   2.004   2.221 -0.1912  0.3770  0.0572
 5502SOL    HW127965   1.445   2.097   2.232 -2.5086 -0.1481 -0.3299
 5502SOL    HW227966   1.523   1.991   2.298 -1.0647  0.1693  0.6582
 5503SOL     OW27967   2.446   2.535   0.976  0.5393 -0.2039  0.0717
 5503SOL    HW127968   2.460   2.623   1.012  1.3004 -0.3402  0.1172
 5503SOL    HW227969   2.391   2.547   0.899 -0.7579 -1.3733  0.8150
 5504SOL     OW27970   2.315   1.070   2.424  0.2236 -0.4577 -0.2080
 5504SOL    HW127971   2.280   0.982   2.410  0.1062 -0.3095 -0.8342
 5504SOL    HW227972   2.400   1.059   2.466  0.1464 -0.7988 -0.1466
 5505SOL     OW27973   4.428   3.107   5.194  0.3871 -0.0576  0.0829
 5505SOL    HW127974   4.495   3.112   5.125  0.1511  0.0467 -0.1351
 5505SOL    HW227975   4.351   3.072   5.149 -0.2597  1.1511  0.2638
 5506SOL     OW27976   3.398   2.908   9.898 -0.0260  0.0060 -0.2085
 5506SOL    HW127977   3.445   2.884   9.978  1.3336 -0.5204 -1.1519
 5506SOL    HW227978   3.450   2.984   9.870  0.5573 -0.2788  0.0801
 5507SOL     OW27979   1.874   2.837   7.737  0.2459 -0.2142 -0.0436
 5507SOL    HW127980   1.790   2.842   7.692  0.6942 -2.3582 -1.1452
 5507SOL    HW227981   1.935   2.784   7.686  0.1675  0.7383 -1.1102
 5508SOL     OW27982   0.974   0.558   8.991 -0.1082  0.1622 -0.0837
 5508SOL    HW127983   1.055   0.566   9.041 -0.2242  3.6031 -0.4556
 5508SOL    HW227984   1.013   0.539   8.906  2.4599  0.2981  1.0542
 5509SOL     OW27985   2.602   1.749  12.984  0.2334  0.2134  0.3733
 5509SOL    HW127986   2.674   1.701  12.943  0.4916 -0.3192  1.4502
 5509SOL    HW227987   2.632   1.834  12.952 -1.2163 -0.0803 -1.7120
 5510SOL     OW27988   1.621   0.777   8.263  0.1284  0.1524 -0.5299
 5510SOL    HW127989   1.530   0.807   8.269 -0.0148 -0.3395 -0.2332
 5510SOL    HW227990   1.621   0.696   8.213 -1.3071 -1.3791  1.9404
 5511SOL     OW27991   0.724   2.446   3.217  0.0979 -0.5609  0.0328
 5511SOL    HW127992   0.811   2.487   3.213  0.1494 -0.6956 -0.2619
 5511SOL    HW227993   0.695   2.482   3.134  0.6785 -0.4444 -0.1234
 5512SOL     OW27994   0.232   3.467  15.128 -0.6018 -0.2600  0.3560
 5512SOL    HW127995   0.169   3.509  15.070  1.9248  0.8053 -1.6069
 5512SOL    HW227996   0.265   3.399  15.070  2.1854  0.5485  0.9867
 5513SOL     OW27997   1.667   1.597   3.815 -0.4031  0.3408  1.0652
 5513SOL    HW127998   1.630   1.513   3.840 -3.0532  0.1258 -3.5990
 5513SOL    HW227999   1.753   1.573   3.849 -0.1181 -2.5235 -1.6176
 5514SOL     OW28000   3.138   2.954   9.700  0.0767 -0.2255  0.4383
 5514SOL    HW128001   3.184   3.028   9.660  1.0743 -0.2994  1.4605
 5514SOL    HW228002   3.130   2.987   9.789  1.3934  0.0842  0.4419
 5515SOL     OW28003   1.493   1.971   6.258  0.6591 -0.1809  0.0908
 5515SOL    HW128004   1.518   1.884   6.227 -1.2592 -1.3317  1.7995
 5515SOL    HW228005   1.424   1.997   6.197 -0.4844 -1.3863  0.8644
 5516SOL     OW28006   2.487   0.855   6.626 -0.7219 -0.1571  0.1235
 5516SOL    HW128007   2.397   0.862   6.595 -0.9185 -1.7281  0.3614
 5516SOL    HW228008   2.467   0.888   6.713 -0.4536  0.4377 -0.0417
 5517SOL     OW28009   4.370   4.497  16.463 -0.2760  0.4155  0.3104
 5517SOL    HW128010   4.319   4.448  16.527  0.6306 -1.2375 -0.2298
 5517SOL    HW228011   4.308   4.518  16.393  0.4549  2.1815  0.1880
 5518SOL     OW28012   3.597   3.292   4.259  0.3225 -0.8114 -0.1151
 5518SOL    HW128013   3.552   3.229   4.315  0.9957 -1.5555 -0.3995
 5518SOL    HW228014   3.575   3.268   4.169  1.6403  1.2095 -0.9768
 5519SOL     OW28015   1.579   0.068   2.186 -0.4919 -0.4428  0.3599
 5519SOL    HW128016   1.619   0.153   2.166  0.4541 -1.2395 -1.1240
 5519SOL    HW228017   1.579   0.072   2.281  0.9537 -0.1347  0.3412
 5520SOL     OW28018   4.324   0.128   8.687  0.0774 -0.6222  0.3240
 5520SOL    HW128019   4.239   0.159   8.721 -0.0749 -0.3107 -0.3377
 5520SOL    HW228020   4.358   0.091   8.768  0.3078  0.5402  0.7572
 5521SOL     OW28021   3.105   2.083   2.498 -0.2855  0.0346  0.1578
 5521SOL    HW128022   3.149   2.138   2.433 -1.5753 -0.1470 -0.8585
 5521SOL    HW228023   3.172   2.056   2.560  1.2503  2.0374 -0.6311
 5522SOL     OW28024   2.507   3.906  11.625  0.5480  0.0932  0.7476
 5522SOL    HW128025   2.490   3.933  11.715 -1.0289  3.6024 -0.6091
 5522SOL    HW228026   2.536   3.815  11.637  1.0643  0.0959 -0.4543
 5523SOL     OW28027   3.675   0.058   7.009 -0.0829 -0.4995  0.3382
 5523SOL    HW128028   3.608   0.080   7.073 -1.1859 -0.8476 -0.7076
 5523SOL    HW228029   3.655   4.687   7.006  1.3004 -0.8554  1.8949
 5524SOL     OW28030   2.738   2.862   8.757  0.0695  0.5246  0.2755
 5524SOL    HW128031   2.794   2.882   8.682 -0.2959  1.4983  0.2566
 5524SOL    HW228032   2.664   2.822   8.711  1.1594  0.5366 -1.4667
 5525SOL     OW28033   2.554   0.286   6.438  0.5918 -0.1358 -0.7320
 5525SOL    HW128034   2.590   0.348   6.503  0.9950 -0.8189 -0.3030
 5525SOL    HW228035   2.615   0.213   6.444  2.4164  1.1961 -3.3256
 5526SOL     OW28036   0.772   0.172  17.096 -0.2407  0.4761  0.3154
 5526SOL    HW128037   0.817   0.250  17.063  0.9198  0.4892  1.9403
 5526SOL    HW228038   0.683   0.208  17.100 -0.2444  0.4586  0.4103
 5527SOL     OW28039   0.544   4.411  17.156  0.3448  0.4824  0.0568
 5527SOL    HW128040   0.507   4.467  17.225 -3.8439 -4.0200  1.3911
 5527SOL    HW228041   0.518   4.463  17.080  0.1421 -0.6299 -0.6281
 5528SOL     OW28042   4.007   2.442  14.861  0.3267  0.3816 -0.4922
 5528SOL    HW128043   3.962   2.507  14.808 -0.9214  0.2926  0.4804
 5528SOL    HW228044   3.973   2.363  14.818  0.9333 -0.4468  0.5366
 5529SOL     OW28045   1.542   3.934   2.915  0.0023  0.0229  0.1716
 5529SOL    HW128046   1.461   3.903   2.874  0.1418  1.8629 -1.4636
 5529SOL    HW228047   1.553   3.871   2.987 -1.2140 -0.2433  0.1320
 5530SOL     OW28048   3.591   1.961   6.327 -0.0648 -0.1117  0.2640
 5530SOL    HW128049   3.584   1.925   6.416 -0.8760 -4.0181 -1.4166
 5530SOL    HW228050   3.508   2.005   6.306 -0.0073 -0.5840 -0.9047
 5531SOL     OW28051   2.995   3.645  11.070 -0.2174 -0.1559 -0.4376
 5531SOL    HW128052   3.017   3.739  11.068  1.2314 -0.4962 -0.1832
 5531SOL    HW228053   3.083   3.617  11.045 -1.1240 -3.4787  0.1487
 5532SOL     OW28054   0.694   4.135  16.532 -0.6142  0.0266 -0.1558
 5532SOL    HW128055   0.663   4.072  16.597 -0.6147  0.2268  0.0374
 5532SOL    HW228056   0.717   4.078  16.458 -1.5163 -1.7083  0.8966
 5533SOL     OW28057   1.724   0.849   6.496 -0.2458  0.5812 -0.0502
 5533SOL    HW128058   1.641   0.892   6.514 -1.0373  0.0671 -2.5464
 5533SOL    HW228059   1.767   0.909   6.435 -0.0257 -0.8467 -1.2941
 5534SOL     OW28060   1.083   0.563   6.778 -0.7020  0.4708  0.5265
 5534SOL    HW128061   1.002   0.584   6.731  0.9945  2.6333 -1.4630
 5534SOL    HW228062   1.056   0.576   6.869  0.1384  1.3665  0.6505
 5535SOL     OW28063   0.711   0.944   6.851 -0.1378 -0.2919  0.1126
 5535SOL    HW128064   0.679   0.868   6.802 -0.1991 -0.1326 -0.0920
 5535SOL    HW228065   0.710   0.911   6.941 -0.2469  2.7502  1.2269
 5536SOL     OW28066   4.224   0.203   6.232  0.2058 -0.1589  0.4080
 5536SOL    HW128067   4.225   0.264   6.158  1.0973 -0.7475 -0.0693
 5536SOL    HW228068   4.192   0.263   6.299  2.3196  0.8640  0.4938
 5537SOL     OW28069   2.222   1.197   4.624 -0.0952  0.0211 -0.5948
 5537SOL    HW128070   2.313   1.225   4.616 -0.9098  2.4490 -1.4363
 5537SOL    HW228071   2.186   1.256   4.557 -0.3560  1.6614  0.9798
 5538SOL     OW28072   1.246   2.783   6.029  0.0366  0.3892  0.3512
 5538SOL    HW128073   1.271   2.872   6.053 -0.1924  0.4571  0.3440
 5538SOL    HW228074   1.160   2.792   5.987  0.4116 -0.4557 -0.5831
 5539SOL     OW28075   3.247   2.302  12.013 -0.2550  0.3022 -0.1369
 5539SOL    HW128076   3.235   2.222  12.063 -0.6352  0.0789 -0.5833
 5539SOL    HW228077   3.172   2.295  11.955  1.5064 -2.6314 -2.0486
 5540SOL     OW28078   4.715   2.112  11.700  0.4748 -0.0111  0.0038
 5540SOL    HW128079   4.669   2.068  11.629 -1.4616  0.3856  0.9966
 5540SOL    HW228080   4.649   2.177  11.726  0.6520  0.2537 -0.2117
 5541SOL     OW28081   2.394   1.300   4.392 -0.0816 -0.0476 -0.6398
 5541SOL    HW128082   2.478   1.284   4.435  0.4831  1.2979 -1.2341
 5541SOL    HW228083   2.375   1.221   4.341  1.8309 -0.7620 -0.2501
 5542SOL     OW28084   0.642   1.813   9.010  0.6512  0.2976 -0.4501
 5542SOL    HW128085   0.708   1.781   8.948 -0.4589 -0.7925 -1.0811
 5542SOL    HW228086   0.666   1.770   9.092 -1.7379  1.0024  0.6243
 5543SOL     OW28087   1.240   0.489  16.849  0.2880 -0.0505 -0.2593
 5543SOL    HW128088   1.248   0.487  16.753  0.9309  3.0952 -0.2832
 5543SOL    HW228089   1.233   0.584  16.844  0.3209  0.0048  0.8492
 5544SOL     OW28090   3.303   1.208   9.609 -0.1573  0.8577 -0.1197
 5544SOL    HW128091   3.379   1.239   9.659 -0.8594  1.6581  0.4482
 5544SOL    HW228092   3.241   1.278   9.628 -2.0573 -1.2413  1.3111
 5545SOL     OW28093   0.613   2.929  14.432  0.9284  0.1303 -0.0449
 5545SOL    HW128094   0.674   2.882  14.489  0.2009 -1.0904 -0.2636
 5545SOL    HW228095   0.652   3.016  14.429  2.2459 -0.3050  3.9173
 5546SOL     OW28096   1.500   0.301   0.634  0.1943 -0.5880 -0.4283
 5546SOL    HW128097   1.476   0.390   0.608  2.2762  0.1682  0.2637
 5546SOL    HW228098   1.480   0.289   0.727  0.1515 -0.1125 -0.3762
 5547SOL     OW28099   0.764   0.351  11.330 -0.1503 -0.3251  0.4925
 5547SOL    HW128100   0.797   0.326  11.244 -0.7790  1.3167 -0.2083
 5547SOL    HW228101   0.735   0.265  11.361 -0.3039  0.3864  2.3271
 5548SOL     OW28102   0.006   4.723   7.498 -0.1502  0.1756  0.0339
 5548SOL    HW128103   0.058   4.658   7.546 -0.4267  1.6620  2.3406
 5548SOL    HW228104   4.713   0.053   7.576 -0.5729 -1.4840  1.1064
 5549SOL     OW28105   2.132   3.915   2.793 -0.0382 -0.2906  0.0550
 5549SOL    HW128106   2.100   3.848   2.732 -1.1698 -0.0975  0.4383
 5549SOL    HW228107   2.207   3.953   2.746 -1.5890 -0.7999 -2.8293
 5550SOL     OW28108   1.045   0.039   5.840 -0.1259 -0.1366  0.0565
 5550SOL    HW128109   1.137   0.040   5.868  0.0477 -0.1673 -0.5017
 5550SOL    HW228110   1.018   4.675   5.867  1.9445 -0.3041  1.5369
 5551SOL     OW28111   1.253   1.682  11.136  0.2014 -0.1146 -0.7196
 5551SOL    HW128112   1.251   1.722  11.224  0.8634  1.2600 -1.3267
 5551SOL    HW228113   1.320   1.618  11.158 -0.6472 -0.6101  0.4208
 5552SOL     OW28114   1.801   1.353   4.387  0.2861  1.0612 -0.6180
 5552SOL    HW128115   1.847   1.400   4.457  1.2301  2.3209 -2.0788
 5552SOL    HW228116   1.789   1.417   4.316 -0.4322  1.3802 -0.2153
 5553SOL     OW28117   3.928   3.341  13.917  0.1101 -0.4292 -0.0746
 5553SOL    HW128118   3.992   3.298  13.860  0.1083 -2.0690  1.1504
 5553SOL    HW228119   3.857   3.279  13.906  0.5065 -1.3736  2.6694
 5554SOL     OW28120   3.429   1.887   3.688  0.0629  0.0326  0.1170
 5554SOL    HW128121   3.445   1.808   3.637 -2.9407 -1.6003  1.7313
 5554SOL    HW228122   3.492   1.872   3.759  0.9464  1.3249 -0.3825
 5555SOL     OW28123   3.640   4.301   1.301 -0.3437 -0.6174 -0.3205
 5555SOL    HW128124   3.690   4.258   1.370 -0.7209  0.2693  0.5072
 5555SOL    HW228125   3.677   4.266   1.220  1.7130 -1.0205  0.8139
 5556SOL     OW28126   4.584   2.974   8.814 -0.0900  0.4217  0.3251
 5556SOL    HW128127   4.592   2.986   8.909 -1.3020  0.3291  0.4429
 5556SOL    HW228128   4.677   2.963   8.794 -0.0884 -0.6594  0.9204
 5557SOL     OW28129   4.467   3.133   2.682 -0.3740 -0.0046  0.1820
 5557SOL    HW128130   4.475   3.121   2.588 -0.0707 -0.5604  0.2810
 5557SOL    HW228131   4.528   3.204   2.704 -0.7197  0.4464 -0.3104
 5558SOL     OW28132   0.850   3.602  10.002 -0.0448  0.5300  0.3357
 5558SOL    HW128133   0.758   3.580   9.989  0.1886 -0.2243 -0.0881
 5558SOL    HW228134   0.886   3.556   9.926 -2.2472  0.4901 -0.6823
 5559SOL     OW28135   3.815   4.159   2.124 -0.0135 -0.2425  0.6783
 5559SOL    HW128136   3.831   4.252   2.140  1.2787 -0.1001 -1.4525
 5559SOL    HW228137   3.747   4.166   2.057  1.8541 -2.3844 -1.4373
 5560SOL     OW28138   0.001   1.143   2.121  0.7013 -0.4450 -0.3138
 5560SOL    HW128139   4.690   1.222   2.081  3.9933  1.8139  1.3335
 5560SOL    HW228140   0.019   1.164   2.213  1.1887  1.6687 -0.8883
 5561SOL     OW28141   2.644   1.682   5.254  0.0832 -0.4358 -0.1794
 5561SOL    HW128142   2.624   1.588   5.260 -0.8949 -0.2194 -0.0839
 5561SOL    HW228143   2.573   1.725   5.301 -0.4188 -0.9564 -0.4620
 5562SOL     OW28144   1.154   3.082   7.042  0.1045  0.2424  0.1611
 5562SOL    HW128145   1.179   3.155   7.099  1.1737 -1.8942  2.4512
 5562SOL    HW228146   1.075   3.121   7.004  0.2847  0.1409 -0.3084
 5563SOL     OW28147   1.166   2.853   7.265 -0.5745 -0.0291  0.1966
 5563SOL    HW128148   1.157   2.770   7.312  2.3993 -2.0096 -2.7023
 5563SOL    HW228149   1.123   2.834   7.181 -0.7240  0.9073  0.0672
 5564SOL     OW28150   4.174   4.236   7.956  0.2619  0.4050 -0.2432
 5564SOL    HW128151   4.162   4.316   8.006  0.1386  0.8637 -1.0001
 5564SOL    HW228152   4.270   4.228   7.961  0.0806 -1.4378  0.4911
 5565SOL     OW28153   0.996   2.085   1.998  0.6464  0.8195 -0.1742
 5565SOL    HW128154   1.023   2.059   1.910 -0.5614 -0.1385 -0.2516
 5565SOL    HW228155   1.078   2.126   2.028  1.4189 -0.6248 -0.3163
 5566SOL     OW28156   1.988   2.950  14.324  0.2392  0.1397 -0.2728
 5566SOL    HW128157   1.991   2.873  14.268  0.9378  1.2186 -1.7441
 5566SOL    HW228158   1.921   3.006  14.283  0.2671 -0.4286 -1.0901
 5567SOL     OW28159   3.767   0.291   6.883 -0.1614  0.6511  0.2603
 5567SOL    HW128160   3.742   0.337   6.963  0.0505 -0.9196  1.2516
 5567SOL    HW228161   3.771   0.202   6.919 -1.1560  0.7520  0.6392
 5568SOL     OW28162   0.179   2.901   7.505 -0.4495  0.1849  0.2799
 5568SOL    HW128163   0.266   2.874   7.477 -0.3980  0.4078  0.2274
 5568SOL    HW228164   0.198   2.975   7.563 -0.2560  0.7209 -0.4672
 5569SOL     OW28165   0.047   3.219   4.118  0.7480  0.1829  0.6377
 5569SOL    HW128166   0.084   3.192   4.034  3.0991 -0.0003  1.7341
 5569SOL    HW228167   4.716   3.142   4.137 -0.4795  0.7403 -0.6403
 5570SOL     OW28168   1.894   0.590   8.953 -0.6913  0.4131  0.4676
 5570SOL    HW128169   1.988   0.607   8.952 -0.4215 -1.0658  1.1268
 5570SOL    HW228170   1.900   0.500   8.921  0.6763  0.0641  1.7243
 5571SOL     OW28171   4.086   0.482  11.610 -0.2039  0.8688 -0.4030
 5571SOL    HW128172   4.107   0.433  11.689 -1.4165  1.2972  0.1907
 5571SOL    HW228173   4.138   0.437  11.543 -0.6242  0.5052 -0.4889
 5572SOL     OW28174   2.417   1.905   2.659  1.0546  0.2520  0.5117
 5572SOL    HW128175   2.470   1.937   2.586 -0.8006 -1.3498 -1.5320
 5572SOL    HW228176   2.437   1.812   2.656 -0.4755 -0.0850  0.7446
 5573SOL     OW28177   1.132   4.039  17.165  0.1327  0.2210  0.0114
 5573SOL    HW128178   1.125   4.092  17.245  0.2220  0.4387 -0.1263
 5573SOL    HW228179   1.047   4.049  17.123  1.3836 -0.4774 -2.6552
 5574SOL     OW28180   0.753   1.500   7.971 -0.2975 -0.2093  0.1834
 5574SOL    HW128181   0.695   1.424   7.973 -0.6895  0.1432  1.9418
 5574SOL    HW228182   0.792   1.487   7.884 -0.8443 -0.7861  0.0230
 5575SOL     OW28183   2.319   1.585   6.968  0.2211 -0.5221  0.2595
 5575SOL    HW128184   2.374   1.646   6.919  0.3696  0.9585  2.2576
 5575SOL    HW228185   2.309   1.521   6.898  1.0368 -1.4584  1.0017
 5576SOL     OW28186   1.633   4.640   5.146  0.6621 -0.2287 -0.1498
 5576SOL    HW128187   1.696   4.693   5.098  2.4177 -2.0543  0.1038
 5576SOL    HW228188   1.551   4.688   5.157  1.1802  0.7480 -0.5681
 5577SOL     OW28189   1.671   2.480   2.930 -0.0846  0.1216  0.2024
 5577SOL    HW128190   1.747   2.535   2.945 -1.3590  1.5495  1.4339
 5577SOL    HW228191   1.716   2.396   2.940  0.4932  0.4115  0.0276
 5578SOL     OW28192   2.362   3.562   9.017  0.2411 -0.1099  0.2924
 5578SOL    HW128193   2.351   3.470   9.041  2.4804 -0.9713 -1.9267
 5578SOL    HW228194   2.269   3.581   9.012  0.4053  0.7223  0.3279
 5579SOL     OW28195   2.282   2.775   5.292 -0.6718 -0.1579 -0.1518
 5579SOL    HW128196   2.255   2.835   5.361  0.7641 -1.6109  1.6694
 5579SOL    HW228197   2.359   2.821   5.258 -2.1317  0.6524 -2.3580
 5580SOL     OW28198   1.589   4.512   2.691  0.0783  0.2191 -0.0144
 5580SOL    HW128199   1.621   4.572   2.624 -1.1847  0.3129 -0.5367
 5580SOL    HW228200   1.574   4.437   2.634 -1.0140  0.1690  0.3521
 5581SOL     OW28201   3.726   2.024   8.570  0.2583 -0.5673 -0.7368
 5581SOL    HW128202   3.712   2.038   8.476 -0.9756 -0.4679 -0.5339
 5581SOL    HW228203   3.814   2.056   8.588 -0.1860  0.1887  0.0617
 5582SOL     OW28204   4.069   3.836   4.852  0.0493 -0.2198  0.0445
 5582SOL    HW128205   4.123   3.768   4.893  1.2655  1.3715  1.0696
 5582SOL    HW228206   4.124   3.898   4.803 -1.6274  1.0791 -0.1874
 5583SOL     OW28207   0.490   4.165   9.956  0.0483  0.3366  0.0410
 5583SOL    HW128208   0.560   4.102   9.940 -0.5900 -0.3330 -0.1254
 5583SOL    HW228209   0.439   4.162   9.876  0.5696  0.3346 -0.2902
 5584SOL     OW28210   0.195   0.474   3.214  0.2355 -0.6455  0.7137
 5584SOL    HW128211   0.265   0.538   3.196  0.2167 -0.4376  1.3679
 5584SOL    HW228212   0.143   0.518   3.281  1.1685 -1.1537  1.7807
 5585SOL     OW28213   0.436   0.256  17.625 -0.0061 -0.2451  0.3009
 5585SOL    HW128214   0.520   0.295  17.650 -1.0587  2.0661  0.1944
 5585SOL    HW228215   0.407   0.330  17.572 -1.3995 -0.3228  0.9582
 5586SOL     OW28216   3.824   2.266   1.237  0.8718 -0.6818  0.1686
 5586SOL    HW128217   3.732   2.291   1.238  1.2134  0.5368  1.7917
 5586SOL    HW228218   3.823   2.239   1.329 -1.0976  0.8099  0.5969
 5587SOL     OW28219   0.428   3.361   6.700 -0.0926 -0.5598  0.0909
 5587SOL    HW128220   0.497   3.367   6.634 -0.7408 -1.7941 -0.7055
 5587SOL    HW228221   0.348   3.335   6.655  0.1426 -0.8460 -0.1614
 5588SOL     OW28222   3.294   4.438  17.548  0.6975  0.0591  0.2155
 5588SOL    HW128223   3.363   4.419  17.612  1.8904  3.7972  0.0279
 5588SOL    HW228224   3.224   4.464  17.608  0.3129 -1.8240  0.5967
 5589SOL     OW28225   1.109   1.663   4.045  0.0494  0.1836 -0.5955
 5589SOL    HW128226   1.156   1.741   4.072 -1.8948  0.4362  1.9821
 5589SOL    HW228227   1.022   1.696   4.069  0.0669  1.3843 -2.1653
 5590SOL     OW28228   3.501   4.712   9.750  0.2926  0.3676 -0.2412
 5590SOL    HW128229   3.595   4.717   9.767  0.3027  0.6189 -0.3673
 5590SOL    HW228230   3.501   4.626   9.707  1.8599  1.6979 -2.8735
 5591SOL     OW28231   2.636   1.533   2.182  0.2629  0.2830 -0.3320
 5591SOL    HW128232   2.697   1.472   2.140 -0.0057 -1.8776  2.4183
 5591SOL    HW228233   2.592   1.469   2.237  2.0874  0.7810  1.7269
 5592SOL     OW28234   4.203   2.439   6.406 -0.1073  0.0081  0.2847
 5592SOL    HW128235   4.170   2.357   6.442  0.4947 -0.3638 -0.0039
 5592SOL    HW228236   4.121   2.470   6.368  0.2594  0.3769 -0.2285
 5593SOL     OW28237   4.245   3.895   6.254 -0.5247  0.2644 -0.0886
 5593SOL    HW128238   4.202   3.918   6.172  0.1045 -0.2934 -0.5792
 5593SOL    HW228239   4.163   3.889   6.304  0.8021 -0.0758  2.0601
 5594SOL     OW28240   4.033   1.486   2.886  0.6330 -0.0373 -0.0963
 5594SOL    HW128241   4.119   1.491   2.927  0.9485  1.7750 -1.0027
 5594SOL    HW228242   3.981   1.468   2.964  0.2554 -1.2526 -0.6225
 5595SOL     OW28243   4.676   2.007   3.589  0.2096 -0.2463 -0.5538
 5595SOL    HW128244   4.692   1.976   3.678 -0.4221  0.8885 -0.0437
 5595SOL    HW228245   4.681   2.103   3.595 -0.0827 -0.0311 -3.6043
 5596SOL     OW28246   2.084   0.079   2.914  0.1184  0.1593 -0.3046
 5596SOL    HW128247   2.167   0.085   2.866 -0.7975  0.8208 -1.7917
 5596SOL    HW228248   2.059   4.710   2.902  1.3915  0.0829 -2.4525
 5597SOL     OW28249   0.599   2.380  10.061  0.2016 -0.2664  0.6510
 5597SOL    HW128250   0.545   2.337  10.128 -0.7148  0.2787  0.2502
 5597SOL    HW228251   0.662   2.437  10.105  0.3113 -0.8005  1.1896
 5598SOL     OW28252   0.260   0.565   5.732 -0.3649  0.5315 -0.2072
 5598SOL    HW128253   0.328   0.497   5.730 -0.2859  0.7276 -3.4609
 5598SOL    HW228254   0.313   0.640   5.707  0.5847  0.1076  0.4971
 5599SOL     OW28255   2.619   1.755   7.668 -0.8227  0.2206  0.3917
 5599SOL    HW128256   2.679   1.819   7.705 -0.7557  1.7060 -2.2707
 5599SOL    HW228257   2.564   1.802   7.605  2.5841  1.0609 -1.9428
 5600SOL     OW28258   2.798   4.134   1.062  0.1969 -0.3635  0.0400
 5600SOL    HW128259   2.877   4.175   1.098 -0.4162  0.9344 -0.1146
 5600SOL    HW228260   2.762   4.085   1.136 -0.2178 -0.3825 -0.1746
 5601SOL     OW28261   0.494   2.889   6.108 -0.4632  0.2306  0.2934
 5601SOL    HW128262   0.565   2.914   6.049  0.3763  0.3475  1.3549
 5601SOL    HW228263   0.548   2.859   6.180 -1.4510 -1.9098  0.1343
 5602SOL     OW28264   2.465   2.099   8.621 -0.1182 -0.1667 -0.0111
 5602SOL    HW128265   2.456   2.036   8.549  0.6884 -0.2562 -0.0355
 5602SOL    HW228266   2.385   2.150   8.611 -0.2295 -0.2578  0.4333
 5603SOL     OW28267   4.695   1.714   2.322  0.1492 -0.0629 -0.3077
 5603SOL    HW128268   4.676   1.638   2.267 -2.9095  0.9724 -0.6779
 5603SOL    HW228269   0.068   1.705   2.322  0.3326  1.8378 -0.7292
 5604SOL     OW28270   3.593   0.972   8.372 -0.0418  0.0074 -0.2921
 5604SOL    HW128271   3.542   0.965   8.452 -1.5185 -2.5925 -1.4582
 5604SOL    HW228272   3.544   0.940   8.296 -0.4222 -0.1751  0.0305
 5605SOL     OW28273   0.633   3.615   2.730 -0.2674  0.2066  0.2947
 5605SOL    HW128274   0.592   3.564   2.800  0.8625 -0.0523  0.7616
 5605SOL    HW228275   0.654   3.545   2.669 -3.3062 -1.3472  1.0207
 5606SOL     OW28276   3.921   2.431  15.142  0.3196  0.7714 -0.7115
 5606SOL    HW128277   3.922   2.418  15.047  1.3179 -3.1298 -0.1862
 5606SOL    HW228278   3.839   2.477  15.159  0.9641  1.9170 -0.7532
 5607SOL     OW28279   0.341   0.109   3.590 -0.2107  0.3267  0.3506
 5607SOL    HW128280   0.309   0.020   3.574  1.0304  0.1271 -1.0405
 5607SOL    HW228281   0.307   0.135   3.675 -1.2144  1.6929 -0.4711
 5608SOL     OW28282   1.354   3.406   6.552 -0.4129  0.3755 -0.0732
 5608SOL    HW128283   1.337   3.399   6.646  1.3897  2.3506  0.4162
 5608SOL    HW228284   1.284   3.469   6.534  0.1704  1.3222  0.9424
 5609SOL     OW28285   4.674   0.537  12.656  0.1570 -0.4467 -0.7333
 5609SOL    HW128286   4.670   0.624  12.694  0.3856 -0.0697 -1.5858
 5609SOL    HW228287   0.029   0.550  12.602 -0.1083 -0.8097 -1.2059
 5610SOL     OW28288   2.185   1.474   0.611  0.0129  0.1975 -0.7871
 5610SOL    HW128289   2.218   1.519   0.533 -0.0305  0.4080 -0.6839
 5610SOL    HW228290   2.203   1.539   0.679  2.5528 -0.1732 -1.1322
 5611SOL     OW28291   1.202   1.174   9.375 -0.3913  0.2259 -0.2796
 5611SOL    HW128292   1.141   1.225   9.428  2.5901  1.4814  1.9292
 5611SOL    HW228293   1.242   1.233   9.312  1.3565 -1.7799 -1.0581
 5612SOL     OW28294   1.062   2.603  16.409 -0.3249 -0.3337  0.1562
 5612SOL    HW128295   1.065   2.584  16.503  0.1325  1.4072  0.4903
 5612SOL    HW228296   1.143   2.556  16.389  0.5407  2.3406 -2.5910
 5613SOL     OW28297   2.918   1.489   3.869 -0.7327 -0.4905  0.5999
 5613SOL    HW128298   2.862   1.472   3.944  2.2476 -0.8125  2.7719
 5613SOL    HW228299   2.865   1.541   3.809  3.0291  0.4471 -1.9450
 5614SOL     OW28300   1.090   2.221   7.636 -0.2878  0.1878  0.0843
 5614SOL    HW128301   1.011   2.269   7.615  1.2798  3.2028  1.0481
 5614SOL    HW228302   1.086   2.141   7.584 -0.3954 -0.1641  0.6412
 5615SOL     OW28303   0.618   0.252   9.077  0.0578 -0.4216  0.1899
 5615SOL    HW128304   0.706   0.287   9.066  1.0795 -2.3260  2.3087
 5615SOL    HW228305   0.616   0.186   9.008  0.7951  0.6554 -0.8692
 5616SOL     OW28306   1.038   1.452  17.343  0.0897 -0.1701  0.0086
 5616SOL    HW128307   1.032   1.371  17.291 -2.7052 -0.4035  0.7139
 5616SOL    HW228308   1.106   1.431  17.407  0.0086 -2.5777 -0.7025
 5617SOL     OW28309   3.380   1.253   3.419  0.1793  0.4772  0.3996
 5617SOL    HW128310   3.459   1.235   3.471 -0.1028  0.4064  0.8002
 5617SOL    HW228311   3.363   1.171   3.373 -0.3768  0.7068  0.1986
 5618SOL     OW28312   4.511   2.185   4.916 -0.3064 -0.4021 -0.0081
 5618SOL    HW128313   4.477   2.242   4.847 -2.8198 -1.9723 -0.0503
 5618SOL    HW228314   4.470   2.102   4.893  1.6338 -1.1792 -0.7068
 5619SOL     OW28315   4.169   2.115   8.408  0.2357  0.2676  0.5600
 5619SOL    HW128316   4.177   2.111   8.504  0.1725 -2.1814  0.4613
 5619SOL    HW228317   4.239   2.062   8.372 -0.0856 -0.0086  0.3424
 5620SOL     OW28318   4.455   3.429   8.000  0.4107  0.1537 -0.2158
 5620SOL    HW128319   4.486   3.372   7.930 -1.5393 -0.7947 -0.3207
 5620SOL    HW228320   4.363   3.403   8.000  0.0676  1.3407  0.6944
 5621SOL     OW28321   2.691   0.212  11.842  0.0982  0.6089 -0.3910
 5621SOL    HW128322   2.606   0.171  11.860 -0.1648  1.2509 -0.1917
 5621SOL    HW228323   2.665   0.280  11.779  0.9743  0.8604 -0.4814
 5622SOL     OW28324   3.315   3.201  17.227 -0.6596  0.1845 -0.0463
 5622SOL    HW128325   3.266   3.283  17.224  3.0126  2.4233  0.7225
 5622SOL    HW228326   3.392   3.228  17.277 -1.5661 -0.3811  1.6250
 5623SOL     OW28327   2.987   1.022  11.209 -0.0829  0.1712  0.5195
 5623SOL    HW128328   3.069   1.027  11.259  0.8982  1.2809 -1.2100
 5623SOL    HW228329   3.021   0.981  11.129  0.2261  1.7225 -0.1400
 5624SOL     OW28330   2.374   3.853   8.789  0.9499 -0.2840  0.1101
 5624SOL    HW128331   2.465   3.882   8.798  0.0623  2.6425 -0.6886
 5624SOL    HW228332   2.353   3.856   8.883 -0.1294  0.0608 -0.1405
 5625SOL     OW28333   0.256   4.408  12.969 -0.0062  0.3777  0.3895
 5625SOL    HW128334   0.327   4.456  13.012 -0.3277  0.6582  0.6050
 5625SOL    HW228335   0.190   4.476  12.978 -0.3529  0.1245 -0.2747
 5626SOL     OW28336   1.496   1.820   8.719 -0.7189  0.4907 -0.0297
 5626SOL    HW128337   1.572   1.809   8.777 -0.6546 -1.5503 -0.5104
 5626SOL    HW228338   1.470   1.730   8.701 -0.3740  0.3466  0.1981
 5627SOL     OW28339   1.642   1.935   9.361  0.1893  0.3619 -0.3308
 5627SOL    HW128340   1.645   1.970   9.450 -1.9306 -2.7660  0.9798
 5627SOL    HW228341   1.625   2.013   9.308  1.1683 -0.0730 -1.2902
 5628SOL     OW28342   4.407   2.828   6.448 -0.2834  0.7603  0.4864
 5628SOL    HW128343   4.400   2.745   6.496 -0.9607  1.3137  1.3404
 5628SOL    HW228344   4.484   2.875   6.479  0.1058  2.1080 -2.4597
 5629SOL     OW28345   0.335   0.212   4.460 -0.1311 -0.6052  0.3085
 5629SOL    HW128346   0.391   0.198   4.536  0.8140  0.8783 -0.1262
 5629SOL    HW228347   0.396   0.244   4.394 -0.7900  2.1399  1.0281
 5630SOL     OW28348   2.961   3.029   8.323 -0.2938  0.5062 -0.1343
 5630SOL    HW128349   3.026   3.064   8.384 -0.9016 -1.6249  1.7400
 5630SOL    HW228350   2.954   3.108   8.270  0.3556  0.2140 -0.6545
 5631SOL     OW28351   0.044   0.992   3.256 -0.0949  0.3397 -0.0293
 5631SOL    HW128352   0.007   1.078   3.236  1.8494  1.8572  2.9269
 5631SOL    HW228353   0.130   1.017   3.290  0.0271 -1.3533  0.9121
 5632SOL     OW28354   2.296   2.455  16.707  0.0412 -0.5992 -0.6784
 5632SOL    HW128355   2.240   2.531  16.724  0.0979 -0.5232 -0.8334
 5632SOL    HW228356   2.344   2.475  16.627 -3.0698  0.0453 -2.3900
 5633SOL     OW28357   4.108   3.777   1.220  0.4313  0.0358  0.3720
 5633SOL    HW128358   4.033   3.745   1.170  0.0768  2.3732 -0.5928
 5633SOL    HW228359   4.115   3.714   1.292  0.8350 -1.7191 -1.1996
 5634SOL     OW28360   0.100   3.304   0.519  0.7769  0.6023  0.8452
 5634SOL    HW128361   0.177   3.338   0.473  1.2355  0.8960  1.8213
 5634SOL    HW228362   0.088   3.217   0.480 -0.9751  0.9929  0.5104
 5635SOL     OW28363   0.823   4.611   7.437 -0.2607  0.1419  0.1844
 5635SOL    HW128364   0.741   4.569   7.412 -0.0847  0.7455 -1.4090
 5635SOL    HW228365   0.793   4.641   7.523 -1.2678 -0.5030  0.0509
 5636SOL     OW28366   0.016   4.416  12.022 -0.0982 -0.2558 -0.1176
 5636SOL    HW128367   0.106   4.424  12.054  0.2126 -0.3081 -0.9819
 5636SOL    HW228368   0.020   4.436  11.928 -0.4232  1.1751  0.1601
 5637SOL     OW28369   1.236   4.555   3.691  0.2743 -0.1599 -0.6289
 5637SOL    HW128370   1.274   4.588   3.609  1.6079 -0.4418 -0.1246
 5637SOL    HW228371   1.166   4.504   3.649  0.0897  0.0541 -0.5801
 5638SOL     OW28372   4.062   1.397  11.119  0.5066 -0.1667 -0.4639
 5638SOL    HW128373   4.107   1.440  11.046  1.4526 -1.5701 -0.7085
 5638SOL    HW228374   4.137   1.375  11.174 -0.9068 -2.9315  0.4030
 5639SOL     OW28375   1.316   1.341   5.903 -0.0283 -0.2245 -0.0118
 5639SOL    HW128376   1.256   1.406   5.867 -0.6350 -0.7203  0.1113
 5639SOL    HW228377   1.332   1.299   5.818  1.4055  2.0753 -0.8892
 5640SOL     OW28378   3.535   1.425   2.697 -0.0422 -0.0978 -0.1934
 5640SOL    HW128379   3.575   1.371   2.766  0.5010 -0.8998 -1.1368
 5640SOL    HW228380   3.500   1.498   2.748 -0.2221 -0.3372  0.0248
 5641SOL     OW28381   3.897   2.620  17.493 -0.0064  0.1115 -0.4194
 5641SOL    HW128382   3.842   2.633  17.570  0.2051 -0.8600 -0.1039
 5641SOL    HW228383   3.847   2.553  17.447  1.5018 -0.4351 -1.2662
 5642SOL     OW28384   0.182   3.901   9.334  0.1134 -0.5493  0.3681
 5642SOL    HW128385   0.092   3.873   9.352 -0.0712 -0.4215 -0.3513
 5642SOL    HW228386   0.182   3.905   9.238  0.1268  1.5601  0.4434
 5643SOL     OW28387   3.496   4.158   9.665 -0.0287 -0.1950  0.4265
 5643SOL    HW128388   3.533   4.077   9.630 -0.2988  0.7899 -2.1168
 5643SOL    HW228389   3.427   4.168   9.600  1.0069 -1.6811 -0.9054
 5644SOL     OW28390   3.381   3.022   1.324  0.3282  0.6794  0.1892
 5644SOL    HW128391   3.445   3.091   1.343  0.8418 -0.3336  2.1091
 5644SOL    HW228392   3.325   3.064   1.259 -0.9176 -1.8843 -0.3871
 5645SOL     OW28393   4.252   1.636   3.448 -0.0800 -0.2942 -0.5083
 5645SOL    HW128394   4.302   1.680   3.380 -2.2678  0.8110 -1.3800
 5645SOL    HW228395   4.327   1.618   3.505 -1.0734  1.7750  1.4905
 5646SOL     OW28396   1.246   4.424   3.179 -0.6944  0.7804  0.1121
 5646SOL    HW128397   1.267   4.517   3.178 -2.2059  1.0852 -2.7949
 5646SOL    HW228398   1.265   4.404   3.087  1.6980  2.4407  0.2577
 5647SOL     OW28399   4.627   0.059   3.264 -0.5185  0.5580 -0.1209
 5647SOL    HW128400   4.594   0.039   3.177  0.3901 -1.8241  0.0885
 5647SOL    HW228401   4.643   0.153   3.253 -0.2021  0.6088  0.7516
 5648SOL     OW28402   3.446   4.420   0.087 -0.0101 -0.4163 -0.1551
 5648SOL    HW128403   3.517   4.400   0.149 -1.1118 -0.8810  0.9417
 5648SOL    HW228404   3.391   4.479   0.139  0.4533  0.8341 -1.0795
 5649SOL     OW28405   2.101   1.998   8.760  0.3816 -0.0164  0.0689
 5649SOL    HW128406   2.068   1.946   8.686  0.9073 -0.3446  0.0672
 5649SOL    HW228407   2.172   2.052   8.725  1.5108 -1.0388  0.7854
 5650SOL     OW28408   4.707   3.619   6.074  0.0151 -0.0265  0.0829
 5650SOL    HW128409   0.073   3.636   6.106  0.9749 -2.0351 -1.5169
 5650SOL    HW228410   0.001   3.585   5.986  0.4570  1.9796 -0.6088
 5651SOL     OW28411   0.229   1.518  12.925  0.3713  0.1383  0.2987
 5651SOL    HW128412   0.144   1.560  12.936  1.1786  1.6694  0.7182
 5651SOL    HW228413   0.199   1.428  12.939 -0.4220  0.2974 -0.4145
 5652SOL     OW28414   2.583   2.292  17.302  0.6875  0.5427  0.6809
 5652SOL    HW128415   2.523   2.270  17.230  1.2689 -0.1486  0.4128
 5652SOL    HW228416   2.522   2.317  17.371 -0.2069 -0.1212  0.1298
 5653SOL     OW28417   2.048   0.896   1.552  0.7123 -0.2009  0.3118
 5653SOL    HW128418   1.985   0.899   1.625  1.4458 -1.2598  0.9737
 5653SOL    HW228419   2.086   0.984   1.552 -1.9122  0.9444  0.3586
 5654SOL     OW28420   2.401   4.678  13.069 -0.3650  0.1136 -0.5724
 5654SOL    HW128421   2.454   0.033  13.055 -1.9336  1.0243 -1.4639
 5654SOL    HW228422   2.374   4.673  12.977 -3.2152 -3.6598  0.5021
 5655SOL     OW28423   1.912   1.998   6.757 -0.6366  0.2988  0.3024
 5655SOL    HW128424   1.817   2.008   6.749 -0.5661  0.3968 -0.4124
 5655SOL    HW228425   1.928   2.068   6.821  1.1824 -2.5046  2.9117
 5656SOL     OW28426   1.427   3.457   5.560 -0.4325  0.6493 -0.2735
 5656SOL    HW128427   1.342   3.464   5.518 -0.5810 -0.1524 -0.1035
 5656SOL    HW228428   1.472   3.394   5.503  1.0536  0.8105  0.7168
 5657SOL     OW28429   1.146   0.994   8.289 -0.2463  0.0231 -0.2605
 5657SOL    HW128430   1.095   1.038   8.221  0.8521  2.3006  0.3735
 5657SOL    HW228431   1.079   0.933   8.318 -0.4059 -0.4689 -1.6965
 5658SOL     OW28432   3.427   3.734   7.635  0.4665 -0.3035 -0.3432
 5658SOL    HW128433   3.351   3.785   7.664 -0.1096 -0.6177 -1.3044
 5658SOL    HW228434   3.491   3.802   7.613 -0.6098  0.8502  0.1057
 5659SOL     OW28435   2.762   3.746   3.202  0.1705  0.0660  0.1410
 5659SOL    HW128436   2.704   3.705   3.138 -0.2916  0.7751  0.1116
 5659SOL    HW228437   2.844   3.761   3.155 -0.0528  0.9624  0.0426
 5660SOL     OW28438   0.792   2.728   5.778 -0.0478  0.3679  0.3026
 5660SOL    HW128439   0.730   2.740   5.706  1.5024 -0.9966 -1.2351
 5660SOL    HW228440   0.782   2.635   5.799 -0.2574 -0.3672 -3.0854
 5661SOL     OW28441   3.790   3.276   5.867 -0.2246 -0.0334  0.9688
 5661SOL    HW128442   3.703   3.248   5.839  0.2380 -0.8955  0.3916
 5661SOL    HW228443   3.808   3.240   5.954  0.5845  1.6225  1.4843
 5662SOL     OW28444   4.304   2.038  16.855 -0.7012  0.0522  0.2694
 5662SOL    HW128445   4.391   2.042  16.894  0.1293 -0.2575 -1.5592
 5662SOL    HW228446   4.314   1.975  16.785  0.9133  0.5676  0.0312
 5663SOL     OW28447   0.347   3.548  10.763  0.3225  0.2194 -0.1789
 5663SOL    HW128448   0.287   3.585  10.698  1.2895  1.1860 -0.5327
 5663SOL    HW228449   0.339   3.454  10.745 -0.4776  0.2569 -0.0132
 5664SOL     OW28450   4.058   1.934   1.928  0.2634 -0.1230  0.2826
 5664SOL    HW128451   4.086   1.848   1.896  0.9014 -0.0885  0.7514
 5664SOL    HW228452   4.033   1.924   2.020 -0.9199 -4.0215 -0.4755
 5665SOL     OW28453   1.284   4.428   2.918 -0.5023 -0.1574  0.3249
 5665SOL    HW128454   1.284   4.520   2.892  1.6249 -0.0751  0.6559
 5665SOL    HW228455   1.253   4.388   2.836  2.1404  0.6560 -1.0652
 5666SOL     OW28456   2.348   4.271   4.481 -0.1646  0.0645  0.3748
 5666SOL    HW128457   2.382   4.186   4.509 -2.6240 -1.2942 -0.7780
 5666SOL    HW228458   2.266   4.249   4.438 -1.3976  0.7726  2.3871
 5667SOL     OW28459   3.773   3.733   7.455 -0.6015 -0.6038  0.4800
 5667SOL    HW128460   3.836   3.681   7.405 -1.4028 -1.7150  0.6144
 5667SOL    HW228461   3.698   3.673   7.451 -0.7223 -0.6531  3.1135
 5668SOL     OW28462   4.148   0.063  14.583  0.1986  0.5994  0.2346
 5668SOL    HW128463   4.061   0.028  14.599 -0.0573  0.8739 -0.5554
 5668SOL    HW228464   4.202   0.022  14.650  0.8046  2.3111  0.7970
 5669SOL     OW28465   3.061   1.699  12.361 -0.0192  0.2583 -0.5469
 5669SOL    HW128466   3.144   1.651  12.366 -0.7431 -0.8454  1.3933
 5669SOL    HW228467   3.079   1.792  12.354  0.1322 -0.0008 -3.3028
 5670SOL     OW28468   0.915   2.151   2.463 -0.3549 -0.0999 -0.1290
 5670SOL    HW128469   0.867   2.138   2.381 -0.0152 -0.7821 -0.2209
 5670SOL    HW228470   1.004   2.148   2.426 -0.1597 -0.4010  0.3607
 5671SOL     OW28471   0.321   0.064  12.934  0.0040  0.4874 -0.0086
 5671SOL    HW128472   0.388   0.097  12.874 -0.0114  1.8119  0.6886
 5671SOL    HW228473   0.365   0.004  12.994 -0.5915  1.6038  1.5522
 5672SOL     OW28474   3.680   1.878   9.972  0.4328  0.2363  0.0636
 5672SOL    HW128475   3.679   1.972   9.958 -0.3507  0.0047 -1.4237
 5672SOL    HW228476   3.773   1.869   9.993  0.1427 -1.1948  0.7472
 5673SOL     OW28477   3.398   2.301   9.408 -0.2939 -0.0805 -0.5812
 5673SOL    HW128478   3.480   2.263   9.376  0.3858 -0.5355  1.7060
 5673SOL    HW228479   3.429   2.359   9.478 -1.6690  1.6897 -1.4546
 5674SOL     OW28480   2.996   0.372   2.354 -0.4905  0.1695  0.8115
 5674SOL    HW128481   2.959   0.366   2.266  1.9084 -2.6239  0.0068
 5674SOL    HW228482   3.087   0.384   2.326 -0.0506 -0.3566  1.9903
 5675SOL     OW28483   3.184   3.835   4.707 -0.1972  0.5078 -0.1578
 5675SOL    HW128484   3.094   3.802   4.704  0.3669 -1.3080  2.6985
 5675SOL    HW228485   3.183   3.866   4.617  1.3397 -1.9317 -1.0115
 5676SOL     OW28486   0.908   4.366   0.745 -0.5032  0.3752 -0.2374
 5676SOL    HW128487   0.933   4.288   0.794 -0.3894  0.0967 -0.7306
 5676SOL    HW228488   0.989   4.416   0.730  0.3462 -1.6550 -2.3857
 5677SOL     OW28489   3.465   4.342   5.654 -0.2633 -0.4546 -0.2120
 5677SOL    HW128490   3.419   4.303   5.580  0.6518 -1.1068 -0.4433
 5677SOL    HW228491   3.523   4.268   5.673 -0.4028 -1.2383 -2.9260
 5678SOL     OW28492   2.161   2.737   5.941  0.4303  0.0484 -0.3208
 5678SOL    HW128493   2.074   2.715   5.908 -0.3251  0.0125  1.6945
 5678SOL    HW228494   2.131   2.775   6.024  4.3887  0.2493  1.0355
 5679SOL     OW28495   0.365   2.940   2.038  0.5919 -0.1258 -0.0201
 5679SOL    HW128496   0.330   2.925   1.951 -3.2103 -0.1752  1.5059
 5679SOL    HW228497   0.328   2.867   2.087  0.8711 -0.2140  0.0600
 5680SOL     OW28498   4.258   4.602  14.815 -0.4760 -0.1822  0.7940
 5680SOL    HW128499   4.318   4.536  14.850  1.9709  2.4174  1.5403
 5680SOL    HW228500   4.236   4.665  14.884 -3.2267 -0.6104  0.2991
 5681SOL     OW28501   0.981   1.821  15.653  0.4309  0.1972  0.2137
 5681SOL    HW128502   1.025   1.814  15.568 -3.3372 -1.2101 -1.6043
 5681SOL    HW228503   0.887   1.820  15.633 -0.0372  2.0058  2.4034
 5682SOL     OW28504   1.054   1.639   1.412  0.2194  0.2026 -0.2492
 5682SOL    HW128505   1.022   1.603   1.494  0.9981 -0.5764 -0.2882
 5682SOL    HW228506   1.149   1.633   1.415  0.2185  0.5742  0.3474
 5683SOL     OW28507   2.655   1.904   4.251  0.0542  0.5676  0.3931
 5683SOL    HW128508   2.708   1.980   4.228 -0.2843  0.5374 -0.4943
 5683SOL    HW228509   2.718   1.832   4.258 -1.1205 -0.5661 -0.8353
 5684SOL     OW28510   2.894   3.951   6.177 -0.6540  0.4091 -0.5395
 5684SOL    HW128511   2.895   4.041   6.210 -0.0189  0.4261 -0.6179
 5684SOL    HW228512   2.815   3.934   6.125 -1.4757 -0.1611  0.9139
 5685SOL     OW28513   1.064   2.565   4.346  0.7600 -0.2104  0.4054
 5685SOL    HW128514   0.980   2.521   4.353  0.3935  0.3995 -0.1951
 5685SOL    HW228515   1.089   2.558   4.439  2.0777 -2.5154 -0.1170
 5686SOL     OW28516   0.180   1.054   5.922 -0.3858 -0.1769  0.1781
 5686SOL    HW128517   0.161   1.133   5.871  1.4574  0.2001  0.0788
 5686SOL    HW228518   0.254   1.024   5.869 -1.2531 -2.2484  0.1359
 5687SOL     OW28519   2.381   4.080   3.035  0.1224  0.3588  0.3271
 5687SOL    HW128520   2.370   3.985   3.030 -0.7390  0.2933  3.5536
 5687SOL    HW228521   2.463   4.106   3.078 -0.2966  1.6326  0.3668
 5688SOL     OW28522   2.767   1.659   3.174 -0.3889 -0.0548  0.0719
 5688SOL    HW128523   2.732   1.737   3.130 -0.0665 -0.2605 -0.5458
 5688SOL    HW228524   2.842   1.658   3.115 -1.6059  0.5989 -1.4751
 5689SOL     OW28525   4.005   1.197  13.489 -0.3501  0.2078  0.0681
 5689SOL    HW128526   3.960   1.127  13.536  0.0917 -0.7315 -0.9056
 5689SOL    HW228527   3.956   1.270  13.528  0.6063  0.4240  0.8505
 5690SOL     OW28528   3.550   0.017   8.347 -0.1921  0.3621 -0.0978
 5690SOL    HW128529   3.546   4.645   8.352 -1.2794  0.3517 -1.2596
 5690SOL    HW228530   3.460   0.046   8.339 -1.0532 -2.6425 -1.2212
 5691SOL     OW28531   0.985   4.207   5.700 -0.0718 -0.2953  0.5166
 5691SOL    HW128532   1.015   4.283   5.650 -1.2957 -0.3714 -0.3410
 5691SOL    HW228533   1.033   4.224   5.781 -2.8453 -2.5372  2.6032
 5692SOL     OW28534   3.537   3.809  12.554  0.3298 -0.0474  0.6340
 5692SOL    HW128535   3.625   3.822  12.590  1.2525  3.0852 -2.7306
 5692SOL    HW228536   3.499   3.764  12.630  0.2631  0.4248  0.8765
 5693SOL     OW28537   0.118   2.817   4.420  0.2364  0.1440  0.1009
 5693SOL    HW128538   0.041   2.765   4.445  0.3601 -0.2330 -0.3116
 5693SOL    HW228539   0.073   2.885   4.369 -0.0246 -0.1879 -0.1123
 5694SOL     OW28540   2.001   1.468   4.951 -0.5360  0.0570 -0.2396
 5694SOL    HW128541   2.035   1.550   4.915 -1.7618  0.9090  0.5298
 5694SOL    HW228542   2.075   1.419   4.915  1.4505  2.4379  0.5424
 5695SOL     OW28543   0.253   3.780   7.123  0.4207 -0.1188 -0.1540
 5695SOL    HW128544   0.335   3.736   7.101  0.2245 -0.6099  0.0973
 5695SOL    HW228545   0.238   3.833   7.044  1.3083  0.3069 -0.0300
 5696SOL     OW28546   3.291   2.123   6.212 -0.9062 -0.3936  0.2018
 5696SOL    HW128547   3.269   2.214   6.193 -0.1052 -0.1760  0.3137
 5696SOL    HW228548   3.249   2.106   6.296  1.0190  0.8942  1.4292
 5697SOL     OW28549   0.238   4.522   4.904  0.6334  0.2696  0.7474
 5697SOL    HW128550   0.272   4.611   4.911  0.0266  0.4143  1.8542
 5697SOL    HW228551   0.213   4.508   4.995 -0.4425 -0.8164  0.2932
 5698SOL     OW28552   3.268   4.070   4.457 -0.0600  0.3493 -0.2178
 5698SOL    HW128553   3.337   4.022   4.411 -0.9525 -0.9173 -0.2293
 5698SOL    HW228554   3.189   4.018   4.444  1.1782 -1.2479 -1.4359
 5699SOL     OW28555   1.373   1.692   3.088 -0.3217  0.1321 -0.3179
 5699SOL    HW128556   1.298   1.655   3.041  0.8277 -1.1237 -1.1492
 5699SOL    HW228557   1.328   1.731   3.163  0.4052  0.8515 -0.2583
 5700SOL     OW28558   0.928   0.474   8.267 -0.4827 -0.2670  0.3187
 5700SOL    HW128559   0.854   0.430   8.309 -0.6938 -1.2744 -1.1098
 5700SOL    HW228560   0.977   0.484   8.349 -0.7790 -0.9756  0.5856
 5701SOL     OW28561   2.354   1.621  15.262 -0.0613  0.5011  0.4046
 5701SOL    HW128562   2.350   1.550  15.327  3.1934 -1.7991 -1.9351
 5701SOL    HW228563   2.445   1.646  15.255  0.7656 -2.1524  1.4012
 5702SOL     OW28564   3.725   3.284  15.161 -0.4372  0.1943  0.1019
 5702SOL    HW128565   3.645   3.316  15.120 -1.2153 -2.6072 -0.5999
 5702SOL    HW228566   3.718   3.316  15.251 -0.2854 -0.6821  0.4291
 5703SOL     OW28567   3.369   0.958   7.164  0.4530 -0.7743  0.5315
 5703SOL    HW128568   3.367   1.027   7.097 -0.5417 -0.8496  0.4865
 5703SOL    HW228569   3.423   0.888   7.127  0.2585 -1.6060  1.8098
 5704SOL     OW28570   4.010   2.190   2.065  0.2651 -0.1795  0.0456
 5704SOL    HW128571   4.025   2.126   1.996  0.1568 -0.6739  0.4835
 5704SOL    HW228572   4.093   2.207   2.110  1.5562  0.2754 -2.4858
 5705SOL     OW28573   0.357   1.281   5.198 -0.8020 -0.1418  0.1813
 5705SOL    HW128574   0.341   1.292   5.292  1.1038 -2.4069  0.7650
 5705SOL    HW228575   0.265   1.276   5.172 -0.0731  0.0850 -2.3522
 5706SOL     OW28576   4.177   4.265   2.946  0.0714  0.1795  0.4314
 5706SOL    HW128577   4.160   4.171   2.952  2.6418 -0.2698  0.5810
 5706SOL    HW228578   4.194   4.279   3.039  1.5993 -0.5944  0.2692
 5707SOL     OW28579   2.404   3.822   3.071 -0.8538  0.1319 -0.2347
 5707SOL    HW128580   2.475   3.777   3.026  0.8788  1.9363  0.6714
 5707SOL    HW228581   2.354   3.749   3.106 -1.1243  1.0657  1.3447
 5708SOL     OW28582   3.456   2.933  17.434  0.3835 -0.1952  0.5104
 5708SOL    HW128583   3.426   2.888  17.355 -0.1797 -0.1816  0.7104
 5708SOL    HW228584   3.517   2.868  17.469  0.6964 -0.0585  0.2135
 5709SOL     OW28585   1.982   4.430  11.771 -0.1632  0.0065 -0.0619
 5709SOL    HW128586   2.024   4.389  11.695 -0.7344 -0.5456 -0.0776
 5709SOL    HW228587   1.962   4.513  11.729 -3.0011 -0.5229  0.1955
 5710SOL     OW28588   3.001   3.139   6.808  0.1529  0.2754  0.0747
 5710SOL    HW128589   3.084   3.124   6.853  0.5295  0.4753 -0.5573
 5710SOL    HW228590   3.005   3.074   6.738 -1.3255  0.8400 -0.5315
 5711SOL     OW28591   2.946   1.232   9.293 -0.4012  0.9517  0.1590
 5711SOL    HW128592   2.852   1.250   9.289 -0.5486 -0.6301 -3.1207
 5711SOL    HW228593   2.954   1.209   9.386  0.9878  1.5705  0.1841
 5712SOL     OW28594   4.139   1.400  15.899 -0.4736 -0.1767 -0.9024
 5712SOL    HW128595   4.070   1.340  15.869  0.9224 -1.6038 -1.2787
 5712SOL    HW228596   4.201   1.345  15.947 -2.2741 -1.9474 -0.5732
 5713SOL     OW28597   1.806   2.221   8.966 -0.2102  0.0835 -0.6074
 5713SOL    HW128598   1.858   2.287   9.011 -1.8212  0.7719  0.2341
 5713SOL    HW228599   1.810   2.255   8.876 -1.9306 -1.6083 -1.3192
 5714SOL     OW28600   1.921   0.386   4.563  0.3205  0.2482 -0.0284
 5714SOL    HW128601   2.001   0.380   4.509  0.0352 -0.6166 -0.3513
 5714SOL    HW228602   1.893   0.476   4.545  2.1499  0.7188 -0.5588
 5715SOL     OW28603   4.241   2.850   7.379 -0.5218  0.5321  0.4344
 5715SOL    HW128604   4.194   2.929   7.353 -0.7440  1.0072  2.3011
 5715SOL    HW228605   4.309   2.838   7.313 -0.2688 -1.0053  0.9832
 5716SOL     OW28606   0.027   2.609   3.499  0.1602  0.1457  0.0022
 5716SOL    HW128607   0.058   2.563   3.421  0.2423  0.8346 -0.3759
 5716SOL    HW228608   0.094   2.614   3.567  0.4512 -0.7385 -0.2264
 5717SOL     OW28609   4.047   0.663  17.567  0.4245  0.0454  0.6451
 5717SOL    HW128610   4.100   0.709  17.501  0.1188 -0.0799  0.3144
 5717SOL    HW228611   4.058   0.724  17.640  0.3968  1.1694 -0.2857
 5718SOL     OW28612   0.805   4.615   1.991 -0.0900  0.2445  0.0688
 5718SOL    HW128613   0.754   4.595   2.069 -0.7514  0.2148 -0.3712
 5718SOL    HW228614   0.841   4.701   2.011  2.5447 -0.6314 -0.9373
 5719SOL     OW28615   3.106   0.903   6.720 -0.3025  0.3117  0.2762
 5719SOL    HW128616   3.172   0.954   6.674 -0.4567 -0.0545 -0.3533
 5719SOL    HW228617   3.059   0.966   6.774 -1.3554 -1.2319  1.1671
 5720SOL     OW28618   0.613   3.621   8.166 -0.1208 -0.3951  0.2748
 5720SOL    HW128619   0.593   3.704   8.124  2.3095  0.6566  1.1882
 5720SOL    HW228620   0.706   3.616   8.146  0.0196 -0.3179  0.9068
 5721SOL     OW28621   3.129   1.945   2.042 -0.9762 -0.6134 -0.0902
 5721SOL    HW128622   3.175   1.911   2.119  0.2096 -0.1822 -0.6089
 5721SOL    HW228623   3.049   1.893   2.037 -0.6931 -1.0283 -0.3353
 5722SOL     OW28624   4.134   0.623   6.943  0.8017  0.1519 -0.1281
 5722SOL    HW128625   4.225   0.594   6.939  0.7765  0.4357 -3.0524
 5722SOL    HW228626   4.144   0.718   6.941  0.5725  0.1747 -0.1460
 5723SOL     OW28627   0.545   3.877   2.707 -0.2586 -0.3548 -0.2011
 5723SOL    HW128628   0.566   3.787   2.731 -0.5537 -0.0599  1.1544
 5723SOL    HW228629   0.617   3.882   2.644 -1.9557 -3.0192 -2.3204
 5724SOL     OW28630   3.536   0.421   1.399 -0.1431  0.0649  0.4967
 5724SOL    HW128631   3.452   0.385   1.371  0.2520 -0.6848  0.2796
 5724SOL    HW228632   3.532   0.478   1.323  1.2071  1.6532  1.6416
 5725SOL     OW28633   4.033   3.836   4.165  0.2661  0.6633  0.0638
 5725SOL    HW128634   4.085   3.759   4.141 -1.2586  0.2954 -2.1022
 5725SOL    HW228635   3.957   3.812   4.112  0.0302  1.8005 -0.1111
 5726SOL     OW28636   1.775   4.456   7.903 -0.3070 -0.1406  0.5242
 5726SOL    HW128637   1.771   4.435   7.809 -2.9604  0.9831  0.3792
 5726SOL    HW228638   1.786   4.551   7.901  1.9887 -0.4182 -0.0221
 5727SOL     OW28639   0.599   1.715   2.744  0.0738 -0.4518  0.2181
 5727SOL    HW128640   0.624   1.654   2.813  0.6711  2.1399  2.2501
 5727SOL    HW228641   0.508   1.736   2.763 -0.4363 -2.0926 -0.3535
 5728SOL     OW28642   0.265   0.371   8.197 -0.2698 -0.3266  0.3603
 5728SOL    HW128643   0.323   0.365   8.122 -1.0619 -1.0947 -0.1805
 5728SOL    HW228644   0.240   0.464   8.197 -0.1269 -0.2856  1.3711
 5729SOL     OW28645   1.480   3.876  11.021  0.0173  0.3407 -0.5297
 5729SOL    HW128646   1.508   3.813  11.087 -1.5701  0.9296  0.7150
 5729SOL    HW228647   1.460   3.817  10.948 -0.6279 -0.2180  0.1055
 5730SOL     OW28648   4.429   1.855   7.336  0.6158  0.5067  0.0953
 5730SOL    HW128649   4.487   1.792   7.378  1.0410  1.6179  1.1873
 5730SOL    HW228650   4.352   1.801   7.320  2.6401 -2.4438  0.1742
 5731SOL     OW28651   1.333   2.036  11.471  0.5921 -0.2165 -0.2345
 5731SOL    HW128652   1.299   2.107  11.526  2.2202 -0.3588  0.9449
 5731SOL    HW228653   1.422   2.032  11.505 -0.2746  0.9052  2.1565
 5732SOL     OW28654   1.660   3.952   6.726  0.1426  0.7522  0.4831
 5732SOL    HW128655   1.700   4.029   6.767  0.1047  0.3166  1.3452
 5732SOL    HW228656   1.669   3.977   6.634 -0.5251 -0.5089  0.0771
 5733SOL     OW28657   2.645   0.132   8.517 -0.2549 -0.0127 -0.2676
 5733SOL    HW128658   2.652   0.038   8.534  0.6829 -0.5606 -3.6495
 5733SOL    HW228659   2.601   0.135   8.432  1.0260  0.9639 -0.8958
 5734SOL     OW28660   0.533   3.092   8.720 -0.0715 -0.4822 -0.5568
 5734SOL    HW128661   0.490   3.031   8.660  0.0971 -0.8861 -0.2650
 5734SOL    HW228662   0.484   3.175   8.715 -0.6548 -0.7089  1.6707
 5735SOL     OW28663   0.245   0.959   0.243 -0.0363 -0.3076  0.6695
 5735SOL    HW128664   0.182   0.887   0.243  0.7534 -1.0056  2.2316
 5735SOL    HW228665   0.316   0.914   0.289  0.3915  0.1769  0.4808
 5736SOL     OW28666   2.527   1.200   3.084 -0.1989  0.2492  0.0215
 5736SOL    HW128667   2.532   1.244   3.169 -1.5775 -0.8306  0.6676
 5736SOL    HW228668   2.435   1.211   3.061  0.2155 -0.3996 -1.9169
 5737SOL     OW28669   4.393   0.077  11.903  0.0192  0.0555  0.0873
 5737SOL    HW128670   4.485   0.077  11.928  0.2284 -0.2842 -0.6986
 5737SOL    HW228671   4.395   0.144  11.835 -4.7702 -2.3634 -2.4625
 5738SOL     OW28672   0.756   1.238   6.825 -0.4710  0.7059  0.3158
 5738SOL    HW128673   0.709   1.157   6.843  0.3603  0.1970  0.2009
 5738SOL    HW228674   0.773   1.268   6.914  0.8645  0.3506  0.1918
 5739SOL     OW28675   3.495   2.157   2.010  0.0659  0.1227 -0.1517
 5739SOL    HW128676   3.477   2.107   1.930  1.6461  2.8313 -2.2018
 5739SOL    HW228677   3.444   2.107   2.074 -0.3783 -0.0164 -0.6110
 5740SOL     OW28678   4.153   3.579  17.115  0.3221  0.5063 -0.0446
 5740SOL    HW128679   4.238   3.562  17.155 -0.3239 -0.9812  0.7212
 5740SOL    HW228680   4.098   3.531  17.177  1.1780 -1.9936 -1.2120
 5741SOL     OW28681   4.146   2.090  16.328  0.2349  0.4561  0.4182
 5741SOL    HW128682   4.185   2.162  16.378  0.1402  0.6682  0.1880
 5741SOL    HW228683   4.055   2.092  16.360 -0.6033 -0.3322 -1.9394
 5742SOL     OW28684   1.448   1.486   8.670  0.1921  0.4424 -0.0528
 5742SOL    HW128685   1.436   1.495   8.576 -1.8348 -0.8067  0.0938
 5742SOL    HW228686   1.538   1.460   8.692 -0.2941 -1.7809 -0.7187
 5743SOL     OW28687   1.506   1.185   6.277  0.2678  0.2397  0.6918
 5743SOL    HW128688   1.566   1.112   6.266  0.2873  0.2420  0.7875
 5743SOL    HW228689   1.545   1.231   6.351  0.5055  0.5182  0.3941
 5744SOL     OW28690   3.031   2.664   7.495  0.0057  0.3179  0.2818
 5744SOL    HW128691   3.092   2.723   7.539 -0.5960  1.0240  0.1625
 5744SOL    HW228692   2.954   2.673   7.551  0.0454  0.9424  0.2393
 5745SOL     OW28693   3.183   3.453   2.035 -0.4497 -0.4215 -0.5312
 5745SOL    HW128694   3.131   3.515   2.085 -0.4753 -0.0885 -0.9649
 5745SOL    HW228695   3.274   3.478   2.056 -1.0168  1.1821  0.0476
 5746SOL     OW28696   3.650   3.755   0.678 -0.4978  0.1315 -0.1037
 5746SOL    HW128697   3.675   3.843   0.649 -0.2812  0.2288  0.3688
 5746SOL    HW228698   3.563   3.773   0.715  0.3371  1.8776  1.0185
 5747SOL     OW28699   1.390   0.340   2.379 -0.2006 -0.0067 -0.0468
 5747SOL    HW128700   1.448   0.348   2.303  1.0196 -0.0165  0.8849
 5747SOL    HW228701   1.423   0.403   2.443 -3.2751 -1.4061  2.8662
 5748SOL     OW28702   2.602   3.886   6.748  0.3524 -0.1025 -0.3921
 5748SOL    HW128703   2.588   3.979   6.760 -1.5741 -0.1208 -2.4823
 5748SOL    HW228704   2.678   3.872   6.804 -0.4387 -1.0976  0.4271
 5749SOL     OW28705   1.552   3.015   2.902 -0.2316 -0.1393  0.1163
 5749SOL    HW128706   1.514   3.066   2.831  0.2247 -2.2803 -1.6544
 5749SOL    HW228707   1.611   3.077   2.946  0.2780 -0.4776 -0.0887
 5750SOL     OW28708   1.424   3.000   0.658  0.1005 -0.2296  0.0619
 5750SOL    HW128709   1.484   3.042   0.596 -1.0059 -0.5055 -1.1953
 5750SOL    HW228710   1.463   2.914   0.642 -1.9938 -1.2941  0.6454
 5751SOL     OW28711   4.158   3.807  17.484 -0.3765 -0.2980 -0.1165
 5751SOL    HW128712   4.195   3.719  17.497  1.2543  0.4953  0.6879
 5751SOL    HW228713   4.077   3.798  17.533 -0.6841  1.9232 -0.2310
 5752SOL     OW28714   2.328   2.224   6.601  0.2572  0.6560 -0.3586
 5752SOL    HW128715   2.270   2.292   6.635 -0.4897 -1.4431  2.5665
 5752SOL    HW228716   2.333   2.249   6.509 -4.2001 -3.8131 -1.8469
 5753SOL     OW28717   2.018   3.938  12.479 -0.1423  0.1127 -0.2390
 5753SOL    HW128718   1.955   3.986  12.426 -1.1350  0.3414  1.1415
 5753SOL    HW228719   2.084   3.923  12.411  0.3338  0.8240  0.0744
 5754SOL     OW28720   3.008   1.432  12.921  0.6312 -0.1515  0.2207
 5754SOL    HW128721   3.103   1.429  12.932  0.3657 -1.1082  2.2700
 5754SOL    HW228722   2.989   1.513  12.874  3.4790 -0.7354 -1.9737
 5755SOL     OW28723   0.997   2.811   8.914 -0.3654  0.6355  0.4017
 5755SOL    HW128724   0.929   2.878   8.920 -0.8707  0.1375  0.2040
 5755SOL    HW228725   1.057   2.827   8.987 -0.7662 -0.3413  0.9475
 5756SOL     OW28726   4.021   3.867  10.647 -0.0627  0.3188 -0.2029
 5756SOL    HW128727   4.049   3.799  10.709  1.0904  0.8530 -0.1410
 5756SOL    HW228728   3.945   3.826  10.606 -1.6753  3.8750 -0.7661
 5757SOL     OW28729   2.128   2.678  16.663 -0.2560  0.2323  0.0966
 5757SOL    HW128730   2.089   2.711  16.582 -1.5262 -0.3862  0.4552
 5757SOL    HW228731   2.059   2.622  16.698 -1.8657  1.4868 -1.0962
 5758SOL     OW28732   1.013   1.609   1.718 -0.2651  0.0958 -0.2067
 5758SOL    HW128733   1.059   1.672   1.774  0.2225  0.6363 -1.2094
 5758SOL    HW228734   0.966   1.547   1.773 -0.9405 -0.3109 -1.2322
 5759SOL     OW28735   3.123   1.490  15.778 -0.1422 -0.0086 -0.0511
 5759SOL    HW128736   3.070   1.545  15.720  0.3342 -0.0035 -0.4783
 5759SOL    HW228737   3.205   1.471  15.733 -0.3880  1.9028 -1.3084
 5760SOL     OW28738   3.181   2.835   0.763  0.2763 -0.1449 -1.0090
 5760SOL    HW128739   3.151   2.746   0.781  1.4705 -0.4436 -0.5306
 5760SOL    HW228740   3.121   2.851   0.690  0.3021  0.0159 -0.9959
 5761SOL     OW28741   1.779   4.282  16.530  0.0293  0.5540  0.0159
 5761SOL    HW128742   1.746   4.211  16.585 -0.2415  0.4484 -0.2851
 5761SOL    HW228743   1.718   4.287  16.457  0.3262 -1.8861 -0.4039
 5762SOL     OW28744   3.023   2.204  15.483  0.6201  0.3625  0.1683
 5762SOL    HW128745   3.061   2.116  15.473  2.2711  1.1426 -0.3562
 5762SOL    HW228746   3.079   2.237  15.552 -1.4723  1.9959  1.0950
 5763SOL     OW28747   3.415   1.441   0.621  0.0961 -0.2400 -0.1163
 5763SOL    HW128748   3.416   1.351   0.652  0.7086 -0.3876 -0.5622
 5763SOL    HW228749   3.508   1.454   0.599  0.8218 -1.7977  2.0919
 5764SOL     OW28750   1.462   2.307   3.000  0.5798  0.6805 -0.5079
 5764SOL    HW128751   1.527   2.369   2.966  3.0837 -0.3656  2.3810
 5764SOL    HW228752   1.518   2.257   3.059  0.0234  0.8676  0.1853
 5765SOL     OW28753   0.449   0.065   7.013  0.2163  0.2110  0.1573
 5765SOL    HW128754   0.518   0.128   6.994  1.0982 -0.4825  1.0699
 5765SOL    HW228755   0.377   0.129   7.017  0.2156  0.2110  0.1426
 5766SOL     OW28756   1.629   1.282   5.308 -0.1753  0.1108 -0.1182
 5766SOL    HW128757   1.566   1.304   5.238  2.4745  0.8964 -2.2491
 5766SOL    HW228758   1.703   1.248   5.257 -0.4066  1.1612 -1.1684
 5767SOL     OW28759   2.988   1.981   7.978  0.0913  0.0694  0.0954
 5767SOL    HW128760   3.024   1.894   7.959 -0.2501  0.5316 -2.6686
 5767SOL    HW228761   2.898   1.979   7.945  0.1042  1.9616 -0.0474
 5768SOL     OW28762   4.146   3.237  12.249 -0.2465  0.0208  0.2187
 5768SOL    HW128763   4.070   3.195  12.209  0.2894  1.1265 -1.9642
 5768SOL    HW228764   4.161   3.176  12.321 -1.2648 -0.7279 -0.2066
 5769SOL     OW28765   1.127   2.274   4.519 -0.1933 -0.0400  0.8703
 5769SOL    HW128766   1.208   2.324   4.519 -0.4338  0.3691 -2.2755
 5769SOL    HW228767   1.090   2.293   4.605 -3.2533  1.3811 -0.7308
 5770SOL     OW28768   3.674   1.089   7.467 -0.1330 -0.1867 -0.7706
 5770SOL    HW128769   3.722   1.072   7.386 -1.8370  0.8235 -1.9902
 5770SOL    HW228770   3.721   1.169   7.489  1.4872 -1.4005  0.1999
 5771SOL     OW28771   3.415   3.040   4.778  0.0990 -0.4068 -0.3176
 5771SOL    HW128772   3.395   3.081   4.862  0.3848 -0.5514 -0.1808
 5771SOL    HW228773   3.499   2.997   4.792  1.0977  1.6942  0.1499
 5772SOL     OW28774   1.740   2.743   7.020  0.1186  0.2100  0.0847
 5772SOL    HW128775   1.815   2.690   7.044 -0.2810 -0.1911  0.4524
 5772SOL    HW228776   1.675   2.699   7.075 -0.3228  0.2044 -0.4369
 5773SOL     OW28777   1.121   0.443   3.642 -0.1483 -0.0188  0.3809
 5773SOL    HW128778   1.107   0.349   3.634 -0.5185 -0.0926  1.9214
 5773SOL    HW228779   1.192   0.445   3.706  0.7923  0.7243 -0.6718
 5774SOL     OW28780   1.029   2.539   7.690 -0.0929  0.0113 -0.1932
 5774SOL    HW128781   0.967   2.476   7.654 -1.1056  1.0962 -0.3513
 5774SOL    HW228782   1.000   2.547   7.781  0.3471 -1.0192  0.0293
 5775SOL     OW28783   1.527   1.036  11.869 -0.4375  0.4898 -0.2278
 5775SOL    HW128784   1.453   1.014  11.926  1.5008  0.4560  2.2607
 5775SOL    HW228785   1.571   0.954  11.848 -0.1480  0.2625  1.2800
 5776SOL     OW28786   1.310   4.155  10.678  0.2721 -0.3351 -0.2056
 5776SOL    HW128787   1.295   4.231  10.733 -2.0754 -0.6010 -0.4907
 5776SOL    HW228788   1.236   4.098  10.701 -0.9761  1.7360  0.9205
 5777SOL     OW28789   1.903   1.344   7.442 -0.2044 -0.5484 -0.6708
 5777SOL    HW128790   1.928   1.276   7.380  2.0205 -0.1500 -0.2060
 5777SOL    HW228791   1.990   1.369   7.474 -1.3089 -0.1031  2.0062
 5778SOL     OW28792   1.537   1.755   3.971  0.2381  0.1930 -0.7271
 5778SOL    HW128793   1.572   1.701   3.900  0.0155  1.7612 -2.0557
 5778SOL    HW228794   1.589   1.833   3.949  0.7304 -0.2998 -1.3033
 5779SOL     OW28795   1.707   4.229   5.700 -0.0590 -0.1445 -0.1981
 5779SOL    HW128796   1.702   4.134   5.706 -0.4696 -0.1947 -1.3634
 5779SOL    HW228797   1.692   4.244   5.794 -1.7554 -1.1566 -0.3041
 5780SOL     OW28798   3.877   4.438   2.063  1.1866 -0.2484  0.0213
 5780SOL    HW128799   3.797   4.461   2.016  0.2937  0.5956  1.9946
 5780SOL    HW228800   3.887   4.503   2.132 -0.4228 -0.5513  0.5225
 5781SOL     OW28801   4.555   4.462   8.942  0.2554  0.0955  0.4544
 5781SOL    HW128802   4.466   4.427   8.948 -0.0255  0.3312 -2.3660
 5781SOL    HW228803   4.561   4.470   9.037 -2.0257 -0.8295  0.6764
 5782SOL     OW28804   0.669   1.570   8.637 -0.2376  0.0389  0.4554
 5782SOL    HW128805   0.639   1.561   8.728 -1.9618  1.3820  0.0193
 5782SOL    HW228806   0.596   1.529   8.591  1.1777  0.3197 -2.0044
 5783SOL     OW28807   3.830   1.688   2.468 -0.5233  0.0284 -0.0967
 5783SOL    HW128808   3.872   1.610   2.432 -1.1392 -0.1335 -0.4654
 5783SOL    HW228809   3.746   1.679   2.423 -1.4608 -2.7712  2.1846
 5784SOL     OW28810   3.930   4.187  11.569 -0.0340  0.0331 -0.0612
 5784SOL    HW128811   4.004   4.187  11.509  1.7055  1.6604  2.0458
 5784SOL    HW228812   3.931   4.094  11.591  0.4609  0.0506 -0.0025
 5785SOL     OW28813   2.078   3.344   7.538 -0.4873 -0.0970 -0.2933
 5785SOL    HW128814   2.038   3.341   7.625  1.7766  1.2450  0.8003
 5785SOL    HW228815   2.125   3.427   7.545 -1.6235  0.4365  0.9015
 5786SOL     OW28816   3.248   4.060   0.923 -0.0355 -0.0214 -0.0912
 5786SOL    HW128817   3.260   4.136   0.867  0.1183 -1.1285 -1.5678
 5786SOL    HW228818   3.275   4.099   1.006 -2.6489  1.4791  0.0625
 5787SOL     OW28819   3.704   0.976   4.593 -0.1505 -0.0223 -0.2229
 5787SOL    HW128820   3.787   0.944   4.557 -1.0734 -2.0731 -0.5616
 5787SOL    HW228821   3.728   1.053   4.643  0.6017 -1.3368  1.4287
 5788SOL     OW28822   4.509   2.348   8.224 -0.0471  1.0416  0.4295
 5788SOL    HW128823   4.419   2.315   8.224 -0.1587  1.3490  2.2387
 5788SOL    HW228824   4.497   2.418   8.160 -1.1720  1.4026  1.0436
 5789SOL     OW28825   0.926   2.384  11.037  0.9769  0.3610  0.2196
 5789SOL    HW128826   0.895   2.463  11.082  0.3996  0.7512 -0.8621
 5789SOL    HW228827   0.857   2.363  10.974  1.4769 -0.2017 -0.1386
 5790SOL     OW28828   0.320   0.040   8.210  0.1488 -0.1381  0.6088
 5790SOL    HW128829   0.249   0.104   8.211  1.5183  1.4001  0.5695
 5790SOL    HW228830   0.304   0.006   8.122  0.3294  2.3593 -0.3881
 5791SOL     OW28831   3.212   4.289  14.789  0.4352  0.1999  0.9474
 5791SOL    HW128832   3.146   4.221  14.804 -1.2437  1.9034  1.2255
 5791SOL    HW228833   3.168   4.352  14.846 -1.9356  0.7274 -1.4436
 5792SOL     OW28834   1.966   0.820  17.485 -0.3654  0.3910 -0.6323
 5792SOL    HW128835   1.925   0.902  17.516 -0.8792 -0.5787  1.2709
 5792SOL    HW228836   1.979   0.782  17.572 -0.7428 -0.0484 -0.7691
 5793SOL     OW28837   0.664   4.168   3.809  0.2723 -0.4101 -0.0934
 5793SOL    HW128838   0.693   4.161   3.900 -1.5323 -0.3333  0.4913
 5793SOL    HW228839   0.715   4.237   3.768 -1.5415 -0.1377 -1.8870
 5794SOL     OW28840   2.338   2.113  12.509  0.0064  0.0403  0.0092
 5794SOL    HW128841   2.290   2.060  12.445  1.5116 -0.6924 -0.5107
 5794SOL    HW228842   2.414   2.152  12.467 -0.8969 -0.0398 -1.7511
 5795SOL     OW28843   1.940   3.173   0.993  0.2386 -0.1685 -0.1644
 5795SOL    HW128844   1.862   3.224   0.972 -2.3906 -2.7839  3.2416
 5795SOL    HW228845   2.012   3.219   0.951  1.3556 -1.8602 -0.0883
 5796SOL     OW28846   0.649   0.941   1.532 -0.1153 -0.3066  0.4506
 5796SOL    HW128847   0.573   0.900   1.491  0.3443 -1.0123  0.2981
 5796SOL    HW228848   0.726   0.909   1.485  0.0411  0.3572  0.2656
 5797SOL     OW28849   3.451   1.190   8.898 -0.7423 -0.1281  0.3208
 5797SOL    HW128850   3.511   1.176   8.971 -0.1465  0.9197  0.0479
 5797SOL    HW228851   3.455   1.286   8.903  1.1639 -0.0977 -1.7537
 5798SOL     OW28852   0.885   1.241  14.006 -0.0689 -0.0712  0.0422
 5798SOL    HW128853   0.870   1.292  13.926  0.3193 -0.9496 -0.5949
 5798SOL    HW228854   0.836   1.161  13.985 -1.4033  1.2986 -2.0424
 5799SOL     OW28855   0.365   4.286   8.161 -0.5131  0.4444 -0.3024
 5799SOL    HW128856   0.430   4.353   8.143 -0.8573  0.8798  0.0537
 5799SOL    HW228857   0.426   4.219   8.189  0.3200  1.4361  0.2479
 5800SOL     OW28858   3.472   3.396   5.896  0.1284 -0.2746  0.3375
 5800SOL    HW128859   3.392   3.448   5.901  0.5933  0.5290 -0.6662
 5800SOL    HW228860   3.510   3.414   5.983  2.7325  1.3403 -1.1361
 5801SOL     OW28861   0.385   0.795   2.169  0.1267 -0.5527  0.3120
 5801SOL    HW128862   0.385   0.703   2.195 -0.8340 -0.3835  0.8822
 5801SOL    HW228863   0.326   0.779   2.095 -2.3127  0.6730  1.9910
 5802SOL     OW28864   3.730   3.257   0.545 -0.0227 -0.0754  0.1380
 5802SOL    HW128865   3.736   3.330   0.607  0.2768 -0.4305  0.5265
 5802SOL    HW228866   3.760   3.182   0.597 -0.4932 -1.3016 -1.3602
 5803SOL     OW28867   4.664   1.791   3.978 -0.0212 -0.3975 -0.1223
 5803SOL    HW128868   4.715   1.715   3.953  0.6405 -0.9170  2.7459
 5803SOL    HW228869   4.713   1.859   3.933 -1.1679  0.4134 -0.1456
 5804SOL     OW28870   3.724   2.894  13.884 -0.3618  0.2164  0.0339
 5804SOL    HW128871   3.820   2.892  13.885 -0.3901 -1.2100  0.2494
 5804SOL    HW228872   3.717   2.936  13.798 -0.4431 -0.5588 -0.3404
 5805SOL     OW28873   2.560   3.080  13.580  0.5879  0.2692  0.4736
 5805SOL    HW128874   2.648   3.117  13.589 -0.1634  2.6550 -1.6677
 5805SOL    HW228875   2.553   3.058  13.673  0.7518 -0.2168  0.3681
 5806SOL     OW28876   3.379   2.487   2.908 -0.1000 -0.7308 -0.1449
 5806SOL    HW128877   3.307   2.449   2.857 -0.4357 -0.7473  0.3445
 5806SOL    HW228878   3.405   2.558   2.849 -0.8043 -0.7337 -0.4511
 5807SOL     OW28879   1.782   0.411   2.394  0.0152 -0.0431 -0.3882
 5807SOL    HW128880   1.864   0.436   2.437 -0.2779  0.4814 -0.1373
 5807SOL    HW228881   1.820   0.391   2.309  2.4816 -1.4897  1.0271
 5808SOL     OW28882   3.721   2.739   8.079  0.1272 -0.4345 -0.0970
 5808SOL    HW128883   3.699   2.671   8.015  1.7476 -0.2979 -0.8168
 5808SOL    HW228884   3.644   2.761   8.130  0.3510  1.0218 -0.3810
 5809SOL     OW28885   4.689   3.519   7.401  0.1053  0.2570  0.6335
 5809SOL    HW128886   4.630   3.577   7.449 -0.5973 -1.2123  1.5265
 5809SOL    HW228887   4.647   3.525   7.315  1.6133 -1.6976 -0.2476
 5810SOL     OW28888   2.089   1.513  15.950  0.6041  0.2383  0.3792
 5810SOL    HW128889   2.086   1.547  15.861 -0.4158 -0.0580  0.3027
 5810SOL    HW228890   2.113   1.423  15.931  1.4351  0.0470  2.2985
 5811SOL     OW28891   1.335   0.230  10.925 -0.3341 -0.3398 -0.3358
 5811SOL    HW128892   1.275   0.301  10.946 -2.8286 -2.8634  1.1718
 5811SOL    HW228893   1.419   0.267  10.952  0.1663 -0.8453 -1.2198
 5812SOL     OW28894   3.620   2.317   0.424  0.2183 -0.1350 -0.1083
 5812SOL    HW128895   3.690   2.254   0.407  0.1761 -0.3833  0.6681
 5812SOL    HW228896   3.638   2.323   0.518 -0.7684 -0.1719  0.0838
 5813SOL     OW28897   1.752   2.597   8.626 -0.5757 -0.4220  0.5030
 5813SOL    HW128898   1.770   2.677   8.676 -1.0941  1.5365 -2.4800
 5813SOL    HW228899   1.768   2.622   8.535  0.9952 -0.7261  0.6954
 5814SOL     OW28900   1.265   2.112  11.979 -0.2564 -0.3784  0.4780
 5814SOL    HW128901   1.336   2.107  11.915 -2.4738 -1.3565 -1.8835
 5814SOL    HW228902   1.303   2.059  12.049  1.9761  2.1710  1.2371
 5815SOL     OW28903   4.414   4.131  11.751  0.6083  0.0664 -0.1244
 5815SOL    HW128904   4.394   4.115  11.843 -0.8537  2.3254 -0.0586
 5815SOL    HW228905   4.472   4.207  11.748 -0.0427  0.5738  0.1371
 5816SOL     OW28906   1.843   2.821   0.374  0.0581 -0.2018  0.5163
 5816SOL    HW128907   1.921   2.770   0.352 -0.7553 -0.9719 -0.5944
 5816SOL    HW228908   1.873   2.886   0.438  0.5028  0.4215 -0.3141
 5817SOL     OW28909   3.339   0.505   6.756  0.1520  0.8692  0.1064
 5817SOL    HW128910   3.366   0.416   6.779 -2.1944  0.4365  1.2398
 5817SOL    HW228911   3.333   0.486   6.662 -1.0442 -1.4262  0.6398
 5818SOL     OW28912   3.614   2.254   0.697  0.2112 -0.0944  0.4647
 5818SOL    HW128913   3.673   2.314   0.744  0.3855  1.0497 -1.1958
 5818SOL    HW228914   3.665   2.173   0.693  0.7970  0.1683  2.5583
 5819SOL     OW28915   0.151   0.513   6.677  0.5777 -0.0184 -0.2018
 5819SOL    HW128916   0.238   0.536   6.644  1.3161 -3.2651 -0.5812
 5819SOL    HW228917   0.108   0.493   6.594 -0.7055  1.9227  0.0068
 5820SOL     OW28918   0.701   3.545   8.624  0.1608 -0.3499 -0.3448
 5820SOL    HW128919   0.621   3.598   8.621 -1.2286 -2.4975 -1.4612
 5820SOL    HW228920   0.758   3.591   8.685 -0.6695 -0.6449  0.6389
 5821SOL     OW28921   2.825   0.449   4.273 -0.2082  0.0095 -0.0406
 5821SOL    HW128922   2.817   0.353   4.272 -1.0565  0.0696  0.7619
 5821SOL    HW228923   2.793   0.468   4.185  0.0847  1.7547  0.2283
 5822SOL     OW28924   1.379   2.638   5.045  0.1445 -0.6127  0.4368
 5822SOL    HW128925   1.445   2.664   5.109  0.8457 -0.8660 -0.1873
 5822SOL    HW228926   1.303   2.689   5.073 -0.4739 -1.1493 -0.2348
 5823SOL     OW28927   4.223   3.078   4.394 -0.2629 -0.7036  0.1043
 5823SOL    HW128928   4.238   3.074   4.300 -3.5021 -1.1360 -0.3906
 5823SOL    HW228929   4.191   3.168   4.396 -0.0084 -0.5520 -2.5986
 5824SOL     OW28930   1.475   2.880   5.156 -0.0050  0.1278 -0.2684
 5824SOL    HW128931   1.549   2.905   5.101  0.9982 -2.1952  0.0194
 5824SOL    HW228932   1.412   2.921   5.097 -0.1786 -0.3484 -0.4166
 5825SOL     OW28933   1.103   3.515   7.880  0.6221  0.3658 -0.0073
 5825SOL    HW128934   1.137   3.604   7.869 -1.7527  1.1669 -0.8834
 5825SOL    HW228935   1.135   3.486   7.966 -0.7125  0.8518  0.6553
 5826SOL     OW28936   1.407   3.691  12.116 -0.9032 -0.0648  0.3359
 5826SOL    HW128937   1.427   3.625  12.182 -4.4159 -0.0971  1.3671
 5826SOL    HW228938   1.469   3.755  12.151 -0.1214  0.3454 -1.8102
 5827SOL     OW28939   2.592   0.582   1.684  0.6203  0.4974  0.0715
 5827SOL    HW128940   2.622   0.520   1.617 -0.5963 -0.7001  0.6236
 5827SOL    HW228941   2.564   0.660   1.636  2.6102  1.8776  1.1710
 5828SOL     OW28942   2.975   0.824   4.822 -0.2014 -0.1444  0.6750
 5828SOL    HW128943   2.902   0.830   4.883 -3.1750  0.3406 -2.9432
 5828SOL    HW228944   3.036   0.800   4.892 -1.1908 -0.0491  1.5597
 5829SOL     OW28945   3.583   4.528   6.982  0.4180 -0.0247  0.0865
 5829SOL    HW128946   3.573   4.444   7.027 -0.8018 -1.3350 -2.6534
 5829SOL    HW228947   3.548   4.501   6.897 -0.2577  1.3267 -0.0564
 5830SOL     OW28948   3.667   2.912   2.104  0.3692  0.6762  0.3103
 5830SOL    HW128949   3.627   2.826   2.091 -1.3511  1.4933  0.2141
 5830SOL    HW228950   3.751   2.895   2.060  1.0029 -0.5316  2.0007
 5831SOL     OW28951   0.691   1.741  15.654 -0.0143 -0.1031  0.8819
 5831SOL    HW128952   0.700   1.748  15.749 -4.1326  1.1528  1.1759
 5831SOL    HW228953   0.607   1.786  15.648 -0.8586 -1.7960  0.0357
 5832SOL     OW28954   0.895   3.341   7.803 -1.1400  0.4199  0.1912
 5832SOL    HW128955   0.839   3.413   7.773  1.0205  2.2857  0.6182
 5832SOL    HW228956   0.965   3.393   7.842 -2.0930 -0.0797  2.5798
 5833SOL     OW28957   2.966   1.689   6.701 -0.5815 -0.5510 -0.3282
 5833SOL    HW128958   2.878   1.680   6.738 -1.0142 -0.8340 -1.4194
 5833SOL    HW228959   2.971   1.617   6.639  0.5028  0.1489 -1.0562
 5834SOL     OW28960   3.826   2.474   1.076 -0.1306  0.2211  0.1382
 5834SOL    HW128961   3.846   2.553   1.126  0.2048 -0.9806  1.8761
 5834SOL    HW228962   3.831   2.407   1.143  0.9062  2.1697  2.0083
 5835SOL     OW28963   2.353   3.614  12.778 -0.0194  0.1267 -0.5370
 5835SOL    HW128964   2.343   3.629  12.684 -0.5585 -0.1561 -0.5250
 5835SOL    HW228965   2.291   3.543  12.798 -2.0876  2.0777 -0.0545
 5836SOL     OW28966   0.534   1.820   0.485 -0.2121  0.0616 -0.1319
 5836SOL    HW128967   0.453   1.852   0.446  1.3910  1.5460 -2.2851
 5836SOL    HW228968   0.531   1.725   0.486 -2.4460  0.1421  0.0311
 5837SOL     OW28969   0.517   3.069  15.911  0.3295 -0.3176  0.1156
 5837SOL    HW128970   0.483   3.070  15.822  1.5813 -0.3646 -0.3636
 5837SOL    HW228971   0.538   2.976  15.917 -2.1346 -0.9196 -0.4623
 5838SOL     OW28972   1.259   4.565   6.352 -0.3332  0.1510 -0.2712
 5838SOL    HW128973   1.331   4.502   6.361  0.1583  0.4809 -1.8878
 5838SOL    HW228974   1.266   4.624   6.426 -1.8247 -1.1081  0.8762
 5839SOL     OW28975   2.043   2.807   6.189  0.2356 -0.4060  0.5657
 5839SOL    HW128976   2.051   2.899   6.213 -3.8023 -0.7845  3.3503
 5839SOL    HW228977   1.952   2.796   6.162  0.2045  0.4242  0.3266
 5840SOL     OW28978   0.265   0.994   2.979  0.1518 -0.7750 -0.6838
 5840SOL    HW128979   0.195   1.053   2.951  0.4802 -0.5638 -1.0680
 5840SOL    HW228980   0.345   1.046   2.969 -0.5181  0.4799  0.4935
 5841SOL     OW28981   0.780   3.215   4.838  0.1711 -0.1044  0.5541
 5841SOL    HW128982   0.837   3.247   4.768  0.6977 -4.0760 -0.8610
 5841SOL    HW228983   0.701   3.203   4.786  0.2869  0.6044  0.2185
 5842SOL     OW28984   1.847   2.605  10.377  0.5027 -0.1846  0.3261
 5842SOL    HW128985   1.844   2.669  10.305  0.0174 -0.0223  0.4918
 5842SOL    HW228986   1.794   2.662  10.432  1.4718  0.8337  0.2190
 5843SOL     OW28987   4.621   2.586  10.803 -0.6024 -0.1547  0.6520
 5843SOL    HW128988   4.712   2.609  10.821 -0.6097  2.3218 -2.4970
 5843SOL    HW228989   4.618   2.632  10.719 -2.8946 -0.4734  0.5388
 5844SOL     OW28990   3.051   2.032   5.313  0.4097  0.2181 -0.6821
 5844SOL    HW128991   3.131   2.013   5.362  0.1961 -0.5649 -0.6461
 5844SOL    HW228992   2.987   1.998   5.376  1.4118  0.2589  0.3561
 5845SOL     OW28993   1.765   0.693   7.620 -0.1527  0.0799  0.2182
 5845SOL    HW128994   1.841   0.752   7.621 -1.0447  1.2745 -2.5464
 5845SOL    HW228995   1.812   0.620   7.659  2.6525  1.2663 -0.8799
 5846SOL     OW28996   2.616   1.994   5.048 -0.4067 -0.2382  0.2401
 5846SOL    HW128997   2.698   2.038   5.072 -0.2134 -0.7763  0.5541
 5846SOL    HW228998   2.638   1.901   5.053  0.6420 -0.1523 -2.8856
 5847SOL     OW28999   4.321   4.602   4.976  0.0431  0.1971 -0.3611
 5847SOL    HW129000   4.263   4.655   4.921 -1.5060 -0.6996  0.3740
 5847SOL    HW229001   4.276   4.517   4.976 -0.9083  0.6814  1.5428
 5848SOL     OW29002   3.247   3.942   3.713  0.5491  0.0122  0.1769
 5848SOL    HW129003   3.171   3.939   3.655  1.6110 -1.3087 -1.1588
 5848SOL    HW229004   3.268   4.032   3.737 -2.5539  1.3666 -2.2134
 5849SOL     OW29005   3.715   0.598   5.060  0.2375  0.6804  0.5120
 5849SOL    HW129006   3.645   0.545   5.022  0.3262 -0.4695  1.9854
 5849SOL    HW229007   3.721   0.669   4.996  0.3786 -0.8423 -1.1672
 5850SOL     OW29008   2.240   1.382   4.898 -0.1960  0.6888  0.0703
 5850SOL    HW129009   2.305   1.411   4.834  0.1146 -0.1663 -0.0077
 5850SOL    HW229010   2.247   1.287   4.886 -0.8449  0.8330 -1.5505
 5851SOL     OW29011   2.186   1.110   9.402 -0.2689 -0.0972 -0.4859
 5851SOL    HW129012   2.178   1.149   9.489  0.7479 -0.4755 -0.2243
 5851SOL    HW229013   2.189   1.189   9.348 -2.2231  0.5144  0.2894
 5852SOL     OW29014   2.391   3.152  15.015 -0.1575 -0.1936  0.1309
 5852SOL    HW129015   2.377   3.245  15.000  0.4399 -0.1123  0.0733
 5852SOL    HW229016   2.419   3.121  14.929 -0.2141  0.3323 -0.0742
 5853SOL     OW29017   1.622   4.134  13.243 -0.1187 -0.3950  0.0909
 5853SOL    HW129018   1.615   4.098  13.331 -0.0809 -1.4665 -0.3359
 5853SOL    HW229019   1.585   4.222  13.246 -1.8125 -1.1130  0.1622
 5854SOL     OW29020   2.966   0.179   4.983  1.0772  0.3819 -0.3773
 5854SOL    HW129021   2.918   0.123   4.922  0.5579  1.0201 -0.5484
 5854SOL    HW229022   2.919   0.261   4.973 -1.7167 -1.0354  1.2299
 5855SOL     OW29023   1.509   2.725   3.004  0.2318 -0.4459 -0.3590
 5855SOL    HW129024   1.576   2.656   3.002 -1.4595 -2.1379  1.5504
 5855SOL    HW229025   1.547   2.795   2.951 -0.1378 -1.0622 -1.4237
 5856SOL     OW29026   1.107   4.527  11.726  0.5471  0.0222  0.7519
 5856SOL    HW129027   1.200   4.506  11.730  0.8489  1.2803  0.4417
 5856SOL    HW229028   1.080   4.453  11.671  0.7248  0.1319  0.5162
 5857SOL     OW29029   3.789   2.135   4.031 -1.0523 -0.0239  0.2334
 5857SOL    HW129030   3.726   2.096   4.092 -1.9151 -1.0449 -1.2877
 5857SOL    HW229031   3.732   2.198   3.986 -1.8654 -2.0093 -1.5315
 5858SOL     OW29032   2.754   3.227   0.222  0.2952 -0.4398  0.0930
 5858SOL    HW129033   2.669   3.221   0.265  0.5050 -0.7354  0.4789
 5858SOL    HW229034   2.751   3.152   0.162  0.7505 -0.7440  0.4433
 5859SOL     OW29035   4.655   0.413   8.301  0.3815  0.1269 -0.7829
 5859SOL    HW129036   4.610   0.418   8.385  1.6710  0.2924 -0.0902
 5859SOL    HW229037   4.711   0.338   8.323 -0.5057 -0.6850 -1.2824
 5860SOL     OW29038   0.422   3.107  10.143  0.3066  0.8002 -0.1469
 5860SOL    HW129039   0.471   3.074  10.068 -0.6605  0.8847 -0.8082
 5860SOL    HW229040   0.472   3.177  10.185 -0.4193  1.2025  0.0540
 5861SOL     OW29041   3.532   0.805   3.906 -0.1964 -0.5691  0.7490
 5861SOL    HW129042   3.459   0.761   3.862  0.2956 -2.1583  1.5372
 5861SOL    HW229043   3.480   0.879   3.938  2.3609  2.7848 -2.7546
 5862SOL     OW29044   1.090   3.141   9.620  0.0679 -0.0631 -0.0928
 5862SOL    HW129045   1.033   3.064   9.619 -1.2675  0.8792  3.3518
 5862SOL    HW229046   1.090   3.169   9.528  0.6132  4.9906  1.4168
 5863SOL     OW29047   0.440   0.095   5.831 -0.1071 -0.3330  0.4589
 5863SOL    HW129048   0.431   0.012   5.877  1.0539 -0.0739  1.1774
 5863SOL    HW229049   0.529   0.095   5.796 -0.0851 -0.2496  0.5137
 5864SOL     OW29050   2.183   2.451   3.003 -0.3530 -0.5572  0.6998
 5864SOL    HW129051   2.202   2.429   2.911 -2.0448 -1.1777  0.4990
 5864SOL    HW229052   2.088   2.440   3.003 -0.2543 -1.3803  1.5915
 5865SOL     OW29053   2.603   1.011   7.326  0.0143  0.6681 -0.4141
 5865SOL    HW129054   2.524   0.965   7.354  1.1016 -0.8947  0.0792
 5865SOL    HW229055   2.679   0.988   7.379 -2.0465  0.5401  2.5209
 5866SOL     OW29056   1.891   2.861  16.211 -0.0215 -0.2913 -0.3550
 5866SOL    HW129057   1.837   2.847  16.133  1.0945 -1.2019 -0.9696
 5866SOL    HW229058   1.964   2.910  16.173 -0.7430  0.3612 -0.9071
 5867SOL     OW29059   4.569   0.250   5.794 -0.1147 -0.2097 -0.2655
 5867SOL    HW129060   4.567   0.335   5.839  1.1338 -0.8290  0.9637
 5867SOL    HW229061   4.648   0.219   5.837 -0.8534 -0.6950  0.7243
 5868SOL     OW29062   4.399   2.954   3.071  0.4662  0.1446 -0.6520
 5868SOL    HW129063   4.459   3.013   3.026 -1.8055  1.7316 -1.6563
 5868SOL    HW229064   4.448   2.872   3.069 -0.7325 -0.5706 -1.1395
 5869SOL     OW29065   4.076   3.426   1.043  0.7330 -0.3369 -0.7112
 5869SOL    HW129066   4.034   3.378   1.113  1.8050  0.3398  0.3965
 5869SOL    HW229067   4.168   3.408   1.063  0.8297  1.1049  0.1443
 5870SOL     OW29068   2.953   3.093   3.406 -0.2685 -0.0873  0.2220
 5870SOL    HW129069   2.883   3.098   3.341 -0.8000  0.4277  0.8269
 5870SOL    HW229070   2.974   3.186   3.399 -1.5319  0.1698 -0.1045
 5871SOL     OW29071   3.726   3.448   3.221  0.5679  0.3112 -0.3487
 5871SOL    HW129072   3.731   3.453   3.126  0.8237 -0.5414 -0.3816
 5871SOL    HW229073   3.636   3.475   3.236 -0.5400 -1.2082 -4.1647
 5872SOL     OW29074   1.332   0.474   0.180 -0.2094  0.2213  0.3273
 5872SOL    HW129075   1.257   0.417   0.164  1.0721 -1.4765  0.3739
 5872SOL    HW229076   1.330   0.548   0.119 -2.0760 -0.9918 -1.0648
 5873SOL     OW29077   0.453   2.895   7.720  0.5249 -0.6077 -0.3918
 5873SOL    HW129078   0.542   2.858   7.715  0.0926 -1.5316 -1.1334
 5873SOL    HW229079   0.422   2.869   7.633 -0.9740 -1.7113  0.4850
 5874SOL     OW29080   2.293   4.393   6.165  0.2725 -0.1394  0.1146
 5874SOL    HW129081   2.381   4.429   6.157  0.8747 -1.5089  0.5361
 5874SOL    HW229082   2.258   4.440   6.240  0.1421 -0.9678  0.5768
 5875SOL     OW29083   3.087   2.775   2.362  0.5195  0.0592  0.4490
 5875SOL    HW129084   3.063   2.772   2.455 -1.3573 -3.0425 -0.1362
 5875SOL    HW229085   3.027   2.847   2.338 -0.6468 -0.9580  0.2911
 5876SOL     OW29086   2.010   1.231   8.691 -0.3438  0.2196 -0.0906
 5876SOL    HW129087   2.012   1.248   8.785  1.3864  0.3922 -0.1639
 5876SOL    HW229088   1.939   1.167   8.694 -0.3210  0.1286 -1.7761
 5877SOL     OW29089   2.475   0.017   2.344 -0.1043 -0.1501  0.9597
 5877SOL    HW129090   2.397   0.069   2.328 -0.0058 -0.7942 -1.6344
 5877SOL    HW229091   2.454   4.666   2.287 -1.0678  1.0799 -0.2610
 5878SOL     OW29092   0.262   1.481  15.307  0.2925  0.2989  0.3342
 5878SOL    HW129093   0.267   1.540  15.233 -1.8882  0.1736  0.0721
 5878SOL    HW229094   0.167   1.471  15.302  0.2929  0.8317 -0.6846
 5879SOL     OW29095   3.362   2.522   7.845  0.1597 -0.9254 -0.0882
 5879SOL    HW129096   3.332   2.440   7.884 -0.6728  0.3450  1.9607
 5879SOL    HW229097   3.317   2.587   7.899 -1.0093 -2.2132  0.4864
 5880SOL     OW29098   1.005   3.604   4.404 -0.3894  0.1171 -0.6925
 5880SOL    HW129099   1.004   3.516   4.367 -1.1991 -0.7172  1.3086
 5880SOL    HW229100   1.054   3.589   4.485  1.1473 -0.9361 -1.8206
 5881SOL     OW29101   1.512   4.486   4.913  0.5442  0.0193  0.2418
 5881SOL    HW129102   1.562   4.568   4.914  1.4195 -0.4944 -0.9320
 5881SOL    HW229103   1.562   4.433   4.851 -0.6472  0.0678 -0.7729
 5882SOL     OW29104   4.268   1.083   4.307  0.0769 -0.1980 -0.2374
 5882SOL    HW129105   4.264   1.016   4.239  0.1000  0.1948 -0.6223
 5882SOL    HW229106   4.250   1.031   4.385 -0.2330 -1.2091 -0.9923
 5883SOL     OW29107   0.445   0.298   6.813  0.0345 -0.6165 -0.1713
 5883SOL    HW129108   0.527   0.281   6.767  0.6125  0.1169  0.5736
 5883SOL    HW229109   0.457   0.392   6.827  1.7539 -0.9949  0.9582
 5884SOL     OW29110   0.345   3.698  11.111 -0.3805  0.5044  0.2864
 5884SOL    HW129111   0.286   3.735  11.177 -2.4390 -1.9028 -0.2383
 5884SOL    HW229112   0.350   3.760  11.038  0.6701 -0.3734 -0.3944
 5885SOL     OW29113   0.883   2.368  11.983 -0.0612 -0.1777  0.0651
 5885SOL    HW129114   0.845   2.455  11.992  0.4594  0.0711 -0.0976
 5885SOL    HW229115   0.802   2.327  11.954 -0.8763 -1.7280  4.4588
 5886SOL     OW29116   3.780   3.036   0.693 -0.3422  0.0291 -0.0030
 5886SOL    HW129117   3.722   2.995   0.756 -0.1365  0.9802  0.8038
 5886SOL    HW229118   3.827   2.962   0.653 -2.0695  0.1727 -2.3182
 5887SOL     OW29119   0.609   3.975   7.225 -0.0059  0.1705  0.3048
 5887SOL    HW129120   0.545   3.968   7.295 -1.2262  0.0949 -0.8352
 5887SOL    HW229121   0.687   3.988   7.280  0.2880  2.1151 -0.5711
 5888SOL     OW29122   2.542   1.734  10.523  0.5147 -0.1156  0.3094
 5888SOL    HW129123   2.510   1.821  10.500  2.3009  0.2565 -0.6898
 5888SOL    HW229124   2.625   1.732  10.476 -0.4961  0.3643 -1.4709
 5889SOL     OW29125   2.263   1.962   2.085 -0.5802  0.0557  0.0057
 5889SOL    HW129126   2.249   2.042   2.134  1.5892 -0.5507  1.6055
 5889SOL    HW229127   2.260   1.990   1.993 -1.3936  2.8117  0.8674
 5890SOL     OW29128   3.386   4.199   4.985 -0.2657  0.0023 -0.0820
 5890SOL    HW129129   3.306   4.147   4.980 -0.3081  0.5129 -4.3109
 5890SOL    HW229130   3.402   4.191   4.891 -1.1591  0.9413 -0.3026
 5891SOL     OW29131   2.974   1.937  10.362  0.3533  0.1777  0.4453
 5891SOL    HW129132   3.059   1.896  10.351  0.7189  1.5986 -2.0721
 5891SOL    HW229133   2.988   1.979  10.447 -0.3766 -0.2230  0.7665
 5892SOL     OW29134   1.531   2.304   8.510 -0.9968 -0.3395  0.1871
 5892SOL    HW129135   1.572   2.218   8.516  0.5723  0.3606 -0.6363
 5892SOL    HW229136   1.584   2.336   8.437 -0.7133  0.4633  0.7431
 5893SOL     OW29137   4.685   0.296   7.454  0.2389 -0.0609 -0.1355
 5893SOL    HW129138   4.662   0.370   7.398 -2.0447  0.6472  1.7424
 5893SOL    HW229139   4.678   0.333   7.542  1.5739 -0.1233 -0.0028
 5894SOL     OW29140   2.310   0.929  10.138 -0.0286 -0.0322  0.0540
 5894SOL    HW129141   2.354   0.847  10.116  0.8117 -0.0250  1.7158
 5894SOL    HW229142   2.383   0.991  10.140 -1.8303  2.1482 -2.5004
 5895SOL     OW29143   3.809   1.756   7.492  0.1778 -0.3273 -0.9152
 5895SOL    HW129144   3.802   1.686   7.557  1.0504  1.4269  1.0701
 5895SOL    HW229145   3.904   1.763   7.483  0.4339 -1.6970  0.6530
 5896SOL     OW29146   0.320   0.282   2.994 -0.4858  0.1463  0.0522
 5896SOL    HW129147   0.354   0.242   2.914 -0.5367 -1.3543  0.7826
 5896SOL    HW229148   0.246   0.320   2.945 -0.4899 -0.2847 -0.2822
 5897SOL     OW29149   4.504   3.690   7.516 -0.1601  0.0454 -0.0454
 5897SOL    HW129150   4.505   3.692   7.612 -0.0597 -0.5369 -0.0326
 5897SOL    HW229151   4.465   3.775   7.499  0.0452  0.2698  0.5918
 5898SOL     OW29152   2.868   0.947  15.300 -0.7158 -0.2177 -0.0349
 5898SOL    HW129153   2.918   0.873  15.334  0.4534  1.3427  1.6307
 5898SOL    HW229154   2.868   0.998  15.381 -0.7850 -3.3331  1.9079
 5899SOL     OW29155   2.394   1.709  10.754 -0.1712  0.1326 -0.2585
 5899SOL    HW129156   2.447   1.710  10.675 -1.8970 -2.3989 -1.4531
 5899SOL    HW229157   2.338   1.632  10.741 -0.8969  0.7352 -0.7025
 5900SOL     OW29158   0.732   0.109   5.439  0.2911  0.0094 -0.0299
 5900SOL    HW129159   0.809   0.164   5.452  0.3622  0.4586 -2.2984
 5900SOL    HW229160   0.778   0.052   5.378  0.5683 -1.8877  1.9598
 5901SOL     OW29161   2.987   3.017  15.475 -0.2774 -0.3845  0.2486
 5901SOL    HW129162   3.031   3.101  15.466 -1.6559  0.2500 -0.4564
 5901SOL    HW229163   2.898   3.049  15.463 -0.6408 -1.6681 -0.5233
 5902SOL     OW29164   0.429   2.045  12.545  0.5353 -0.1193  0.1023
 5902SOL    HW129165   0.419   2.048  12.450  1.5269  0.2766  0.0167
 5902SOL    HW229166   0.384   2.125  12.572  1.1744 -0.2421  1.5018
 5903SOL     OW29167   0.803   2.236   6.581  0.4054  0.1218  0.5576
 5903SOL    HW129168   0.773   2.167   6.521  0.4676  1.9604 -1.5962
 5903SOL    HW229169   0.888   2.204   6.610  1.2750  1.4862 -0.4734
 5904SOL     OW29170   1.290   2.017  17.444  0.2584 -0.1364 -0.1979
 5904SOL    HW129171   1.201   2.001  17.412 -0.0884  0.4346  0.4824
 5904SOL    HW229172   1.328   2.081  17.383 -1.8290  2.1865  0.9601
 5905SOL     OW29173   1.832   1.719   6.469  0.1512  0.1503  0.5973
 5905SOL    HW129174   1.743   1.685   6.476  0.4175 -0.5669  0.4291
 5905SOL    HW229175   1.819   1.762   6.385  0.4832 -0.5500  0.1945
 5906SOL     OW29176   4.588   3.891   5.115 -0.7196  0.3389  0.0379
 5906SOL    HW129177   4.681   3.915   5.119 -1.0116  1.5317 -0.4050
 5906SOL    HW229178   4.564   3.932   5.032  0.5118 -0.5329 -0.7718
 5907SOL     OW29179   3.969   3.129   1.738  0.2594 -0.3934 -0.0445
 5907SOL    HW129180   4.052   3.081   1.736  0.6910  0.3575 -0.2658
 5907SOL    HW229181   3.915   3.055   1.765  0.2978 -2.1238 -4.8301
 5908SOL     OW29182   3.267   3.247   2.468  0.1606  0.3744 -0.1288
 5908SOL    HW129183   3.269   3.313   2.537  1.5393 -0.0429  0.2212
 5908SOL    HW229184   3.190   3.280   2.420 -0.4297  3.5574  3.0711
 5909SOL     OW29185   1.073   3.899   8.904 -0.3136 -0.1493 -0.7810
 5909SOL    HW129186   1.052   3.925   8.994  0.8895  2.2981 -1.2111
 5909SOL    HW229187   1.153   3.848   8.916  0.3378  0.4278 -2.6193
 5910SOL     OW29188   1.730   3.288   4.345  0.0325  0.4258  0.3422
 5910SOL    HW129189   1.707   3.233   4.421 -2.5193 -1.3650 -1.7317
 5910SOL    HW229190   1.691   3.238   4.273 -0.0101 -0.6756  1.1220
 5911SOL     OW29191   4.715   0.557   1.922 -0.1493  0.5608  0.3212
 5911SOL    HW129192   0.083   0.545   1.895 -0.6143  1.0536 -1.5195
 5911SOL    HW229193   4.672   0.527   1.841  0.2465 -0.7141  0.5852
 5912SOL     OW29194   3.100   3.518  10.284 -0.7361  0.4099  0.3266
 5912SOL    HW129195   3.177   3.499  10.337  0.2051  0.5391 -0.9802
 5912SOL    HW229196   3.031   3.502  10.348 -0.4266 -0.5747  0.4140
 5913SOL     OW29197   3.756   4.166   8.291 -0.0285  0.1803  0.1965
 5913SOL    HW129198   3.709   4.082   8.285  1.2147 -0.3079 -3.0496
 5913SOL    HW229199   3.823   4.146   8.226 -0.8245 -1.7298 -0.0408
 5914SOL     OW29200   3.091   4.293   8.006  0.1503 -0.3759 -0.0307
 5914SOL    HW129201   3.127   4.224   7.950  0.2677  1.3491 -2.1113
 5914SOL    HW229202   3.130   4.370   7.964 -0.5634 -0.7277 -1.3521
 5915SOL     OW29203   0.011   1.959   4.751  0.6219 -0.0798  0.5515
 5915SOL    HW129204   4.658   1.985   4.701  1.1419  0.2560 -0.0603
 5915SOL    HW229205   0.007   1.864   4.739 -1.0667 -0.0734  1.0891
 5916SOL     OW29206   2.753   0.693   8.370  0.4935  0.3055  0.2143
 5916SOL    HW129207   2.685   0.629   8.346  0.1034  1.0518 -0.6776
 5916SOL    HW229208   2.737   0.758   8.302  1.7330  0.0581 -0.3089
 5917SOL     OW29209   0.512   1.178   2.192  0.0937  0.4592 -0.1043
 5917SOL    HW129210   0.581   1.119   2.163 -0.6409 -0.0668 -0.7917
 5917SOL    HW229211   0.503   1.240   2.119  1.9281  0.0702 -0.6621
 5918SOL     OW29212   1.186   3.884   0.614 -0.0818 -0.7550 -0.7182
 5918SOL    HW129213   1.133   3.846   0.544  2.0930 -3.7605 -0.7690
 5918SOL    HW229214   1.265   3.832   0.595  0.1591 -0.2896 -0.9902
 5919SOL     OW29215   0.239   0.884   3.860  0.2721  0.1961 -0.0843
 5919SOL    HW129216   0.145   0.899   3.859 -0.0003 -1.6306 -2.1486
 5919SOL    HW229217   0.250   0.790   3.877  1.9691  0.2639 -0.7617
 5920SOL     OW29218   3.543   1.396   0.865 -0.5422 -0.0366 -0.8030
 5920SOL    HW129219   3.552   1.454   0.940 -0.2162  0.8422 -1.5107
 5920SOL    HW229220   3.627   1.407   0.820 -0.1902 -1.9731 -0.5980
 5921SOL     OW29221   0.334   0.774   4.252 -0.1637 -0.0122  0.2281
 5921SOL    HW129222   0.424   0.781   4.221 -1.0726  1.2747 -2.0662
 5921SOL    HW229223   0.283   0.773   4.171 -0.0912 -2.6212  0.2081
 5922SOL     OW29224   4.060   3.362  16.968 -0.2085 -0.0336  0.0777
 5922SOL    HW129225   3.965   3.363  16.954 -0.0641 -0.4854 -0.9107
 5922SOL    HW229226   4.079   3.450  16.998 -0.3550  0.3707 -1.0162
 5923SOL     OW29227   1.703   0.649   2.518 -0.0716 -0.2660  0.6199
 5923SOL    HW129228   1.729   0.586   2.451  0.0109 -1.3542  1.6810
 5923SOL    HW229229   1.621   0.613   2.552 -1.0396 -2.7380 -4.2881
 5924SOL     OW29230   2.022   4.210  13.892 -0.8378 -0.1127 -0.4260
 5924SOL    HW129231   2.101   4.167  13.859 -0.8611 -1.7974  1.7193
 5924SOL    HW229232   2.039   4.217  13.986  0.9251 -4.4823 -0.3881
 5925SOL     OW29233   3.066   4.604   7.102 -0.5540 -0.2428  0.0169
 5925SOL    HW129234   3.023   4.549   7.037  1.0652 -0.4313 -0.9002
 5925SOL    HW229235   3.115   4.669   7.052  1.2108 -0.9843  0.7635
 5926SOL     OW29236   3.082   3.030  16.527 -0.7100 -0.0194 -0.2114
 5926SOL    HW129237   3.117   3.067  16.608 -0.6362  3.4409 -1.8401
 5926SOL    HW229238   3.134   2.952  16.512  1.0893  0.4280  3.6426
 5927SOL     OW29239   4.520   4.023   8.104  0.0587  0.0499  0.0035
 5927SOL    HW129240   4.481   3.964   8.168  0.6429  3.0660  3.1114
 5927SOL    HW229241   4.542   4.098   8.160  1.0223 -1.3795  1.5282
 5928SOL     OW29242   4.380   3.317   1.902 -0.2488  0.1612  0.3280
 5928SOL    HW129243   4.288   3.320   1.928 -1.2383 -0.4669 -3.0677
 5928SOL    HW229244   4.379   3.227   1.870  0.7959  0.4856 -0.5993
 5929SOL     OW29245   0.597   3.094  16.254 -0.1381 -0.4603  0.6195
 5929SOL    HW129246   0.575   3.145  16.332  0.2666  0.2216  0.2912
 5929SOL    HW229247   0.511   3.082  16.212  0.7193 -0.1465 -1.2284
 5930SOL     OW29248   1.281   1.408   5.626 -0.2913 -0.1177  0.3859
 5930SOL    HW129249   1.277   1.488   5.574  0.3116  0.1330  0.7296
 5930SOL    HW229250   1.235   1.347   5.567  0.9664 -2.0078  1.3577
 5931SOL     OW29251   0.981   0.665   6.414 -0.1135 -0.1002  0.1910
 5931SOL    HW129252   0.982   0.739   6.353  0.5654 -0.1015  0.2003
 5931SOL    HW229253   1.038   0.604   6.368 -1.1029 -0.6285 -0.3263
 5932SOL     OW29254   2.445   3.362   6.082 -0.6840 -0.0620 -0.3995
 5932SOL    HW129255   2.535   3.392   6.088 -1.1924  1.1776  1.1003
 5932SOL    HW229256   2.445   3.283   6.136  0.9462 -1.0158 -1.8157
 5933SOL     OW29257   0.154   4.169  16.209  0.1816 -0.5561 -0.4756
 5933SOL    HW129258   0.148   4.156  16.115  0.2096 -2.2611 -0.2425
 5933SOL    HW229259   0.078   4.126  16.247  0.0479 -0.2728 -0.4191
 5934SOL     OW29260   0.864   0.400   2.477  0.1256  0.4080  0.5549
 5934SOL    HW129261   0.907   0.411   2.393 -2.6180 -0.8033 -0.9942
 5934SOL    HW229262   0.858   0.305   2.485 -1.0831  0.5791  1.8039
 5935SOL     OW29263   3.681   2.180   4.379 -0.2717  0.1170 -0.2187
 5935SOL    HW129264   3.591   2.159   4.357 -0.6529  1.1919  0.3386
 5935SOL    HW229265   3.685   2.273   4.356  1.0377  0.1739  0.2021
 5936SOL     OW29266   1.206   3.688   6.832 -0.6231  0.3222  0.5504
 5936SOL    HW129267   1.291   3.720   6.862  0.8228 -2.5388 -0.5260
 5936SOL    HW229268   1.158   3.770   6.820 -1.2725 -0.2969 -1.1169
 5937SOL     OW29269   3.676   2.671  15.149  0.1880  0.0151  0.2028
 5937SOL    HW129270   3.700   2.601  15.088  0.6816 -3.3836  4.3039
 5937SOL    HW229271   3.583   2.682  15.129 -0.4308 -0.8002  2.6984
 5938SOL     OW29272   0.529   0.789  10.694  0.3918 -0.0292  0.3249
 5938SOL    HW129273   0.460   0.766  10.757 -0.1624 -0.1709 -0.3282
 5938SOL    HW229274   0.558   0.859  10.752 -1.9032  2.9813 -2.1448
 5939SOL     OW29275   2.519   1.465   4.218 -0.2787 -0.7790  0.3361
 5939SOL    HW129276   2.551   1.434   4.133  0.1652  0.7760 -0.0510
 5939SOL    HW229277   2.457   1.396   4.244 -0.1237 -1.6860 -1.6239
 5940SOL     OW29278   0.774   4.565   5.093 -0.6044  0.1943 -1.0050
 5940SOL    HW129279   0.824   4.486   5.071  0.0164  0.7878 -1.7352
 5940SOL    HW229280   0.822   4.637   5.052 -2.1748  1.1490 -1.1650
 5941SOL     OW29281   1.308   3.920   4.062 -0.2564 -0.1002 -0.3437
 5941SOL    HW129282   1.346   3.889   3.980 -0.6948 -0.0288 -0.5743
 5941SOL    HW229283   1.268   3.836   4.084 -1.4037  1.0684  2.1324
 5942SOL     OW29284   0.056   0.461  16.879 -0.1121  0.1228 -0.0790
 5942SOL    HW129285   0.071   0.455  16.784  0.0966  0.4014 -0.0647
 5942SOL    HW229286   4.709   0.396  16.882  1.8409 -1.8608  2.2561
 5943SOL     OW29287   0.940   3.184  16.211 -0.2891 -0.1820 -0.0752
 5943SOL    HW129288   0.958   3.251  16.278  3.0597 -0.5166 -0.6375
 5943SOL    HW229289   0.885   3.226  16.146 -0.0201  0.9801  0.4409
 5944SOL     OW29290   3.324   2.602   7.405 -0.4144  0.2115  0.1751
 5944SOL    HW129291   3.377   2.627   7.480 -1.8305  2.2716  0.4962
 5944SOL    HW229292   3.391   2.581   7.340 -0.2786  3.2843 -0.6608
 5945SOL     OW29293   0.002   4.600   2.214  0.4859  0.1481  0.4593
 5945SOL    HW129294   0.057   4.531   2.253 -0.4351  0.1185  1.7086
 5945SOL    HW229295   0.037   4.612   2.126  1.0864  0.5416  0.7527
 5946SOL     OW29296   4.036   1.290   2.107 -0.6894  0.5464 -0.2933
 5946SOL    HW129297   3.997   1.215   2.153 -0.3083  0.1205 -0.6583
 5946SOL    HW229298   4.108   1.314   2.165 -0.7598  0.1074 -0.0248
 5947SOL     OW29299   3.069   0.187  15.807  0.2217  0.4739 -0.0719
 5947SOL    HW129300   3.008   0.115  15.791  1.1036  0.0843 -1.6163
 5947SOL    HW229301   3.017   0.224  15.878 -0.7492 -1.7861  0.3789
 5948SOL     OW29302   3.532   4.465   4.963  0.7832 -0.5524  0.7110
 5948SOL    HW129303   3.486   4.394   4.918  0.5841  0.2125 -0.2717
 5948SOL    HW229304   3.555   4.414   5.041  2.0542 -0.7541  0.1961
 5949SOL     OW29305   3.564   3.167   3.588 -0.3067 -0.4492  0.3797
 5949SOL    HW129306   3.503   3.127   3.650  1.1720 -3.1097  0.0871
 5949SOL    HW229307   3.505   3.190   3.517  0.2517  0.1421  0.1053
 5950SOL     OW29308   4.100   4.553  15.118  0.4954  0.6603 -0.0015
 5950SOL    HW129309   4.008   4.547  15.144  0.5887  0.4277  0.2794
 5950SOL    HW229310   4.109   4.642  15.085 -1.1684  0.1995 -1.6680
 5951SOL     OW29311   2.522   4.647   5.551  0.3514  0.2974 -0.5072
 5951SOL    HW129312   2.504   0.016   5.533 -1.3755  0.4588  2.1258
 5951SOL    HW229313   2.453   4.603   5.502 -0.5642  0.2392  0.8520
 5952SOL     OW29314   3.734   0.533   6.696  0.0778  0.5073  0.4229
 5952SOL    HW129315   3.664   0.518   6.632  0.6459  0.3917 -0.1692
 5952SOL    HW229316   3.751   0.439   6.707 -0.4031  0.3175 -0.5162
 5953SOL     OW29317   1.217   4.255   8.331  0.4402 -0.7850  0.4486
 5953SOL    HW129318   1.236   4.162   8.340 -0.3136 -0.9344  0.4935
 5953SOL    HW229319   1.168   4.265   8.413 -0.2253  2.5976 -0.3331
 5954SOL     OW29320   3.909   4.680   2.961  0.1456  0.1535 -0.0686
 5954SOL    HW129321   3.944   4.660   2.874  0.4578  2.5085 -0.4812
 5954SOL    HW229322   3.983   0.007   2.996 -0.4863  0.5013  0.7535
 5955SOL     OW29323   1.979   1.417  16.521  0.4209 -0.2152  0.3110
 5955SOL    HW129324   2.042   1.446  16.455  0.5246 -1.2263 -0.0413
 5955SOL    HW229325   1.926   1.357  16.468  1.5706  0.4593 -1.5962
 5956SOL     OW29326   2.887   4.508   5.174 -0.3315  0.2329  0.4444
 5956SOL    HW129327   2.804   4.511   5.221 -1.5608 -3.4149 -1.5047
 5956SOL    HW229328   2.935   4.573   5.226 -1.0469 -0.6933  2.2895
 5957SOL     OW29329   0.484   3.297   2.605  0.4149  0.4302  0.2485
 5957SOL    HW129330   0.439   3.347   2.536  2.0889  1.5193 -0.0561
 5957SOL    HW229331   0.564   3.286   2.554  0.6020  2.1088  0.1680
 5958SOL     OW29332   3.423   4.055  11.702  0.0759  0.4421 -0.2361
 5958SOL    HW129333   3.403   4.000  11.778  1.3654 -0.6699 -0.7004
 5958SOL    HW229334   3.518   4.065  11.710 -0.1434  1.7348  0.8023
 5959SOL     OW29335   4.629   3.463   4.043  0.4387 -0.2851 -0.2087
 5959SOL    HW129336   4.610   3.515   4.121 -1.3882  2.2085 -2.3194
 5959SOL    HW229337   4.673   3.393   4.092 -0.2347 -2.1288 -2.2461
 5960SOL     OW29338   4.005   1.995   1.662 -0.4477  0.1023  0.3126
 5960SOL    HW129339   4.092   2.035   1.667 -1.3509  2.0773  0.1326
 5960SOL    HW229340   3.996   1.962   1.751 -1.2584  0.3384  0.3193
 5961SOL     OW29341   4.408   0.875   7.846 -0.4802  0.2226  0.6891
 5961SOL    HW129342   4.426   0.810   7.913 -1.2539 -0.6741  0.0172
 5961SOL    HW229343   4.322   0.844   7.817  0.2985 -1.3357  0.0362
 5962SOL     OW29344   1.624   1.115   2.106 -0.5291 -0.0387  0.7310
 5962SOL    HW129345   1.578   1.157   2.179  2.3067  1.5937  1.5796
 5962SOL    HW229346   1.667   1.037   2.141  1.2409  1.2463  1.4482
 5963SOL     OW29347   4.440   1.638  14.324  0.3237  0.1657 -0.4180
 5963SOL    HW129348   4.356   1.620  14.282  0.2524 -1.2392  0.3308
 5963SOL    HW229349   4.436   1.579  14.399  2.6135 -0.2856 -0.6601
 5964SOL     OW29350   3.204   2.678   5.882  0.2734 -0.1175  1.0494
 5964SOL    HW129351   3.254   2.730   5.819  1.1264 -0.9891  1.0161
 5964SOL    HW229352   3.118   2.715   5.861  1.7157  3.1413  0.8265
 5965SOL     OW29353   3.465   0.247   9.690  0.0857  0.4187  0.6385
 5965SOL    HW129354   3.473   0.153   9.708 -0.7207 -0.1537 -1.9965
 5965SOL    HW229355   3.396   0.268   9.752  0.2669  1.6271  0.4213
 5966SOL     OW29356   2.032   1.680  10.995 -0.2895  0.6059 -0.1506
 5966SOL    HW129357   2.035   1.689  10.900  0.5527  2.0947  0.0182
 5966SOL    HW229358   2.104   1.618  11.010  0.5702  1.4057 -0.9517
 5967SOL     OW29359   2.177   2.277  10.065 -0.3152 -0.3079  0.8456
 5967SOL    HW129360   2.238   2.212  10.031  1.2153  1.7070 -0.2604
 5967SOL    HW229361   2.193   2.278  10.159  0.3071 -1.9533  0.7650
 5968SOL     OW29362   3.283   1.845  16.607 -0.1707  0.3858  0.0164
 5968SOL    HW129363   3.193   1.848  16.574  0.1283  3.5693 -0.5135
 5968SOL    HW229364   3.331   1.796  16.540 -1.5834  1.1892 -1.5967
 5969SOL     OW29365   2.848   3.193  12.789 -0.1429  0.6146  0.3724
 5969SOL    HW129366   2.807   3.128  12.846 -0.8359  1.0812  0.4025
 5969SOL    HW229367   2.777   3.254  12.768  1.4085  1.7314 -1.6693
 5970SOL     OW29368   1.938   2.311   2.179  0.1483 -0.3565  0.4297
 5970SOL    HW129369   2.001   2.310   2.251 -0.3803  0.7735  0.9024
 5970SOL    HW229370   1.978   2.375   2.121 -0.8174 -1.8884 -1.9151
 5971SOL     OW29371   2.206   3.404  14.726  0.2228 -0.3623 -0.1616
 5971SOL    HW129372   2.265   3.332  14.705  0.7124  0.2862 -1.0413
 5971SOL    HW229373   2.126   3.381  14.678 -0.2291 -0.4040  0.6205
 5972SOL     OW29374   4.490   1.622  17.324  0.5087 -0.1182 -0.0627
 5972SOL    HW129375   4.541   1.647  17.246 -1.4302  0.3888 -1.1726
 5972SOL    HW229376   4.474   1.713  17.348  0.0070  0.4556 -2.5223
 5973SOL     OW29377   3.526   0.981   6.026 -0.2587 -0.1151  0.2081
 5973SOL    HW129378   3.582   1.044   5.981 -1.0666 -0.6024 -1.4911
 5973SOL    HW229379   3.522   1.023   6.111 -0.4473  1.3541 -0.5273
 5974SOL     OW29380   3.458   2.914   5.582  0.1945  0.2062 -0.2753
 5974SOL    HW129381   3.488   2.993   5.628  1.8797 -0.9345  0.5871
 5974SOL    HW229382   3.366   2.910   5.609  0.3695  0.5923  0.4009
 5975SOL     OW29383   1.795   1.821   4.466  0.3175  0.0057  0.3139
 5975SOL    HW129384   1.858   1.752   4.487  0.2560 -0.1586 -0.0508
 5975SOL    HW229385   1.846   1.897   4.495 -0.0508  0.9100 -1.4067
 5976SOL     OW29386   3.053   2.761   7.228 -0.3769  0.5383  0.8773
 5976SOL    HW129387   3.027   2.734   7.316 -0.1374  2.1561  1.4467
 5976SOL    HW229388   3.147   2.763   7.247  0.1067  1.4816 -1.6915
 5977SOL     OW29389   3.948   3.284   7.185 -0.3342  0.2502  0.0504
 5977SOL    HW129390   3.948   3.294   7.090  2.7051  0.7028  0.1156
 5977SOL    HW229391   4.028   3.336   7.190  0.0794 -0.5274  1.5424
 5978SOL     OW29392   4.438   1.408   6.303 -0.0654 -0.3711 -0.0761
 5978SOL    HW129393   4.358   1.432   6.255 -1.3927 -1.8641  1.3953
 5978SOL    HW229394   4.420   1.314   6.305  1.4929 -0.6243  1.3651
 5979SOL     OW29395   2.476   4.585   7.551 -0.2312  0.9164  0.3035
 5979SOL    HW129396   2.548   4.633   7.510 -1.3982  1.2037 -1.4207
 5979SOL    HW229397   2.500   4.494   7.531 -0.0911  0.8367  0.8274
 5980SOL     OW29398   1.115   2.158   1.674 -0.4979 -0.2558  0.6421
 5980SOL    HW129399   1.104   2.065   1.653 -1.8743  0.2973 -1.1113
 5980SOL    HW229400   1.071   2.193   1.597  1.1997 -0.7544 -0.5337
 5981SOL     OW29401   2.495   2.014  10.386 -0.5359  0.4565 -0.6608
 5981SOL    HW129402   2.565   2.031  10.323 -0.7385  1.2959 -0.6605
 5981SOL    HW229403   2.445   2.096  10.382 -1.0999  0.1850  0.7850
 5982SOL     OW29404   1.655   1.017   5.843 -0.2317 -0.4306  0.0895
 5982SOL    HW129405   1.615   0.962   5.910  3.4721 -0.3984  2.3762
 5982SOL    HW229406   1.732   0.968   5.814 -0.8875 -1.6468  0.4211
 5983SOL     OW29407   3.982   1.629   3.415  0.2892  0.0771 -0.2270
 5983SOL    HW129408   3.975   1.560   3.348 -1.6670 -0.1181  0.1828
 5983SOL    HW229409   4.076   1.649   3.413  0.5348 -0.9452  0.9660
 5984SOL     OW29410   0.468   1.601   8.248 -0.3459  0.1267 -0.5913
 5984SOL    HW129411   0.524   1.524   8.239 -1.0780 -0.5398  0.4757
 5984SOL    HW229412   0.522   1.660   8.196 -2.0331  0.9273 -1.4303
 5985SOL     OW29413   0.399   4.567   7.601 -0.0531  0.3886 -1.0686
 5985SOL    HW129414   0.383   4.637   7.663  0.9106 -2.7021  2.7127
 5985SOL    HW229415   0.440   4.622   7.534  2.3399 -2.4394 -1.9631
 5986SOL     OW29416   3.860   1.456   6.062  0.0110  0.3240  0.6432
 5986SOL    HW129417   3.937   1.450   6.006  0.2763  2.9631  0.7121
 5986SOL    HW229418   3.815   1.523   6.012 -0.9902 -0.0362  1.0697
 5987SOL     OW29419   2.461   3.067   2.884 -0.3930 -0.3024 -0.1525
 5987SOL    HW129420   2.511   2.987   2.865 -0.3355 -0.6588  1.4609
 5987SOL    HW229421   2.427   3.091   2.798  0.0854  3.0920  0.5964
 5988SOL     OW29422   1.838   1.788   2.634  0.6730  0.0808 -0.0769
 5988SOL    HW129423   1.806   1.837   2.558 -0.1639  0.3926  0.4839
 5988SOL    HW229424   1.842   1.699   2.598 -1.9072  0.2855 -0.9135
 5989SOL     OW29425   1.430   4.201   3.823  0.0657  0.4758 -0.5596
 5989SOL    HW129426   1.405   4.140   3.754 -1.0514  0.4440 -0.1218
 5989SOL    HW229427   1.482   4.135   3.868 -1.3762  0.2296  0.7060
 5990SOL     OW29428   0.421   0.045   0.859  0.7278  0.1282  0.3521
 5990SOL    HW129429   0.506   0.016   0.827  0.6327 -0.1320  0.3308
 5990SOL    HW229430   0.397   0.111   0.794  1.3754  0.1933  0.1809
 5991SOL     OW29431   3.516   2.732   4.989 -0.6449 -0.1608 -0.2136
 5991SOL    HW129432   3.501   2.735   5.084  1.0146 -3.0057  0.1235
 5991SOL    HW229433   3.517   2.642   4.957  2.0744 -1.0040  2.2863
 5992SOL     OW29434   1.523   3.625   6.183 -0.2015 -0.2887  0.6475
 5992SOL    HW129435   1.609   3.609   6.143 -0.3855  0.0428  0.1170
 5992SOL    HW229436   1.490   3.535   6.181 -1.3132  0.1669 -1.0645
 5993SOL     OW29437   0.101   1.206  13.242  0.6296 -0.7903 -0.1580
 5993SOL    HW129438   0.028   1.248  13.288 -0.2131 -1.2255 -1.0991
 5993SOL    HW229439   0.067   1.117  13.231 -0.0301 -0.8434  2.2728
 5994SOL     OW29440   2.121   2.684   0.907 -0.3579 -0.2070  0.1021
 5994SOL    HW129441   2.196   2.727   0.866  0.1054 -0.3977  0.7482
 5994SOL    HW229442   2.082   2.758   0.954  0.1574  0.0907  0.0566
 5995SOL     OW29443   3.545   3.902   3.612 -0.1766 -0.1518  0.1062
 5995SOL    HW129444   3.464   3.888   3.660 -0.1719  0.5089  0.3115
 5995SOL    HW229445   3.541   3.831   3.548  1.0470 -0.0451 -0.0898
 5996SOL     OW29446   1.829   0.151  17.319  0.1467 -0.4279 -0.5687
 5996SOL    HW129447   1.751   0.185  17.275 -1.2077 -1.0204  1.3832
 5996SOL    HW229448   1.903   0.170  17.260  1.6342  0.0221  1.4411
 5997SOL     OW29449   0.869   3.531   9.740 -0.5024 -0.3246 -0.2144
 5997SOL    HW129450   0.950   3.560   9.698 -0.0623  0.7402  1.3609
 5997SOL    HW229451   0.805   3.529   9.668 -0.8967  2.0165  0.0629
 5998SOL     OW29452   3.762   3.289   6.187 -0.6816  0.5837  0.3566
 5998SOL    HW129453   3.751   3.315   6.279 -1.1829 -1.1483  0.7707
 5998SOL    HW229454   3.678   3.326   6.158 -0.4393 -0.0206 -1.1217
 5999SOL     OW29455   3.595   3.756   0.257  0.5394  0.5791  0.0151
 5999SOL    HW129456   3.642   3.685   0.301  0.8113  1.4681  1.1409
 5999SOL    HW229457   3.553   3.711   0.183 -0.1258 -0.9923  1.3343
 6000SOL     OW29458   1.599   3.324   3.304  0.3859  0.6124 -0.2628
 6000SOL    HW129459   1.686   3.364   3.302 -0.3629  2.2598  0.6523
 6000SOL    HW229460   1.613   3.229   3.297 -0.8455  0.4794 -0.8392
 6001SOL     OW29461   1.186   3.440   7.592  0.0677  0.6435  0.4285
 6001SOL    HW129462   1.181   3.482   7.678 -0.0105 -0.4469  0.9637
 6001SOL    HW229463   1.271   3.483   7.580  1.1660 -2.2988 -2.2904
 6002SOL     OW29464   0.961   2.755   8.152 -0.4335  0.6967  0.5258
 6002SOL    HW129465   0.905   2.717   8.219  0.5310 -1.2488  0.2460
 6002SOL    HW229466   1.040   2.781   8.200  0.2173 -0.7745  0.2538
 6003SOL     OW29467   2.874   2.019   3.208 -0.2647 -0.4935  0.6304
 6003SOL    HW129468   2.801   2.060   3.255 -0.3295 -2.0616  1.8908
 6003SOL    HW229469   2.879   2.081   3.135 -2.7451  0.6492  1.4269
 6004SOL     OW29470   0.359   3.912   4.200 -0.2213  0.7817 -0.1068
 6004SOL    HW129471   0.438   3.916   4.254  0.2200 -2.2010 -0.4937
 6004SOL    HW229472   0.379   3.976   4.132 -0.6941  0.2624 -0.7284
 6005SOL     OW29473   4.590   3.064   6.861 -0.7670 -0.1161 -0.2261
 6005SOL    HW129474   4.594   3.103   6.949  0.6860 -2.4712  0.7269
 6005SOL    HW229475   4.634   3.129   6.807 -0.4194 -0.4651 -0.3553
 6006SOL     OW29476   0.433   0.558   4.388 -0.2075 -0.1395  0.0165
 6006SOL    HW129477   0.417   0.647   4.355 -2.3344 -1.0801 -1.4681
 6006SOL    HW229478   0.370   0.565   4.459 -0.1205 -1.2102  0.1979
 6007SOL     OW29479   3.461   3.497   0.884 -0.5946  0.0030  0.4418
 6007SOL    HW129480   3.422   3.564   0.940 -2.4180 -1.9642  1.5015
 6007SOL    HW229481   3.530   3.474   0.945 -1.3232 -0.0394  1.2586
 6008SOL     OW29482   0.384   3.520  14.189  0.3045  1.1884 -0.0863
 6008SOL    HW129483   0.408   3.463  14.262  1.4266  0.8204 -0.7429
 6008SOL    HW229484   0.309   3.477  14.147  0.9534  0.8153 -0.8576
 6009SOL     OW29485   3.312   0.718  13.180  0.3456  0.1865 -0.7480
 6009SOL    HW129486   3.359   0.636  13.198  1.4112  0.5405 -1.9618
 6009SOL    HW229487   3.243   0.725  13.247 -0.2112  0.2971 -1.3317
 6010SOL     OW29488   3.982   2.194  13.737  0.1206 -0.1008 -0.5447
 6010SOL    HW129489   4.028   2.270  13.700 -0.2212  1.0039  1.3051
 6010SOL    HW229490   3.898   2.221  13.700  0.0354  0.5443  0.1274
 6011SOL     OW29491   2.524   2.726  17.431  0.2251 -0.3805  0.0979
 6011SOL    HW129492   2.596   2.738  17.493 -0.5310 -0.8253  1.0797
 6011SOL    HW229493   2.453   2.768  17.480  0.2019 -1.3500  0.9016
 6012SOL     OW29494   1.044   3.892   6.781  0.1769 -0.2910  0.4073
 6012SOL    HW129495   1.015   3.970   6.828 -1.1972 -0.4510 -0.1727
 6012SOL    HW229496   0.990   3.892   6.701  0.2685  0.7101  0.3409
 6013SOL     OW29497   3.993   3.488   6.354 -0.2216  0.4223 -0.1413
 6013SOL    HW129498   4.020   3.447   6.436 -1.2555  0.8290  0.3972
 6013SOL    HW229499   3.993   3.581   6.377  1.9050  0.9527 -2.2832
 6014SOL     OW29500   0.616   4.143  13.085 -0.1556 -0.1499 -0.3763
 6014SOL    HW129501   0.523   4.154  13.066 -0.4339 -1.2208  0.3970
 6014SOL    HW229502   0.608   4.061  13.132  1.2050  0.4798  0.9589
 6015SOL     OW29503   0.823   4.256  10.124 -0.2101  0.5177 -0.1307
 6015SOL    HW129504   0.857   4.224  10.041 -0.1896 -1.2765  0.5697
 6015SOL    HW229505   0.883   4.329  10.137 -0.7883  1.2270 -1.5048
 6016SOL     OW29506   1.238   3.256   5.834  0.1087 -0.2879 -0.0666
 6016SOL    HW129507   1.176   3.328   5.819 -0.8044 -0.8530  0.9373
 6016SOL    HW229508   1.316   3.307   5.816  1.9135 -2.5285  1.4276
 6017SOL     OW29509   0.768   0.132  15.583  0.5010 -0.1573  0.2762
 6017SOL    HW129510   0.704   0.162  15.519 -0.5602  0.5900  1.6892
 6017SOL    HW229511   0.790   0.047  15.546 -0.8854 -0.5175  0.3027
 6018SOL     OW29512   2.300   2.770   1.777 -0.2617  0.2005  0.6148
 6018SOL    HW129513   2.221   2.825   1.779  1.0652  2.1310  0.2026
 6018SOL    HW229514   2.300   2.729   1.691 -3.8123 -2.1173  1.6766
 6019SOL     OW29515   1.655   0.467   8.996 -0.3897  0.1737 -0.7528
 6019SOL    HW129516   1.720   0.536   9.006 -0.0879 -0.4739  1.7482
 6019SOL    HW229517   1.604   0.462   9.077  2.3069 -0.2723  0.8974
 6020SOL     OW29518   0.037   3.309   7.722 -0.7064 -0.1135 -0.2124
 6020SOL    HW129519   0.061   3.228   7.677  0.3766  1.5664 -2.6648
 6020SOL    HW229520   4.673   3.278   7.747 -0.5356  1.0522  1.7776
 6021SOL     OW29521   1.403   1.937  12.480 -0.3221  0.2220  0.2166
 6021SOL    HW129522   1.376   1.964  12.568  2.7294 -0.7579  1.4411
 6021SOL    HW229523   1.410   1.845  12.504  0.0235  0.4043  0.8152
 6022SOL     OW29524   0.093   3.857   3.444 -0.0767 -0.1040 -0.6935
 6022SOL    HW129525   0.128   3.778   3.485  2.6990  1.2934 -0.3239
 6022SOL    HW229526   0.014   3.826   3.401 -0.4909  0.0597 -0.0450
 6023SOL     OW29527   2.097   0.451   1.140  0.2728 -0.0665 -0.4193
 6023SOL    HW129528   2.013   0.422   1.177  0.1137 -1.2119 -1.6734
 6023SOL    HW229529   2.066   0.475   1.053  0.8827 -0.4197 -0.7387
 6024SOL     OW29530   1.287   1.735  17.433  0.3125 -0.2397 -0.1895
 6024SOL    HW129531   1.285   1.713  17.526  1.0702 -0.1635 -0.1477
 6024SOL    HW229532   1.288   1.830  17.422  0.3404 -0.3827 -1.4914
 6025SOL     OW29533   1.817   2.109   7.101  0.1938  0.2774  0.4122
 6025SOL    HW129534   1.735   2.155   7.084 -0.6706 -1.3106  0.2090
 6025SOL    HW229535   1.799   2.025   7.058 -0.7346 -0.9257  3.1670
 6026SOL     OW29536   3.005   3.078  16.249  0.3904  0.3202  0.4049
 6026SOL    HW129537   3.015   3.173  16.235  0.6889  0.3465  0.7900
 6026SOL    HW229538   3.020   3.086  16.343 -1.3465  2.8781  0.4670
 6027SOL     OW29539   0.948   2.016   9.331  0.0130 -0.7541 -0.1832
 6027SOL    HW129540   0.998   2.055   9.260 -0.6010  0.8683  0.2739
 6027SOL    HW229541   1.018   1.966   9.374  1.3607  0.7875 -0.5847
 6028SOL     OW29542   3.998   3.460   3.276 -0.5974 -0.0346 -0.1243
 6028SOL    HW129543   3.904   3.456   3.255 -0.8139  1.1066  0.6115
 6028SOL    HW229544   4.033   3.412   3.200  2.0630  4.4631 -1.7322
 6029SOL     OW29545   3.795   1.674   4.795  0.6986  0.9810  0.0659
 6029SOL    HW129546   3.869   1.620   4.821  0.2123  0.4957  0.4475
 6029SOL    HW229547   3.815   1.754   4.845 -2.4883  1.4885  0.5369
 6030SOL     OW29548   0.392   1.274   9.277  0.0835  0.0862 -0.3215
 6030SOL    HW129549   0.401   1.246   9.185 -2.5996 -0.2123 -0.4805
 6030SOL    HW229550   0.327   1.208   9.301 -0.5118 -0.0703 -2.3272
 6031SOL     OW29551   3.086   0.181   5.597  0.3353  0.3130 -0.0076
 6031SOL    HW129552   3.000   0.168   5.636  0.3466 -0.2293 -0.1545
 6031SOL    HW229553   3.076   0.268   5.560 -1.4878  0.0084 -0.2088
 6032SOL     OW29554   2.710   2.418   4.505  0.3978  0.4610 -0.0714
 6032SOL    HW129555   2.673   2.481   4.442 -1.5747  2.7555  3.3560
 6032SOL    HW229556   2.770   2.470   4.558  0.3591  0.7911 -0.3543
 6033SOL     OW29557   1.420   2.296   8.022 -0.0754  0.2392 -0.6865
 6033SOL    HW129558   1.345   2.306   7.963 -1.9313 -0.9973  1.4884
 6033SOL    HW229559   1.475   2.363   7.982  1.1168 -0.4923 -0.2482
 6034SOL     OW29560   0.345   3.306  16.622 -0.2822  0.4918  0.3878
 6034SOL    HW129561   0.363   3.400  16.626 -1.6695  0.7914 -0.3124
 6034SOL    HW229562   0.403   3.284  16.694  0.9561 -0.1166 -0.7883
 6035SOL     OW29563   4.538   3.028  13.115  0.0279  0.1536 -0.1549
 6035SOL    HW129564   4.549   3.072  13.199 -0.7125  3.1130 -1.6046
 6035SOL    HW229565   4.516   3.108  13.068 -1.6341  0.2016  0.7143
 6036SOL     OW29566   2.168   0.031   7.074  0.4947 -0.3909  0.9253
 6036SOL    HW129567   2.157   0.123   7.049  3.0781 -0.3675 -0.1438
 6036SOL    HW229568   2.222   0.035   7.153 -0.1154 -0.3533  1.3361
 6037SOL     OW29569   3.499   3.236  13.025  0.0877 -0.0258  0.2331
 6037SOL    HW129570   3.447   3.172  13.073 -0.0429  1.0234  1.4946
 6037SOL    HW229571   3.589   3.208  13.035  0.7381  1.4139 -1.5634
 6038SOL     OW29572   2.617   2.918   2.017 -0.2222  0.0801  0.1670
 6038SOL    HW129573   2.595   2.852   1.951  2.6488 -2.3192  1.6082
 6038SOL    HW229574   2.685   2.872   2.066  0.4771 -1.3987 -2.2198
 6039SOL     OW29575   3.829   1.557   8.407 -0.4192  0.0164  0.1054
 6039SOL    HW129576   3.784   1.474   8.389 -1.6777  0.2874  2.0315
 6039SOL    HW229577   3.815   1.567   8.501  1.9610 -2.0353  0.6873
 6040SOL     OW29578   4.131   3.450   3.616 -0.2174  0.0597  0.5762
 6040SOL    HW129579   4.196   3.439   3.685 -2.4897  1.3907  2.9333
 6040SOL    HW229580   4.079   3.526   3.642 -1.4616 -0.1930 -1.2240
 6041SOL     OW29581   2.131   0.989   3.756  0.8271 -0.3284 -0.6155
 6041SOL    HW129582   2.130   0.949   3.843  2.1908  0.9548 -0.0133
 6041SOL    HW229583   2.058   1.049   3.769  1.7812  0.4768  0.9966
 6042SOL     OW29584   3.932   4.597   7.136  0.4286 -0.2232  0.5126
 6042SOL    HW129585   3.899   4.603   7.226 -3.1459 -0.5823 -0.7666
 6042SOL    HW229586   3.873   4.655   7.088  0.4687 -1.3606 -0.9120
 6043SOL     OW29587   1.554   4.501   9.500  0.4360 -0.6452 -0.5963
 6043SOL    HW129588   1.569   4.549   9.581  0.8332 -1.3768 -0.2288
 6043SOL    HW229589   1.534   4.410   9.520  2.9762 -0.9589  0.5869
 6044SOL     OW29590   0.749   0.670   6.121 -0.1685  0.0554  0.1599
 6044SOL    HW129591   0.836   0.631   6.111 -0.3930 -0.2693 -0.5738
 6044SOL    HW229592   0.693   0.598   6.150 -0.0922  0.1960  0.6513
 6045SOL     OW29593   2.558   4.435   6.139  0.3980 -0.5372 -0.3042
 6045SOL    HW129594   2.583   4.520   6.102  0.9952 -0.9034 -0.7532
 6045SOL    HW229595   2.633   4.431   6.199 -2.4486 -1.2394  3.2246
 6046SOL     OW29596   1.855   3.327   8.225  0.2719  0.1673  0.0301
 6046SOL    HW129597   1.790   3.346   8.294  2.1965 -0.0488  1.8935
 6046SOL    HW229598   1.793   3.325   8.152  0.4862 -0.5196 -0.1316
 6047SOL     OW29599   1.410   0.855  13.016  0.0891  0.0787  0.2457
 6047SOL    HW129600   1.374   0.801  13.086 -1.6842  1.0618  0.1162
 6047SOL    HW229601   1.504   0.859  13.034 -0.3103  0.3986  2.3135
 6048SOL     OW29602   1.541   4.138   2.484  0.1626 -0.4438  0.2872
 6048SOL    HW129603   1.598   4.089   2.544  1.2263 -0.9273 -1.1275
 6048SOL    HW229604   1.606   4.162   2.419 -1.9285  1.5854 -1.0368
 6049SOL     OW29605   0.076   3.783  13.889  0.2011 -0.4351 -0.0080
 6049SOL    HW129606   0.031   3.805  13.807 -1.8626 -1.3869  0.8661
 6049SOL    HW229607   0.156   3.836  13.882 -0.8901  0.9985 -1.5694
 6050SOL     OW29608   3.294   0.104   8.875 -0.3530  0.3396  0.3420
 6050SOL    HW129609   3.238   0.177   8.899  1.4072  2.9182 -3.3682
 6050SOL    HW229610   3.293   0.054   8.956 -1.8946  2.3377  1.5262
 6051SOL     OW29611   2.418   4.038   5.573 -0.6640 -0.2764  0.2457
 6051SOL    HW129612   2.464   4.004   5.650  1.6633  0.9930 -0.5895
 6051SOL    HW229613   2.421   3.963   5.513 -0.6015 -0.0544 -0.0250
 6052SOL     OW29614   4.161   0.705   3.446 -0.8107  0.5034  0.0858
 6052SOL    HW129615   4.148   0.797   3.471  0.3939 -0.2465  3.5297
 6052SOL    HW229616   4.167   0.660   3.531 -0.2662 -1.5008 -1.0112
 6053SOL     OW29617   0.205   3.475   6.908  0.1828 -0.6208  0.7940
 6053SOL    HW129618   0.296   3.465   6.880  0.1796  1.2339  0.0955
 6053SOL    HW229619   0.187   3.569   6.898 -0.4492 -1.0498 -2.1083
 6054SOL     OW29620   1.427   0.753  16.602 -0.0945  0.3181  0.0955
 6054SOL    HW129621   1.469   0.667  16.598  0.2647  0.5619 -1.4137
 6054SOL    HW229622   1.496   0.809  16.638  0.3259  0.0239 -0.2548
 6055SOL     OW29623   0.743   3.009   0.063 -0.3269  0.4893 -0.0701
 6055SOL    HW129624   0.733   3.032   0.156  0.2463 -2.0049  0.5979
 6055SOL    HW229625   0.661   3.031   0.018  0.6958  0.6699 -1.8428
 6056SOL     OW29626   1.978   2.400   6.527  0.5450  0.6236 -0.4851
 6056SOL    HW129627   1.925   2.480   6.526 -1.2919 -0.5954 -0.3096
 6056SOL    HW229628   1.922   2.322   6.527 -0.6898  1.4959  0.1343
 6057SOL     OW29629   0.938   4.523  11.937 -0.5665  0.1278 -0.2197
 6057SOL    HW129630   1.005   4.511  11.870  0.9780 -1.5540  1.6315
 6057SOL    HW229631   0.933   4.619  11.936  1.8360  0.2513  0.3437
 6058SOL     OW29632   2.703   2.830  11.283  0.1786 -0.2402  0.2816
 6058SOL    HW129633   2.778   2.795  11.332 -0.0136 -1.5672 -0.3440
 6058SOL    HW229634   2.635   2.765  11.300 -0.1890 -0.1130 -0.7257
 6059SOL     OW29635   4.552   2.227  11.223  0.1841 -0.1342 -0.4507
 6059SOL    HW129636   4.492   2.152  11.218  1.5328 -1.1448 -1.3587
 6059SOL    HW229637   4.515   2.292  11.163  0.8511 -0.6700 -1.4452
 6060SOL     OW29638   1.837   0.015   2.549 -0.5658  0.3029  0.1766
 6060SOL    HW129639   1.877   4.678   2.485  0.6345  1.8716 -0.5514
 6060SOL    HW229640   1.895   0.091   2.547  0.5777 -0.5752 -0.6513
 6061SOL     OW29641   1.831   2.999   7.024 -0.0031  0.3421  0.0108
 6061SOL    HW129642   1.790   2.913   7.036  0.3293  0.0583 -0.9442
 6061SOL    HW229643   1.914   2.976   7.067  0.1587 -0.4602 -0.7354
 6062SOL     OW29644   2.427   1.637  15.664  0.0488  0.6065  0.0914
 6062SOL    HW129645   2.400   1.721  15.626  2.7280  0.7162 -1.5508
 6062SOL    HW229646   2.519   1.647  15.641  0.0577 -1.8373 -0.9620
 6063SOL     OW29647   0.565   1.021   7.547 -0.4892  0.9078  0.0997
 6063SOL    HW129648   0.635   1.040   7.609 -2.3921  2.7642  1.6654
 6063SOL    HW229649   0.504   0.971   7.601 -1.0073  0.7718 -0.6089
 6064SOL     OW29650   1.884   1.124   7.210 -0.3481  0.3454  0.4755
 6064SOL    HW129651   1.821   1.075   7.264  1.9418 -0.6262  2.2509
 6064SOL    HW229652   1.826   1.158   7.142  0.5487 -1.2195 -1.0638
 6065SOL     OW29653   1.609   2.920   6.353 -0.4873  0.0604 -0.6914
 6065SOL    HW129654   1.565   2.854   6.406 -1.2770  1.1653  0.0396
 6065SOL    HW229655   1.637   2.865   6.280  0.1507 -0.0082 -0.3886
 6066SOL     OW29656   2.461   2.157   0.167 -0.2431  0.4333 -0.1749
 6066SOL    HW129657   2.526   2.106   0.214  0.2842  1.6949  0.4502
 6066SOL    HW229658   2.403   2.187   0.237 -1.0552 -3.9877  1.0460
 6067SOL     OW29659   1.522   2.555  16.774  0.2941 -0.1886 -0.0352
 6067SOL    HW129660   1.567   2.490  16.828  0.7829  0.6779  0.6039
 6067SOL    HW229661   1.442   2.573  16.824  0.8220 -2.1861  1.5114
 6068SOL     OW29662   0.436   2.116   3.010 -0.2524  0.8952 -0.2557
 6068SOL    HW129663   0.371   2.183   3.031  0.4141  2.2773 -2.6586
 6068SOL    HW229664   0.514   2.171   3.001  1.2496 -1.4975 -1.9771
 6069SOL     OW29665   1.767   3.551   7.895  0.4484 -0.0797  0.2001
 6069SOL    HW129666   1.754   3.461   7.923  0.8590 -0.4672 -0.8544
 6069SOL    HW229667   1.860   3.574   7.898  0.5780 -0.8365  1.7716
 6070SOL     OW29668   0.280   3.919   1.085 -0.0455  0.5098 -0.1033
 6070SOL    HW129669   0.304   3.990   1.145 -3.1323 -0.5920  2.4285
 6070SOL    HW229670   0.360   3.869   1.100  0.3733  0.8050 -1.3783
 6071SOL     OW29671   0.529   1.984   4.595 -0.5186  0.3841  0.3876
 6071SOL    HW129672   0.604   2.030   4.632  1.0408 -0.6145 -1.5382
 6071SOL    HW229673   0.465   2.055   4.583 -0.5598  0.2888  0.0398
 6072SOL     OW29674   1.955   2.678   4.641 -0.0187  0.1126  0.0993
 6072SOL    HW129675   1.942   2.584   4.624 -3.1816  0.2569  1.8364
 6072SOL    HW229676   1.929   2.695   4.731 -0.4147  0.3006 -0.0505
 6073SOL     OW29677   2.209   3.138  13.610 -0.0418  0.4531 -0.0214
 6073SOL    HW129678   2.165   3.084  13.543  0.8783 -0.9739  0.5228
 6073SOL    HW229679   2.295   3.101  13.628 -0.3077 -0.1026  0.1303
 6074SOL     OW29680   3.755   1.372   4.474  0.1916 -0.5204  0.2362
 6074SOL    HW129681   3.765   1.364   4.569  3.0946  1.5814  0.1017
 6074SOL    HW229682   3.717   1.291   4.439 -0.0105 -0.7676  1.0245
 6075SOL     OW29683   2.490   3.101  13.313  0.1539  0.2249 -0.2002
 6075SOL    HW129684   2.502   3.079  13.406 -1.1538  2.0746  0.4056
 6075SOL    HW229685   2.472   3.195  13.323  1.8099  0.3678  1.5982
 6076SOL     OW29686   2.464   3.934  12.179  0.2491 -0.0210 -0.0805
 6076SOL    HW129687   2.507   3.910  12.097 -0.2929 -0.6585 -0.1798
 6076SOL    HW229688   2.544   3.940  12.232 -0.2738 -0.6726  0.7799
 6077SOL     OW29689   2.191   2.147   1.629 -0.0133 -0.1699  0.0784
 6077SOL    HW129690   2.157   2.121   1.543 -1.4332  0.4840  0.4421
 6077SOL    HW229691   2.164   2.071   1.681 -1.0167  1.7612  2.3589
 6078SOL     OW29692   2.432   2.660   4.630  0.1118  0.3487 -0.2466
 6078SOL    HW129693   2.338   2.666   4.644  0.3108 -0.5336  1.3740
 6078SOL    HW229694   2.468   2.652   4.718 -1.6552 -0.0686  0.4154
 6079SOL     OW29695   0.931   2.721   4.735 -0.0240  0.5209 -0.2611
 6079SOL    HW129696   0.907   2.769   4.655 -0.2935 -0.2693 -0.6513
 6079SOL    HW229697   0.860   2.657   4.742 -0.4448  1.2132  1.7518
 6080SOL     OW29698   3.763   2.629   8.367 -0.2778  0.1704  0.1243
 6080SOL    HW129699   3.837   2.632   8.306 -1.5164 -1.2478 -1.4599
 6080SOL    HW229700   3.706   2.684   8.314  1.6351  1.2103 -0.8556
 6081SOL     OW29701   0.435   3.912   3.767 -0.1438  0.5661 -0.0320
 6081SOL    HW129702   0.506   3.897   3.830 -0.4635 -1.8067 -0.2036
 6081SOL    HW229703   0.363   3.930   3.827  1.2607  0.4131  1.6769
 6082SOL     OW29704   0.313   2.362   5.340 -0.1775  0.7654 -0.5648
 6082SOL    HW129705   0.369   2.299   5.385  0.7745  2.9521  1.2972
 6082SOL    HW229706   0.318   2.330   5.250 -0.3126  2.9171 -1.3286
 6083SOL     OW29707   3.738   0.792   4.845  0.9890  0.0964  0.4419
 6083SOL    HW129708   3.677   0.856   4.883  2.4799  0.8119  1.6299
 6083SOL    HW229709   3.760   0.834   4.762  0.6780 -1.3987 -0.3893
 6084SOL     OW29710   0.246   2.617  15.632 -0.2850  0.0843 -0.3008
 6084SOL    HW129711   0.320   2.614  15.571 -1.7993 -0.4957 -2.0898
 6084SOL    HW229712   0.172   2.607  15.572  0.7512 -2.2550 -1.1837
 6085SOL     OW29713   1.332   3.979  16.711  0.2045  0.0248 -0.0487
 6085SOL    HW129714   1.328   3.923  16.634  1.2794 -0.5793  0.3315
 6085SOL    HW229715   1.421   3.953  16.735 -0.0331  0.9537  1.9091
 6086SOL     OW29716   3.288   2.902   9.305 -0.3580 -0.4768  0.4476
 6086SOL    HW129717   3.303   2.996   9.306 -1.4276 -0.3188  2.6962
 6086SOL    HW229718   3.258   2.886   9.216  0.8363 -1.5614  0.2431
 6087SOL     OW29719   3.048   1.022   3.508 -0.0979 -0.2490 -0.5800
 6087SOL    HW129720   2.993   0.944   3.517 -0.1849 -0.3447 -1.8093
 6087SOL    HW229721   2.983   1.075   3.461 -0.5546  0.6721  1.0973
 6088SOL     OW29722   1.157   2.704   5.655 -0.4156  0.3972 -0.2074
 6088SOL    HW129723   1.210   2.782   5.641  1.5171 -0.8781 -0.1078
 6088SOL    HW229724   1.121   2.730   5.739  0.1417  1.2373 -0.2242
 6089SOL     OW29725   0.598   3.944   2.989 -0.4340 -0.0820 -0.0376
 6089SOL    HW129726   0.586   3.931   2.895  0.1084  0.5340 -0.1946
 6089SOL    HW229727   0.534   4.009   3.016 -1.8647 -1.1714 -0.8013
 6090SOL     OW29728   4.684   4.226   7.082 -0.1690 -0.1016  0.3364
 6090SOL    HW129729   0.003   4.145   7.053 -1.6155 -1.5246  2.2660
 6090SOL    HW229730   4.611   4.213   7.022 -0.6784  0.6013  0.8127
 6091SOL     OW29731   2.451   4.628   1.677  0.5212  0.0313  0.1130
 6091SOL    HW129732   2.363   4.640   1.642  1.1175  1.1969 -0.9745
 6091SOL    HW229733   2.498   4.637   1.594  2.1802 -0.0158  1.0570
 6092SOL     OW29734   0.146   0.548   7.765  0.2946  0.0319  0.4136
 6092SOL    HW129735   0.210   0.595   7.712 -0.1184 -1.6411 -1.5457
 6092SOL    HW229736   0.067   0.601   7.754 -0.2783 -1.1719 -1.1063
 6093SOL     OW29737   0.404   3.976   7.416  0.1986  0.4335 -0.4498
 6093SOL    HW129738   0.390   4.016   7.502 -1.3748 -1.2777  0.1006
 6093SOL    HW229739   0.312   3.952   7.401  0.3735  0.8441 -2.1062
 6094SOL     OW29740   3.044   3.791   3.131 -0.0899  0.1404  0.1836
 6094SOL    HW129741   3.120   3.822   3.083 -1.1692  0.6413 -1.1855
 6094SOL    HW229742   3.054   3.698   3.111  0.6085  0.5145 -1.1558
 6095SOL     OW29743   2.735   2.807   2.559 -0.0430 -0.2849 -0.0452
 6095SOL    HW129744   2.674   2.858   2.613  0.9048  0.1339  0.6306
 6095SOL    HW229745   2.704   2.820   2.470 -0.2355 -0.1748  0.0355
 6096SOL     OW29746   3.262   1.506   5.079  0.0893 -0.5755  0.3742
 6096SOL    HW129747   3.289   1.415   5.061 -1.6410 -0.9931 -0.1741
 6096SOL    HW229748   3.172   1.491   5.107  0.2883 -0.0724  1.2748
 6097SOL     OW29749   0.396   4.127   7.108 -0.1154 -0.0927  0.0975
 6097SOL    HW129750   0.460   4.066   7.144 -0.1730  0.3832  0.9983
 6097SOL    HW229751   0.329   4.066   7.077  0.0064 -0.3847  0.4097
 6098SOL     OW29752   0.284   2.856   3.774 -0.2523 -0.4966  0.1694
 6098SOL    HW129753   0.283   2.761   3.763  0.1019 -0.3865 -0.8550
 6098SOL    HW229754   0.191   2.879   3.778 -0.3243 -0.8718  0.6663
 6099SOL     OW29755   1.869   3.392   3.281  0.3759  0.1344 -0.1868
 6099SOL    HW129756   1.928   3.464   3.304  0.3876  0.3531 -0.9209
 6099SOL    HW229757   1.918   3.349   3.211  0.4334  1.2931 -0.8442
 6100SOL     OW29758   2.244   3.895   4.280 -0.1680 -0.1911  0.7607
 6100SOL    HW129759   2.321   3.862   4.325  1.3864 -0.3019 -1.9851
 6100SOL    HW229760   2.198   3.812   4.280  2.2815 -1.5162 -1.7157
 6101SOL     OW29761   0.536   4.314   6.386 -0.1184  0.1286 -0.3203
 6101SOL    HW129762   0.536   4.385   6.322 -1.6251 -0.3834 -0.8991
 6101SOL    HW229763   0.512   4.365   6.464 -1.4639 -0.0865 -0.5785
 6102SOL     OW29764   0.601   3.548   0.940 -0.1395  0.1014  0.2958
 6102SOL    HW129765   0.696   3.547   0.930 -0.1146 -1.3136  0.7732
 6102SOL    HW229766   0.594   3.453   0.946  0.1204  0.0459 -0.3059
 6103SOL     OW29767   1.459   0.841   5.334  0.0588  0.0820 -0.8229
 6103SOL    HW129768   1.460   0.937   5.343  3.3465 -0.1239  0.8987
 6103SOL    HW229769   1.545   0.811   5.363  0.3928  0.2225 -1.6491
 6104SOL     OW29770   2.252   4.229   5.659 -0.2972  0.0501  0.1219
 6104SOL    HW129771   2.302   4.156   5.623 -0.7915  0.9722 -2.4615
 6104SOL    HW229772   2.272   4.226   5.752  1.7252 -0.0766 -0.3100
 6105SOL     OW29773   0.379   2.788   4.316 -0.3736  0.4189  0.2348
 6105SOL    HW129774   0.292   2.748   4.319  0.0578 -0.4733  0.6777
 6105SOL    HW229775   0.430   2.707   4.312 -0.5125  0.3230  0.3903
 6106SOL     OW29776   4.662   4.718  13.644  0.3809  0.2501  0.5559
 6106SOL    HW129777   0.018   0.031  13.684 -0.0674  1.8055  0.0486
 6106SOL    HW229778   4.700   4.688  13.561  0.1530  0.3485  0.4164
 6107SOL     OW29779   2.982   0.716   9.582  0.2859  0.2420  0.6109
 6107SOL    HW129780   3.037   0.730   9.658  1.2530  1.4688 -0.3268
 6107SOL    HW229781   2.903   0.674   9.616  0.6201 -0.8654  0.0524
 6108SOL     OW29782   1.641   2.387   5.547  0.4606 -0.0423  0.1214
 6108SOL    HW129783   1.685   2.350   5.470  1.2869  0.8323  0.1737
 6108SOL    HW229784   1.594   2.465   5.517  0.7692 -0.1464 -0.6229
 6109SOL     OW29785   1.420   2.590   2.363  0.3820 -0.3460  0.5245
 6109SOL    HW129786   1.377   2.619   2.444  2.0066 -0.0440  1.2701
 6109SOL    HW229787   1.348   2.549   2.314 -0.8322  1.8105  0.5020
 6110SOL     OW29788   1.976   1.325   2.306  0.1948 -0.1328  0.6504
 6110SOL    HW129789   1.955   1.342   2.214 -2.9304 -3.3910  0.7442
 6110SOL    HW229790   2.047   1.264   2.288  0.0877  0.2398 -1.0717
 6111SOL     OW29791   1.689   3.062   3.227 -0.1067 -0.4820 -0.0201
 6111SOL    HW129792   1.767   3.020   3.263  0.8192  0.6623 -0.6790
 6111SOL    HW229793   1.722   3.086   3.140  1.4577  1.0915  0.9970
 6112SOL     OW29794   0.554   4.530   7.018  0.3108 -0.6062  0.2005
 6112SOL    HW129795   0.537   4.614   6.978 -0.1501 -1.0630 -0.5536
 6112SOL    HW229796   0.629   4.497   6.968  1.4914  2.3257  0.0170
 6113SOL     OW29797   4.358   2.954   3.337 -0.0656  0.2733  0.4447
 6113SOL    HW129798   4.372   2.870   3.381 -3.8014 -0.8700 -0.5501
 6113SOL    HW229799   4.354   2.930   3.244  1.2281 -2.0628  0.9966
 6114SOL     OW29800   0.393   3.003   5.448 -0.9042  0.1746 -0.2010
 6114SOL    HW129801   0.356   3.076   5.497 -0.1526 -0.3912  1.2151
 6114SOL    HW229802   0.348   2.932   5.494 -0.8298  0.9136  1.0075
 6115SOL     OW29803   1.669   0.534  12.993  0.2623 -0.2310  0.1479
 6115SOL    HW129804   1.590   0.480  12.996 -0.2872  0.5947  0.4314
 6115SOL    HW229805   1.641   0.625  12.987  0.6624  0.0344  2.5767
 6116SOL     OW29806   0.057   4.123   3.451 -0.5326 -0.3488  0.5327
 6116SOL    HW129807   0.085   4.032   3.441  0.6476 -0.1273  1.7084
 6116SOL    HW229808   0.066   4.151   3.360  1.1202 -0.2945  0.7004
 6117SOL     OW29809   4.131   0.804  16.426  0.5975 -0.0109 -0.5707
 6117SOL    HW129810   4.176   0.803  16.510 -0.8722  2.1246  0.2545
 6117SOL    HW229811   4.041   0.809  16.460  1.9021 -0.1584  2.8823
 6118SOL     OW29812   0.702   4.144  16.919 -0.2899  0.2437  0.5438
 6118SOL    HW129813   0.709   4.239  16.908  2.1758  0.1244  1.0512
 6118SOL    HW229814   0.607   4.132  16.918 -0.4197  1.3475 -0.6347
 6119SOL     OW29815   1.744   0.736   3.597 -0.2011  0.1778  0.2656
 6119SOL    HW129816   1.754   0.828   3.622  0.5851  0.2075 -0.1482
 6119SOL    HW229817   1.720   0.747   3.505  1.9734  0.9894 -0.1946
 6120SOL     OW29818   3.130   3.385   7.549 -0.2596  0.0317 -0.4267
 6120SOL    HW129819   3.047   3.418   7.582 -0.2701  0.6528 -1.0669
 6120SOL    HW229820   3.192   3.434   7.603  1.3704  0.7006 -2.8734
 6121SOL     OW29821   1.440   4.492   9.991 -0.5002 -0.3871 -0.1097
 6121SOL    HW129822   1.380   4.532   9.929  2.2983  1.8595 -1.3676
 6121SOL    HW229823   1.379   4.428  10.027 -1.2689  0.3375 -0.1277
 6122SOL     OW29824   0.791   3.443   1.186  0.2505 -0.0266 -0.2531
 6122SOL    HW129825   0.754   3.492   1.260  2.3373 -1.7343  1.9457
 6122SOL    HW229826   0.818   3.520   1.135  0.5225 -0.8207 -1.2938
 6123SOL     OW29827   0.717   2.561   8.163 -0.7784 -0.4003  0.3428
 6123SOL    HW129828   0.708   2.479   8.212  0.9134 -0.9196 -0.2032
 6123SOL    HW229829   0.656   2.617   8.209 -2.1903 -2.8015  1.4116
 6124SOL     OW29830   4.699   1.468   4.980 -0.0107  1.2312 -0.1194
 6124SOL    HW129831   0.001   1.394   5.034 -2.2061 -0.0679 -0.8651
 6124SOL    HW229832   0.044   1.473   4.914 -2.2447  1.8734 -2.3996
 6125SOL     OW29833   2.628   2.950   4.156  0.1662 -0.2954 -0.5194
 6125SOL    HW129834   2.676   2.994   4.086  0.3294  1.3236  0.6178
 6125SOL    HW229835   2.602   2.869   4.113  1.4090  0.2870 -2.3905
 6126SOL     OW29836   2.639   2.452  15.174  0.0864 -0.7382 -0.1382
 6126SOL    HW129837   2.714   2.405  15.210  1.9410  3.7030  1.8000
 6126SOL    HW229838   2.562   2.398  15.193 -0.0229 -0.5867 -0.1495
 6127SOL     OW29839   2.430   3.145   1.279  0.3828  0.2308  0.0871
 6127SOL    HW129840   2.425   3.078   1.348 -0.0328 -0.1010 -0.2713
 6127SOL    HW229841   2.512   3.192   1.295  1.2005 -0.6248 -1.6306
 6128SOL     OW29842   2.557   2.801   2.846  0.1428  0.4814 -0.4457
 6128SOL    HW129843   2.519   2.727   2.799  0.4959 -0.5765  0.9533
 6128SOL    HW229844   2.592   2.758   2.924  1.4130  2.4323  0.0710
 6129SOL     OW29845   2.017   1.997   2.715  0.2097 -0.2154 -0.1271
 6129SOL    HW129846   1.936   2.011   2.666  0.9881  0.2388 -1.2778
 6129SOL    HW229847   2.012   1.902   2.728 -0.4521 -0.2013 -0.2380
 6130SOL     OW29848   3.637   1.636   8.084 -0.0755 -0.4525 -0.0277
 6130SOL    HW129849   3.568   1.692   8.050 -1.5297 -2.1714  0.1009
 6130SOL    HW229850   3.599   1.606   8.167 -2.1929  3.0997  0.2943
 6131SOL     OW29851   3.033   2.691  16.736  0.2074  0.1741  0.4715
 6131SOL    HW129852   2.981   2.624  16.781  1.3027 -0.6520  0.5069
 6131SOL    HW229853   2.974   2.730  16.671  0.3529 -0.3884  0.0049
 6132SOL     OW29854   2.987   0.251   3.716  0.0451 -0.2321 -0.3365
 6132SOL    HW129855   2.978   0.164   3.754  0.4514 -0.3683 -0.5518
 6132SOL    HW229856   2.894   0.271   3.730 -0.0569  0.5120 -2.1463
 6133SOL     OW29857   0.010   3.550   8.483  0.0249 -0.5273  0.3533
 6133SOL    HW129858   4.656   3.562   8.427  1.0363 -1.2012 -1.1703
 6133SOL    HW229859   0.023   3.456   8.475 -1.6470 -0.5980 -1.6218
 6134SOL     OW29860   0.047   0.158   0.288  0.2912  0.5767 -0.3049
 6134SOL    HW129861   0.115   0.184   0.225  2.9372 -1.1122  1.8451
 6134SOL    HW229862   0.078   0.203   0.366  4.6150 -3.3003  0.2150
 6135SOL     OW29863   0.853   2.950   3.852 -1.1002  0.4693 -0.2744
 6135SOL    HW129864   0.909   2.888   3.805  0.9088  0.3818  2.2411
 6135SOL    HW229865   0.923   2.974   3.912 -0.9768 -1.5111  0.3783
 6136SOL     OW29866   2.970   3.192   8.086  0.1570  0.2888 -0.0630
 6136SOL    HW129867   2.993   3.265   8.029 -0.9049 -0.4437 -1.4332
 6136SOL    HW229868   3.001   3.116   8.038 -2.6483 -2.3121  2.2494
 6137SOL     OW29869   2.133   0.284   8.277  0.1480 -0.0055  0.3627
 6137SOL    HW129870   2.149   0.234   8.357 -1.9332 -1.2186 -0.0007
 6137SOL    HW229871   2.193   0.358   8.292  1.8164 -1.8903  2.9899
 6138SOL     OW29872   3.594   4.149   2.398 -0.4006  0.0289  0.0853
 6138SOL    HW129873   3.601   4.129   2.491  1.9798 -0.0990 -0.1258
 6138SOL    HW229874   3.533   4.081   2.367  1.3277 -1.0599 -0.9068
 6139SOL     OW29875   0.898   1.344   8.831  0.6001  0.1872  0.4657
 6139SOL    HW129876   0.839   1.278   8.795  0.8737 -0.6846  1.6068
 6139SOL    HW229877   0.867   1.356   8.921  1.3908 -0.3089  0.8120
 6140SOL     OW29878   0.746   0.389   7.041  0.1496 -0.3618  0.4383
 6140SOL    HW129879   0.756   0.340   6.959  0.6790 -0.4380  0.5469
 6140SOL    HW229880   0.836   0.417   7.059 -0.4886  1.9559  0.0295
 6141SOL     OW29881   4.484   1.083   7.304 -0.1284 -0.2612  0.4587
 6141SOL    HW129882   4.451   1.061   7.391  1.2934  0.9061  1.2983
 6141SOL    HW229883   4.490   0.995   7.268  0.0051  0.7983 -2.0946
 6142SOL     OW29884   4.602   1.997   4.500  0.1512 -0.0441 -0.2431
 6142SOL    HW129885   4.597   1.948   4.418 -3.3431 -0.0746  0.0082
 6142SOL    HW229886   4.514   2.032   4.512 -0.4668 -1.2638 -1.1911
 6143SOL     OW29887   1.251   0.942   7.449  0.3010  0.1466 -0.0343
 6143SOL    HW129888   1.340   0.940   7.485  0.8694  0.0663 -1.4382
 6143SOL    HW229889   1.253   0.862   7.397  1.5125 -0.6598  1.2457
 6144SOL     OW29890   3.897   2.223  16.492 -0.2099  0.4026 -0.6634
 6144SOL    HW129891   3.834   2.166  16.448  0.9559 -1.0856 -0.4175
 6144SOL    HW229892   3.839   2.282  16.540 -0.6594 -0.8985  0.3973
 6145SOL     OW29893   3.104   0.027  10.721 -0.1364  0.1899 -0.3732
 6145SOL    HW129894   3.090   4.699  10.801 -1.1940  0.9779 -0.0419
 6145SOL    HW229895   3.013   0.032  10.691  0.3599 -0.4387 -2.0143
 6146SOL     OW29896   1.532   3.643   7.966 -0.2942  0.4116  0.1583
 6146SOL    HW129897   1.617   3.607   7.942 -0.5766 -0.2347  0.1140
 6146SOL    HW229898   1.549   3.724   7.918 -1.2385 -1.1284 -2.8203
 6147SOL     OW29899   3.857   1.793   3.923 -0.4538 -0.3240 -0.2189
 6147SOL    HW129900   3.892   1.785   4.012 -1.3077 -1.3056  0.0249
 6147SOL    HW229901   3.764   1.800   3.945 -0.4639 -2.2708  0.3181
 6148SOL     OW29902   1.079   3.205   3.130  0.4023  0.6197  0.2667
 6148SOL    HW129903   0.999   3.217   3.182 -0.7652  2.1184 -1.8517
 6148SOL    HW229904   1.111   3.119   3.157 -2.5443  0.4955  3.3493
 6149SOL     OW29905   4.129   0.896   6.952 -0.1956  0.4078 -0.4939
 6149SOL    HW129906   4.173   0.977   6.978 -0.1967  0.9718 -2.2659
 6149SOL    HW229907   4.042   0.926   6.927 -1.1769 -0.3455  1.9834
 6150SOL     OW29908   2.638   2.791  12.832 -0.5191  0.4146  0.0836
 6150SOL    HW129909   2.628   2.792  12.737  2.8822 -1.4776 -0.3109
 6150SOL    HW229910   2.681   2.875  12.845 -0.8486  0.0795  3.2823
 6151SOL     OW29911   0.309   3.114   3.609  0.3741 -0.2563 -0.1582
 6151SOL    HW129912   0.334   3.033   3.653 -0.5097 -0.6551 -0.3860
 6151SOL    HW229913   0.221   3.085   3.587 -0.1358  0.8956  0.4071
 6152SOL     OW29914   2.508   1.771   6.103  0.1196 -0.0209 -0.3238
 6152SOL    HW129915   2.567   1.785   6.177  0.0057  0.0515 -0.2472
 6152SOL    HW229916   2.435   1.830   6.122 -0.0830  0.0285 -1.2590
 6153SOL     OW29917   0.701   1.841   4.945 -0.0102 -0.5714 -0.2578
 6153SOL    HW129918   0.700   1.875   5.034  0.4447 -1.3031  0.0259
 6153SOL    HW229919   0.739   1.754   4.957  0.1710 -0.2220  1.6420
 6154SOL     OW29920   0.601   0.378   4.767 -0.2526  0.1892  0.6180
 6154SOL    HW129921   0.542   0.443   4.805 -0.4692  0.2047  0.2559
 6154SOL    HW229922   0.626   0.340   4.851  1.6539 -1.5849 -0.7743
 6155SOL     OW29923   0.198   0.510   0.347 -0.3776  0.0593  0.4201
 6155SOL    HW129924   0.133   0.446   0.374 -2.3134  0.9357 -2.2013
 6155SOL    HW229925   0.278   0.461   0.329  0.7976  1.5610  1.4751
 6156SOL     OW29926   0.073   1.996   3.852  0.2136 -0.0819 -0.3513
 6156SOL    HW129927   0.085   2.091   3.853  1.0414 -0.1993  0.9707
 6156SOL    HW229928   0.160   1.957   3.849 -1.0821 -2.9580 -0.2881
 6157SOL     OW29929   3.045   3.913  10.347  0.7005  0.0010 -0.3499
 6157SOL    HW129930   3.121   3.969  10.360  1.6257 -1.2379 -0.3664
 6157SOL    HW229931   3.054   3.902  10.252  1.1378  2.0895 -0.5547
 6158SOL     OW29932   3.463   3.327  10.866  0.3469  0.1375  0.3306
 6158SOL    HW129933   3.486   3.240  10.833  0.1115  0.6724 -1.2066
 6158SOL    HW229934   3.368   3.337  10.863  0.5346  1.9224  0.2970
 6159SOL     OW29935   4.357   4.687  13.549 -0.0763 -0.4218 -0.0415
 6159SOL    HW129936   4.441   4.706  13.591 -0.4952 -0.2814  0.7369
 6159SOL    HW229937   4.357   4.592  13.539 -0.7865 -0.4849  0.5018
 6160SOL     OW29938   0.986   1.953   7.715 -0.1709  0.1968 -0.5695
 6160SOL    HW129939   1.055   1.893   7.686  1.6400  0.9484  2.0749
 6160SOL    HW229940   0.995   1.937   7.809  2.1755 -0.9896 -0.9800
 6161SOL     OW29941   1.991   3.347   3.037  0.1984  0.2451 -0.7080
 6161SOL    HW129942   1.916   3.394   3.003 -1.6656  0.6438  3.8846
 6161SOL    HW229943   2.060   3.370   2.975  0.5252  1.1842 -0.0094
 6162SOL     OW29944   0.319   0.173  17.251 -0.2721  0.0339  0.0769
 6162SOL    HW129945   0.307   0.184  17.345  0.8437  0.7477  0.1408
 6162SOL    HW229946   0.234   0.207  17.221  1.0053  3.1472 -0.0156
 6163SOL     OW29947   3.874   0.337  14.717 -0.2983 -0.0503  0.1155
 6163SOL    HW129948   3.920   0.303  14.640  0.4324 -2.4582  1.5972
 6163SOL    HW229949   3.822   0.262  14.748 -0.5565 -1.0086 -2.6180
 6164SOL     OW29950   0.689   1.864   3.718  0.3073 -0.2625  0.2650
 6164SOL    HW129951   0.677   1.889   3.626  0.1105  0.0057  0.3648
 6164SOL    HW229952   0.691   1.944   3.769  0.1328  0.3219 -0.6412
 6165SOL     OW29953   0.344   3.504   5.153  0.7028  0.4079 -0.4666
 6165SOL    HW129954   0.425   3.481   5.197  1.6361 -0.4646 -2.6813
 6165SOL    HW229955   0.300   3.419   5.147 -0.2036  0.7706  1.0615
 6166SOL     OW29956   4.195   3.086   6.088  0.0489  0.0472  0.3828
 6166SOL    HW129957   4.279   3.044   6.106 -0.5101 -0.5942  1.5240
 6166SOL    HW229958   4.152   3.006   6.057  0.5273  0.2142 -0.7193
 6167SOL     OW29959   4.022   3.862  11.439  0.1617  0.3771 -0.2292
 6167SOL    HW129960   4.098   3.821  11.397 -0.0319  1.9432 -2.1043
 6167SOL    HW229961   3.957   3.867  11.369 -1.3406 -0.2199  1.1250
 6168SOL     OW29962   2.327   2.857   6.766  0.1702 -0.3585  0.3897
 6168SOL    HW129963   2.337   2.829   6.857  1.1821  0.9493  0.6851
 6168SOL    HW229964   2.294   2.774   6.731 -0.4360 -0.1060  0.3654
 6169SOL     OW29965   2.092   3.070  16.813  0.3997 -0.3763  0.5320
 6169SOL    HW129966   2.012   3.034  16.775  0.6591 -0.5000  0.1074
 6169SOL    HW229967   2.150   3.061  16.738  1.3958 -1.7942  1.4943
 6170SOL     OW29968   3.570   1.041   6.569 -0.5675 -0.0429  1.1682
 6170SOL    HW129969   3.657   1.000   6.566 -0.4970 -0.0166  2.9902
 6170SOL    HW229970   3.587   1.129   6.603  1.0793 -0.0530  0.3888
 6171SOL     OW29971   3.710   4.427   8.249 -0.0174  0.0624  0.0279
 6171SOL    HW129972   3.708   4.340   8.290  1.0977 -0.5641 -1.2495
 6171SOL    HW229973   3.796   4.423   8.208  0.1487 -1.3965  0.5398
 6172SOL     OW29974   1.975   3.882   6.358 -0.1157 -0.0300 -0.1356
 6172SOL    HW129975   1.894   3.931   6.359  1.6312  2.8625 -1.0761
 6172SOL    HW229976   1.969   3.837   6.273 -3.2905  1.3402 -0.6260
 6173SOL     OW29977   0.643   3.951   5.015 -0.4579  0.0843  0.4686
 6173SOL    HW129978   0.560   3.964   4.969 -1.2964 -0.7769  1.7512
 6173SOL    HW229979   0.655   3.856   5.014  0.1882  0.1523  2.2901
 6174SOL     OW29980   1.753   2.147  12.973 -0.2657  0.3432 -0.1064
 6174SOL    HW129981   1.798   2.114  13.051  3.0024  0.3026 -2.0242
 6174SOL    HW229982   1.766   2.078  12.909  2.0164  0.3139  0.3822
 6175SOL     OW29983   0.995   2.975   8.519 -0.1521  0.3990 -0.8575
 6175SOL    HW129984   0.902   2.983   8.540  0.2512  2.9494  0.0269
 6175SOL    HW229985   1.004   2.888   8.482  0.9610 -0.4658  1.3961
 6176SOL     OW29986   1.753   1.746   3.279  0.1143  0.1607  0.5815
 6176SOL    HW129987   1.700   1.753   3.358  0.7342  1.5498  0.8757
 6176SOL    HW229988   1.838   1.754   3.322  0.0768  1.0320  0.4846
 6177SOL     OW29989   0.450   1.160   7.348  0.2334  0.1554  0.3058
 6177SOL    HW129990   0.501   1.211   7.286  2.1607 -0.8126  1.1103
 6177SOL    HW229991   0.519   1.119   7.399  0.5886 -0.3031 -0.5315
 6178SOL     OW29992   2.800   1.520   5.717 -0.6847  0.1450 -0.0091
 6178SOL    HW129993   2.764   1.545   5.802  0.2785  0.9411  0.1636
 6178SOL    HW229994   2.747   1.577   5.660 -2.6147  0.3062  1.9501
 6179SOL     OW29995   1.333   4.715  12.807  0.2675 -0.9057  0.1471
 6179SOL    HW129996   1.240   4.698  12.821  0.7860 -3.8154  0.1554
 6179SOL    HW229997   1.354   0.029  12.892 -0.4992 -1.4639  0.5733
 6180SOL     OW29998   3.141   0.632  16.434  0.1389 -0.2041  0.2872
 6180SOL    HW129999   3.139   0.687  16.512 -0.2303 -2.2400  1.7176
 6180SOL    HW230000   3.058   0.584  16.437 -1.1761  2.1671  1.9522
 6181SOL     OW30001   1.375   2.635  10.876  0.4396 -0.3173 -0.2459
 6181SOL    HW130002   1.357   2.647  10.969  1.7516 -1.6606  0.1931
 6181SOL    HW230003   1.334   2.549  10.869  1.2480 -0.4850 -2.6577
 6182SOL     OW30004   3.965   0.751   2.251  0.0112 -0.4482 -0.1571
 6182SOL    HW130005   4.037   0.761   2.312 -1.5299  1.9195  1.2561
 6182SOL    HW230006   3.916   0.687   2.304  1.6913 -0.7211  1.0491
 6183SOL     OW30007   0.654   2.149   5.025  0.0231  0.1540 -0.1314
 6183SOL    HW130008   0.613   2.062   5.029  0.8640 -0.3503 -2.8651
 6183SOL    HW230009   0.747   2.126   5.026  0.0510  0.3495  1.9187
 6184SOL     OW30010   1.136   0.177   4.291  0.5202  0.5702  0.2727
 6184SOL    HW130011   1.095   0.093   4.269 -0.4561  1.4632 -1.3677
 6184SOL    HW230012   1.188   0.191   4.211  0.9065 -1.3243  0.1847
 6185SOL     OW30013   2.264   0.560   9.733  0.1357 -0.2769 -0.3427
 6185SOL    HW130014   2.259   0.484   9.791 -0.6585  0.0115 -0.0360
 6185SOL    HW230015   2.187   0.570   9.677  1.9438  2.8953 -2.2950
 6186SOL     OW30016   0.438   3.328   1.039 -0.6474  0.2171 -0.1184
 6186SOL    HW130017   0.497   3.282   1.100  1.1239  0.1606 -1.8751
 6186SOL    HW230018   0.365   3.350   1.096  0.2249  0.1199  1.0432
 6187SOL     OW30019   0.040   0.362   8.699  0.4033 -0.2181  0.2137
 6187SOL    HW130020   0.107   0.296   8.682  1.0909  1.1275 -2.3003
 6187SOL    HW230021   0.059   0.388   8.790 -1.6507  1.0749  0.2865
 6188SOL     OW30022   2.033   2.234   2.458  0.1134  0.0993 -0.1872
 6188SOL    HW130023   2.036   2.293   2.533 -0.6413 -0.7081  0.4777
 6188SOL    HW230024   1.977   2.167   2.496  1.4464 -1.2899 -0.6820
 6189SOL     OW30025   2.370   2.575   6.402  0.0641  0.3221  0.4939
 6189SOL    HW130026   2.422   2.504   6.365 -0.6255  0.1004 -0.0657
 6189SOL    HW230027   2.310   2.578   6.327  1.9406 -1.0618 -1.0434
 6190SOL     OW30028   3.071   3.694  10.549 -0.0481  0.0140 -0.4838
 6190SOL    HW130029   3.062   3.763  10.484  1.4731  1.2684  0.6557
 6190SOL    HW230030   3.013   3.628  10.510  0.9291 -1.4611  0.5476
 6191SOL     OW30031   1.004   0.321   7.801  0.0935 -0.0721 -0.2231
 6191SOL    HW130032   0.942   0.361   7.740  0.2914  0.8661  0.1950
 6191SOL    HW230033   1.024   0.243   7.748  1.4712 -0.0910  0.3246
 6192SOL     OW30034   3.717   0.757  13.113 -0.3441  0.1974 -0.0809
 6192SOL    HW130035   3.762   0.828  13.160  2.0471 -1.0307 -0.5090
 6192SOL    HW230036   3.655   0.811  13.063  0.2342 -0.3640 -1.3865
 6193SOL     OW30037   2.778   0.160   4.766  0.1194 -0.4706 -0.5441
 6193SOL    HW130038   2.760   0.169   4.673 -2.5121  0.9209  0.0932
 6193SOL    HW230039   2.773   0.065   4.770  1.1037 -0.5237 -0.4105
 6194SOL     OW30040   0.536   3.298   4.140 -0.0012 -0.1511 -0.2278
 6194SOL    HW130041   0.573   3.214   4.169  0.6419 -0.7871 -2.9316
 6194SOL    HW230042   0.472   3.287   4.069  0.2170 -2.3785 -0.0925
 6195SOL     OW30043   2.542   1.782   9.029  0.6792 -0.5168  0.2739
 6195SOL    HW130044   2.624   1.818   9.062 -0.1103 -0.0210  1.7146
 6195SOL    HW230045   2.547   1.832   8.947  1.9367 -0.1814  0.5554
 6196SOL     OW30046   2.523   2.850   8.233 -0.1619  0.2716  0.3519
 6196SOL    HW130047   2.554   2.763   8.259 -1.0435 -0.1901 -0.1230
 6196SOL    HW230048   2.428   2.839   8.241 -0.7347  4.0555 -1.2545
 6197SOL     OW30049   3.741   4.320   4.510  0.1525  0.3147  0.2898
 6197SOL    HW130050   3.675   4.252   4.497  0.0137  0.2430  1.4132
 6197SOL    HW230051   3.730   4.329   4.604  3.1933 -0.9092  0.7806
 6198SOL     OW30052   1.582   0.827  16.207  0.2006  0.4309 -0.4619
 6198SOL    HW130053   1.563   0.915  16.239  2.3985  0.2665  1.3354
 6198SOL    HW230054   1.537   0.831  16.123  0.7622 -1.0441 -0.8275
 6199SOL     OW30055   3.018   1.397  16.354 -0.0442 -0.5321 -0.3504
 6199SOL    HW130056   3.095   1.402  16.298 -1.3447  1.0908 -2.0045
 6199SOL    HW230057   3.042   1.449  16.430  0.3316 -0.2396 -0.6723
 6200SOL     OW30058   1.323   3.189  16.160 -0.1674 -0.6483 -0.2754
 6200SOL    HW130059   1.239   3.231  16.139  0.5450  0.5119 -0.8583
 6200SOL    HW230060   1.367   3.263  16.202  0.3288 -1.5472  0.7748
 6201SOL     OW30061   4.434   0.681   8.905 -0.5680 -0.4893  0.1227
 6201SOL    HW130062   4.490   0.671   8.828 -1.6964  4.4981 -1.3860
 6201SOL    HW230063   4.453   0.599   8.949  0.6533  1.1479  2.6595
 6202SOL     OW30064   0.696   0.075   6.179  0.9059 -0.3033 -0.2514
 6202SOL    HW130065   0.626   0.141   6.179  1.7912  0.6464 -0.5289
 6202SOL    HW230066   0.715   0.085   6.086  1.4201 -2.5133 -0.3818
 6203SOL     OW30067   2.112   0.440   9.989  0.3956 -0.0753 -0.1609
 6203SOL    HW130068   2.104   0.451  10.084 -3.9952 -0.0268 -0.5208
 6203SOL    HW230069   2.068   0.521   9.964  2.0204  0.9765  0.3745
 6204SOL     OW30070   2.721   1.444  10.341 -0.8415  0.6668 -0.1302
 6204SOL    HW130071   2.768   1.528  10.336  0.5426 -0.0699  0.5792
 6204SOL    HW230072   2.676   1.455  10.258 -0.5948 -2.2735 -0.6262
 6205SOL     OW30073   2.072   3.073   6.251  0.0166 -0.3426 -0.3869
 6205SOL    HW130074   2.108   3.102   6.335  1.2235 -1.2824 -0.5843
 6205SOL    HW230075   2.009   3.143   6.230  0.0733 -0.7789 -1.9889
 6206SOL     OW30076   2.501   4.323   6.443 -0.2512  0.2480  0.0515
 6206SOL    HW130077   2.578   4.336   6.498 -1.1554  2.0158  0.8822
 6206SOL    HW230078   2.508   4.399   6.385  1.3388  1.1245  1.4045
 6207SOL     OW30079   1.846   3.012  12.386  0.1804  0.3357 -0.4983
 6207SOL    HW130080   1.905   3.004  12.462  1.6360 -0.2134 -1.6845
 6207SOL    HW230081   1.910   3.013  12.315  1.1379  0.2668  0.3592
 6208SOL     OW30082   0.845   3.681   0.189 -0.0207 -0.2791  0.3603
 6208SOL    HW130083   0.838   3.766   0.145 -2.1072 -0.4406  0.3829
 6208SOL    HW230084   0.795   3.638   0.120  1.6052  0.1771 -1.1054
 6209SOL     OW30085   3.885   3.662   1.143  0.5608  0.0870  0.0302
 6209SOL    HW130086   3.795   3.669   1.111  1.2211 -0.4573 -1.9726
 6209SOL    HW230087   3.905   3.570   1.128 -0.4768 -0.2244  0.5754
 6210SOL     OW30088   3.956   2.461   6.284 -0.1599  0.5316  0.0524
 6210SOL    HW130089   3.908   2.380   6.269  1.2022 -0.5141  1.3679
 6210SOL    HW230090   3.927   2.510   6.207  1.1267 -0.7841 -1.2665
 6211SOL     OW30091   1.373   0.115  13.042  0.1839 -0.4186 -0.8105
 6211SOL    HW130092   1.454   0.165  13.037  0.2220 -0.5294 -1.3106
 6211SOL    HW230093   1.384   0.066  13.124 -1.1806  1.3206  0.4157
 6212SOL     OW30094   2.710   0.063   0.357 -0.3760  0.2016  0.4471
 6212SOL    HW130095   2.709   4.712   0.297 -0.8286 -0.7391  1.6142
 6212SOL    HW230096   2.666   0.126   0.301  0.0358  0.6124  0.5791
 6213SOL     OW30097   1.568   3.357  13.701 -0.4452 -0.5298  0.7021
 6213SOL    HW130098   1.663   3.354  13.708 -0.4931  0.6851  1.8274
 6213SOL    HW230099   1.552   3.263  13.714 -1.3350 -0.5389 -0.4531
 6214SOL     OW30100   1.646   1.713   3.559  0.5317 -0.2815  0.0220
 6214SOL    HW130101   1.573   1.708   3.620  1.0847  2.7248  0.9687
 6214SOL    HW230102   1.725   1.685   3.606  0.9681 -0.3878 -0.7654
 6215SOL     OW30103   2.325   3.877  12.876  0.0966  0.3004 -0.5507
 6215SOL    HW130104   2.339   3.785  12.854 -1.6112 -0.6374  2.3187
 6215SOL    HW230105   2.383   3.919  12.812  0.1462 -0.6674 -1.1382
 6216SOL     OW30106   2.286   2.990  14.553 -0.1976 -0.0104  0.2506
 6216SOL    HW130107   2.230   2.917  14.579 -0.8647 -0.4945 -2.5921
 6216SOL    HW230108   2.353   2.936  14.513 -0.1028  1.7516 -1.9483
 6217SOL     OW30109   4.219   1.216  13.290  0.1934 -0.2336 -0.0663
 6217SOL    HW130110   4.165   1.209  13.370  1.2374  0.4827  0.7025
 6217SOL    HW230111   4.185   1.294  13.247 -3.4605 -2.5741 -1.4515
 6218SOL     OW30112   3.319   1.634   5.721  0.0704 -0.6716 -0.2651
 6218SOL    HW130113   3.344   1.548   5.755  0.7795 -0.5092 -0.3883
 6218SOL    HW230114   3.241   1.664   5.768  0.9498 -0.6780  1.1860
 6219SOL     OW30115   2.234   3.879   3.334  0.3266  0.3123 -0.7478
 6219SOL    HW130116   2.203   3.854   3.247  1.0234 -0.6302 -0.7274
 6219SOL    HW230117   2.317   3.921   3.311 -0.1326  1.5085 -0.2084
 6220SOL     OW30118   1.193   2.174   5.849  0.1560  0.2509 -0.4620
 6220SOL    HW130119   1.119   2.171   5.788  0.4355  0.1086 -0.7901
 6220SOL    HW230120   1.203   2.269   5.855 -0.0385  0.2873 -0.7342
 6221SOL     OW30121   2.731   3.734   8.284 -0.4922  0.3544 -0.4607
 6221SOL    HW130122   2.754   3.826   8.268 -1.0905  0.6251  0.2331
 6221SOL    HW230123   2.656   3.749   8.341  0.0264 -0.7492  0.5036
 6222SOL     OW30124   3.999   3.337   5.398 -0.2807 -0.0347 -0.3339
 6222SOL    HW130125   4.034   3.284   5.326  1.1401 -0.2431  0.5287
 6222SOL    HW230126   4.057   3.411   5.381  0.1875 -0.4628 -0.6113
 6223SOL     OW30127   3.254   1.421  13.191 -0.2819 -0.2647 -0.4406
 6223SOL    HW130128   3.244   1.372  13.273  0.2346 -2.4919 -1.6816
 6223SOL    HW230129   3.180   1.481  13.182  1.2700  1.9957  1.8642
 6224SOL     OW30130   2.225   3.133   0.613  0.0545 -0.0661  0.7638
 6224SOL    HW130131   2.237   3.227   0.630 -1.9797  0.6569 -1.7974
 6224SOL    HW230132   2.135   3.132   0.581  0.2680  0.6145  0.1454
 6225SOL     OW30133   1.858   4.531   1.597  0.2354  0.4137  0.3185
 6225SOL    HW130134   1.811   4.483   1.665 -0.9639  0.7553 -0.2631
 6225SOL    HW230135   1.944   4.491   1.609  0.8493  0.2488 -4.4461
 6226SOL     OW30136   1.870   0.989   4.143  0.2124  0.2463 -0.0321
 6226SOL    HW130137   1.792   1.016   4.095 -0.1066 -0.1979  0.2282
 6226SOL    HW230138   1.869   1.058   4.210  0.5293  0.0537  0.1723
 6227SOL     OW30139   1.893   3.981   1.748 -0.4331  0.1668 -0.2144
 6227SOL    HW130140   1.887   4.028   1.664 -1.3000  0.3822 -0.0317
 6227SOL    HW230141   1.978   3.940   1.737 -1.0395 -0.7372 -1.6777
 6228SOL     OW30142   1.240   4.552   7.827  0.1279 -0.1899  0.5116
 6228SOL    HW130143   1.150   4.524   7.840 -0.7190  1.9296 -0.9160
 6228SOL    HW230144   1.230   4.645   7.810  1.6839 -0.4717 -1.9484
 6229SOL     OW30145   4.085   0.045  14.941 -0.4623  0.5574  0.1579
 6229SOL    HW130146   3.997   0.030  14.906 -1.1609  0.4482  1.9343
 6229SOL    HW230147   4.128   0.094  14.872  2.5385  1.2623  2.5238
 6230SOL     OW30148   1.433   1.571   8.971  0.5600  0.0544 -0.2464
 6230SOL    HW130149   1.384   1.572   9.053  1.3928 -2.9513  0.2874
 6230SOL    HW230150   1.434   1.665   8.955 -3.4593 -0.0506 -1.2248
 6231SOL     OW30151   1.661   1.097   4.388  0.8133  0.7095  0.1578
 6231SOL    HW130152   1.617   1.105   4.303 -0.1493 -2.0678  0.4154
 6231SOL    HW230153   1.725   1.167   4.374  1.1585  0.1721 -0.9956
 6232SOL     OW30154   3.576   3.873  16.055 -0.1370  0.4094 -0.6404
 6232SOL    HW130155   3.569   3.779  16.039  1.4639  0.2037 -0.1722
 6232SOL    HW230156   3.524   3.877  16.135  1.3096  0.2817  0.3135
 6233SOL     OW30157   0.344   0.832  16.828  0.2419 -0.2311  1.1405
 6233SOL    HW130158   0.331   0.782  16.747  0.1763  0.3680  0.7795
 6233SOL    HW230159   0.398   0.774  16.880  0.1688 -0.0378  1.4290
 6234SOL     OW30160   1.392   1.998  10.526  0.2714  0.1756  0.1580
 6234SOL    HW130161   1.325   1.938  10.493 -0.9999  1.5362  0.2531
 6234SOL    HW230162   1.368   2.005  10.618  1.1099  2.9526  0.1611
 6235SOL     OW30163   2.247   2.116   2.673  0.3169  0.3930  0.4089
 6235SOL    HW130164   2.307   2.041   2.674 -0.1007  0.0385 -2.0456
 6235SOL    HW230165   2.165   2.068   2.661  0.7094 -0.3906  0.8259
 6236SOL     OW30166   3.539   2.374   1.222 -0.1741  0.3235  0.4069
 6236SOL    HW130167   3.561   2.458   1.181 -1.5935  0.0821 -0.8437
 6236SOL    HW230168   3.445   2.374   1.203 -0.1628 -0.8197  0.3774
 6237SOL     OW30169   2.723   1.671   3.696  0.6790 -0.5474  0.1097
 6237SOL    HW130170   2.726   1.748   3.639 -0.8942  2.3454  3.9173
 6237SOL    HW230171   2.733   1.599   3.634  0.3051 -0.4237 -0.0963
 6238SOL     OW30172   0.584   3.854  16.958 -0.3673 -0.2292 -0.2798
 6238SOL    HW130173   0.591   3.927  17.020  1.5168  0.4492 -1.2852
 6238SOL    HW230174   0.591   3.778  17.016  1.4308  0.6364  0.6383
 6239SOL     OW30175   4.159   0.978   9.043  0.3313  0.5496 -0.0072
 6239SOL    HW130176   4.122   0.890   9.042 -0.3353  0.7921  2.8506
 6239SOL    HW230177   4.094   1.029   8.995 -0.9871 -0.5213  0.6613
 6240SOL     OW30178   0.387   3.325  13.961 -0.1617  0.3551 -0.2213
 6240SOL    HW130179   0.299   3.362  13.964 -0.2434  0.2997 -1.7082
 6240SOL    HW230180   0.440   3.403  13.947  0.2722 -0.0684 -0.9705
 6241SOL     OW30181   0.751   4.166   4.050  0.1129 -0.3245 -0.3699
 6241SOL    HW130182   0.747   4.259   4.072  1.5075 -0.7867  1.8122
 6241SOL    HW230183   0.813   4.139   4.118  0.7529 -0.9963 -1.2146
 6242SOL     OW30184   4.660   3.277   2.808  0.5071  0.7286  0.9070
 6242SOL    HW130185   0.023   3.244   2.832  0.6635 -0.4443 -1.2888
 6242SOL    HW230186   4.654   3.343   2.877  1.4235  0.4031  1.2973
 6243SOL     OW30187   4.647   0.207  13.065 -0.1992  0.1224  0.1568
 6243SOL    HW130188   0.019   0.203  13.062 -0.2081  0.0376 -0.0934
 6243SOL    HW230189   4.651   0.292  13.107  1.2957  0.3936 -0.5299
 6244SOL     OW30190   1.422   1.178   7.780  0.3379  0.7703  0.9093
 6244SOL    HW130191   1.375   1.135   7.851  0.7254  0.4369  0.9691
 6244SOL    HW230192   1.514   1.171   7.808  0.1398  0.1213  1.4041
 6245SOL     OW30193   0.740   1.970   7.982  0.0471  0.1426  0.0617
 6245SOL    HW130194   0.688   1.906   8.030  0.6894 -1.1143 -0.8999
 6245SOL    HW230195   0.689   2.048   8.003  1.0182  0.6486  0.5415
 6246SOL     OW30196   3.759   1.324   5.281  0.4994 -0.1525 -0.0312
 6246SOL    HW130197   3.840   1.368   5.307  0.8246 -1.8714  1.8388
 6246SOL    HW230198   3.695   1.352   5.347  1.6434 -0.4179  1.1801
 6247SOL     OW30199   2.825   2.693   5.765 -0.5296  0.2603  0.4008
 6247SOL    HW130200   2.759   2.748   5.805 -0.3080  0.3008  0.7095
 6247SOL    HW230201   2.872   2.748   5.702  0.6704 -0.7344  0.4252
 6248SOL     OW30202   0.997   0.524   0.356  0.2528 -0.4438  0.4288
 6248SOL    HW130203   0.931   0.530   0.425 -1.9833  0.7879 -1.8152
 6248SOL    HW230204   1.053   0.597   0.383 -1.3742  1.6277 -1.8137
 6249SOL     OW30205   1.370   3.421  10.861  0.1265 -0.1492 -0.0993
 6249SOL    HW130206   1.462   3.425  10.887 -0.7053 -1.1325  2.9741
 6249SOL    HW230207   1.339   3.507  10.890 -0.4088 -0.3285 -0.1365
 6250SOL     OW30208   1.178   0.472   6.303 -0.0297  0.8156 -0.0766
 6250SOL    HW130209   1.205   0.442   6.390  0.6088 -3.5690 -1.7889
 6250SOL    HW230210   1.269   0.492   6.279 -0.3674  0.3756 -1.7549
 6251SOL     OW30211   1.877   3.107   6.778  0.3465  0.3384  0.5897
 6251SOL    HW130212   1.794   3.091   6.733  1.0487 -0.1243 -0.5393
 6251SOL    HW230213   1.842   3.092   6.866 -0.9751  1.4571  0.2520
 6252SOL     OW30214   2.128   1.454  11.957 -0.4651 -0.2279 -0.8583
 6252SOL    HW130215   2.202   1.398  11.935  1.0354  1.0440  0.9049
 6252SOL    HW230216   2.140   1.513  11.883 -0.2657  0.5599 -0.2042
 6253SOL     OW30217   2.153   2.518  15.391 -0.2898  0.7360 -0.4401
 6253SOL    HW130218   2.082   2.576  15.417  0.3628  1.0396  0.6381
 6253SOL    HW230219   2.211   2.514  15.467  0.1090 -0.6503 -0.8056
 6254SOL     OW30220   3.313   4.615  12.813 -0.0137  0.1849 -0.1867
 6254SOL    HW130221   3.251   4.627  12.885  0.2865 -1.4670  0.3388
 6254SOL    HW230222   3.280   4.530  12.784 -0.5200  0.1569  0.4651
 6255SOL     OW30223   4.149   4.226   5.426  0.1621 -0.1206  0.2603
 6255SOL    HW130224   4.171   4.307   5.380 -0.7493  0.0376  0.1026
 6255SOL    HW230225   4.193   4.155   5.380  1.1648 -0.3227  1.5212
 6256SOL     OW30226   0.478   1.951  15.608  0.3819 -0.4985 -0.0776
 6256SOL    HW130227   0.387   1.921  15.617  1.3500 -3.7484 -1.0017
 6256SOL    HW230228   0.454   2.015  15.541 -1.2076 -0.1585  0.8120
 6257SOL     OW30229   0.872   3.926  12.526  0.1441  0.6369 -0.1580
 6257SOL    HW130230   0.881   3.884  12.611 -0.0051  2.1312  0.5960
 6257SOL    HW230231   0.959   3.899  12.495  0.9339  2.0297  0.8506
 6258SOL     OW30232   2.442   3.358  13.354 -0.5429 -0.0443 -0.1414
 6258SOL    HW130233   2.404   3.413  13.286  2.3019  1.5187 -0.4543
 6258SOL    HW230234   2.377   3.378  13.421  0.1712  2.4848 -0.2033
 6259SOL     OW30235   4.390   4.269   7.431 -0.6640 -0.2677 -0.1388
 6259SOL    HW130236   4.324   4.288   7.498  0.3270  0.4127  0.6506
 6259SOL    HW230237   4.447   4.345   7.442  0.5906 -1.2662  0.2332
 6260SOL     OW30238   3.260   1.421   7.108  0.2972 -0.1074 -0.1931
 6260SOL    HW130239   3.240   1.327   7.100  0.3922 -0.2990  1.8757
 6260SOL    HW230240   3.266   1.423   7.203 -1.2128  0.4916 -0.1266
 6261SOL     OW30241   3.838   0.455   7.736  0.2763  0.8098  0.2970
 6261SOL    HW130242   3.811   0.363   7.742  1.8927  0.2883 -0.2250
 6261SOL    HW230243   3.751   0.486   7.761 -0.2103  0.9286 -1.5233
 6262SOL     OW30244   3.350   3.345  12.829  0.3283 -0.3729  0.0834
 6262SOL    HW130245   3.259   3.324  12.852 -0.0628  1.3228  0.0490
 6262SOL    HW230246   3.403   3.301  12.896 -0.3206  1.1914  1.6286
 6263SOL     OW30247   4.113   0.308  16.762 -0.0386  0.1628 -0.0742
 6263SOL    HW130248   4.062   0.384  16.734  0.2458  0.5308  0.4124
 6263SOL    HW230249   4.061   0.276  16.835  0.4439 -0.6275 -0.0817
 6264SOL     OW30250   0.621   1.439  13.232 -0.4059 -0.3237  0.0487
 6264SOL    HW130251   0.704   1.482  13.216  0.0180 -1.1999 -0.1359
 6264SOL    HW230252   0.598   1.475  13.317 -0.8458  2.0969 -1.0888
 6265SOL     OW30253   2.757   2.992  12.961  0.7289 -0.6283 -0.7469
 6265SOL    HW130254   2.849   2.966  12.956  1.0804  0.0142  2.5008
 6265SOL    HW230255   2.762   3.070  13.017  3.2742 -1.0539 -0.3871
 6266SOL     OW30256   3.141   0.111  14.312  0.1865  0.2640  0.2988
 6266SOL    HW130257   3.154   0.070  14.227  2.4262  0.4779  0.5326
 6266SOL    HW230258   3.046   0.103  14.317  0.2782 -0.4613  0.8098
 6267SOL     OW30259   3.004   0.152  16.817  0.0153  0.5851  0.0322
 6267SOL    HW130260   3.003   0.096  16.740  0.3757  0.8169 -0.1400
 6267SOL    HW230261   3.030   0.091  16.886 -3.3867 -2.2119 -1.1896
 6268SOL     OW30262   0.343   0.769  11.484  0.1396 -0.1276 -0.2117
 6268SOL    HW130263   0.298   0.809  11.409 -0.1376 -1.9576 -1.0242
 6268SOL    HW230264   0.375   0.690  11.441  0.1224  0.3885 -1.1724
 6269SOL     OW30265   0.278   2.676   6.866  0.0258  0.0332 -1.0465
 6269SOL    HW130266   0.284   2.752   6.923  2.1308 -0.8707 -0.0574
 6269SOL    HW230267   0.362   2.682   6.819  1.3881  1.7644  1.6221
 6270SOL     OW30268   2.238   1.468  11.019 -0.4397  0.8321 -0.1582
 6270SOL    HW130269   2.245   1.372  11.015 -0.8398  0.7833  0.3476
 6270SOL    HW230270   2.233   1.491  10.926  0.6901  1.8814  0.0424
 6271SOL     OW30271   2.509   4.095   6.287 -0.1625 -0.5281  0.5355
 6271SOL    HW130272   2.515   4.177   6.335  1.6076  0.5648 -1.5087
 6271SOL    HW230273   2.502   4.123   6.195  1.7186  0.1131  0.5739
 6272SOL     OW30274   1.116   4.052   5.013 -0.3504 -0.0991  0.2212
 6272SOL    HW130275   1.159   3.989   5.071 -3.3435 -2.6697 -0.3377
 6272SOL    HW230276   1.027   4.059   5.048  0.5717 -0.2216  2.6300
 6273SOL     OW30277   0.395   4.326   3.706  0.2171 -0.3696 -0.0418
 6273SOL    HW130278   0.453   4.395   3.672  1.4824 -1.8630 -0.9346
 6273SOL    HW230279   0.424   4.245   3.662 -0.1712  0.8724 -2.6027
 6274SOL     OW30280   2.908   4.164   8.921 -0.0621  0.3529  0.1325
 6274SOL    HW130281   2.829   4.163   8.975 -1.0601 -1.6413 -1.3534
 6274SOL    HW230282   2.975   4.213   8.968 -0.9236  0.9474  0.7197
 6275SOL     OW30283   4.052   0.819   2.576 -0.0523  0.3357 -0.0656
 6275SOL    HW130284   4.032   0.911   2.557 -1.0623  0.1021 -0.1253
 6275SOL    HW230285   4.120   0.794   2.514 -0.5310  1.1560 -0.9288
 6276SOL     OW30286   2.465   3.249   4.021 -0.3857  0.2414  0.1309
 6276SOL    HW130287   2.521   3.320   3.990  1.9997 -1.7114 -0.0705
 6276SOL    HW230288   2.457   3.208   3.935  0.6824 -1.8634  1.0363
 6277SOL     OW30289   3.761   4.245   7.565  0.0322  0.6683 -0.1559
 6277SOL    HW130290   3.703   4.173   7.540  0.3508  0.2550  0.2885
 6277SOL    HW230291   3.809   4.209   7.639 -0.8719 -0.2373 -0.0064
 6278SOL     OW30292   3.408   2.209  10.240 -0.0445  0.1501 -0.1023
 6278SOL    HW130293   3.412   2.197  10.145  0.1285  0.3908 -0.1251
 6278SOL    HW230294   3.443   2.298  10.231  0.2022 -0.0328 -0.9891
 6279SOL     OW30295   4.183   4.545  16.254  0.1442 -0.3298  0.8363
 6279SOL    HW130296   4.121   4.613  16.280  2.4575  2.0182  0.1711
 6279SOL    HW230297   4.204   4.583  16.168 -1.1663 -1.2590  0.1015
 6280SOL     OW30298   1.388   2.520   5.457  0.2557 -0.0162 -0.2842
 6280SOL    HW130299   1.438   2.478   5.387 -1.8352  0.2952 -1.9583
 6280SOL    HW230300   1.405   2.606   5.419  0.1798 -0.2345 -0.8089
 6281SOL     OW30301   1.640   0.718   2.906  0.4023  0.1894  0.5566
 6281SOL    HW130302   1.734   0.735   2.901  0.6212 -1.2810 -0.2767
 6281SOL    HW230303   1.607   0.795   2.953  1.0109  2.0942 -2.0905
 6282SOL     OW30304   1.773   0.908   2.195 -0.6005  0.0129 -0.0929
 6282SOL    HW130305   1.862   0.893   2.161 -0.5638 -1.0099  0.4661
 6282SOL    HW230306   1.770   0.896   2.290  0.6329  1.8360  0.1660
 6283SOL     OW30307   3.097   1.964  12.320 -0.1281  0.2547  0.0952
 6283SOL    HW130308   3.108   2.020  12.244  0.5448  1.3957  1.0301
 6283SOL    HW230309   3.104   2.027  12.392 -0.5301  1.0455 -0.5695
 6284SOL     OW30310   0.740   0.830   5.007 -0.7629 -0.3693 -0.3186
 6284SOL    HW130311   0.755   0.760   5.071  1.7633 -1.0908 -1.7012
 6284SOL    HW230312   0.764   0.898   5.071 -0.1425 -2.1072  1.2982
 6285SOL     OW30313   0.721   4.256  11.723  0.1889 -0.1104  0.1942
 6285SOL    HW130314   0.798   4.309  11.703  0.7371 -0.5949  1.0279
 6285SOL    HW230315   0.761   4.203  11.791 -0.0091  0.0667  0.4469
 6286SOL     OW30316   0.261   0.210   8.658  0.2291  0.1558 -0.1433
 6286SOL    HW130317   0.325   0.146   8.627 -0.8397 -0.7078 -0.5424
 6286SOL    HW230318   0.296   0.250   8.738 -3.9247  1.8070  0.8261
 6287SOL     OW30319   2.337   1.310  11.809 -0.0372  0.6178  0.1688
 6287SOL    HW130320   2.281   1.235  11.791 -0.4476  1.2682 -1.2425
 6287SOL    HW230321   2.350   1.350  11.723 -0.2434  0.0109 -0.1445
 6288SOL     OW30322   0.883   3.655   3.041  0.3144 -0.1230  0.8957
 6288SOL    HW130323   0.882   3.642   2.946 -0.2996 -1.8138  1.1487
 6288SOL    HW230324   0.970   3.619   3.061 -0.0117 -0.5921  1.4565
 6289SOL     OW30325   3.567   4.023   2.874 -0.3987 -0.6837  0.3572
 6289SOL    HW130326   3.534   4.053   2.789  0.8872 -1.7166 -0.5070
 6289SOL    HW230327   3.660   4.037   2.856 -0.1547 -0.9266  1.3892
 6290SOL     OW30328   4.355   3.098   9.025 -0.2954  0.3751 -0.4141
 6290SOL    HW130329   4.301   3.055   8.959  0.4494  2.4409 -2.3722
 6290SOL    HW230330   4.400   3.161   8.969  2.3548 -0.3698  0.8765
 6291SOL     OW30331   0.662   3.292  16.004  0.1690  0.0674  0.0332
 6291SOL    HW130332   0.611   3.212  15.991 -0.8187  0.6958  0.0055
 6291SOL    HW230333   0.665   3.313  15.911  1.8733  0.0261  0.0720
 6292SOL     OW30334   0.955   3.060  17.578 -0.5567 -0.1107  0.6922
 6292SOL    HW130335   0.876   3.044  17.629 -1.6020  0.2158 -0.8249
 6292SOL    HW230336   0.916   3.035  17.494 -1.8133 -0.8133  1.4820
 6293SOL     OW30337   3.409   2.464   1.472 -0.3953 -0.8788 -0.1156
 6293SOL    HW130338   3.451   2.436   1.553 -1.0758  1.9648  1.2231
 6293SOL    HW230339   3.460   2.429   1.398  3.8453 -1.3124  3.0182
 6294SOL     OW30340   2.221   0.725   6.584 -0.3964 -0.0499  0.0913
 6294SOL    HW130341   2.132   0.748   6.612 -0.8276  0.1909 -1.4873
 6294SOL    HW230342   2.261   0.693   6.665  0.8272  3.2101  0.7450
 6295SOL     OW30343   1.540   4.063  10.786  0.2036  0.0820  0.0224
 6295SOL    HW130344   1.463   4.085  10.839  0.9102  1.1218  0.6118
 6295SOL    HW230345   1.492   4.059  10.703 -0.3965 -0.0745  0.3764
 6296SOL     OW30346   0.946   2.994   7.439 -0.2182 -0.6516 -0.2792
 6296SOL    HW130347   0.944   2.901   7.457 -3.7757 -0.4796  0.1042
 6296SOL    HW230348   0.993   2.992   7.355 -0.6503 -0.0610 -0.5406
 6297SOL     OW30349   3.304   4.589  10.659  0.2376  0.4303  0.2227
 6297SOL    HW130350   3.216   4.620  10.677  0.6838  1.3721  0.8081
 6297SOL    HW230351   3.350   4.673  10.664 -0.4371  0.8521 -0.6295
 6298SOL     OW30352   1.795   4.259   4.089 -0.0060  0.5018 -0.1443
 6298SOL    HW130353   1.806   4.339   4.140 -2.0716 -1.2291  3.0823
 6298SOL    HW230354   1.753   4.283   4.007 -0.4539  0.6277  0.1216
 6299SOL     OW30355   4.522   4.654  14.521 -0.2646  0.1203  0.0458
 6299SOL    HW130356   4.552   0.011  14.480 -0.6476  1.5178  2.4957
 6299SOL    HW230357   4.451   4.629  14.462  2.6354 -1.0226 -2.9726
 6300SOL     OW30358   1.867   2.725   3.954 -0.1968 -0.1975 -0.2491
 6300SOL    HW130359   1.952   2.753   3.988  0.6656 -2.0393 -0.9330
 6300SOL    HW230360   1.810   2.775   4.013 -1.6647 -1.9674 -0.1616
 6301SOL     OW30361   2.700   2.261   3.919 -0.2494  0.0151  0.4917
 6301SOL    HW130362   2.634   2.221   3.862  0.4583 -0.6318  0.1208
 6301SOL    HW230363   2.771   2.213   3.875  0.5022  0.7129  0.9541
 6302SOL     OW30364   2.103   0.732   8.262  0.1883  0.0861 -0.0427
 6302SOL    HW130365   2.045   0.780   8.322 -1.5747  0.5607 -2.1124
 6302SOL    HW230366   2.153   0.684   8.328  0.1722  2.5438  1.7792
 6303SOL     OW30367   3.015   0.059   5.231 -0.3268  0.8489  0.3860
 6303SOL    HW130368   2.992   0.105   5.150 -3.0451 -1.4822 -0.1668
 6303SOL    HW230369   3.110   0.056   5.224 -0.1184  1.0287  3.2807
 6304SOL     OW30370   4.164   2.453   2.401 -0.2472  0.1919 -0.3681
 6304SOL    HW130371   4.248   2.418   2.373 -0.7342 -0.1815 -1.3824
 6304SOL    HW230372   4.134   2.396   2.471  0.2865 -0.3685 -0.5954
 6305SOL     OW30373   3.376   0.674   4.693  0.8222  0.0892 -0.3326
 6305SOL    HW130374   3.429   0.619   4.636 -0.6271 -1.1016 -0.5371
 6305SOL    HW230375   3.351   0.750   4.640  0.0007  0.6408  0.8275
 6306SOL     OW30376   4.024   2.247   2.547 -0.3804 -0.2720  0.2737
 6306SOL    HW130377   4.074   2.185   2.600  0.0427  0.2482  0.4912
 6306SOL    HW230378   3.976   2.303   2.608 -0.5483  0.2975 -0.3745
 6307SOL     OW30379   3.956   3.547   2.937  0.0916 -0.3392 -0.4894
 6307SOL    HW130380   3.998   3.598   2.868 -0.1451  2.9500  1.7581
 6307SOL    HW230381   4.001   3.583   3.014  0.0004  0.9416 -1.0258
 6308SOL     OW30382   3.165   2.836   9.055 -0.0781  0.4596 -0.0385
 6308SOL    HW130383   3.171   2.903   8.987  0.0861  0.6813  0.1935
 6308SOL    HW230384   3.069   2.839   9.056 -0.1680 -2.3320 -1.5716
 6309SOL     OW30385   1.615   4.144   1.598  0.0538  0.2024 -0.0727
 6309SOL    HW130386   1.630   4.073   1.535 -0.4519  0.9676 -1.0457
 6309SOL    HW230387   1.550   4.115   1.662  0.4245  0.0078  0.2175
 6310SOL     OW30388   3.352   1.283   4.463 -0.4198 -0.4451 -0.0427
 6310SOL    HW130389   3.430   1.283   4.519 -0.3946  3.6033 -0.0840
 6310SOL    HW230390   3.350   1.195   4.425  0.2926 -0.6677  0.4254
 6311SOL     OW30391   0.850   1.298   5.275  0.4358  0.3199  0.5747
 6311SOL    HW130392   0.834   1.391   5.261  0.3131  0.7357  3.3775
 6311SOL    HW230393   0.941   1.299   5.305  0.5910  1.3496  0.0583
 6312SOL     OW30394   2.856   1.270   7.284 -0.1487  0.1501  0.0290
 6312SOL    HW130395   2.886   1.351   7.242 -1.3377  0.3632 -0.4396
 6312SOL    HW230396   2.832   1.305   7.370  1.1080  0.2442  0.3419
 6313SOL     OW30397   3.041   4.531   0.113  0.3718 -0.2139  0.2522
 6313SOL    HW130398   3.116   4.547   0.170 -1.6786  1.6695  2.4576
 6313SOL    HW230399   3.068   4.575   0.032 -0.2918  0.8552  0.6062
 6314SOL     OW30400   2.886   1.059  15.560 -0.2006 -0.2100  0.4945
 6314SOL    HW130401   2.979   1.047  15.578 -0.2400  0.4671  1.1418
 6314SOL    HW230402   2.863   1.112  15.636 -1.9632 -0.7488  0.3483
 6315SOL     OW30403   3.503   3.957   5.178  0.4783 -0.5000  0.0892
 6315SOL    HW130404   3.599   3.956   5.179  0.4711 -1.7902 -0.6133
 6315SOL    HW230405   3.487   4.031   5.121 -0.3333 -0.2376  0.6560
 6316SOL     OW30406   2.470   0.567   8.979 -0.2026  0.2253  0.2567
 6316SOL    HW130407   2.452   0.516   9.057 -0.2810 -0.5283 -0.2569
 6316SOL    HW230408   2.542   0.617   9.017  0.3547 -0.7093  0.4287
 6317SOL     OW30409   3.592   4.600  11.218  0.2598  0.3688 -0.6897
 6317SOL    HW130410   3.565   4.517  11.257 -0.3207  1.3459  1.0220
 6317SOL    HW230411   3.633   4.637  11.297 -1.8805  2.0300 -0.3712
 6318SOL     OW30412   1.074   4.721  10.681  0.3080 -0.2225 -0.3176
 6318SOL    HW130413   1.066   4.629  10.657 -1.4626 -0.0944 -0.2284
 6318SOL    HW230414   1.091   4.709  10.775 -1.8956 -2.0836 -0.1452
 6319SOL     OW30415   1.343   3.553   2.763  0.4641 -0.5446 -0.3894
 6319SOL    HW130416   1.438   3.540   2.754  0.4715 -0.5982 -0.2345
 6319SOL    HW230417   1.327   3.634   2.812  1.9017 -0.1335 -0.5775
 6320SOL     OW30418   0.714   0.569   4.626 -0.1814  0.7771 -0.2975
 6320SOL    HW130419   0.698   0.487   4.673  3.0926 -0.2896 -1.0066
 6320SOL    HW230420   0.629   0.593   4.590 -0.3097  1.4751  0.4576
 6321SOL     OW30421   0.374   4.076   1.551  0.5798  0.7535  0.4346
 6321SOL    HW130422   0.453   4.032   1.520 -0.3034  0.9825 -2.1212
 6321SOL    HW230423   0.388   4.076   1.645  3.1109 -2.2447  0.0655
 6322SOL     OW30424   1.422   4.220   5.165  0.2438  0.4802  0.0045
 6322SOL    HW130425   1.498   4.271   5.192  1.2170 -1.8336  1.6960
 6322SOL    HW230426   1.346   4.257   5.210 -1.3355 -0.6213 -1.7499
 6323SOL     OW30427   2.183   2.875   0.433 -0.5646  0.3332 -0.3347
 6323SOL    HW130428   2.228   2.914   0.357  0.1573 -2.5316 -1.3858
 6323SOL    HW230429   2.160   2.957   0.476 -0.3384  2.0729 -3.4971
 6324SOL     OW30430   3.708   1.581   4.324 -0.0484  0.0761 -0.7180
 6324SOL    HW130431   3.641   1.607   4.388  0.0566 -2.0596  0.2490
 6324SOL    HW230432   3.737   1.499   4.363  2.1367  0.3439 -1.7849
 6325SOL     OW30433   0.097   0.534  17.158  0.2024 -0.3409  0.5738
 6325SOL    HW130434   0.077   0.475  17.086  0.9917  1.4638 -1.1546
 6325SOL    HW230435   0.187   0.557  17.134 -0.3063  1.8957  0.8093
 6326SOL     OW30436   3.467   0.491   5.776 -0.1332 -0.1686  0.3601
 6326SOL    HW130437   3.545   0.440   5.758 -0.6825 -0.4988 -1.0856
 6326SOL    HW230438   3.501   0.563   5.829  0.9567 -0.0760 -0.4908
 6327SOL     OW30439   2.342   1.154   9.001  0.1508 -0.3847 -0.0992
 6327SOL    HW130440   2.410   1.136   9.066 -2.1904 -1.1782  2.1195
 6327SOL    HW230441   2.367   1.092   8.933 -0.6466 -1.3308  0.4718
 6328SOL     OW30442   2.947   4.405  12.676 -0.3630  0.0336 -0.1498
 6328SOL    HW130443   2.877   4.347  12.648 -0.8143 -0.8459  2.7328
 6328SOL    HW230444   2.985   4.430  12.592 -3.1072 -0.7002 -1.5784
 6329SOL     OW30445   4.213   4.042  17.621 -0.8184  0.2873 -0.0434
 6329SOL    HW130446   4.213   3.955  17.581  1.9992 -0.4202  1.4487
 6329SOL    HW230447   4.187   4.023   0.016  1.7118 -0.5877  0.5026
 6330SOL     OW30448   2.894   4.690   8.497 -0.0294 -0.6059  0.5890
 6330SOL    HW130449   2.955   0.013   8.555  0.7835 -1.6568  0.5573
 6330SOL    HW230450   2.868   0.029   8.429 -0.9161 -1.5314  0.0776
 6331SOL     OW30451   4.480   3.449   3.230 -0.6385 -0.0265  0.0513
 6331SOL    HW130452   4.509   3.361   3.258  0.3792  0.6004  0.9733
 6331SOL    HW230453   4.402   3.444   3.285 -1.3131 -1.8791 -1.0608
 6332SOL     OW30454   1.064   1.914  13.049 -0.1496  0.4341 -0.6323
 6332SOL    HW130455   1.118   1.898  13.126  1.2158  2.3170 -1.1780
 6332SOL    HW230456   1.123   1.964  12.992  1.5594 -0.4707  0.3459
 6333SOL     OW30457   2.236   3.398  13.505 -0.3085 -0.0840 -0.3474
 6333SOL    HW130458   2.245   3.449  13.586  1.7890  0.9484 -1.2435
 6333SOL    HW230459   2.228   3.313  13.548 -0.7879 -0.1464 -0.5641
 6334SOL     OW30460   1.042   4.054  11.116 -0.3749  0.2598 -0.1801
 6334SOL    HW130461   0.957   4.096  11.112 -0.6605 -0.2054  1.1553
 6334SOL    HW230462   1.050   4.049  11.211  1.2123 -0.2169 -0.3239
 6335SOL     OW30463   2.790   1.624  15.010 -0.3849  0.9299  0.2241
 6335SOL    HW130464   2.726   1.695  15.000 -1.0845  0.3240  0.3739
 6335SOL    HW230465   2.785   1.579  14.926 -0.0705  1.5301 -0.1152
 6336SOL     OW30466   1.421   3.641  13.724  0.3161 -0.1411  0.2782
 6336SOL    HW130467   1.495   3.581  13.719 -3.1736 -4.5277  1.0170
 6336SOL    HW230468   1.457   3.709  13.669  1.8437 -1.4010 -0.2768
 6337SOL     OW30469   3.724   3.980   7.254 -0.4296  0.6273 -0.0107
 6337SOL    HW130470   3.674   3.954   7.331  0.8963  0.2046  0.7045
 6337SOL    HW230471   3.817   3.962   7.270 -0.4185  0.7451  0.0586
 6338SOL     OW30472   0.406   0.332   7.974  0.3078 -0.7339 -0.3829
 6338SOL    HW130473   0.348   0.328   7.898 -0.1721  2.0101 -0.1539
 6338SOL    HW230474   0.468   0.265   7.946  1.1615 -0.9396  2.0331
 6339SOL     OW30475   3.739   0.195   7.701  0.2364  0.9324 -0.1219
 6339SOL    HW130476   3.676   0.203   7.629 -2.1578  0.0318  1.8711
 6339SOL    HW230477   3.810   0.138   7.673  0.3353  0.4155  1.1897
 6340SOL     OW30478   1.453   4.179   3.017  0.5322  0.3216  0.2671
 6340SOL    HW130479   1.371   4.196   2.970  0.8006  2.3400  0.5430
 6340SOL    HW230480   1.486   4.100   2.974  0.0981  0.0926  0.3470
 6341SOL     OW30481   4.483   4.005   3.538  0.5049 -0.0809 -0.1903
 6341SOL    HW130482   4.420   4.077   3.541  0.1466 -0.3502 -1.3933
 6341SOL    HW230483   4.486   3.985   3.444 -1.6578  1.6625 -0.6385
 6342SOL     OW30484   1.703   1.963   3.117 -0.3241  0.2513 -0.2117
 6342SOL    HW130485   1.694   1.945   3.024 -0.7540  2.7640 -0.6430
 6342SOL    HW230486   1.713   1.877   3.159  1.8942  0.4373 -0.4033
 6343SOL     OW30487   2.712   3.871   3.848  0.5454  0.4673 -0.0406
 6343SOL    HW130488   2.645   3.875   3.917  0.3486  1.0275 -0.2637
 6343SOL    HW230489   2.678   3.943   3.795 -3.2452 -0.4313  1.1560
 6344SOL     OW30490   2.269   3.418   3.475  0.2006  0.0743 -0.2812
 6344SOL    HW130491   2.347   3.469   3.496  0.3195 -0.2055 -0.0286
 6344SOL    HW230492   2.207   3.485   3.448  0.6981  1.1942  1.3107
 6345SOL     OW30493   1.173   3.257   4.835  1.0100 -0.2642  0.1290
 6345SOL    HW130494   1.119   3.329   4.802  1.0586 -0.6554 -0.7988
 6345SOL    HW230495   1.180   3.194   4.763 -2.1497  1.1091 -1.3777
 6346SOL     OW30496   1.497   2.358   5.290 -0.4783 -0.4184  0.6078
 6346SOL    HW130497   1.439   2.282   5.294  0.8459 -1.3854  1.5222
 6346SOL    HW230498   1.490   2.387   5.199  0.6738 -2.4163 -0.1115
 6347SOL     OW30499   4.453   1.499   4.697  0.0764 -0.0517 -0.7482
 6347SOL    HW130500   4.542   1.464   4.706  0.2669  0.7124  0.3198
 6347SOL    HW230501   4.421   1.412   4.672  0.2128  0.0510 -1.2788
 6348SOL     OW30502   3.573   2.757   6.831 -0.6537  0.2531 -0.2282
 6348SOL    HW130503   3.534   2.707   6.760  1.1040  0.5121 -1.3830
 6348SOL    HW230504   3.663   2.728   6.819 -0.0689  1.2295  1.8407
 6349SOL     OW30505   3.523   0.705   2.214  0.0742  0.3066 -0.1717
 6349SOL    HW130506   3.510   0.698   2.119 -2.0322  0.0976  0.1402
 6349SOL    HW230507   3.484   0.620   2.236 -1.1267  1.4027  1.8422
 6350SOL     OW30508   3.151   2.166   8.617 -0.1105  0.5550 -0.1236
 6350SOL    HW130509   3.235   2.189   8.575 -0.5565  2.1462 -0.1451
 6350SOL    HW230510   3.166   2.173   8.711  0.5712 -0.9888 -0.1030
 6351SOL     OW30511   3.143   0.953  13.421 -0.6902  0.4585  0.2688
 6351SOL    HW130512   3.130   0.858  13.426 -0.4309  0.5206  2.0629
 6351SOL    HW230513   3.117   0.955  13.329  0.8839  1.9330 -0.1550
 6352SOL     OW30514   3.875   4.463   5.154 -0.3809 -0.4928 -0.5946
 6352SOL    HW130515   3.895   4.393   5.091 -0.3560 -0.2956 -0.8070
 6352SOL    HW230516   3.849   4.536   5.098  1.7736  0.3911 -0.4489
 6353SOL     OW30517   2.260   4.526  15.981 -0.1604  0.4312  0.0945
 6353SOL    HW130518   2.324   4.555  16.047 -1.1023  0.9247  0.7798
 6353SOL    HW230519   2.238   4.617  15.960 -2.3719 -0.1780 -0.1541
 6354SOL     OW30520   3.632   4.301   8.703 -0.2946 -0.0426  0.0845
 6354SOL    HW130521   3.703   4.267   8.649 -0.3263  1.7359 -1.0996
 6354SOL    HW230522   3.689   4.323   8.777 -1.3106  2.9920 -0.0404
 6355SOL     OW30523   4.608   1.557   7.474 -0.1338 -0.1789  0.1906
 6355SOL    HW130524   4.606   1.626   7.540  0.3043  0.1075 -0.0954
 6355SOL    HW230525   4.633   1.605   7.395  0.4774 -0.0667  0.4550
 6356SOL     OW30526   2.034   2.217   5.798  0.1390  0.0676 -0.2800
 6356SOL    HW130527   2.067   2.182   5.716 -0.5358 -0.8659 -0.1536
 6356SOL    HW230528   2.002   2.135   5.834 -0.3381 -0.7865 -2.6598
 6357SOL     OW30529   3.524   1.063  12.777 -0.6531  0.4715 -0.6341
 6357SOL    HW130530   3.571   1.145  12.765 -2.3248  1.8528  2.2485
 6357SOL    HW230531   3.518   1.031  12.687 -1.0864  0.9169 -0.7620
 6358SOL     OW30532   1.698   0.681   9.571  0.0213 -0.4693 -0.1579
 6358SOL    HW130533   1.683   0.775   9.564  0.4279 -0.2939  1.3896
 6358SOL    HW230534   1.666   0.661   9.483  0.0199  0.1525 -0.2960
 6359SOL     OW30535   2.063   0.103   6.299 -0.0038  0.0701 -0.7044
 6359SOL    HW130536   2.131   0.135   6.359 -0.4109 -2.3627  1.0107
 6359SOL    HW230537   2.121   0.059   6.237  1.3842  2.1325 -0.8674
 6360SOL     OW30538   2.372   3.446  14.922 -0.0863 -0.3201  0.0609
 6360SOL    HW130539   2.285   3.440  14.883 -0.6546 -0.4888  1.3691
 6360SOL    HW230540   2.347   3.498  14.998 -1.8087  0.0685 -0.7688
 6361SOL     OW30541   2.459   2.535   0.554 -0.2443 -0.1427 -0.3039
 6361SOL    HW130542   2.494   2.550   0.466 -0.8764 -0.0703 -0.5499
 6361SOL    HW230543   2.365   2.546   0.540 -0.3298 -1.8624 -1.0020
 6362SOL     OW30544   4.048   0.462   3.709  0.3785 -0.7086  0.4096
 6362SOL    HW130545   4.127   0.422   3.673 -0.6294 -1.5057 -0.8878
 6362SOL    HW230546   4.089   0.506   3.784 -2.1440 -0.3426  1.5940
 6363SOL     OW30547   1.337   3.735  16.114  0.2748 -0.3440 -0.0367
 6363SOL    HW130548   1.297   3.792  16.049 -0.9761 -1.0227  0.1312
 6363SOL    HW230549   1.271   3.759  16.179  0.9500  0.2725  0.4242
 6364SOL     OW30550   3.255   2.349   8.862 -0.1833  0.1238 -0.0260
 6364SOL    HW130551   3.278   2.289   8.933 -0.9476 -1.3607 -1.0164
 6364SOL    HW230552   3.239   2.424   8.919 -1.2962  0.1548 -0.3857
 6365SOL     OW30553   2.382   0.760   5.141 -0.3531  0.2455 -0.0512
 6365SOL    HW130554   2.380   0.681   5.194  0.9581  1.2248  1.4262
 6365SOL    HW230555   2.433   0.732   5.065  1.5113  0.6682  1.0560
 6366SOL     OW30556   4.391   3.478  17.200  0.5173 -0.0712 -0.3370
 6366SOL    HW130557   4.430   3.391  17.210  2.8032  1.0415  0.3641
 6366SOL    HW230558   4.360   3.485  17.290 -0.7051 -1.5257 -0.6423
 6367SOL     OW30559   1.495   1.678   6.191 -0.4731 -0.2509 -0.1053
 6367SOL    HW130560   1.402   1.653   6.185 -1.0625  1.2220  3.0230
 6367SOL    HW230561   1.526   1.637   6.110  0.1528 -3.5721  1.7892
 6368SOL     OW30562   3.235   1.462  13.617  0.1096 -0.5730 -0.6041
 6368SOL    HW130563   3.185   1.421  13.687 -0.4751 -0.2735 -0.8480
 6368SOL    HW230564   3.239   1.397  13.547 -1.3428 -0.4738 -0.7676
 6369SOL     OW30565   1.963   0.626   3.141  0.0547  0.3541 -0.4471
 6369SOL    HW130566   1.918   0.699   3.098 -1.3584 -0.0781  0.2688
 6369SOL    HW230567   2.014   0.577   3.076 -1.8886  0.0568 -1.7586
 6370SOL     OW30568   3.324   1.724   4.599  0.5796  0.0379  0.2628
 6370SOL    HW130569   3.229   1.714   4.600  0.5021  0.7460  0.0840
 6370SOL    HW230570   3.348   1.716   4.692 -2.4485 -1.4572  0.9187
 6371SOL     OW30571   3.781   1.414   8.043 -0.1084  0.4523  0.7373
 6371SOL    HW130572   3.797   1.373   8.128 -0.2436  0.5418  0.8058
 6371SOL    HW230573   3.747   1.498   8.075 -0.5819  0.9239 -1.0145
 6372SOL     OW30574   2.375   2.627   6.953 -0.6860  0.3760 -0.2671
 6372SOL    HW130575   2.386   2.533   6.965  1.6951  0.2971 -2.9151
 6372SOL    HW230576   2.282   2.630   6.932 -0.0133 -0.3906 -3.3865
 6373SOL     OW30577   2.599   3.123   7.974  0.4676 -0.0830  0.2458
 6373SOL    HW130578   2.554   3.062   7.916 -0.9389  0.5291  0.6792
 6373SOL    HW230579   2.661   3.070   8.024  0.7515  2.0707  2.2227
 6374SOL     OW30580   3.647   3.925   1.873  0.4385 -0.2110 -0.1877
 6374SOL    HW130581   3.635   4.017   1.899  1.7218 -0.0044 -0.3131
 6374SOL    HW230582   3.740   3.913   1.854  0.3787 -2.0849  0.7024
 6375SOL     OW30583   1.167   1.805   3.264  0.2505 -0.4604 -0.0096
 6375SOL    HW130584   1.160   1.718   3.304  0.3205  0.0083  1.0182
 6375SOL    HW230585   1.073   1.816   3.247  0.3900 -0.4943 -0.8190
 6376SOL     OW30586   0.527   3.778   6.585  0.1046  0.0781 -0.0932
 6376SOL    HW130587   0.487   3.865   6.580  1.3011  0.5981 -0.6971
 6376SOL    HW230588   0.581   3.798   6.661  1.3633 -1.0591 -0.6940
 6377SOL     OW30589   0.407   1.927   4.996  0.2223  0.0607  1.0330
 6377SOL    HW130590   0.335   1.956   4.940  1.9711 -2.3508 -2.5310
 6377SOL    HW230591   0.481   1.919   4.936  0.1568  0.8437  0.8491
 6378SOL     OW30592   4.355   1.119   3.964 -0.4332  0.6181  0.0192
 6378SOL    HW130593   4.398   1.199   3.994  1.1489 -0.3538  0.3281
 6378SOL    HW230594   4.266   1.155   3.959  0.3624  2.5963  0.1835
 6379SOL     OW30595   1.602   4.262   7.377 -0.2137 -0.0074  0.0171
 6379SOL    HW130596   1.510   4.288   7.380 -0.2177 -0.0557  0.3255
 6379SOL    HW230597   1.598   4.189   7.315  0.5884 -1.4870  1.7042
 6380SOL     OW30598   2.062   4.326   6.769  0.2443  0.1278  0.1733
 6380SOL    HW130599   2.080   4.263   6.839  0.1082  1.0169  1.0049
 6380SOL    HW230600   2.066   4.405   6.823 -1.5562 -1.3122  2.3960
 6381SOL     OW30601   1.669   1.084   6.835  0.4468 -0.4877 -0.4301
 6381SOL    HW130602   1.715   1.148   6.780  0.4755  2.0396  2.4794
 6381SOL    HW230603   1.625   1.140   6.899 -0.3368 -1.7226  0.1156
 6382SOL     OW30604   2.886   3.587   7.625 -0.1745 -0.3207  0.1767
 6382SOL    HW130605   2.853   3.578   7.714 -0.2643 -1.1745  0.0583
 6382SOL    HW230606   2.833   3.658   7.589  0.2408 -0.2849 -0.3764
 6383SOL     OW30607   0.281   2.946   5.212  0.0904 -0.2280 -0.3340
 6383SOL    HW130608   0.192   2.933   5.245  0.0554 -0.3943 -0.4900
 6383SOL    HW230609   0.318   2.970   5.297 -1.2263 -0.6157  0.3564
 6384SOL     OW30610   1.677   0.374   1.069 -0.3136 -0.2955  0.3851
 6384SOL    HW130611   1.675   0.467   1.045  2.1293 -0.6507 -1.2384
 6384SOL    HW230612   1.755   0.369   1.124 -0.4711 -1.1734  0.5345
 6385SOL     OW30613   0.068   3.288   7.993 -0.7298 -0.3442  0.3759
 6385SOL    HW130614   0.142   3.349   7.994 -1.1397  0.1351  2.0504
 6385SOL    HW230615   0.058   3.290   7.898 -2.1211  1.4532  0.5696
 6386SOL     OW30616   1.113   4.415   4.295 -0.0347 -0.2091 -0.1508
 6386SOL    HW130617   1.045   4.405   4.228 -2.0423  0.3079  1.8216
 6386SOL    HW230618   1.065   4.389   4.373 -2.2073 -0.2646 -1.4999
 6387SOL     OW30619   3.348   0.630   1.439 -0.1039  0.2040 -0.3029
 6387SOL    HW130620   3.290   0.620   1.516  1.4357 -0.8906  0.7112
 6387SOL    HW230621   3.408   0.560   1.462 -0.4539 -0.0896 -0.2782
 6388SOL     OW30622   3.579   0.738  12.821  0.1489 -0.0053  0.5429
 6388SOL    HW130623   3.588   0.833  12.816  0.4884 -0.0546  0.2294
 6388SOL    HW230624   3.488   0.740  12.851 -0.5437  2.0246 -1.7272
 6389SOL     OW30625   4.219   2.444   5.205  0.1775 -0.4616  0.1553
 6389SOL    HW130626   4.211   2.366   5.150 -0.9856  0.7263 -1.3607
 6389SOL    HW230627   4.299   2.482   5.169  0.0690  0.3349  0.7414
 6390SOL     OW30628   4.206   0.475   2.466 -0.1934 -0.0544  0.6881
 6390SOL    HW130629   4.235   0.391   2.432 -1.1236 -0.5703  1.1574
 6390SOL    HW230630   4.239   0.541   2.405 -2.3958  1.9542  1.6642
 6391SOL     OW30631   4.453   0.382   8.839 -0.1938  0.4152  0.2304
 6391SOL    HW130632   4.480   0.290   8.834 -0.5164  0.3662 -0.6368
 6391SOL    HW230633   4.464   0.422   8.753 -0.4461  0.1363  0.0681
 6392SOL     OW30634   4.049   0.043   3.438 -0.9791  0.5758 -0.8826
 6392SOL    HW130635   4.137   0.019   3.409 -0.7527 -0.0896  0.3191
 6392SOL    HW230636   4.026   0.109   3.373 -0.7869  1.4682 -0.0486
 6393SOL     OW30637   0.113   4.238   4.359 -0.4894 -0.2582  0.0405
 6393SOL    HW130638   0.196   4.226   4.405  0.0279  1.4272 -0.4970
 6393SOL    HW230639   0.096   4.325   4.394 -1.7867 -0.9346  1.1185
 6394SOL     OW30640   1.213   2.002   6.612  0.1777 -0.6470 -0.2123
 6394SOL    HW130641   1.145   1.973   6.551 -1.0139  1.1837  0.2655
 6394SOL    HW230642   1.230   1.914   6.646  0.5918 -1.0651 -1.5049
 6395SOL     OW30643   1.915   3.852   2.066 -0.5863 -0.1629 -0.0780
 6395SOL    HW130644   1.843   3.825   2.009  1.0038 -2.2964 -1.0578
 6395SOL    HW230645   1.897   3.945   2.052 -0.7328  0.1300  2.0166
 6396SOL     OW30646   3.504   3.234   0.355  0.2432  0.1819  0.1412
 6396SOL    HW130647   3.569   3.249   0.424 -0.8277 -0.2535  1.2343
 6396SOL    HW230648   3.484   3.324   0.333  1.0890  0.1567 -0.7538
 6397SOL     OW30649   0.918   0.751   4.666 -0.0172  0.1472  1.0925
 6397SOL    HW130650   0.867   0.670   4.656  0.5779 -0.3030  1.6614
 6397SOL    HW230651   0.862   0.808   4.614 -1.0152  1.0149  3.1200
 6398SOL     OW30652   2.979   0.787   4.543  0.3102 -0.0649  0.2026
 6398SOL    HW130653   2.978   0.813   4.635  0.5923 -0.7662  0.4033
 6398SOL    HW230654   3.069   0.775   4.515 -0.2147 -0.8166 -1.2079
 6399SOL     OW30655   0.046   1.297   1.203  0.0219  0.3549 -1.0196
 6399SOL    HW130656   0.007   1.384   1.212  0.2768  0.3714 -0.0365
 6399SOL    HW230657   0.136   1.322   1.223  0.4311 -0.6749 -1.6100
 6400SOL     OW30658   1.792   2.516   3.580  0.2912 -0.8557  0.0235
 6400SOL    HW130659   1.720   2.465   3.543 -0.1238  0.1927 -0.6168
 6400SOL    HW230660   1.767   2.535   3.670  0.3745 -0.3218 -0.0657
 6401SOL     OW30661   3.438   4.055   0.650  0.3712  0.6471 -1.0090
 6401SOL    HW130662   3.427   4.032   0.557 -1.6724 -0.0521 -0.6073
 6401SOL    HW230663   3.412   4.146   0.638  0.7366  0.7437 -1.0489
 6402SOL     OW30664   3.299   1.400  12.864  0.5456  0.0617 -0.4883
 6402SOL    HW130665   3.395   1.402  12.861  0.5628 -0.6094 -0.4371
 6402SOL    HW230666   3.282   1.306  12.851 -0.3471  0.1838 -0.1837
 6403SOL     OW30667   4.246   0.050  16.698  0.1034  0.5483 -0.0536
 6403SOL    HW130668   4.189   0.118  16.733 -0.1905  0.4104 -0.2620
 6403SOL    HW230669   4.195   4.696  16.671  1.8094  0.1331 -2.0612
 6404SOL     OW30670   3.503   1.645   9.975  0.1689  0.1480  1.0490
 6404SOL    HW130671   3.590   1.616  10.002  1.2469  0.5527 -1.9858
 6404SOL    HW230672   3.517   1.738   9.958 -0.4933 -0.5218 -3.0571
 6405SOL     OW30673   0.161   1.627   5.168 -0.0572 -0.6636 -0.8390
 6405SOL    HW130674   0.084   1.571   5.156 -0.0854 -0.8774  0.3822
 6405SOL    HW230675   0.181   1.656   5.079 -0.8287  0.8197 -0.5173
 6406SOL     OW30676   3.029   0.570  13.046  0.1124 -0.3583  0.2595
 6406SOL    HW130677   3.049   0.477  13.037 -0.1685 -0.1674 -2.2921
 6406SOL    HW230678   3.006   0.588  12.955 -1.8663  1.2024  1.0525
 6407SOL     OW30679   1.099   2.419   1.758  0.3510 -0.2495 -0.4260
 6407SOL    HW130680   1.010   2.436   1.728  0.1751  0.2606  0.3765
 6407SOL    HW230681   1.107   2.326   1.780 -1.5028 -0.1343  0.7754
 6408SOL     OW30682   0.511   0.949   9.584 -0.0781 -0.3146  0.4891
 6408SOL    HW130683   0.424   0.926   9.552  0.3691 -0.8584 -0.3306
 6408SOL    HW230684   0.517   0.948   9.680  0.0293 -1.9319  0.4656
 6409SOL     OW30685   3.656   0.040   7.913  0.2565  0.1567  0.0188
 6409SOL    HW130686   3.582   0.088   7.948 -0.1817 -0.4976 -0.0077
 6409SOL    HW230687   3.670   0.084   7.829  3.6122 -2.1615 -0.6470
 6410SOL     OW30688   2.728   3.636   1.071 -0.2134  0.2097 -0.7213
 6410SOL    HW130689   2.690   3.590   1.146 -3.5683 -0.4471 -2.8222
 6410SOL    HW230690   2.768   3.567   1.018 -0.2610  1.3973 -2.3004
 6411SOL     OW30691   0.034   3.007  12.048 -0.0161 -0.0580  0.2797
 6411SOL    HW130692   4.681   3.022  12.104  0.4023  0.9431  0.5774
 6411SOL    HW230693   0.098   3.076  12.064  0.2087  0.2708 -1.9656
 6412SOL     OW30694   4.228   2.220   7.805  0.2994  0.2383 -0.0414
 6412SOL    HW130695   4.295   2.199   7.869 -0.4014 -0.4139  0.4786
 6412SOL    HW230696   4.149   2.223   7.859  1.3182 -0.5846  1.4879
 6413SOL     OW30697   1.154   3.456   3.627  0.2005  0.2424  0.3727
 6413SOL    HW130698   1.105   3.456   3.545  0.8993  1.8771 -0.0443
 6413SOL    HW230699   1.244   3.472   3.598  0.8692 -1.6374  1.3960
 6414SOL     OW30700   1.484   0.986   7.586  0.1066  0.2480 -0.0364
 6414SOL    HW130701   1.508   0.924   7.655  2.1040  0.3952 -0.5999
 6414SOL    HW230702   1.457   1.068   7.627  0.8123  0.3811  0.1580
 6415SOL     OW30703   2.995   1.204   2.680  0.1737  0.1160 -0.2046
 6415SOL    HW130704   3.054   1.279   2.693 -1.2539  0.9498  1.4878
 6415SOL    HW230705   3.056   1.132   2.664  0.2646  0.2839 -0.5967
 6416SOL     OW30706   1.332   1.374   7.195 -0.0763  0.3137 -0.2268
 6416SOL    HW130707   1.258   1.317   7.215  0.4976 -0.7331 -1.0712
 6416SOL    HW230708   1.288   1.458   7.187 -1.7847 -0.3047  3.1160
 6417SOL     OW30709   4.187   0.980   4.541  0.4891  0.3519 -0.0272
 6417SOL    HW130710   4.184   1.032   4.621 -0.1384  0.8636 -0.3782
 6417SOL    HW230711   4.208   0.893   4.574 -0.6095 -0.9320 -2.7120
 6418SOL     OW30712   2.449   3.885  10.545  0.0879 -0.2572 -0.1159
 6418SOL    HW130713   2.466   3.836  10.465  0.7906  3.0894 -2.0282
 6418SOL    HW230714   2.361   3.856  10.570  0.0017 -0.3249 -0.4952
 6419SOL     OW30715   1.582   2.135   0.993  0.4492 -0.2371  0.2874
 6419SOL    HW130716   1.491   2.159   1.010  0.7543 -1.0873  3.2566
 6419SOL    HW230717   1.564   2.050   0.953 -0.6244  0.0617  0.1509
 6420SOL     OW30718   4.017   2.796   4.555  0.1762  0.0536 -0.2848
 6420SOL    HW130719   4.042   2.758   4.639  0.0317 -2.6413 -1.4722
 6420SOL    HW230720   4.011   2.887   4.583  0.2716  0.1238 -0.4863
 6421SOL     OW30721   1.803   0.088  11.945  0.2101  0.4943  0.1265
 6421SOL    HW130722   1.841   0.171  11.917 -0.9832  0.8753 -0.3271
 6421SOL    HW230723   1.878   0.044  11.985 -0.1114  0.1384  0.3374
 6422SOL     OW30724   0.763   1.327  12.867 -0.3506  0.9034  0.2865
 6422SOL    HW130725   0.821   1.399  12.895  0.2359  1.6743 -2.9342
 6422SOL    HW230726   0.771   1.276  12.948 -0.7515  0.0902 -0.1883
 6423SOL     OW30727   1.983   0.811   8.491  0.2872 -0.2524 -0.0411
 6423SOL    HW130728   1.986   0.744   8.560 -1.4646 -1.6572 -1.3410
 6423SOL    HW230729   1.898   0.851   8.509  1.2459  0.5594  2.7336
 6424SOL     OW30730   1.702   2.268   2.348  0.2863  0.2782 -0.3105
 6424SOL    HW130731   1.784   2.284   2.301 -0.2439  0.8852 -1.0265
 6424SOL    HW230732   1.684   2.350   2.393 -2.5353 -1.4314  1.5968
 6425SOL     OW30733   2.757   0.416   4.016 -0.6211 -0.3600 -0.7996
 6425SOL    HW130734   2.722   0.384   3.932 -1.0413 -3.1004  0.4174
 6425SOL    HW230735   2.844   0.437   3.983 -0.8924  0.2114 -1.1555
 6426SOL     OW30736   3.528   0.716  15.416  0.2469 -0.0485 -0.6605
 6426SOL    HW130737   3.622   0.699  15.419  0.0705 -0.5710  1.4845
 6426SOL    HW230738   3.530   0.772  15.338 -1.0335 -1.5742 -1.7911
 6427SOL     OW30739   3.275   2.181   5.817  0.9747  0.0547  0.5081
 6427SOL    HW130740   3.360   2.204   5.778  0.6704 -0.5180 -0.4952
 6427SOL    HW230741   3.281   2.249   5.884  3.3450 -1.3886  1.7843
 6428SOL     OW30742   2.653   2.702   6.708  0.0144 -0.5990 -0.4245
 6428SOL    HW130743   2.610   2.621   6.732 -0.1828 -1.9852 -5.4314
 6428SOL    HW230744   2.605   2.727   6.629 -1.0852 -0.2301  0.3683
 6429SOL     OW30745   4.169   0.690   4.531  0.0522  0.2919  0.1734
 6429SOL    HW130746   4.177   0.600   4.498  3.6241  0.6082  0.1908
 6429SOL    HW230747   4.263   0.702   4.543  0.0800  0.4268 -0.1989
 6430SOL     OW30748   0.964   3.547   6.907 -0.0124 -0.5439 -0.3388
 6430SOL    HW130749   1.051   3.585   6.894 -0.3096 -0.0834 -1.0140
 6430SOL    HW230750   0.965   3.523   7.000  2.7800 -0.3127 -0.3143
 6431SOL     OW30751   3.301   1.941   7.774  0.7626  0.0782  0.1690
 6431SOL    HW130752   3.301   1.873   7.842  0.8200 -0.3630 -0.2702
 6431SOL    HW230753   3.389   1.939   7.738  0.8362 -1.3639  0.3936
 6432SOL     OW30754   1.288   1.925   7.357  0.7171  0.0170 -0.0089
 6432SOL    HW130755   1.376   1.962   7.357  0.6140  0.2660 -0.4002
 6432SOL    HW230756   1.233   2.000   7.333  0.6153  0.4925  1.7223
 6433SOL     OW30757   1.733   0.455   7.935  0.4001 -0.2373 -0.1654
 6433SOL    HW130758   1.766   0.539   7.905 -0.4103 -0.8951 -2.8660
 6433SOL    HW230759   1.711   0.475   8.027  2.2020 -1.8181  0.6080
 6434SOL     OW30760   2.826   2.385   1.809 -0.0737  0.2729 -0.4393
 6434SOL    HW130761   2.788   2.465   1.774  0.6724  1.3991  1.2719
 6434SOL    HW230762   2.824   2.408   1.902 -1.0124 -1.0387 -0.1465
 6435SOL     OW30763   3.532   2.231  16.483  0.1510  0.0595 -0.1412
 6435SOL    HW130764   3.601   2.285  16.521 -0.3968 -0.2934  1.3811
 6435SOL    HW230765   3.459   2.239  16.545  0.4971  4.3840 -0.3198
 6436SOL     OW30766   4.552   0.867   4.156 -0.2755  0.0671  0.9077
 6436SOL    HW130767   4.458   0.885   4.151  0.0430  0.8943 -1.9656
 6436SOL    HW230768   4.577   0.939   4.215  0.1092  0.5597  0.1496
 6437SOL     OW30769   3.156   0.668   6.023 -0.0072  0.2240  0.4073
 6437SOL    HW130770   3.067   0.633   6.035  0.8591 -2.1870 -0.1687
 6437SOL    HW230771   3.193   0.600   5.967  0.7302 -0.6331  1.9049
 6438SOL     OW30772   2.991   3.432   8.623  0.0921  0.2531 -0.0550
 6438SOL    HW130773   2.930   3.495   8.586  0.9355 -0.0661 -1.9749
 6438SOL    HW230774   2.936   3.353   8.626  0.8050 -0.3514 -2.6486
 6439SOL     OW30775   2.182   2.673   7.948  0.2892 -0.5511  0.3884
 6439SOL    HW130776   2.125   2.604   7.914  0.5766 -1.4154  1.6778
 6439SOL    HW230777   2.267   2.630   7.939 -0.0582 -0.8687 -1.5015
 6440SOL     OW30778   3.552   3.031   5.044  0.0972 -0.0196 -0.1189
 6440SOL    HW130779   3.575   3.002   5.133  2.2561 -1.9288 -1.2998
 6440SOL    HW230780   3.635   3.029   4.996 -0.7431  1.1945 -1.6126
 6441SOL     OW30781   2.632   1.332   2.826 -0.5394 -0.2425  0.3582
 6441SOL    HW130782   2.600   1.269   2.761  1.5408 -0.6738 -0.2476
 6441SOL    HW230783   2.616   1.287   2.909 -0.7895  1.9865  1.5329
 6442SOL     OW30784   4.184   1.777   6.138  0.5557 -0.2688  0.8615
 6442SOL    HW130785   4.145   1.830   6.208 -2.1968  0.9749 -1.6595
 6442SOL    HW230786   4.231   1.717   6.196 -1.4398 -0.2252  2.5149
 6443SOL     OW30787   0.208   0.058   6.120  0.3111 -0.1735 -0.1623
 6443SOL    HW130788   0.144   0.052   6.191 -0.0279  2.1813 -0.2968
 6443SOL    HW230789   0.237   4.691   6.137 -0.4687 -0.4069 -0.0727
 6444SOL     OW30790   1.681   4.041  16.654 -0.2773 -0.7570  0.0551
 6444SOL    HW130791   1.622   4.115  16.669  0.3403 -0.7021  2.2094
 6444SOL    HW230792   1.651   3.981  16.722  1.6750 -1.4022  0.3542
 6445SOL     OW30793   3.114   4.082   1.813 -0.5898  0.2664 -0.6128
 6445SOL    HW130794   3.084   4.097   1.723  0.3239 -1.8049 -1.2727
 6445SOL    HW230795   3.188   4.143   1.813 -0.5760  0.2696 -3.5519
 6446SOL     OW30796   1.870   2.389  15.515 -0.1904 -0.1817 -0.3895
 6446SOL    HW130797   1.958   2.401  15.479 -0.5678  2.5355 -0.4562
 6446SOL    HW230798   1.816   2.396  15.436 -1.9284 -2.0155  0.6347
 6447SOL     OW30799   1.224   4.553   8.773  0.2752  0.2615 -0.3572
 6447SOL    HW130800   1.291   4.578   8.710 -0.4089  1.3950 -0.6392
 6447SOL    HW230801   1.160   4.623   8.758  1.2190  1.4423  1.2902
 6448SOL     OW30802   0.587   0.351   5.945  0.6324 -0.5276 -0.4666
 6448SOL    HW130803   0.650   0.280   5.935  1.1136 -0.2467  0.6494
 6448SOL    HW230804   0.503   0.305   5.935 -0.5201  1.1753  1.5473
 6449SOL     OW30805   2.809   0.772   7.198  0.7584 -0.1367 -0.2135
 6449SOL    HW130806   2.794   0.795   7.107  3.2137 -1.6749 -1.0197
 6449SOL    HW230807   2.821   0.857   7.241 -1.8467  0.0976  0.0342
 6450SOL     OW30808   3.845   3.024   1.239 -0.1080  0.5260 -0.0401
 6450SOL    HW130809   3.855   2.940   1.194  0.5245  2.0763 -2.7474
 6450SOL    HW230810   3.915   3.012   1.305 -2.3567 -0.6054  2.1365
 6451SOL     OW30811   4.118   2.909   1.718  0.5743 -0.2095  0.1945
 6451SOL    HW130812   4.189   2.849   1.739 -0.3079 -0.5476  2.1437
 6451SOL    HW230813   4.050   2.850   1.683  1.3982 -0.7692 -0.4626
 6452SOL     OW30814   0.647   1.311   1.000 -0.2762 -0.7810  0.0497
 6452SOL    HW130815   0.562   1.274   1.022 -1.6118  1.6163 -1.0717
 6452SOL    HW230816   0.706   1.238   1.020  2.7280  1.3892 -0.7934
 6453SOL     OW30817   0.047   2.482   6.730  0.2613 -0.0158  0.1802
 6453SOL    HW130818   4.708   2.409   6.727 -1.0780  1.0513  1.8299
 6453SOL    HW230819   0.109   2.441   6.790 -1.5675  1.2661  2.9265
 6454SOL     OW30820   0.580   0.115   1.140  0.4178 -0.2751  0.2235
 6454SOL    HW130821   0.500   0.144   1.095  0.5727 -0.0263  0.1096
 6454SOL    HW230822   0.528   0.048   1.184 -0.5159 -0.0848 -0.5978
 6455SOL     OW30823   3.619   3.316   6.473  0.4909 -0.6400  0.3133
 6455SOL    HW130824   3.636   3.265   6.553  0.9992  1.0486  1.2717
 6455SOL    HW230825   3.524   3.317   6.463  0.6215  0.4393 -0.7964
 6456SOL     OW30826   3.113   3.919   6.811  0.3344  0.0989  0.1058
 6456SOL    HW130827   3.189   3.893   6.758  0.6440 -0.6784  0.9411
 6456SOL    HW230828   3.053   3.845   6.801  1.5627 -0.7820 -0.7228
 6457SOL     OW30829   0.551   1.478  15.767  0.0859  0.8420 -0.8661
 6457SOL    HW130830   0.478   1.488  15.705 -0.6918  0.3575 -0.0130
 6457SOL    HW230831   0.506   1.445  15.844  0.6460 -0.8552 -1.2575
 6458SOL     OW30832   0.843   2.639  17.114  0.5450 -0.9866 -0.1921
 6458SOL    HW130833   0.793   2.558  17.105 -0.1460 -0.4760 -1.0255
 6458SOL    HW230834   0.792   2.712  17.077  0.9608 -1.2076 -1.1810
 6459SOL     OW30835   0.826   2.900   7.942  0.1008 -0.6414  0.2734
 6459SOL    HW130836   0.888   2.854   7.999  0.7883 -0.0266  0.0297
 6459SOL    HW230837   0.819   2.988   7.980 -0.3736 -0.6884  0.2957
 6460SOL     OW30838   2.195   3.643   7.804 -0.1801 -0.0043  0.4305
 6460SOL    HW130839   2.279   3.666   7.845  0.4421  0.3961 -1.0649
 6460SOL    HW230840   2.128   3.666   7.868  0.0810  0.7975  0.4120
 6461SOL     OW30841   3.302   1.034  13.651 -0.3529 -0.1356 -0.2852
 6461SOL    HW130842   3.280   0.965  13.713  1.2073  0.0041  0.4243
 6461SOL    HW230843   3.245   1.005  13.579  0.2467 -3.4612  0.5849
 6462SOL     OW30844   4.300   3.190  11.389 -0.3830  0.1565 -0.2413
 6462SOL    HW130845   4.336   3.277  11.372  1.9149 -1.1701 -2.1762
 6462SOL    HW230846   4.380   3.142  11.409 -0.0369  0.3600 -1.1350
 6463SOL     OW30847   3.998   3.947  11.697  0.2005  0.4150 -0.6875
 6463SOL    HW130848   4.000   3.895  11.616 -1.1858 -0.9471  0.1416
 6463SOL    HW230849   4.092   3.953  11.714  0.2958 -0.7294 -0.7838
 6464SOL     OW30850   0.791   4.704   3.168  0.4253  0.1041 -0.4124
 6464SOL    HW130851   0.828   0.043   3.105 -3.0436  3.2028  0.6416
 6464SOL    HW230852   0.707   4.677   3.132  0.3764  0.0012 -0.2248
 6465SOL     OW30853   3.951   1.747   5.044 -0.2412  0.2558 -0.3636
 6465SOL    HW130854   4.015   1.809   5.007 -3.3198  2.7996 -1.5085
 6465SOL    HW230855   3.920   1.789   5.124  0.7862 -1.4672  0.9338
 6466SOL     OW30856   2.020   0.628   6.250 -0.1957  0.1717 -0.1933
 6466SOL    HW130857   2.089   0.692   6.267 -1.4858  0.7834  2.7824
 6466SOL    HW230858   1.948   0.683   6.221 -0.3119 -0.5167 -1.2104
 6467SOL     OW30859   2.519   3.885   4.053  0.3011 -0.3518 -0.5147
 6467SOL    HW130860   2.452   3.817   4.048 -1.2678  1.0920  1.0824
 6467SOL    HW230861   2.539   3.886   4.147  1.3960  0.4688 -0.7578
 6468SOL     OW30862   2.892   1.126   4.001  0.4913 -0.2919  0.0905
 6468SOL    HW130863   2.880   1.035   3.977 -0.1212 -0.5422  1.3437
 6468SOL    HW230864   2.987   1.136   3.989  0.6619 -1.8469  0.1825
 6469SOL     OW30865   2.513   2.093  11.625  0.0807 -0.2144 -0.0145
 6469SOL    HW130866   2.480   2.182  11.620 -0.2333 -0.3141  0.3008
 6469SOL    HW230867   2.440   2.050  11.581  0.6208 -1.2988  0.1200
 6470SOL     OW30868   1.334   2.617   6.972 -0.0441  0.1988 -0.5333
 6470SOL    HW130869   1.276   2.690   6.995 -1.8152 -1.9134  1.6810
 6470SOL    HW230870   1.390   2.643   6.899 -0.6339 -1.5119 -1.5810
 6471SOL     OW30871   0.790   2.934   6.582  0.1133  0.2948 -0.1264
 6471SOL    HW130872   0.853   2.888   6.638  0.9316 -1.3212 -2.3616
 6471SOL    HW230873   0.843   3.012   6.566 -0.9069  1.3797  1.8957
 6472SOL     OW30874   2.654   4.446  16.332  0.0852 -0.2337  0.2621
 6472SOL    HW130875   2.712   4.430  16.406 -0.9489 -1.3311  0.8477
 6472SOL    HW230876   2.662   4.357  16.296  1.4926 -0.8963  2.2168
 6473SOL     OW30877   0.896   2.435   2.931  0.0910 -0.9937 -0.2349
 6473SOL    HW130878   0.823   2.495   2.944  1.1507  0.1908  0.2918
 6473SOL    HW230879   0.856   2.364   2.881  0.6592 -1.6929  0.3047
 6474SOL     OW30880   3.818   2.010   6.761  0.0738 -0.2885 -0.2127
 6474SOL    HW130881   3.731   2.019   6.722 -0.9387 -1.9531  1.6616
 6474SOL    HW230882   3.795   2.029   6.852 -0.6972  2.6232 -0.9857
 6475SOL     OW30883   3.658   4.659   3.292  0.0373 -0.5736  0.1427
 6475SOL    HW130884   3.683   4.624   3.378  1.1491 -0.2671 -0.0654
 6475SOL    HW230885   3.686   4.589   3.233  0.7719  1.4619 -1.8900
 6476SOL     OW30886   0.737   3.345   2.282  0.0410  0.0479 -0.9295
 6476SOL    HW130887   0.677   3.285   2.237  1.7621 -0.3328 -2.7125
 6476SOL    HW230888   0.786   3.387   2.211 -0.3858 -0.1049 -1.3171
 6477SOL     OW30889   0.332   2.526   4.559 -0.1809  0.4061 -0.3395
 6477SOL    HW130890   0.347   2.488   4.473  1.1193  2.2755 -0.9450
 6477SOL    HW230891   0.393   2.600   4.557  1.0004 -0.5682  0.2906
 6478SOL     OW30892   2.494   0.011   8.880 -0.6610  0.3331 -0.2982
 6478SOL    HW130893   2.422   4.717   8.819  1.1012 -1.1379 -1.9759
 6478SOL    HW230894   2.534   0.095   8.854  0.1614  0.2574  0.7380
 6479SOL     OW30895   4.144   0.555   9.902 -0.5864  0.1615 -0.2657
 6479SOL    HW130896   4.222   0.517   9.944 -2.2039 -1.0250  1.6741
 6479SOL    HW230897   4.098   0.473   9.888 -0.2973 -0.0575  0.0495
 6480SOL     OW30898   3.047   4.521  14.747  0.2347 -0.0958 -0.3172
 6480SOL    HW130899   3.055   4.604  14.699  2.9204  0.0178  0.2971
 6480SOL    HW230900   3.089   4.469  14.678  0.2548  1.0476 -1.1843
 6481SOL     OW30901   0.245   0.930   9.072  0.4438 -0.5824  0.2599
 6481SOL    HW130902   0.150   0.942   9.075  0.1449 -2.6083 -1.5118
 6481SOL    HW230903   0.263   0.934   9.166  1.6775  0.5859 -0.0202
 6482SOL     OW30904   2.147   2.525  10.802  0.2627 -0.9890 -0.0360
 6482SOL    HW130905   2.131   2.590  10.871  0.3851 -0.9215 -0.0725
 6482SOL    HW230906   2.122   2.451  10.858  0.6382  0.0489  1.5175
 6483SOL     OW30907   3.851   3.355   8.022  0.2014 -0.4374 -0.6945
 6483SOL    HW130908   3.844   3.306   8.104 -0.3720  2.3613  0.9553
 6483SOL    HW230909   3.918   3.314   7.968  0.7494 -0.0426 -0.3136
 6484SOL     OW30910   4.709   4.266  13.176 -0.0100  0.0372 -0.5024
 6484SOL    HW130911   0.057   4.232  13.122 -0.8035 -1.7657 -0.3915
 6484SOL    HW230912   0.032   4.296  13.255  1.7924 -0.6291 -1.3081
 6485SOL     OW30913   3.822   4.622   5.756 -1.0066 -0.1399  0.4826
 6485SOL    HW130914   3.838   4.710   5.722 -0.6203  0.2940  1.7824
 6485SOL    HW230915   3.751   4.593   5.698 -1.4836 -0.9157  1.4658
 6486SOL     OW30916   0.011   4.713  10.901  0.1597 -0.7797 -0.2223
 6486SOL    HW130917   4.648   4.688  10.867  1.0996 -1.8395 -1.7899
 6486SOL    HW230918   0.022   4.640  10.962 -2.4892 -0.1889  0.9981
 6487SOL     OW30919   4.315   1.983   2.375  0.1401 -0.2338 -0.9972
 6487SOL    HW130920   4.341   1.901   2.333  1.4280 -0.4023  0.1109
 6487SOL    HW230921   4.368   1.985   2.455  0.0091  0.7243 -0.9349
 6488SOL     OW30922   3.756   3.501  15.355 -0.2491 -0.1146  0.1204
 6488SOL    HW130923   3.674   3.521  15.401 -1.0970 -1.1235 -0.9318
 6488SOL    HW230924   3.812   3.555  15.410 -1.8794  2.4506 -0.7490
 6489SOL     OW30925   0.183   0.812   6.374  0.3723  0.3822 -0.2824
 6489SOL    HW130926   0.140   0.843   6.295 -2.5057 -1.7946  0.4146
 6489SOL    HW230927   0.214   0.896   6.407 -0.3491  0.5854 -0.1414
 6490SOL     OW30928   0.575   1.321   7.154 -0.1246  0.1840  0.2074
 6490SOL    HW130929   0.567   1.409   7.117  1.3186  0.0134 -0.5277
 6490SOL    HW230930   0.664   1.304   7.124  0.1538 -1.2395  1.8329
 6491SOL     OW30931   1.220   3.514   4.089  0.1920  0.0951  0.0564
 6491SOL    HW130932   1.141   3.481   4.046  0.2604 -0.4939  0.3775
 6491SOL    HW230933   1.287   3.468   4.038  0.9314  2.5828 -1.2223
 6492SOL     OW30934   0.965   0.128   1.237  0.3024 -0.1948 -0.0018
 6492SOL    HW130935   1.042   0.135   1.181  2.1305  0.2136  2.5761
 6492SOL    HW230936   0.939   0.045   1.196 -0.5797 -0.8405  1.8940
 6493SOL     OW30937   0.835   2.906   9.997  0.1638 -0.9270  0.1888
 6493SOL    HW130938   0.796   2.987  10.029  0.3746 -0.7072 -0.1010
 6493SOL    HW230939   0.921   2.909  10.038  1.0101  1.3927 -1.7232
 6494SOL     OW30940   1.901   4.608   7.153  0.6150 -0.2629  0.4809
 6494SOL    HW130941   1.885   4.702   7.150 -0.5470 -0.4864 -0.4104
 6494SOL    HW230942   1.997   4.603   7.147  0.4395 -1.4357 -1.3546
 6495SOL     OW30943   4.532   0.762  13.796 -0.0217 -0.1374  0.0484
 6495SOL    HW130944   4.506   0.835  13.740 -0.2492 -1.3091 -1.3694
 6495SOL    HW230945   4.463   0.703  13.767 -0.0119 -0.0821 -0.0864
 6496SOL     OW30946   0.253   2.388   5.744  0.2942 -0.5933  0.6182
 6496SOL    HW130947   0.273   2.295   5.733  2.1256 -0.0902 -0.3642
 6496SOL    HW230948   0.204   2.383   5.826  0.8838  1.2415  1.0811
 6497SOL     OW30949   0.246   1.831   7.303  0.4561 -0.3324 -0.3110
 6497SOL    HW130950   0.242   1.745   7.345 -0.0336 -0.9201 -1.5541
 6497SOL    HW230951   0.260   1.890   7.377 -2.0429 -0.3849  0.1829
 6498SOL     OW30952   1.599   3.873   7.808  0.8169 -0.5674 -0.2410
 6498SOL    HW130953   1.694   3.859   7.804  0.6475 -1.9946  0.8606
 6498SOL    HW230954   1.589   3.890   7.714 -1.2305  1.5732  0.3803
 6499SOL     OW30955   3.123   1.721  16.310 -0.0233 -0.3681 -0.5503
 6499SOL    HW130956   3.153   1.660  16.242 -3.4222 -0.9952 -1.5053
 6499SOL    HW230957   3.030   1.700  16.301 -0.7296  1.8334  1.5051
 6500SOL     OW30958   3.274   2.524   4.287 -0.3873 -0.0186 -0.4887
 6500SOL    HW130959   3.326   2.501   4.209 -1.0381  1.6695 -1.4137
 6500SOL    HW230960   3.317   2.604   4.315  2.2683 -1.5901 -0.0446
 6501SOL     OW30961   1.444   0.380  13.488 -0.2140 -0.3552  0.4446
 6501SOL    HW130962   1.451   0.425  13.572 -1.3413  1.2170 -0.3157
 6501SOL    HW230963   1.490   0.299  13.514 -1.9751 -0.8527  1.9983
 6502SOL     OW30964   3.770   1.989   7.316 -0.0985  0.3370 -0.5432
 6502SOL    HW130965   3.689   2.023   7.353  0.8621  2.3596 -0.2432
 6502SOL    HW230966   3.779   1.913   7.373 -0.2343 -1.4063 -2.8344
 6503SOL     OW30967   2.146   1.288   8.194 -0.1518  0.3258 -0.8637
 6503SOL    HW130968   2.116   1.234   8.121  1.2655 -0.4957 -0.8386
 6503SOL    HW230969   2.196   1.233   8.254 -0.3489  1.9828  0.8393
 6504SOL     OW30970   1.732   0.489   4.774  0.0320  0.0310  0.5275
 6504SOL    HW130971   1.794   0.537   4.720  0.6078 -2.6265 -1.1775
 6504SOL    HW230972   1.687   0.435   4.709  0.7346 -0.7938  0.7234
 6505SOL     OW30973   1.446   4.308   6.300 -0.1619 -0.6639 -0.5519
 6505SOL    HW130974   1.505   4.251   6.252  0.1778 -1.1663  0.4715
 6505SOL    HW230975   1.387   4.245   6.342 -1.0983  0.7805  0.3199
 6506SOL     OW30976   3.116   4.264  11.053  0.2951  0.0848  0.4666
 6506SOL    HW130977   3.172   4.275  11.130 -1.2222  1.5562  1.3501
 6506SOL    HW230978   3.168   4.197  11.009  2.0878  0.2701  2.3189
 6507SOL     OW30979   0.321   3.657   4.808 -0.0047  0.3667 -0.2085
 6507SOL    HW130980   0.246   3.654   4.868 -0.9347 -1.1699 -1.4715
 6507SOL    HW230981   0.294   3.726   4.748 -3.1390 -1.7138 -1.1828
 6508SOL     OW30982   3.550   4.286  16.531  0.1655 -0.4197 -0.0213
 6508SOL    HW130983   3.599   4.358  16.573  1.0150  0.3728 -2.3557
 6508SOL    HW230984   3.470   4.328  16.500  0.9909 -0.0959 -1.7521
 6509SOL     OW30985   4.333   2.687   7.619  0.5513  0.5983  0.3540
 6509SOL    HW130986   4.333   2.735   7.536 -1.9536  0.7562  0.4372
 6509SOL    HW230987   4.328   2.595   7.594 -2.4146  0.3709  1.7539
 6510SOL     OW30988   1.633   1.119   4.050 -0.1033 -0.2085 -0.1412
 6510SOL    HW130989   1.581   1.141   3.972 -0.2625  1.2308  0.3591
 6510SOL    HW230990   1.594   1.177   4.115  2.1070 -0.5771  1.4965
 6511SOL     OW30991   3.959   0.408   4.153  0.4544  0.3267 -0.0662
 6511SOL    HW130992   3.920   0.405   4.065 -0.2012 -0.1938  0.2437
 6511SOL    HW230993   3.875   0.396   4.197 -0.0594  0.1381 -1.0905
 6512SOL     OW30994   0.295   0.455   3.498 -0.1047  0.1195 -0.0419
 6512SOL    HW130995   0.352   0.500   3.561  0.1741 -0.6944  0.2936
 6512SOL    HW230996   0.243   0.533   3.483  0.7386  0.8629  0.8674
 6513SOL     OW30997   4.335   2.402   7.611 -0.0701 -0.4750  0.0366
 6513SOL    HW130998   4.249   2.399   7.571 -0.1684  0.1257  0.2117
 6513SOL    HW230999   4.314   2.342   7.683 -1.2051 -0.5615 -0.3681
 6514SOL     OW31000   3.032   3.054   5.153  0.2894 -0.0015 -0.2045
 6514SOL    HW131001   3.104   2.998   5.182 -1.7986 -1.7706  1.6550
 6514SOL    HW231002   3.056   3.060   5.061 -0.2808  0.0614 -0.3506
 6515SOL     OW31003   2.226   3.918  12.295 -0.5969 -0.0346 -0.3859
 6515SOL    HW131004   2.178   3.931  12.214 -0.7039  0.5376 -0.2264
 6515SOL    HW231005   2.312   3.928  12.254  0.0062 -0.1173  0.8560
 6516SOL     OW31006   0.441   0.305   8.405 -0.3748  0.1187  0.2553
 6516SOL    HW131007   0.382   0.350   8.345  1.6184  1.4723 -0.6759
 6516SOL    HW231008   0.436   0.369   8.476 -2.1568  1.8842 -1.4671
 6517SOL     OW31009   0.694   1.498  16.665  0.3256  0.4138 -0.6206
 6517SOL    HW131010   0.735   1.437  16.604 -1.4497 -2.0148  0.6645
 6517SOL    HW231011   0.642   1.431  16.707  3.4126 -1.5835  0.0454
 6518SOL     OW31012   2.737   4.382   6.597  0.5892  0.1930 -0.5030
 6518SOL    HW131013   2.808   4.318   6.588 -1.0133 -1.2484 -2.8038
 6518SOL    HW231014   2.709   4.356   6.685  0.6832  3.4150  0.5020
 6519SOL     OW31015   0.044   1.835   5.527 -0.0985 -0.1351 -0.2902
 6519SOL    HW131016   4.691   1.853   5.582  0.4068  0.1789  0.3090
 6519SOL    HW231017   0.003   1.838   5.440 -1.3542  1.1008  0.3522
 6520SOL     OW31018   0.258   3.722   3.676 -0.5803  0.1832  0.6399
 6520SOL    HW131019   0.251   3.675   3.760 -0.3805  0.2067  0.6690
 6520SOL    HW231020   0.299   3.806   3.694  0.5095 -0.3360  0.5646
 6521SOL     OW31021   4.606   0.001  12.321  0.3223  0.6494 -0.4786
 6521SOL    HW131022   4.631   4.676  12.400  1.6094  1.7960 -0.1790
 6521SOL    HW231023   4.674   4.698  12.258 -0.0972  0.6823 -0.9410
 6522SOL     OW31024   2.002   0.943   7.853 -0.1701 -0.3456  0.1461
 6522SOL    HW131025   2.078   0.953   7.910 -0.8027 -2.3402  1.3639
 6522SOL    HW231026   2.022   0.860   7.809  0.0620  0.8723 -2.0513
 6523SOL     OW31027   2.611   0.632   6.497  0.1205 -0.1121 -0.4043
 6523SOL    HW131028   2.608   0.715   6.545  0.5305  0.0863 -0.7182
 6523SOL    HW231029   2.663   0.589   6.565 -1.4042  0.5661  1.1822
 6524SOL     OW31030   1.880   2.703   2.651  0.3608  0.4968  0.5272
 6524SOL    HW131031   1.812   2.697   2.584 -0.6353 -0.7977  1.6557
 6524SOL    HW231032   1.938   2.761   2.603  1.6689  0.3544  1.9249
 6525SOL     OW31033   2.742   1.354  14.197  0.1299 -0.4163  0.0485
 6525SOL    HW131034   2.760   1.445  14.219 -1.6396  0.2882 -1.3252
 6525SOL    HW231035   2.673   1.333  14.260  2.7146 -2.6316  2.1500
 6526SOL     OW31036   3.432   1.916   9.662  0.3702 -0.2762 -0.3238
 6526SOL    HW131037   3.419   1.829   9.699 -0.7321 -0.0982 -0.3034
 6526SOL    HW231038   3.374   1.929   9.587 -3.0299 -1.9484  2.0407
 6527SOL     OW31039   3.456   4.403   8.104  0.2416 -0.0950 -0.1315
 6527SOL    HW131040   3.487   4.406   8.014 -1.2324  0.7432 -0.6118
 6527SOL    HW231041   3.532   4.438   8.152  2.1633 -1.7514 -1.9902
 6528SOL     OW31042   3.881   0.084   4.733 -0.9856  0.3110  0.2452
 6528SOL    HW131043   3.818   0.021   4.699 -0.8087 -0.2400  0.9298
 6528SOL    HW231044   3.825   0.152   4.769 -1.3833  0.7828 -1.2964
 6529SOL     OW31045   4.397   0.242   2.467 -0.4406  0.1330  0.6430
 6529SOL    HW131046   4.429   0.206   2.384  1.1417  1.2851  0.7401
 6529SOL    HW231047   4.393   0.157   2.510  1.0316  0.8351  2.1813
 6530SOL     OW31048   1.234   3.111  11.969  0.4764 -0.1002 -0.4627
 6530SOL    HW131049   1.173   3.163  12.021  0.8142  0.8389 -1.0136
 6530SOL    HW231050   1.300   3.085  12.034 -1.7680  0.4793  2.0426
 6531SOL     OW31051   0.910   0.790   5.823  1.1307  0.3662  0.5851
 6531SOL    HW131052   0.909   0.755   5.912  0.4015 -0.0481  0.4059
 6531SOL    HW231053   1.006   0.789   5.825  1.1479 -0.3328 -0.6701
 6532SOL     OW31054   3.171   4.644   5.430 -0.0893  0.3999 -0.1321
 6532SOL    HW131055   3.209   4.649   5.518  0.0716 -0.2964 -0.1654
 6532SOL    HW231056   3.093   4.700   5.428 -1.4884 -1.4955  0.9095
 6533SOL     OW31057   1.527   2.190   9.320  0.0455  0.0900 -0.2626
 6533SOL    HW131058   1.540   2.242   9.241 -0.9352  1.6143  0.5778
 6533SOL    HW231059   1.549   2.255   9.388  0.6366  1.2947 -1.6133
 6534SOL     OW31060   1.829   0.571   5.955  0.3788  0.1470  0.0199
 6534SOL    HW131061   1.792   0.501   6.008 -0.0331  0.0739 -0.3624
 6534SOL    HW231062   1.904   0.533   5.911 -2.5679 -0.7557 -4.2063
 6535SOL     OW31063   3.439   0.150  11.922  0.4216  0.0237 -0.5431
 6535SOL    HW131064   3.443   0.160  12.017 -2.5630 -1.6184 -0.2518
 6535SOL    HW231065   3.398   0.234  11.903  0.5494 -0.3115 -2.3286
 6536SOL     OW31066   1.017   0.148   6.578  0.0245 -0.1345  0.3610
 6536SOL    HW131067   0.976   0.188   6.502 -0.6206 -0.8782  0.3174
 6536SOL    HW231068   1.051   0.067   6.541 -2.1115 -1.0526  0.4278
 6537SOL     OW31069   2.958   4.195  11.374 -0.0244  0.2334 -0.0998
 6537SOL    HW131070   2.907   4.144  11.311 -1.0489  0.1886  0.7720
 6537SOL    HW231071   2.893   4.200  11.443  0.0788  1.0148 -0.0639
 6538SOL     OW31072   3.704   1.069   5.188  0.3684  0.5602 -0.6936
 6538SOL    HW131073   3.790   1.033   5.212  0.4027  0.2705 -1.2479
 6538SOL    HW231074   3.714   1.157   5.224 -1.3447  0.8583 -0.9626
 6539SOL     OW31075   4.214   4.064   0.203 -0.0729 -0.1588  0.1170
 6539SOL    HW131076   4.222   3.992   0.266  1.3774 -0.4313 -0.3776
 6539SOL    HW231077   4.139   4.104   0.246 -0.1829 -0.6681  0.4005
 6540SOL     OW31078   4.102   1.255  11.660 -0.5164  0.6158 -0.4835
 6540SOL    HW131079   4.095   1.349  11.643 -3.1213  0.1293 -2.1271
 6540SOL    HW231080   4.191   1.249  11.694 -1.0316  2.2817  1.1488
 6541SOL     OW31081   2.572   0.402  12.030  0.4939  0.7378 -0.3217
 6541SOL    HW131082   2.647   0.375  11.976  1.2194  0.4696  0.8150
 6541SOL    HW231083   2.587   0.350  12.109 -3.2187 -1.4398 -1.0556
 6542SOL     OW31084   2.301   1.933   6.137  0.4239  0.7079  0.0852
 6542SOL    HW131085   2.213   1.897   6.147  0.2745  1.4813  1.6292
 6542SOL    HW231086   2.283   2.027   6.146 -0.1434  0.4262  1.9024
 6543SOL     OW31087   2.125   3.824  11.114  0.0949  0.2011 -0.5490
 6543SOL    HW131088   2.123   3.730  11.100 -0.1169 -0.0450  1.1553
 6543SOL    HW231089   2.220   3.831  11.126  0.0145 -1.8441  1.2392
 6544SOL     OW31090   3.437   4.164  15.187  0.6843 -0.2782  0.3000
 6544SOL    HW131091   3.423   4.093  15.125 -1.6383  0.1557  0.3426
 6544SOL    HW231092   3.389   4.128  15.262 -1.3027  0.9329 -0.3806
 6545SOL     OW31093   2.501   1.482  14.331  0.3604 -0.5470  0.1479
 6545SOL    HW131094   2.413   1.501  14.364  1.2163  1.1161  1.4757
 6545SOL    HW231095   2.553   1.554  14.368 -0.3861  1.1035 -1.9901
 6546SOL     OW31096   1.633   1.328   8.800  0.4916  0.0006 -0.4363
 6546SOL    HW131097   1.662   1.251   8.752  1.6769 -0.1268  0.4903
 6546SOL    HW231098   1.702   1.336   8.866  1.3476  0.9032 -1.4332
 6547SOL     OW31099   4.061   0.505   8.484 -0.1544  0.6124  0.8894
 6547SOL    HW131100   4.072   0.410   8.475  2.3787  0.9816 -0.0549
 6547SOL    HW231101   4.051   0.539   8.395  0.6309 -2.2245 -0.2713
 6548SOL     OW31102   4.130   1.681   1.584 -0.4105  0.2699  0.2941
 6548SOL    HW131103   4.038   1.708   1.582 -0.0891  1.3554  0.4206
 6548SOL    HW231104   4.175   1.757   1.549  0.4074 -0.8924 -1.2099
 6549SOL     OW31105   0.056   3.571  10.099  0.4999 -0.1749  0.7215
 6549SOL    HW131106   0.015   3.486  10.082 -1.6506  1.1290 -0.5364
 6549SOL    HW231107   0.049   3.626  10.022 -3.1468  1.2141  2.0583
 6550SOL     OW31108   4.447   3.255  15.336 -0.2274 -0.1604 -0.3387
 6550SOL    HW131109   4.433   3.176  15.387  3.3580 -1.0619 -0.7317
 6550SOL    HW231110   4.501   3.311  15.393 -1.8101  0.2389  0.7454
 6551SOL     OW31111   2.583   3.894   5.247 -0.3569 -0.5972  1.0450
 6551SOL    HW131112   2.624   3.957   5.187 -0.6235 -2.2923 -0.9058
 6551SOL    HW231113   2.652   3.827   5.252 -0.0642 -0.4355 -0.8052
 6552SOL     OW31114   1.707   4.060  11.059 -0.2367 -0.7833 -0.6291
 6552SOL    HW131115   1.732   4.139  11.011  0.9319 -1.7932 -1.6838
 6552SOL    HW231116   1.616   4.050  11.032 -0.3685  2.1699 -1.2331
 6553SOL     OW31117   4.621   3.359   5.422 -0.5281  0.1822 -0.1801
 6553SOL    HW131118   4.583   3.291   5.478 -0.5830 -0.1797 -0.6550
 6553SOL    HW231119   4.711   3.333   5.401 -0.3490  1.6685 -1.2736
 6554SOL     OW31120   4.357   2.582   6.565 -0.4128 -0.1362  0.0826
 6554SOL    HW131121   4.290   2.532   6.518 -0.6554 -1.2929  1.6467
 6554SOL    HW231122   4.323   2.566   6.653 -0.7456  0.2091  0.0159
 6555SOL     OW31123   1.420   1.160  16.531 -0.2662 -0.5756  0.6240
 6555SOL    HW131124   1.367   1.096  16.485 -0.3610 -0.7355  0.9568
 6555SOL    HW231125   1.422   1.129  16.622  0.5666 -1.4946  0.2870
 6556SOL     OW31126   4.554   3.620  16.891  0.4169  0.6136  0.5174
 6556SOL    HW131127   4.602   3.701  16.874  1.9710 -0.9695 -2.6676
 6556SOL    HW231128   4.536   3.636  16.984 -0.3791 -1.3544  0.7052
 6557SOL     OW31129   2.268   0.153   8.471  0.2582  0.4376  0.3097
 6557SOL    HW131130   2.199   0.091   8.496  0.9739 -0.0914  0.9784
 6557SOL    HW231131   2.338   0.088   8.469 -1.7165 -1.7508  2.1014
 6558SOL     OW31132   1.465   1.263   8.140 -0.0566 -0.6272 -0.1146
 6558SOL    HW131133   1.453   1.283   8.233 -1.5635 -2.0949  0.0120
 6558SOL    HW231134   1.381   1.297   8.109  0.9060  1.1963 -0.7584
 6559SOL     OW31135   3.163   0.406   3.550  0.4585 -0.0241 -0.6724
 6559SOL    HW131136   3.123   0.354   3.620  0.8109  0.6438  0.0263
 6559SOL    HW231137   3.244   0.362   3.525 -0.3147 -1.6330 -0.2916
 6560SOL     OW31138   0.394   3.186   1.559  0.4042 -0.4440 -0.2353
 6560SOL    HW131139   0.334   3.256   1.584 -2.2185 -2.3228 -1.2673
 6560SOL    HW231140   0.462   3.237   1.514 -0.0650  0.9505  0.6152
 6561SOL     OW31141   3.892   1.414  13.583  0.2162 -0.5762  0.1791
 6561SOL    HW131142   3.848   1.488  13.625 -0.6471 -1.1339  0.2348
 6561SOL    HW231143   3.825   1.393  13.518  1.9769  0.6864 -2.0545
 6562SOL     OW31144   0.159   1.928   7.683 -0.1663 -0.0158 -0.3799
 6562SOL    HW131145   0.155   2.005   7.740  0.6911 -0.7033  0.5993
 6562SOL    HW231146   0.211   1.952   7.607 -1.0171  3.9836  0.3137
 6563SOL     OW31147   2.960   2.594   7.039  0.0940  0.1840  0.1470
 6563SOL    HW131148   2.971   2.523   7.103 -1.1032 -1.4242 -1.4239
 6563SOL    HW231149   2.985   2.667   7.096 -0.4385  2.7319 -2.8909
 6564SOL     OW31150   2.730   2.036  14.340 -0.3594 -0.9518  0.0692
 6564SOL    HW131151   2.690   2.097  14.402  1.4450 -0.4912  0.7896
 6564SOL    HW231152   2.719   2.097  14.267 -2.0923 -0.6750  0.5661
 6565SOL     OW31153   2.155   2.338   0.344 -0.4142 -0.2881 -1.0660
 6565SOL    HW131154   2.139   2.290   0.263  0.3691 -2.1085 -0.1292
 6565SOL    HW231155   2.209   2.277   0.395  0.5592  2.1292  0.8106
 6566SOL     OW31156   2.771   4.533   9.328  0.0235 -0.2537  0.5194
 6566SOL    HW131157   2.705   4.551   9.260 -0.0484 -0.7857  0.4523
 6566SOL    HW231158   2.757   4.440   9.344  3.2773 -0.8734 -0.1880
 6567SOL     OW31159   3.816   0.373  10.093  0.0266  0.2339  0.0629
 6567SOL    HW131160   3.749   0.305  10.098  1.1053 -0.9461 -1.2621
 6567SOL    HW231161   3.885   0.328  10.044 -0.0523  1.0965 -0.8409
 6568SOL     OW31162   0.004   3.819   8.610 -0.2820 -0.1267 -0.2624
 6568SOL    HW131163   4.652   3.845   8.557  0.4222  2.2357 -0.1204
 6568SOL    HW231164   4.722   3.729   8.581 -2.5248 -0.1429  0.1809
 6569SOL     OW31165   2.130   3.664  14.580  0.1662  0.3418 -0.2937
 6569SOL    HW131166   2.103   3.638  14.492  1.5291 -0.2096 -0.5442
 6569SOL    HW231167   2.087   3.593  14.627  0.0870  1.3763  1.1771
 6570SOL     OW31168   2.180   2.683   3.647 -0.0461 -0.3166 -0.0327
 6570SOL    HW131169   2.135   2.676   3.563 -0.6930 -2.2805  0.4684
 6570SOL    HW231170   2.120   2.748   3.683 -0.8060  0.1748 -2.1844
 6571SOL     OW31171   0.884   3.072  14.583  0.1126  0.1082 -0.1154
 6571SOL    HW131172   0.861   2.993  14.632 -1.9995  1.9194  1.7993
 6571SOL    HW231173   0.895   3.126  14.662  1.9240  0.5753 -0.6798
 6572SOL     OW31174   0.172   4.377   5.432  0.7437 -0.6346  0.3357
 6572SOL    HW131175   0.095   4.326   5.407  0.2273  1.0385 -1.4947
 6572SOL    HW231176   0.137   4.442   5.493 -0.4632  0.0957 -1.1345
 6573SOL     OW31177   1.765   3.115   3.877 -0.6812 -0.2693 -0.3414
 6573SOL    HW131178   1.765   3.064   3.796 -0.2618 -0.3937 -0.2634
 6573SOL    HW231179   1.857   3.138   3.882 -1.1120  1.0673  1.6392
 6574SOL     OW31180   0.949   4.073   2.965 -0.2845 -0.3050 -0.1191
 6574SOL    HW131181   0.961   3.995   3.019  1.1213  0.3271  0.4785
 6574SOL    HW231182   0.937   4.029   2.881  0.7896 -0.5420 -0.1404
 6575SOL     OW31183   2.067   0.406   3.021  0.1050  0.0465  0.1572
 6575SOL    HW131184   2.047   0.436   2.933  1.6757  0.9177  0.1088
 6575SOL    HW231185   1.995   0.344   3.035 -1.5748  1.7172 -1.0197
 6576SOL     OW31186   0.699   2.530   8.483 -0.4582 -0.7611  0.1691
 6576SOL    HW131187   0.791   2.556   8.476 -0.5847  0.1031  1.7723
 6576SOL    HW231188   0.664   2.610   8.522  1.2244 -0.4944  1.1119
 6577SOL     OW31189   4.463   0.541   4.345  0.3516  0.1119 -0.0260
 6577SOL    HW131190   4.555   0.567   4.337 -0.1107  1.7396  0.0408
 6577SOL    HW231191   4.453   0.495   4.428  1.1574 -1.9695 -1.0899
 6578SOL     OW31192   4.486   1.848  15.024  0.0875  0.0444  0.3004
 6578SOL    HW131193   4.478   1.897  14.942 -0.0039 -1.8639 -0.8296
 6578SOL    HW231194   4.504   1.930  15.070  0.3886 -1.1768  2.3389
 6579SOL     OW31195   0.399   4.273   2.058  0.6718 -0.0071 -0.5730
 6579SOL    HW131196   0.315   4.244   2.094  0.2555 -0.7564 -2.1914
 6579SOL    HW231197   0.460   4.204   2.085 -0.2708 -0.6436 -0.0931
 6580SOL     OW31198   1.849   4.399   7.364 -0.1228 -0.4757  0.7065
 6580SOL    HW131199   1.757   4.380   7.343 -0.0456 -0.6343  0.5111
 6580SOL    HW231200   1.881   4.467   7.305 -0.6581 -0.6654  0.1962
 6581SOL     OW31201   1.409   4.646   2.023 -0.3550  0.1747  0.1229
 6581SOL    HW131202   1.450   4.720   2.068  2.5977 -0.2473 -1.8803
 6581SOL    HW231203   1.462   4.640   1.944 -1.4592 -0.2840 -0.5819
 6582SOL     OW31204   0.946   3.081   1.605  0.0538 -0.1957  0.0152
 6582SOL    HW131205   0.951   2.992   1.639  1.2962 -0.2226 -0.2265
 6582SOL    HW231206   0.925   3.136   1.680 -0.4002 -2.1726  1.3563
 6583SOL     OW31207   0.570   4.465   1.121  0.2234 -0.2937 -0.0553
 6583SOL    HW131208   0.603   4.415   1.047  2.2105  2.5789 -1.0980
 6583SOL    HW231209   0.485   4.498   1.092  1.0271  2.1761  0.4033
 6584SOL     OW31210   0.358   2.532  14.856  0.8742 -0.9577 -0.1837
 6584SOL    HW131211   0.376   2.512  14.764  0.4579  0.2261 -0.5218
 6584SOL    HW231212   0.374   2.626  14.851 -0.6066 -0.6598  0.8924
 6585SOL     OW31213   2.394   0.412  12.619  0.4701  0.0135  0.6842
 6585SOL    HW131214   2.386   0.417  12.714 -0.7702 -1.1718  0.6384
 6585SOL    HW231215   2.488   0.430  12.620  0.2384  1.2342  0.7328
 6586SOL     OW31216   3.920   2.992  10.170 -0.6152  0.1343  0.0143
 6586SOL    HW131217   3.990   3.047  10.135 -0.5086  1.2307  1.9383
 6586SOL    HW231218   3.887   3.052  10.237 -0.3825  0.5476 -0.2449
 6587SOL     OW31219   4.655   3.498   1.729 -0.0329 -0.1609 -0.5035
 6587SOL    HW131220   4.635   3.591   1.716  1.2180  0.1787  0.0164
 6587SOL    HW231221   4.662   3.503   1.824  0.1862 -1.5428 -0.4540
 6588SOL     OW31222   3.298   0.369  11.897 -0.2666  0.0782 -0.5322
 6588SOL    HW131223   3.347   0.448  11.919 -0.6847  0.9584 -2.7133
 6588SOL    HW231224   3.227   0.408  11.845  1.3137 -0.1839 -2.8572
 6589SOL     OW31225   0.478   4.056   4.685  0.5646  0.1669 -0.0098
 6589SOL    HW131226   0.546   4.120   4.706  2.8400 -1.0025 -3.8279
 6589SOL    HW231227   0.450   4.034   4.774  2.8242 -2.6830 -0.0017
 6590SOL     OW31228   1.187   0.216   8.724 -0.1194 -0.0070 -0.2065
 6590SOL    HW131229   1.144   0.301   8.736  2.9974  1.4274  0.7613
 6590SOL    HW231230   1.220   0.212   8.813 -0.1053  1.3741 -0.1582
 6591SOL     OW31231   2.953   2.435  16.216 -0.6694  0.6102 -0.3438
 6591SOL    HW131232   3.032   2.412  16.167 -1.1464 -1.0649 -0.3410
 6591SOL    HW231233   2.937   2.525  16.189 -0.3233  1.4938  2.4311
 6592SOL     OW31234   2.488   2.445   1.872 -0.1596 -0.0676 -0.0791
 6592SOL    HW131235   2.396   2.420   1.869 -0.1448 -0.1748  0.3791
 6592SOL    HW231236   2.517   2.386   1.802 -1.2100 -1.9925  1.1105
 6593SOL     OW31237   0.857   1.726   5.507 -0.1261 -0.3484  0.1013
 6593SOL    HW131238   0.761   1.733   5.503 -0.0694  1.4475  1.8719
 6593SOL    HW231239   0.884   1.688   5.424  2.0690 -0.1865  0.7453
 6594SOL     OW31240   3.487   1.823   5.078  0.0322  0.3540 -0.3830
 6594SOL    HW131241   3.500   1.755   5.144  0.6601 -0.0463 -0.9269
 6594SOL    HW231242   3.394   1.846   5.083  0.0017  0.3226 -0.8373
 6595SOL     OW31243   2.741   0.814  12.233  0.3868  0.2668 -0.0445
 6595SOL    HW131244   2.819   0.762  12.217 -0.8606 -1.2706 -1.0905
 6595SOL    HW231245   2.713   0.769  12.312 -1.5577  0.0806 -0.8281
 6596SOL     OW31246   1.694   0.369   6.098 -0.2674 -0.2665 -0.2478
 6596SOL    HW131247   1.733   0.325   6.174 -0.6600 -1.1480 -0.5567
 6596SOL    HW231248   1.633   0.298   6.079 -1.1170  0.1873  0.7969
 6597SOL     OW31249   2.346   4.509   5.738 -0.6114 -1.2772 -0.6428
 6597SOL    HW131250   2.350   4.526   5.644 -0.2033  1.3459 -0.1652
 6597SOL    HW231251   2.416   4.444   5.747  0.7714  0.2264 -0.3736
 6598SOL     OW31252   4.025   2.346   8.340 -0.5238 -0.0565 -0.0917
 6598SOL    HW131253   4.068   2.272   8.382  0.1899  0.8473  0.7667
 6598SOL    HW231254   3.938   2.311   8.323 -0.7675  0.9713 -1.0036
 6599SOL     OW31255   3.409   1.630   3.973  0.4574  0.1443  0.3453
 6599SOL    HW131256   3.326   1.630   4.021 -0.6166  1.7389 -1.4988
 6599SOL    HW231257   3.391   1.558   3.912 -1.5172 -1.0350  2.3070
 6600SOL     OW31258   2.754   3.836  17.493  0.3405 -0.2765  0.4136
 6600SOL    HW131259   2.714   3.751  17.478  1.9903 -0.8603 -0.6052
 6600SOL    HW231260   2.820   3.832  17.424 -0.0880 -6.3216  0.3412
 6601SOL     OW31261   4.156   2.470   5.878 -0.0139  0.2227 -0.8741
 6601SOL    HW131262   4.115   2.522   5.809  1.6048  0.5040 -1.6194
 6601SOL    HW231263   4.190   2.540   5.934  0.1681 -1.6579  1.3811
 6602SOL     OW31264   3.888   2.539  11.293 -0.6464  0.5771 -0.6424
 6602SOL    HW131265   3.816   2.543  11.229 -0.9954  0.6887 -0.2396
 6602SOL    HW231266   3.859   2.601  11.360  0.8666  0.2546  0.2912
 6603SOL     OW31267   1.325   1.077   6.500 -0.0361 -0.0353  0.4649
 6603SOL    HW131268   1.376   1.111   6.427  0.7769 -0.3636  0.8778
 6603SOL    HW231269   1.398   1.036   6.547 -1.6722  1.0674  3.9721
 6604SOL     OW31270   1.930   2.915   7.326  0.0260 -0.4926 -0.3280
 6604SOL    HW131271   1.977   2.945   7.404  0.1341  0.7061 -0.8558
 6604SOL    HW231272   2.008   2.875   7.288  0.9569  1.0720 -0.0519
 6605SOL     OW31273   2.540   0.364  13.270  0.1698 -0.1088  0.0967
 6605SOL    HW131274   2.533   0.385  13.363 -0.1665  0.4315 -0.0542
 6605SOL    HW231275   2.563   0.448  13.229  1.5984 -0.7903 -0.5351
 6606SOL     OW31276   0.858   4.300   0.484 -0.5369 -0.7504  0.2153
 6606SOL    HW131277   0.767   4.318   0.463  0.2135  1.4308 -1.1356
 6606SOL    HW231278   0.866   4.325   0.576 -1.4984 -2.1001  0.6612
 6607SOL     OW31279   2.415   3.213   6.320  0.2653  0.0895 -0.2762
 6607SOL    HW131280   2.480   3.164   6.370  0.8100  1.7324  0.6353
 6607SOL    HW231281   2.331   3.177   6.349  0.1764  1.0821  0.7171
 6608SOL     OW31282   3.215   2.776   2.786  0.1915 -0.3843  0.0064
 6608SOL    HW131283   3.297   2.738   2.757 -0.5988 -1.4031 -0.9026
 6608SOL    HW231284   3.166   2.763   2.704  0.2764 -2.3244  0.2825
 6609SOL     OW31285   4.668   2.789   5.849 -0.5477  0.5510  0.3104
 6609SOL    HW131286   0.010   2.854   5.824 -0.6503  1.1344  1.5804
 6609SOL    HW231287   4.659   2.734   5.771  0.3286 -0.4054  0.8852
 6610SOL     OW31288   2.915   0.579   6.065 -0.3714 -0.6254 -0.1365
 6610SOL    HW131289   2.883   0.581   6.155  0.3494 -0.3791  0.1208
 6610SOL    HW231290   2.894   0.491   6.035 -0.5175 -0.8921  0.7443
 6611SOL     OW31291   2.112   4.042   3.495 -0.0243 -0.6835 -0.1606
 6611SOL    HW131292   2.157   3.971   3.449 -0.8302 -0.6035 -1.0797
 6611SOL    HW231293   2.091   4.005   3.581 -1.2160  0.3957  0.0197
 6612SOL     OW31294   4.351   0.204   7.416  0.7257 -0.4427  0.3137
 6612SOL    HW131295   4.280   0.146   7.387  0.6991 -0.1506 -0.2109
 6612SOL    HW231296   4.306   0.289   7.417 -3.4831 -2.6305 -0.2043
 6613SOL     OW31297   2.769   4.578   0.185 -0.5545 -0.6802 -0.6895
 6613SOL    HW131298   2.851   4.539   0.154  0.4664  1.6549 -0.9183
 6613SOL    HW231299   2.713   4.511   0.145 -1.2907  0.6946 -1.9725
 6614SOL     OW31300   3.514   3.782  14.325 -0.3389 -0.3901 -0.2677
 6614SOL    HW131301   3.525   3.839  14.401 -0.5893 -0.1515 -0.4103
 6614SOL    HW231302   3.587   3.800  14.264  0.2387 -0.0322  0.5356
 6615SOL     OW31303   3.393   1.481   6.892 -0.3877 -0.0944 -0.2549
 6615SOL    HW131304   3.376   1.462   6.984 -2.6135 -0.5849 -0.7610
 6615SOL    HW231305   3.347   1.563   6.876 -1.5476 -0.6449  0.2840
 6616SOL     OW31306   3.179   4.645   6.083  0.2904  0.1247  0.5625
 6616SOL    HW131307   3.247   4.618   6.145 -0.5386 -0.9133  1.0077
 6616SOL    HW231308   3.232   4.689   6.017  0.5160 -0.9019  0.0691
 6617SOL     OW31309   1.263   1.257   2.409 -0.4399 -0.0317  0.0192
 6617SOL    HW131310   1.281   1.336   2.460 -1.5269  0.3270 -0.1598
 6617SOL    HW231311   1.170   1.261   2.388 -0.9533 -2.0407  1.9718
 6618SOL     OW31312   1.328   4.574   2.431  0.6564  0.0271 -0.9408
 6618SOL    HW131313   1.398   4.541   2.375  3.1989  2.6159  0.7368
 6618SOL    HW231314   1.363   4.656   2.465  1.4143 -0.1032 -1.4125
 6619SOL     OW31315   3.043   0.989  17.589 -0.2824 -0.0192 -0.4398
 6619SOL    HW131316   3.124   1.024  17.628 -0.0675 -1.5536  0.4845
 6619SOL    HW231317   3.032   0.908  17.638 -0.3204 -0.6906 -1.5400
 6620SOL     OW31318   0.559   3.775   7.480 -0.5285 -0.3440  0.3433
 6620SOL    HW131319   0.499   3.719   7.530 -1.2335  0.2570  0.1560
 6620SOL    HW231320   0.504   3.833   7.429  0.8965  0.7133  0.0053
 6621SOL     OW31321   1.408   3.077   3.999 -0.1338 -0.0363 -0.4837
 6621SOL    HW131322   1.400   3.119   3.914 -0.4827 -0.5043 -0.6857
 6621SOL    HW231323   1.399   2.988   3.963  0.2081 -0.8867  1.5100
 6622SOL     OW31324   3.273   4.696   2.114  0.2588  0.0312 -0.3897
 6622SOL    HW131325   3.253   4.714   2.206 -0.3727 -0.6705 -0.3906
 6622SOL    HW231326   3.190   4.668   2.075  0.8624  1.4571 -2.6586
 6623SOL     OW31327   2.324   1.867  11.207  0.3162 -0.2226 -0.3992
 6623SOL    HW131328   2.360   1.861  11.118 -0.5762 -3.2444 -0.5418
 6623SOL    HW231329   2.367   1.793  11.249  0.0756  1.4292  2.7191
 6624SOL     OW31330   4.219   0.009   9.214  0.1397  0.3175  1.1007
 6624SOL    HW131331   4.241   4.639   9.214  1.4862  0.6496 -0.2663
 6624SOL    HW231332   4.138   0.012   9.163 -0.5818  1.0279  2.2703
 6625SOL     OW31333   1.533   0.752   7.731 -0.4379  0.0819 -0.7562
 6625SOL    HW131334   1.496   0.663   7.734  1.1834 -0.5028  1.7739
 6625SOL    HW231335   1.622   0.732   7.704  0.0517 -0.7186  1.5033
 6626SOL     OW31336   2.389   0.556   5.574 -0.2379  0.3784  0.3188
 6626SOL    HW131337   2.476   0.581   5.605 -0.7434  1.2544  1.0277
 6626SOL    HW231338   2.360   0.496   5.643  0.2071 -1.9884 -1.5183
 6627SOL     OW31339   3.381   2.843   0.981 -0.2318 -0.6008 -0.1346
 6627SOL    HW131340   3.306   2.852   0.923 -1.2041  0.0867  1.2329
 6627SOL    HW231341   3.345   2.863   1.067 -0.4356 -2.4882  0.2073
 6628SOL     OW31342   2.760   2.923   8.118 -0.3152 -0.1474  0.3883
 6628SOL    HW131343   2.825   2.963   8.176 -1.1311  0.2247  1.0391
 6628SOL    HW231344   2.690   2.916   8.182 -0.6193 -1.5545 -0.1181
 6629SOL     OW31345   1.255   3.840   5.089 -0.2919  0.2650  0.1318
 6629SOL    HW131346   1.260   3.747   5.069  3.5199  0.5670 -0.2439
 6629SOL    HW231347   1.335   3.838   5.142 -1.1628 -1.2131  1.4162
 6630SOL     OW31348   1.584   0.217  15.977 -0.1103 -0.2604 -0.6774
 6630SOL    HW131349   1.489   0.213  15.965 -0.4542  1.5249  1.5209
 6630SOL    HW231350   1.594   0.269  16.056 -0.0858  0.2604 -1.0182
 6631SOL     OW31351   1.279   3.954   5.474  0.1113  0.4102  0.4294
 6631SOL    HW131352   1.221   3.931   5.547 -2.0857  1.1017 -1.0850
 6631SOL    HW231353   1.223   3.993   5.407  1.1134  0.1862 -0.5319
 6632SOL     OW31354   3.350   4.007   2.041 -0.1947 -0.2760  0.0691
 6632SOL    HW131355   3.328   3.916   2.020  0.9244 -0.4758 -0.2542
 6632SOL    HW231356   3.272   4.061   2.045 -0.4422 -0.5950 -0.4087
 6633SOL     OW31357   3.848   4.653  11.023 -0.0546  0.1823 -0.0354
 6633SOL    HW131358   3.904   4.604  11.083 -0.9732  0.2057  0.8492
 6633SOL    HW231359   3.909   4.668  10.951 -0.3167 -4.1857 -1.1530
 6634SOL     OW31360   0.121   2.236  10.348  0.1408  0.2962 -0.4291
 6634SOL    HW131361   0.193   2.179  10.375  0.6043  0.7320 -0.7369
 6634SOL    HW231362   0.119   2.305  10.414 -1.3930 -0.4083  0.2534
 6635SOL     OW31363   3.438   3.491   2.861  0.3281 -0.3464  0.2208
 6635SOL    HW131364   3.514   3.452   2.904  0.2929  0.1723  0.7402
 6635SOL    HW231365   3.466   3.578   2.833  0.0764 -0.4798 -0.4567
 6636SOL     OW31366   0.741   3.073   0.859  0.0652  0.1092  0.7668
 6636SOL    HW131367   0.705   3.160   0.845  0.0424 -0.3114 -1.8103
 6636SOL    HW231368   0.658   3.031   0.878  0.5423 -0.7059  1.0656
 6637SOL     OW31369   3.985   3.945   7.256  0.0850 -0.1617  0.5313
 6637SOL    HW131370   4.078   3.963   7.272  0.1892  0.1078 -0.3755
 6637SOL    HW231371   3.966   4.005   7.184  1.0398 -0.1328  0.3111
 6638SOL     OW31372   2.742   1.021   9.655 -0.3578  0.4210  0.5835
 6638SOL    HW131373   2.747   0.941   9.706 -0.7373  0.3273  0.4688
 6638SOL    HW231374   2.650   1.038   9.672 -0.2983  0.8072  0.5382
 6639SOL     OW31375   4.001   4.479   6.374 -0.0227  0.0716  0.4509
 6639SOL    HW131376   3.990   4.568   6.339  0.2734 -0.2800 -0.5136
 6639SOL    HW231377   3.979   4.422   6.301  0.7344  0.2524  0.0842
 6640SOL     OW31378   4.045   1.284   4.389  0.3015  0.3634  0.2472
 6640SOL    HW131379   3.983   1.255   4.323 -1.0727  0.1852  1.6197
 6640SOL    HW231380   4.125   1.241   4.359 -0.9017  0.0702 -2.4611
 6641SOL     OW31381   1.351   1.667   3.545 -0.1335  0.3263  0.6599
 6641SOL    HW131382   1.368   1.577   3.572 -0.6151  0.4896  1.5075
 6641SOL    HW231383   1.290   1.689   3.615 -2.5326  0.2770 -1.4070
 6642SOL     OW31384   4.466   3.848  11.048 -0.0759 -0.6002  0.1484
 6642SOL    HW131385   4.525   3.904  11.100 -1.1553  0.2365  0.4692
 6642SOL    HW231386   4.418   3.801  11.115 -0.0584 -0.6644  0.1156
 6643SOL     OW31387   0.394   1.729   6.390 -0.0546 -0.4765 -0.5668
 6643SOL    HW131388   0.443   1.649   6.371 -0.2572 -0.5330 -0.8584
 6643SOL    HW231389   0.467   1.766   6.440 -1.3420 -0.7900  1.5382
 6644SOL     OW31390   0.083   0.445  15.601 -0.3897 -0.3857  0.7790
 6644SOL    HW131391   0.102   0.492  15.519  2.8409 -0.5543  1.4468
 6644SOL    HW231392   4.711   0.435  15.600 -0.4489  0.2308 -1.4710
 6645SOL     OW31393   2.426   2.856   7.555 -1.0133 -0.4009 -0.0775
 6645SOL    HW131394   2.441   2.928   7.494 -1.7865 -1.4121 -1.4534
 6645SOL    HW231395   2.518   2.833   7.565 -0.9801 -0.5430 -0.6914
 6646SOL     OW31396   1.100   3.869  10.927  0.1880 -0.4694 -0.2186
 6646SOL    HW131397   1.089   3.944  10.869 -2.0382 -0.6593 -0.0318
 6646SOL    HW231398   1.090   3.904  11.016  0.0214 -0.9556 -0.0491
 6647SOL     OW31399   4.439   4.068  12.787  0.6935  0.2840 -0.0946
 6647SOL    HW131400   4.479   4.153  12.804 -0.5937  0.3334  2.8271
 6647SOL    HW231401   4.492   4.013  12.845  1.0435  0.5551 -0.1578
 6648SOL     OW31402   3.458   4.634   7.340 -0.1363  0.4744  0.2543
 6648SOL    HW131403   3.365   4.633   7.317  0.2643  0.9155 -1.3394
 6648SOL    HW231404   3.477   4.540   7.331 -1.7398  0.2373 -0.7484
 6649SOL     OW31405   0.703   3.870   1.638  0.6923 -0.5436  0.9415
 6649SOL    HW131406   0.708   3.964   1.620 -1.0797 -0.4114  1.2122
 6649SOL    HW231407   0.608   3.862   1.635  0.9144 -2.1142 -1.6202
 6650SOL     OW31408   1.702   3.576   2.766  0.2815  0.2024 -0.6286
 6650SOL    HW131409   1.662   3.515   2.704 -1.5424  2.7109 -1.9453
 6650SOL    HW231410   1.730   3.643   2.703  2.8638  0.8855  1.2537
 6651SOL     OW31411   3.530   2.661   1.099 -0.1985  0.0475 -0.5240
 6651SOL    HW131412   3.470   2.691   1.167  0.0857 -0.8865  0.1428
 6651SOL    HW231413   3.492   2.717   1.031  2.8819  1.6882 -0.8873
 6652SOL     OW31414   2.274   1.339   3.548  0.0799 -0.9099  0.3492
 6652SOL    HW131415   2.261   1.244   3.551 -0.1915 -0.8963 -0.3279
 6652SOL    HW231416   2.193   1.359   3.594  1.3084  1.1444  1.6570
 6653SOL     OW31417   3.005   3.450   5.111 -0.2314 -0.0235 -0.4849
 6653SOL    HW131418   2.956   3.469   5.191  0.2551 -0.5915 -0.0524
 6653SOL    HW231419   3.096   3.467   5.136 -0.2463 -0.7511  0.0355
 6654SOL     OW31420   2.667   0.585   7.679 -0.1092 -0.0332  1.1363
 6654SOL    HW131421   2.603   0.578   7.749 -0.3152  0.5253  1.0024
 6654SOL    HW231422   2.738   0.531   7.714  1.8564  1.3792 -0.6525
 6655SOL     OW31423   4.335   4.522  14.345  0.1005  0.1569 -0.4679
 6655SOL    HW131424   4.242   4.534  14.326 -0.2155 -1.2767  0.1633
 6655SOL    HW231425   4.386   4.550  14.269 -0.6585 -0.8995 -1.3483
 6656SOL     OW31426   1.333   4.083  10.995  0.7615 -0.5154 -0.5012
 6656SOL    HW131427   1.391   4.009  11.013 -1.4863 -1.4170  2.9328
 6656SOL    HW231428   1.269   4.062  11.062  0.5550 -1.1762 -0.9049
 6657SOL     OW31429   3.286   3.117   2.798  0.4117  0.4261 -0.6237
 6657SOL    HW131430   3.262   3.199   2.754  1.7324  1.9735  1.5009
 6657SOL    HW231431   3.374   3.109   2.760  0.7477 -2.2226  0.7525
 6658SOL     OW31432   4.463   4.152   3.914 -0.0952 -0.2990 -0.4557
 6658SOL    HW131433   4.381   4.198   3.933  0.2344 -0.1325  0.5408
 6658SOL    HW231434   4.511   4.216   3.860 -0.3349 -0.4275 -0.8208
 6659SOL     OW31435   0.140   2.029   6.714  0.0054 -0.3772  0.0170
 6659SOL    HW131436   0.124   1.984   6.631 -2.1441  2.1444 -0.9496
 6659SOL    HW231437   0.232   2.055   6.706 -0.3071  0.6127 -0.4050
 6660SOL     OW31438   0.479   1.795   7.097  0.0818  0.0433  0.0850
 6660SOL    HW131439   0.395   1.801   7.142 -0.4200  0.2022 -0.8811
 6660SOL    HW231440   0.542   1.829   7.161  0.1789 -0.4968  0.2796
 6661SOL     OW31441   0.916   0.855   1.706  0.1680  0.4183 -0.2541
 6661SOL    HW131442   0.979   0.862   1.778 -1.0221  0.5887  0.7738
 6661SOL    HW231443   0.931   0.771   1.663 -0.8390  0.8821 -1.4992
 6662SOL     OW31444   0.992   0.090  11.301  0.1192  0.2517  0.2947
 6662SOL    HW131445   1.006   0.070  11.393 -0.9071  2.9038  1.0293
 6662SOL    HW231446   1.044   0.170  11.293  1.7219 -0.6877  1.4333
 6663SOL     OW31447   3.980   1.282   6.449 -0.1404  0.5974  0.2197
 6663SOL    HW131448   3.926   1.361   6.442  0.8071  1.0798 -1.5798
 6663SOL    HW231449   3.918   1.216   6.481  0.1212  0.6262  0.7890
 6664SOL     OW31450   1.631   3.222   6.191  0.3571 -0.1727  0.1928
 6664SOL    HW131451   1.726   3.230   6.184  0.3792 -0.9481 -0.3928
 6664SOL    HW231452   1.613   3.228   6.284 -0.3417  0.3216  0.0259
 6665SOL     OW31453   1.580   4.321  16.344  0.0012 -0.1814 -0.4619
 6665SOL    HW131454   1.614   4.312  16.255  0.3156 -1.3882 -0.2197
 6665SOL    HW231455   1.503   4.267  16.327 -0.7647  1.1649 -1.1907
 6666SOL     OW31456   0.468   4.692  17.167 -0.2507 -0.0929  0.4502
 6666SOL    HW131457   0.414   0.041  17.199  0.3785  0.5099  0.1641
 6666SOL    HW231458   0.432   4.685  17.079  1.0437 -1.1373 -0.0035
 6667SOL     OW31459   3.852   4.550  15.206 -0.0589 -0.5292  0.2120
 6667SOL    HW131460   3.780   4.607  15.234  0.4420  0.7052 -0.9932
 6667SOL    HW231461   3.807   4.465  15.206 -0.7805 -0.1481  0.1854
 6668SOL     OW31462   3.907   1.618   9.871  0.1187  0.0534 -0.1402
 6668SOL    HW131463   3.833   1.558   9.881 -1.0342  1.7293  1.4507
 6668SOL    HW231464   3.921   1.649   9.960  0.3403 -0.5998  0.0509
 6669SOL     OW31465   2.433   2.071   4.623 -0.4314  0.1357 -0.3871
 6669SOL    HW131466   2.437   1.997   4.563  0.2164 -1.5433  1.7021
 6669SOL    HW231467   2.443   2.132   4.550  0.6884  3.4910  2.5770
 6670SOL     OW31468   0.622   3.405   7.574 -0.4257  0.1028 -0.0815
 6670SOL    HW131469   0.611   3.357   7.656  0.4961  1.5338  0.8891
 6670SOL    HW231470   0.617   3.498   7.597 -1.0393 -0.5136  2.2082
 6671SOL     OW31471   2.631   4.245   8.774 -0.2903  0.1232  0.8226
 6671SOL    HW131472   2.627   4.158   8.734  1.3115  1.1718 -1.6054
 6671SOL    HW231473   2.721   4.250   8.804 -0.1682  0.3044  0.4237
 6672SOL     OW31474   2.241   0.148   7.952  0.0934 -0.1033  0.1600
 6672SOL    HW131475   2.305   0.181   8.015  0.4677 -0.7869  0.1394
 6672SOL    HW231476   2.269   0.181   7.866  0.4571  1.1550  0.7609
 6673SOL     OW31477   2.199   2.609   0.508 -0.0677 -0.3087  0.5461
 6673SOL    HW131478   2.184   2.699   0.479 -1.5009 -0.1675  1.7027
 6673SOL    HW231479   2.127   2.570   0.459 -0.1755 -1.1717  1.4005
 6674SOL     OW31480   4.583   0.232  17.304 -0.3682  0.0981 -0.0755
 6674SOL    HW131481   4.537   0.157  17.267 -0.2956  0.8202 -1.6514
 6674SOL    HW231482   4.512   0.281  17.346  0.2464 -1.0578  2.2851
 6675SOL     OW31483   2.211   3.622   6.959  0.2491  0.2340  0.0975
 6675SOL    HW131484   2.293   3.662   6.988  1.4502 -1.0928 -1.4821
 6675SOL    HW231485   2.223   3.631   6.864 -0.4620 -3.5071 -0.3477
 6676SOL     OW31486   4.211   2.457   3.990  0.7655  0.1921  0.1476
 6676SOL    HW131487   4.163   2.374   3.993 -0.2604  0.7492 -0.9823
 6676SOL    HW231488   4.153   2.509   4.046 -0.2271  0.0448 -0.7406
 6677SOL     OW31489   0.768   2.116   5.322  0.0461 -0.4535  0.3690
 6677SOL    HW131490   0.815   2.160   5.393  2.1403  0.3596 -1.5282
 6677SOL    HW231491   0.722   2.187   5.278  1.0681  0.1702  0.3184
 6678SOL     OW31492   1.408   0.052   4.893  0.1205  0.2419  0.2920
 6678SOL    HW131493   1.327   0.001   4.905  0.0484  0.2528 -0.1324
 6678SOL    HW231494   1.426   0.081   4.982  2.6956  3.2143 -1.2221
 6679SOL     OW31495   0.289   2.138   8.315 -0.8476 -0.2482  0.2378
 6679SOL    HW131496   0.297   2.079   8.240 -0.4175  1.3124 -0.9458
 6679SOL    HW231497   0.294   2.219   8.264 -0.6998  1.1918  2.5385
 6680SOL     OW31498   3.203   3.796   1.863 -0.3199  0.9354  0.2489
 6680SOL    HW131499   3.250   3.813   1.781 -0.4908  0.6709  0.0964
 6680SOL    HW231500   3.172   3.886   1.874  1.5539  1.5478  0.6151
 6681SOL     OW31501   4.194   0.348  11.817  0.9892 -0.0303 -0.4995
 6681SOL    HW131502   4.210   0.390  11.902 -0.6946  0.3314 -0.3637
 6681SOL    HW231503   4.115   0.312  11.856  0.2825  2.3219  0.2236
 6682SOL     OW31504   2.967   2.060  16.404  0.3627 -0.5066 -0.3502
 6682SOL    HW131505   2.885   2.106  16.423  0.0778 -0.1311 -2.4342
 6682SOL    HW231506   2.975   2.011  16.485 -3.0811  1.2294  1.0346
 6683SOL     OW31507   0.105   2.608   7.076  0.5173  0.2877 -0.6492
 6683SOL    HW131508   0.047   2.535   7.054 -0.0598  1.0527 -1.6816
 6683SOL    HW231509   0.179   2.601   7.015  0.4189 -0.6720 -0.6561
 6684SOL     OW31510   4.116   3.347  11.939 -0.1254 -0.2033 -0.1298
 6684SOL    HW131511   4.080   3.305  11.861  0.9996  1.8275 -1.7584
 6684SOL    HW231512   4.179   3.289  11.982  1.2567  0.7983 -0.7618
 6685SOL     OW31513   0.874   2.994  16.477  0.3953  0.0251  0.4498
 6685SOL    HW131514   0.859   2.900  16.482 -1.6681  0.2768 -1.1617
 6685SOL    HW231515   0.810   3.027  16.539 -0.2011 -0.7221  0.2260
 6686SOL     OW31516   3.724   2.136  10.181 -0.1649  0.1879 -0.1220
 6686SOL    HW131517   3.807   2.178  10.202  0.6956 -1.0282 -1.1066
 6686SOL    HW231518   3.660   2.175  10.241 -0.1922  0.7644 -0.5200
 6687SOL     OW31519   0.158   3.875   7.362  0.0702 -0.0606  0.1812
 6687SOL    HW131520   0.068   3.850   7.343 -0.1798  1.4516 -0.6720
 6687SOL    HW231521   0.197   3.869   7.275  2.5518  0.8663  1.2227
 6688SOL     OW31522   0.495   3.191  12.596 -0.3803 -0.7456  0.4453
 6688SOL    HW131523   0.586   3.173  12.617 -0.4749 -3.0056 -1.1637
 6688SOL    HW231524   0.500   3.180  12.501  1.4915 -0.6961  0.5406
 6689SOL     OW31525   4.572   3.182   5.701  0.0389  0.0418  0.1672
 6689SOL    HW131526   4.581   3.223   5.787 -0.7519 -1.1188  0.7902
 6689SOL    HW231527   4.515   3.112   5.733 -1.9011 -0.2243 -3.8184
 6690SOL     OW31528   4.025   2.832  15.926  0.1172  0.2174 -0.2759
 6690SOL    HW131529   4.012   2.876  15.842 -0.0017 -0.7879 -0.7847
 6690SOL    HW231530   4.114   2.798  15.922 -0.3932 -0.9646 -1.7737
 6691SOL     OW31531   4.414   3.033  15.793  0.0271  0.5060  0.1384
 6691SOL    HW131532   4.400   2.971  15.722 -0.4155  1.0120 -0.2183
 6691SOL    HW231533   4.327   3.067  15.814 -0.6378 -0.7515 -0.5622
 6692SOL     OW31534   2.188   2.383   1.806 -0.4487 -0.1420  0.1414
 6692SOL    HW131535   2.117   2.401   1.744 -0.5845 -2.8818 -0.5225
 6692SOL    HW231536   2.221   2.308   1.756  0.1763  0.5108 -0.4186
 6693SOL     OW31537   1.145   1.950   7.943  0.0299  0.1173  0.0765
 6693SOL    HW131538   1.233   1.929   7.911 -0.0410 -2.5131  1.5862
 6693SOL    HW231539   1.097   1.867   7.951 -0.0025  0.2226  0.9814
 6694SOL     OW31540   1.174   2.797   8.329  0.6122 -0.0810  0.0319
 6694SOL    HW131541   1.246   2.847   8.290  0.0505  1.4081  0.9060
 6694SOL    HW231542   1.230   2.758   8.396  0.9420  1.0930  0.4530
 6695SOL     OW31543   0.665   2.517   9.805  0.1554  0.4300 -0.4242
 6695SOL    HW131544   0.639   2.575   9.733  0.3490 -1.4278 -1.9940
 6695SOL    HW231545   0.649   2.567   9.885  0.2383  1.4118 -1.0277
 6696SOL     OW31546   0.946   4.015   0.501  0.0850  0.4640  0.7225
 6696SOL    HW131547   0.874   4.071   0.472 -0.9155 -0.7732  0.8222
 6696SOL    HW231548   0.992   4.078   0.557  1.5184  1.3845 -1.4600
 6697SOL     OW31549   3.337   2.213   7.882 -0.0158  0.2413  0.1337
 6697SOL    HW131550   3.315   2.125   7.851  1.0862  1.0024 -2.8235
 6697SOL    HW231551   3.319   2.198   7.975 -2.0603 -0.9675 -0.4571
 6698SOL     OW31552   0.827   2.927   5.373  0.5256  0.1922 -0.2873
 6698SOL    HW131553   0.826   2.938   5.278  0.5812 -0.8140 -0.4058
 6698SOL    HW231554   0.753   2.868   5.384 -0.2125  1.1546 -0.1480
 6699SOL     OW31555   2.733   4.272  13.108  0.2203 -0.3626  0.2952
 6699SOL    HW131556   2.654   4.258  13.160  0.2407  0.5175  0.5808
 6699SOL    HW231557   2.805   4.249  13.167 -0.9049 -0.6980  1.5215
 6700SOL     OW31558   2.571   0.560  10.324  0.0471 -0.2708  0.3013
 6700SOL    HW131559   2.509   0.495  10.357 -1.6130  0.0801 -2.1268
 6700SOL    HW231560   2.603   0.524  10.241  0.2432 -1.5636  0.9420
 6701SOL     OW31561   0.166   2.425  14.127 -0.4592  0.2757 -0.0132
 6701SOL    HW131562   0.177   2.341  14.082 -1.8044  0.6729 -1.0770
 6701SOL    HW231563   0.106   2.386  14.191  0.0842  0.8485  0.8411
 6702SOL     OW31564   4.393   2.030  14.835  0.1556 -0.1414 -0.0178
 6702SOL    HW131565   4.363   2.040  14.744  0.7803 -0.7257 -0.2860
 6702SOL    HW231566   4.413   2.121  14.857  0.2020 -0.7659  2.5092
 6703SOL     OW31567   4.254   0.351   8.293  0.3364  0.7398 -0.6425
 6703SOL    HW131568   4.298   0.305   8.365 -0.5927  0.2317 -0.4063
 6703SOL    HW231569   4.300   0.435   8.292  1.9538 -0.1235  1.8822
 6704SOL     OW31570   2.697   3.610   7.830  0.3010 -0.4510 -0.3334
 6704SOL    HW131571   2.702   3.525   7.874  1.8188  0.1235  0.6271
 6704SOL    HW231572   2.748   3.663   7.891  2.3380 -3.4261  0.5483
 6705SOL     OW31573   2.843   0.073   7.595 -0.6668 -0.4060 -0.1629
 6705SOL    HW131574   2.871   0.161   7.621  0.9278 -1.1530  0.6964
 6705SOL    HW231575   2.921   0.024   7.621 -0.4757  0.3973  0.7929
 6706SOL     OW31576   4.283   3.984  12.442  0.5981  0.4051 -0.2566
 6706SOL    HW131577   4.227   3.952  12.513  0.4686  1.3285  0.0722
 6706SOL    HW231578   4.240   4.068  12.424 -1.0851 -0.0394  1.5940
 6707SOL     OW31579   1.035   1.431   3.698  0.4564 -0.1249  0.0901
 6707SOL    HW131580   0.966   1.392   3.644 -0.3505 -1.6073  2.1833
 6707SOL    HW231581   1.007   1.387   3.778  0.2063  1.7073  1.0187
 6708SOL     OW31582   3.845   4.502   7.788 -0.3156  0.2366  0.0001
 6708SOL    HW131583   3.759   4.524   7.751 -1.1451 -0.9221  1.2776
 6708SOL    HW231584   3.873   4.436   7.724  0.7266 -0.7872  1.5308
 6709SOL     OW31585   3.716   1.189   6.891  0.3807 -0.0327  0.9746
 6709SOL    HW131586   3.731   1.272   6.847  1.2221 -0.3884  0.5753
 6709SOL    HW231587   3.758   1.202   6.976  3.3283 -1.2214 -0.2805
 6710SOL     OW31588   4.454   0.216  12.212 -0.4651  0.3546 -0.2727
 6710SOL    HW131589   4.385   0.170  12.259 -0.5535  1.2645  0.4974
 6710SOL    HW231590   4.524   0.151  12.216  0.0559  0.8067 -2.0827
 6711SOL     OW31591   2.393   1.619  15.961  0.0270  0.1328  0.5125
 6711SOL    HW131592   2.399   1.529  15.993 -1.6900  0.6956  2.4310
 6711SOL    HW231593   2.434   1.615  15.875  0.6512 -2.1063  0.9313
 6712SOL     OW31594   1.977   0.199   7.959 -0.1771 -0.3008 -0.0578
 6712SOL    HW131595   1.958   0.272   8.019 -0.6201  0.3103 -0.9443
 6712SOL    HW231596   2.073   0.201   7.954 -0.0909 -0.2203  1.5526
 6713SOL     OW31597   0.323   4.428  12.030 -0.2470 -0.6655  0.2509
 6713SOL    HW131598   0.331   4.334  12.012  0.2987 -0.3343 -1.2117
 6713SOL    HW231599   0.372   4.460  11.955 -0.9322  0.9024  0.4841
 6714SOL     OW31600   0.089   2.892   8.690  0.3996  0.3346 -0.3126
 6714SOL    HW131601   0.026   2.907   8.620  0.9920  0.5532 -0.8034
 6714SOL    HW231602   0.110   2.799   8.680  0.4092  0.1546  1.3467
 6715SOL     OW31603   0.808   2.487   4.776  0.1131  0.1098 -0.6942
 6715SOL    HW131604   0.796   2.412   4.718 -2.1133  0.1076 -0.2162
 6715SOL    HW231605   0.743   2.460   4.841  1.7176 -1.4989  0.2367
 6716SOL     OW31606   2.363   3.270   0.287  0.5070 -0.1963  0.1308
 6716SOL    HW131607   2.395   3.357   0.314  1.2050 -0.9658  1.7491
 6716SOL    HW231608   2.291   3.301   0.232  1.0289 -0.9797 -0.9973
 6717SOL     OW31609   4.177   1.466   0.260  0.1658 -0.1325  0.3688
 6717SOL    HW131610   4.175   1.561   0.250 -0.0543 -0.0839  0.8979
 6717SOL    HW231611   4.177   1.455   0.165  0.6594 -1.5386  0.5283
 6718SOL     OW31612   2.222   2.174   7.839  0.2577 -0.1271 -0.4424
 6718SOL    HW131613   2.267   2.249   7.800 -0.7975 -0.0913 -1.5610
 6718SOL    HW231614   2.252   2.192   7.929  2.0276  2.5117 -1.5609
 6719SOL     OW31615   3.614   4.632   4.266  0.1266  0.1072  0.5080
 6719SOL    HW131616   3.630   4.564   4.200  1.4345 -1.4399  2.4550
 6719SOL    HW231617   3.698   4.676   4.279 -0.2602  0.9725  0.0825
 6720SOL     OW31618   2.859   4.085  17.623  0.3595 -0.2808  0.2567
 6720SOL    HW131619   2.949   4.116  17.619  0.1822  0.1628 -0.4025
 6720SOL    HW231620   2.875   3.994  17.597 -1.3417 -0.4259 -0.2971
 6721SOL     OW31621   3.872   3.259   4.317 -0.0888  0.1047 -0.1427
 6721SOL    HW131622   3.903   3.349   4.309 -0.8975  0.4714  0.9557
 6721SOL    HW231623   3.779   3.260   4.296 -0.4253  0.0566  1.4117
 6722SOL     OW31624   3.044   3.481   8.874  0.1118 -0.7254  0.2524
 6722SOL    HW131625   3.039   3.489   8.779 -0.7453  2.9549  0.6362
 6722SOL    HW231626   3.129   3.439   8.893 -0.5403 -2.1878 -0.0433
 6723SOL     OW31627   3.399   1.259   4.990 -0.1099  0.3200 -0.3571
 6723SOL    HW131628   3.323   1.201   4.983 -2.2280  2.9139  1.3462
 6723SOL    HW231629   3.406   1.253   5.086 -1.4168  2.0168 -0.1658
 6724SOL     OW31630   0.038   0.327   3.652 -0.3691 -0.0649  0.1753
 6724SOL    HW131631   4.712   0.280   3.720 -0.1088  0.2737  0.5955
 6724SOL    HW231632   0.094   0.385   3.704 -1.7386  0.7981  0.6954
 6725SOL     OW31633   3.710   2.403  16.610  0.5260  0.4751  0.4603
 6725SOL    HW131634   3.752   2.480  16.571 -1.1966  0.4022 -1.5562
 6725SOL    HW231635   3.648   2.457  16.660 -0.7951  0.1144 -0.7815
 6726SOL     OW31636   2.683   3.498   0.534 -0.0440  0.1733  0.6524
 6726SOL    HW131637   2.743   3.441   0.487 -1.2752 -0.9789  0.4596
 6726SOL    HW231638   2.732   3.546   0.601  0.1962 -1.1656  1.4284
 6727SOL     OW31639   2.605   3.781  14.690  0.5160  0.3868 -0.2535
 6727SOL    HW131640   2.654   3.746  14.764 -0.9753 -0.2423  0.4230
 6727SOL    HW231641   2.520   3.738  14.682  0.9962 -0.5299 -0.4621
 6728SOL     OW31642   0.457   2.112   9.858  0.1509 -0.2141  0.2196
 6728SOL    HW131643   0.371   2.091   9.895 -0.3448 -0.7885 -1.2463
 6728SOL    HW231644   0.437   2.066   9.776 -2.4268  2.3181 -0.5645
 6729SOL     OW31645   1.208   0.400   6.578  0.1302 -0.2272  0.6627
 6729SOL    HW131646   1.179   0.310   6.593  1.7469 -0.7927  0.3433
 6729SOL    HW231647   1.170   0.452   6.649  2.0438  1.4008  0.4932
 6730SOL     OW31648   2.822   0.347   8.461 -0.8622 -0.1887  0.5288
 6730SOL    HW131649   2.753   0.290   8.496 -0.4272 -0.9232  0.1888
 6730SOL    HW231650   2.773   0.405   8.402  2.6421  1.5085 -0.6858
 6731SOL     OW31651   2.752   1.169  15.123  0.1355 -0.8080 -0.3303
 6731SOL    HW131652   2.760   1.127  15.038 -0.0953  1.2152 -1.3595
 6731SOL    HW231653   2.810   1.110  15.171 -0.2568 -3.0959 -2.7265
 6732SOL     OW31654   2.260   3.269   4.855  0.1016 -0.5234  0.1661
 6732SOL    HW131655   2.205   3.202   4.896 -2.1326  0.6329 -0.9428
 6732SOL    HW231656   2.348   3.241   4.880  1.4132  1.9387 -1.6850
 6733SOL     OW31657   2.907   0.693   2.431  0.1805 -0.0598 -0.0601
 6733SOL    HW131658   2.825   0.660   2.394  0.9849 -1.3689 -0.6766
 6733SOL    HW231659   2.895   0.681   2.525  1.4505 -2.1246 -0.1566
 6734SOL     OW31660   4.315   4.169  12.016  0.0860 -0.0939  0.4438
 6734SOL    HW131661   4.259   4.117  12.074  0.0233  1.4281  1.7804
 6734SOL    HW231662   4.309   4.260  12.046 -0.5853 -0.2286  0.7224
 6735SOL     OW31663   2.250   0.317  14.459  0.0454  0.1744  0.2359
 6735SOL    HW131664   2.200   0.290  14.535  2.1594 -2.8510  0.5761
 6735SOL    HW231665   2.179   0.317  14.395  0.9342 -1.2078 -0.7747
 6736SOL     OW31666   2.888   3.829   4.688 -0.3473 -0.1788 -0.0165
 6736SOL    HW131667   2.823   3.774   4.732  0.1749 -0.3192  0.5789
 6736SOL    HW231668   2.884   3.910   4.739 -0.4039  0.1406 -0.5242
 6737SOL     OW31669   1.170   3.524   4.617  0.0170  0.0303 -0.3204
 6737SOL    HW131670   1.243   3.473   4.580  0.9366  1.9472 -1.1167
 6737SOL    HW231671   1.230   3.589   4.653 -1.2916 -0.0415  2.0302
 6738SOL     OW31672   2.729   1.008   3.050  0.7845  0.1004 -0.0928
 6738SOL    HW131673   2.662   1.076   3.060 -0.7747 -1.5599  0.8114
 6738SOL    HW231674   2.720   0.973   3.139 -0.6908  1.5402  0.3141
 6739SOL     OW31675   3.839   1.884   6.510 -0.2381  0.2449 -0.0506
 6739SOL    HW131676   3.829   1.917   6.600 -3.4909  0.2196 -0.4225
 6739SOL    HW231677   3.889   1.805   6.534  0.2612  1.6472  3.5617
 6740SOL     OW31678   1.249   3.293   7.211  0.3867  0.2445  0.5233
 6740SOL    HW131679   1.189   3.279   7.285 -0.7537 -0.2413 -0.5013
 6740SOL    HW231680   1.317   3.227   7.224  0.0027 -0.3721 -0.6378
 6741SOL     OW31681   3.384   0.282   3.450 -0.0967 -0.5696  0.3581
 6741SOL    HW131682   3.421   0.280   3.361 -1.1978 -1.3809 -0.0836
 6741SOL    HW231683   3.377   0.189   3.469 -1.0468 -0.0358  2.6716
 6742SOL     OW31684   4.149   3.885   5.982 -0.1676 -0.0165  0.2376
 6742SOL    HW131685   4.207   3.846   5.917 -0.3948 -1.0210  0.6509
 6742SOL    HW231686   4.097   3.808   6.001 -1.6669  0.5599 -1.5545
 6743SOL     OW31687   1.192   3.812   2.323 -0.2157  0.0590  0.3060
 6743SOL    HW131688   1.106   3.830   2.361 -0.5838  1.6431 -1.2908
 6743SOL    HW231689   1.248   3.888   2.338  1.1056 -0.2511 -3.0282
 6744SOL     OW31690   2.715   1.528   8.788 -0.2320  0.0866  0.4629
 6744SOL    HW131691   2.662   1.501   8.863 -1.7311  2.5279  0.2661
 6744SOL    HW231692   2.736   1.439   8.758 -2.7179 -0.0640 -0.8182
 6745SOL     OW31693   1.340   0.647  11.020 -0.6812 -0.4846  0.0967
 6745SOL    HW131694   1.289   0.573  10.987 -0.0636 -0.5897 -0.6108
 6745SOL    HW231695   1.278   0.719  11.005  0.3947 -0.0350 -2.1777
 6746SOL     OW31696   3.850   2.033  12.441  0.0794 -0.5093 -0.3564
 6746SOL    HW131697   3.890   2.059  12.358 -0.2896 -0.3395 -0.4831
 6746SOL    HW231698   3.767   1.990  12.420 -1.3168  0.5458  3.0865
 6747SOL     OW31699   1.125   3.030  15.473 -0.0783 -0.2066  0.5936
 6747SOL    HW131700   1.207   3.077  15.457  0.1801 -1.6279 -2.2812
 6747SOL    HW231701   1.101   3.010  15.383  0.1922  0.9758  0.2618
 6748SOL     OW31702   4.548   0.361   0.365  0.1191  0.0635 -0.1601
 6748SOL    HW131703   4.532   0.292   0.430 -1.0494 -1.6606 -2.2643
 6748SOL    HW231704   4.636   0.340   0.334  0.0697 -3.0987  1.7548
 6749SOL     OW31705   2.894   4.107   5.931  0.0201  0.3567 -0.0079
 6749SOL    HW131706   2.930   4.021   5.913 -1.9669 -0.5784  0.5426
 6749SOL    HW231707   2.979   4.147   5.952 -0.6329  0.7515  1.8547
 6750SOL     OW31708   0.489   3.318  10.847  0.3382  0.7397  0.1022
 6750SOL    HW131709   0.421   3.256  10.874  2.1671 -0.8341  1.1463
 6750SOL    HW231710   0.538   3.267  10.783 -0.5673 -0.1586  0.1162
 6751SOL     OW31711   2.447   0.744   3.817  0.0243 -0.1867 -0.6054
 6751SOL    HW131712   2.500   0.820   3.840  0.2182 -0.7416  0.8233
 6751SOL    HW231713   2.450   0.755   3.722 -0.1084 -0.4458 -0.6394
 6752SOL     OW31714   3.589   4.422  10.046 -0.2326 -0.1778  1.0016
 6752SOL    HW131715   3.559   4.451  10.132 -1.0823  1.5957  0.0907
 6752SOL    HW231716   3.677   4.392  10.070 -0.1167 -0.3862  0.3144
 6753SOL     OW31717   1.900   1.161   3.848 -0.3606 -0.0887 -0.6500
 6753SOL    HW131718   1.822   1.208   3.875  0.0509  0.4175 -0.3299
 6753SOL    HW231719   1.869   1.136   3.761  0.3690  0.5995 -1.1135
 6754SOL     OW31720   1.649   4.702   6.495  0.7006  0.0673 -0.4048
 6754SOL    HW131721   1.619   4.645   6.424 -2.5558 -0.4090  1.3809
 6754SOL    HW231722   1.675   4.627   6.549  1.5032  1.3557  0.9925
 6755SOL     OW31723   2.877   1.836  14.422 -0.0704 -0.5643  0.4103
 6755SOL    HW131724   2.905   1.854  14.512  0.5940  0.3035  0.0243
 6755SOL    HW231725   2.822   1.911  14.401  0.8910 -0.4878 -1.7679
 6756SOL     OW31726   3.197   1.266  13.428 -0.7236 -0.5648  0.2504
 6756SOL    HW131727   3.105   1.288  13.418  0.0593  2.2030 -0.8738
 6756SOL    HW231728   3.201   1.171  13.418 -0.4279 -0.6967  1.5725
 6757SOL     OW31729   3.730   0.670   5.634  0.1962  0.7183 -0.3619
 6757SOL    HW131730   3.692   0.648   5.549 -1.3846  1.2624  0.2152
 6757SOL    HW231731   3.707   0.763   5.636 -1.5609  0.2667  0.5075
 6758SOL     OW31732   1.350   1.535   4.029  0.4815 -0.2103  0.3214
 6758SOL    HW131733   1.365   1.628   4.049  0.9891 -0.4761  1.1845
 6758SOL    HW231734   1.258   1.543   4.004  1.0532  0.7905 -1.4713
 6759SOL     OW31735   2.237   0.373   3.218 -0.2152 -0.5574 -0.7428
 6759SOL    HW131736   2.182   0.396   3.144 -1.4371  1.3503  0.7672
 6759SOL    HW231737   2.289   0.306   3.173  0.2599 -0.9241  0.3462
 6760SOL     OW31738   3.862   2.889   5.059 -0.0403  0.3267  0.3237
 6760SOL    HW131739   3.918   2.811   5.064  0.0616  0.3178 -1.1084
 6760SOL    HW231740   3.923   2.952   5.023 -2.2625  1.8773 -0.6816
 6761SOL     OW31741   1.703   4.616   3.146  0.2298  0.2612  0.4112
 6761SOL    HW131742   1.659   4.685   3.096 -1.8559 -0.7745  0.8412
 6761SOL    HW231743   1.672   4.534   3.107  0.6314  0.3843 -0.1807
 6762SOL     OW31744   3.612   2.536  12.002  0.0087  0.3715  0.5124
 6762SOL    HW131745   3.550   2.609  11.998 -1.6210 -0.9249  2.3008
 6762SOL    HW231746   3.641   2.548  12.092  0.8931  2.1071 -0.0003
 6763SOL     OW31747   3.695   1.378  13.360  0.1857 -0.1171 -0.0835
 6763SOL    HW131748   3.625   1.312  13.360  0.8820 -0.8579 -1.1971
 6763SOL    HW231749   3.647   1.439  13.303  0.4139  1.9131  1.8944
 6764SOL     OW31750   4.502   3.629   4.913  0.1593  0.5260  0.3608
 6764SOL    HW131751   4.434   3.564   4.932 -1.7708  2.4625  0.1379
 6764SOL    HW231752   4.558   3.626   4.991  2.8520 -1.1300 -1.6455
 6765SOL     OW31753   1.606   2.969   5.748 -0.6777  0.5181  0.0221
 6765SOL    HW131754   1.633   2.952   5.838  1.4646 -0.5055 -0.7931
 6765SOL    HW231755   1.526   2.916   5.742  0.2304 -1.0301  1.6920
 6766SOL     OW31756   0.741   0.599   6.527 -0.1126 -0.3514  0.0552
 6766SOL    HW131757   0.681   0.632   6.460 -1.3784  0.6668  1.7086
 6766SOL    HW231758   0.827   0.621   6.491  0.9185  0.6239  3.1097
 6767SOL     OW31759   3.981   0.831   8.179  0.0564 -0.0839  0.0435
 6767SOL    HW131760   3.916   0.888   8.138 -0.4295 -0.0126  0.9079
 6767SOL    HW231761   3.923   0.774   8.230  1.2858 -1.5519 -0.2215
 6768SOL     OW31762   3.968   3.989   6.240  0.7312 -0.2418 -0.0608
 6768SOL    HW131763   3.932   3.969   6.154  0.3720  1.1449 -0.2333
 6768SOL    HW231764   3.922   4.065   6.274 -0.0671  0.2319 -2.2510
 6769SOL     OW31765   1.936   4.329  12.791 -0.7697 -0.0050  0.0694
 6769SOL    HW131766   2.000   4.259  12.779  0.8083  1.6005 -0.8433
 6769SOL    HW231767   1.989   4.407  12.810  0.0673 -0.0304 -2.2181
 6770SOL     OW31768   2.668   3.621   8.657 -0.0614  0.4381  0.2931
 6770SOL    HW131769   2.709   3.581   8.734 -0.6151 -2.1497 -0.7794
 6770SOL    HW231770   2.577   3.607   8.683 -0.0033 -0.8136 -0.1777
 6771SOL     OW31771   4.178   3.596  12.009 -0.3271 -0.1116  0.2342
 6771SOL    HW131772   4.271   3.605  12.030 -0.4484 -0.2051  0.8161
 6771SOL    HW231773   4.161   3.505  11.982  0.5855 -0.4106  0.6529
 6772SOL     OW31774   3.636   4.109   5.692 -0.5410 -0.5967 -0.0040
 6772SOL    HW131775   3.730   4.119   5.709  0.1741 -1.6004 -3.2916
 6772SOL    HW231776   3.644   4.042   5.624  0.4036 -1.6602  1.1750
 6773SOL     OW31777   3.311   1.121   9.284  0.1604  0.1532 -0.2706
 6773SOL    HW131778   3.308   1.215   9.300  1.2641  0.2654 -0.7555
 6773SOL    HW231779   3.265   1.084   9.360 -1.3040  0.4732 -0.9928
 6774SOL     OW31780   1.003   0.285  16.780  0.6572  0.2226  0.0124
 6774SOL    HW131781   0.998   0.195  16.812  0.2011  0.1082 -0.3874
 6774SOL    HW231782   1.016   0.330  16.864 -1.5356  2.1424 -0.6974
 6775SOL     OW31783   0.134   3.233   5.386 -0.5716  0.1984 -0.2023
 6775SOL    HW131784   0.183   3.261   5.309  0.3879  3.4362  1.5529
 6775SOL    HW231785   0.202   3.250   5.452 -0.6241  1.8562 -0.5704
 6776SOL     OW31786   2.561   0.240   5.620  0.5975 -0.0811 -0.1067
 6776SOL    HW131787   2.553   0.198   5.705 -1.0983 -0.3314 -0.3817
 6776SOL    HW231788   2.554   0.335   5.634 -1.8940 -0.4000  0.8085
 6777SOL     OW31789   3.675   0.090   3.827  0.2304  0.7255 -0.4264
 6777SOL    HW131790   3.692   4.720   3.834  0.3737  0.6210 -2.2889
 6777SOL    HW231791   3.747   0.127   3.777  0.1469 -0.5169 -1.4417
 6778SOL     OW31792   0.201   1.530  12.278  0.6593  0.8056  0.3194
 6778SOL    HW131793   0.197   1.620  12.311 -0.2419 -0.2231  3.0255
 6778SOL    HW231794   0.274   1.489  12.324  1.6225  0.4274 -1.5344
 6779SOL     OW31795   2.661   2.114   9.287 -0.2052 -0.6456  0.5612
 6779SOL    HW131796   2.719   2.186   9.262 -0.7645 -0.8452 -1.3194
 6779SOL    HW231797   2.666   2.111   9.383  0.4413  1.1622  0.5801
 6780SOL     OW31798   3.372   2.278   8.505 -0.1761 -0.4491  0.5433
 6780SOL    HW131799   3.467   2.287   8.513 -0.1761  0.1783 -0.1913
 6780SOL    HW231800   3.339   2.368   8.496  1.2709 -0.1348 -1.6581
 6781SOL     OW31801   0.301   0.434   5.398  0.2353 -0.1075 -0.0349
 6781SOL    HW131802   0.347   0.419   5.481 -3.7395 -3.0155  1.6647
 6781SOL    HW231803   0.363   0.413   5.328 -2.0842 -1.0220 -1.8334
 6782SOL     OW31804   0.659   2.767  15.948 -0.2902  0.4333  0.1654
 6782SOL    HW131805   0.642   2.673  15.945  0.3246  0.3466 -0.5402
 6782SOL    HW231806   0.730   2.770  15.885 -0.3558 -2.7570 -0.0807
 6783SOL     OW31807   0.425   3.109   7.213 -0.1327 -0.9658  0.1253
 6783SOL    HW131808   0.412   3.175   7.281 -0.5614 -0.9457  0.0254
 6783SOL    HW231809   0.443   3.171   7.142 -0.6145 -1.1419 -0.1494
 6784SOL     OW31810   2.376   0.501   5.314  0.2294  0.7477  0.3791
 6784SOL    HW131811   2.354   0.513   5.406  2.2478 -0.4950  1.0124
 6784SOL    HW231812   2.447   0.438   5.319 -0.9047 -0.5173  0.5012
 6785SOL     OW31813   0.463   2.988   2.344  0.3534 -0.0405  0.0565
 6785SOL    HW131814   0.425   3.073   2.323 -1.5124 -1.4216 -2.1110
 6785SOL    HW231815   0.391   2.944   2.389  2.2102 -2.4621  0.6547
 6786SOL     OW31816   3.119   3.801   5.584  0.2754  0.5538 -0.1526
 6786SOL    HW131817   3.122   3.705   5.589  0.4470  0.5177 -1.0309
 6786SOL    HW231818   3.199   3.817   5.634 -0.1433 -1.7110  1.2301
 6787SOL     OW31819   3.578   1.787   7.696 -0.2901 -0.0788  0.6337
 6787SOL    HW131820   3.628   1.835   7.629  0.6690  0.8306  1.9866
 6787SOL    HW231821   3.651   1.754   7.749 -0.2364 -1.2153 -0.1623
 6788SOL     OW31822   2.538   0.616   2.744  0.0485 -0.1819  0.1533
 6788SOL    HW131823   2.449   0.604   2.777  0.1153 -0.0181  0.3870
 6788SOL    HW231824   2.553   0.705   2.775 -0.9187  0.1829 -0.4093
 6789SOL     OW31825   0.522   0.533   6.899 -0.3046  0.1157 -0.0116
 6789SOL    HW131826   0.573   0.595   6.846  0.4761 -0.8141 -0.3578
 6789SOL    HW231827   0.542   0.545   6.991  0.5496  1.4090 -0.3608
 6790SOL     OW31828   0.029   3.735   9.901  0.5035 -0.4197 -0.3284
 6790SOL    HW131829   0.068   3.805   9.849 -0.8068 -0.6542 -1.6353
 6790SOL    HW231830   4.705   3.791   9.963  2.0254 -0.7918  1.1408
 6791SOL     OW31831   2.394   1.500   6.150  0.0077  0.0265 -0.2195
 6791SOL    HW131832   2.367   1.590   6.168  0.1357 -0.2466  1.3050
 6791SOL    HW231833   2.460   1.518   6.082  2.7365 -1.9443  1.9129
 6792SOL     OW31834   1.132   2.279   5.143  0.5470  0.7466 -0.5031
 6792SOL    HW131835   1.153   2.324   5.062  2.8736  0.7545  0.0843
 6792SOL    HW231836   1.077   2.342   5.188  0.2165  0.4526 -0.4965
 6793SOL     OW31837   1.997   1.644   4.591 -0.0159  0.2654 -0.5028
 6793SOL    HW131838   2.040   1.638   4.677 -1.0059 -0.3850 -0.0407
 6793SOL    HW231839   2.061   1.593   4.543 -0.0491  0.2652 -0.5466
 6794SOL     OW31840   2.884   3.995   1.910  0.3152  0.1028  0.1642
 6794SOL    HW131841   2.972   4.031   1.907  1.1300 -1.5923  3.8761
 6794SOL    HW231842   2.824   4.067   1.930 -0.1643 -0.4237  0.6374
 6795SOL     OW31843   0.767   0.073   6.985  0.0943 -0.3254 -0.0045
 6795SOL    HW131844   0.860   0.054   6.981  0.2624  0.9733 -1.8080
 6795SOL    HW231845   0.747   0.001   7.045  1.5838  0.0007  0.8892
 6796SOL     OW31846   3.892   0.899   6.563 -0.6652 -0.3717 -0.3015
 6796SOL    HW131847   3.900   0.824   6.622  0.5516  0.5723  0.7275
 6796SOL    HW231848   3.945   0.964   6.609  0.4851 -0.7650 -1.0642
 6797SOL     OW31849   3.012   3.314  16.474  0.5703 -0.0742  0.1661
 6797SOL    HW131850   2.965   3.306  16.391 -1.2335  0.7365  1.1079
 6797SOL    HW231851   3.100   3.343  16.452  0.3964  0.0615 -0.3678
 6798SOL     OW31852   2.097   2.681   6.829 -0.1143 -0.2452 -0.7511
 6798SOL    HW131853   2.073   2.673   6.921 -1.4178 -0.6865 -1.1245
 6798SOL    HW231854   2.011   2.670   6.790 -1.8431  2.3566  2.3311
 6799SOL     OW31855   1.585   4.563   6.268 -0.0048  0.2431 -0.3612
 6799SOL    HW131856   1.641   4.545   6.193 -1.8115 -1.6073 -1.2675
 6799SOL    HW231857   1.554   4.472   6.267  0.4249  0.0829  2.3970
 6800SOL     OW31858   2.438   2.939   7.844 -0.2152 -0.3277  0.1632
 6800SOL    HW131859   2.430   2.930   7.749  0.6211 -1.5856  0.2099
 6800SOL    HW231860   2.353   2.973   7.869  0.1292  1.0464 -0.5387
 6801SOL     OW31861   3.409   4.689   0.586 -0.0837 -0.1820 -0.5210
 6801SOL    HW131862   3.316   4.670   0.581  0.3812 -2.8115  0.9267
 6801SOL    HW231863   3.403   0.043   0.643 -1.5441 -0.7883  0.1370
 6802SOL     OW31864   4.538   0.374  14.332 -0.1724  0.0578  0.0238
 6802SOL    HW131865   4.564   0.289  14.297 -0.7706 -0.0258 -0.2193
 6802SOL    HW231866   4.616   0.425  14.311  0.7097 -1.3027  0.0612
 6803SOL     OW31867   0.026   1.372   8.738  0.2087 -0.6771  0.4286
 6803SOL    HW131868   4.720   1.319   8.811 -0.0246  2.0829  2.3474
 6803SOL    HW231869   0.065   1.446   8.784  0.3410 -0.4516 -0.0434
 6804SOL     OW31870   2.852   1.170  17.677 -0.7988  0.0298 -0.1728
 6804SOL    HW131871   2.913   1.107  17.641  0.6445  1.6515 -0.5578
 6804SOL    HW231872   2.814   1.199  17.593  0.6737 -0.4120 -0.9825
 6805SOL     OW31873   3.717   3.428  12.539 -0.5301 -0.5287 -0.0907
 6805SOL    HW131874   3.776   3.427  12.463  0.5727  1.8736  0.7510
 6805SOL    HW231875   3.647   3.370  12.509 -1.2055 -1.4007  3.1177
 6806SOL     OW31876   4.654   2.060   7.255 -1.0299 -0.1524 -0.4654
 6806SOL    HW131877   4.608   2.143   7.270  0.7789  0.7249  0.1448
 6806SOL    HW231878   4.605   1.990   7.298  0.1677 -0.2406  0.7621
 6807SOL     OW31879   3.361   4.224  11.205 -0.2785 -0.4857  0.3330
 6807SOL    HW131880   3.427   4.165  11.168  0.2106 -0.8135  1.7149
 6807SOL    HW231881   3.401   4.298  11.251 -1.3555  1.3192 -1.6635
 6808SOL     OW31882   0.874   4.384   1.507 -0.3064  0.1798 -0.1079
 6808SOL    HW131883   0.862   4.409   1.415 -1.0058 -0.0377 -0.0739
 6808SOL    HW231884   0.969   4.379   1.511 -0.4046 -1.4828  0.1289
 6809SOL     OW31885   0.867   3.218   3.310 -0.0687  0.1616  0.0664
 6809SOL    HW131886   0.889   3.130   3.342  0.8384 -0.1224 -1.3265
 6809SOL    HW231887   0.772   3.212   3.300 -0.0966  0.9378 -0.1109
 6810SOL     OW31888   1.934   1.254  11.947 -0.4185 -0.0302  0.2699
 6810SOL    HW131889   1.988   1.178  11.969  0.7022  0.5600 -0.4936
 6810SOL    HW231890   1.999   1.323  11.961 -1.2096  1.3932 -3.1486
 6811SOL     OW31891   0.970   1.771  13.445  0.2936  0.0792  0.2401
 6811SOL    HW131892   0.896   1.795  13.501 -0.0716  1.2891 -0.7761
 6811SOL    HW231893   1.043   1.771  13.507  1.0802  2.3108 -0.7092
 6812SOL     OW31894   4.468   1.277   7.068  0.5126 -0.0230  0.2918
 6812SOL    HW131895   4.431   1.229   7.142 -1.3739  2.2836  0.8271
 6812SOL    HW231896   4.387   1.310   7.030  0.2613  0.9269  1.6888
 6813SOL     OW31897   2.849   3.259   5.299 -0.5017  0.5638 -0.1419
 6813SOL    HW131898   2.772   3.208   5.324 -0.5947  0.2980 -0.9827
 6813SOL    HW231899   2.903   3.188   5.267  1.4948  1.3418  1.4984
 6814SOL     OW31900   1.103   0.683   0.004  0.8837 -0.1711  0.2922
 6814SOL    HW131901   1.051   0.714  17.625 -0.2430 -1.0965  0.6984
 6814SOL    HW231902   1.049   0.614   0.042 -0.1600  1.4834  1.8262
 6815SOL     OW31903   2.034   4.169   7.377 -0.5892 -0.3834  0.0608
 6815SOL    HW131904   2.025   4.097   7.314 -1.1308  0.0845 -0.4005
 6815SOL    HW231905   1.950   4.214   7.373 -2.0811 -3.3164 -0.7824
 6816SOL     OW31906   2.803   3.631  14.464  0.2103 -0.0845 -0.2180
 6816SOL    HW131907   2.839   3.698  14.523 -0.3863 -0.0167  0.0754
 6816SOL    HW231908   2.775   3.567  14.529  1.2037 -1.1415 -0.8436
 6817SOL     OW31909   1.389   2.313   4.457  0.3786  0.7367  0.0221
 6817SOL    HW131910   1.472   2.361   4.458  1.8469 -1.7827  1.1190
 6817SOL    HW231911   1.438   2.232   4.475  1.0211  0.1453 -4.2586
 6818SOL     OW31912   3.028   3.786   5.308 -0.5146  0.2313  0.2375
 6818SOL    HW131913   3.015   3.729   5.384 -0.3622  0.8271  0.7069
 6818SOL    HW231914   3.113   3.819   5.337 -0.8624 -0.4155  2.0097
 6819SOL     OW31915   4.436   0.775   5.744  0.6119 -0.1016  1.2208
 6819SOL    HW131916   4.405   0.693   5.707  1.4786  0.3263 -0.4624
 6819SOL    HW231917   4.530   0.770   5.729  0.8601  0.3598  2.5682
 6820SOL     OW31918   3.482   3.410   8.296  0.0379 -0.2540 -0.2557
 6820SOL    HW131919   3.388   3.397   8.287 -0.0336  0.6342 -0.8744
 6820SOL    HW231920   3.516   3.371   8.215  1.1982  0.2668 -0.0340
 6821SOL     OW31921   0.346   3.856  13.842  0.4341  0.8785  0.2307
 6821SOL    HW131922   0.388   3.850  13.756 -2.5323  2.8057 -1.3622
 6821SOL    HW231923   0.394   3.935  13.867  0.7939  0.2588  1.4886
 6822SOL     OW31924   4.504   3.610   8.301  0.0338  0.4310 -0.6451
 6822SOL    HW131925   4.466   3.536   8.255 -0.1605 -1.4977  2.6276
 6822SOL    HW231926   4.440   3.640   8.365  0.3967  1.4942 -0.7786
 6823SOL     OW31927   1.693   2.210   8.116  0.2787 -0.4537 -1.1208
 6823SOL    HW131928   1.679   2.251   8.202 -1.0633 -1.9639 -0.6240
 6823SOL    HW231929   1.631   2.253   8.057 -1.1334 -0.6193  0.2370
 6824SOL     OW31930   4.396   0.538   6.912 -0.2902 -0.0940  0.0234
 6824SOL    HW131931   4.380   0.454   6.869 -1.8485  0.9351 -1.3874
 6824SOL    HW231932   4.483   0.563   6.881  0.1721 -0.0163  1.3731
 6825SOL     OW31933   1.751   1.434   8.403  0.1472 -1.2483 -0.6119
 6825SOL    HW131934   1.779   1.441   8.312 -0.6666  0.7436 -0.7094
 6825SOL    HW231935   1.705   1.351   8.406  3.1648 -2.9015  0.4509
 6826SOL     OW31936   4.455   1.164  14.237  0.1316  0.3003 -0.2872
 6826SOL    HW131937   4.375   1.127  14.198 -0.4416  1.5993 -0.3300
 6826SOL    HW231938   4.478   1.240  14.185  3.1018  0.9420  2.0013
 6827SOL     OW31939   2.501   1.179   4.663 -0.7376  0.2449  0.3572
 6827SOL    HW131940   2.492   1.121   4.739 -0.7465  0.2672  0.3735
 6827SOL    HW231941   2.558   1.128   4.606 -1.9016  0.1996 -0.7646
 6828SOL     OW31942   0.455   0.387   3.980  0.7048  0.2572  0.0524
 6828SOL    HW131943   0.383   0.327   3.959  1.3742  0.2026 -2.1791
 6828SOL    HW231944   0.512   0.362   3.907  1.1180  0.1373  0.4209
 6829SOL     OW31945   0.173   3.116   0.789 -0.3196 -0.3991 -0.1803
 6829SOL    HW131946   0.158   3.044   0.851 -1.1569  1.0540  1.3220
 6829SOL    HW231947   0.252   3.082   0.747  1.2895  1.3293  1.4362
 6830SOL     OW31948   0.475   0.962  13.122 -0.0760 -0.2029 -0.7125
 6830SOL    HW131949   0.503   1.049  13.149  0.1904 -0.2307 -0.8914
 6830SOL    HW231950   0.553   0.924  13.080  0.4799  0.3519 -0.1930
 6831SOL     OW31951   4.070   3.305   3.069 -0.7717 -0.1744  0.0450
 6831SOL    HW131952   4.050   3.341   2.983 -0.6465 -1.1690 -0.3987
 6831SOL    HW231953   4.105   3.221   3.040 -1.5275  0.1980 -1.9280
 6832SOL     OW31954   2.992   0.436   9.385  0.4154  0.2833  0.3335
 6832SOL    HW131955   2.982   0.473   9.473 -1.6506 -1.3093  0.7644
 6832SOL    HW231956   2.908   0.398   9.362  0.3418  1.3981 -1.3089
 6833SOL     OW31957   3.496   4.382   7.544  0.3233  0.2902  0.3467
 6833SOL    HW131958   3.441   4.305   7.558 -0.8064  1.9225  5.1269
 6833SOL    HW231959   3.582   4.341   7.548  0.1298 -0.2056 -0.4985
 6834SOL     OW31960   1.312   1.795   8.324  0.3188 -0.0371  0.3313
 6834SOL    HW131961   1.273   1.857   8.263 -0.5501 -1.5172 -0.6016
 6834SOL    HW231962   1.270   1.829   8.403 -0.5263 -2.2242  0.8318
 6835SOL     OW31963   1.941   0.022   5.470  0.1123 -0.2272  1.0351
 6835SOL    HW131964   1.974   0.050   5.385  0.7643  1.1562  1.7524
 6835SOL    HW231965   1.938   4.649   5.470  1.4540 -0.2684  1.3687
 6836SOL     OW31966   3.866   4.447  10.544 -0.7514  0.1075 -0.2064
 6836SOL    HW131967   3.922   4.449  10.466  0.0093 -1.0779  0.3100
 6836SOL    HW231968   3.925   4.455  10.619  0.1509  2.0810 -1.1162
 6837SOL     OW31969   3.485   1.343   9.412  0.1136  0.4394  0.4231
 6837SOL    HW131970   3.505   1.352   9.505  0.2057 -0.8650  0.5333
 6837SOL    HW231971   3.535   1.413   9.371 -0.7376  1.9373  1.9219
 6838SOL     OW31972   2.150   0.190   8.878 -0.4660  0.2372 -0.2572
 6838SOL    HW131973   2.152   0.194   8.974  2.3145 -0.9475 -0.2697
 6838SOL    HW231974   2.192   0.104   8.872  0.9659  0.6618  3.3870
 6839SOL     OW31975   0.039   3.802  12.566 -0.0502  0.2023  0.2269
 6839SOL    HW131976   4.703   3.769  12.499  2.5042  1.1076 -2.4566
 6839SOL    HW231977   0.126   3.801  12.525 -0.4573  3.0800 -0.7009
 6840SOL     OW31978   1.577   0.167   3.410  0.2435  0.1337  0.3551
 6840SOL    HW131979   1.596   0.215   3.329  2.5759  0.5327  1.1496
 6840SOL    HW231980   1.643   0.195   3.473  0.7715 -2.5843  1.0355
 6841SOL     OW31981   1.856   0.072  10.888  0.3414  0.0292 -0.1371
 6841SOL    HW131982   1.922   0.009  10.915  1.7500  0.8602 -1.6543
 6841SOL    HW231983   1.867   0.154  10.936 -0.6872  1.0837 -1.6706
 6842SOL     OW31984   0.276   3.001   8.887  0.1267  0.5621  0.3417
 6842SOL    HW131985   0.273   3.093   8.861 -1.5858  0.6381  0.8111
 6842SOL    HW231986   0.208   2.965   8.830  2.4712 -2.4091 -0.5836
 6843SOL     OW31987   2.760   1.915  15.470 -0.3024 -0.1255 -0.5716
 6843SOL    HW131988   2.808   1.963  15.403 -3.0218 -1.1872 -3.2771
 6843SOL    HW231989   2.831   1.911  15.534 -1.0096 -0.3947  0.1961
 6844SOL     OW31990   4.163   1.663  14.541 -0.5033 -0.2738 -0.2320
 6844SOL    HW131991   4.230   1.652  14.609 -0.4857 -0.3692 -0.2647
 6844SOL    HW231992   4.159   1.753  14.511  0.9732 -1.3069 -3.4960
 6845SOL     OW31993   3.568   1.013   4.932  0.6256  0.1544  0.3225
 6845SOL    HW131994   3.560   1.106   4.907 -1.0604 -0.9194 -3.1738
 6845SOL    HW231995   3.629   1.010   5.005 -0.4312  1.3664  1.2730
 6846SOL     OW31996   0.452   4.240   0.710 -0.1579  0.2064 -0.1039
 6846SOL    HW131997   0.506   4.227   0.633  3.2175  1.5891  1.9977
 6846SOL    HW231998   0.385   4.293   0.667 -0.2904 -0.1200 -0.2990
 6847SOL     OW31999   2.774   1.761   2.820 -0.8445  0.2793 -0.1426
 6847SOL    HW132000   2.789   1.794   2.731 -0.0729 -2.2482 -0.9662
 6847SOL    HW232001   2.692   1.713   2.804 -1.6884  1.6604  0.0246
 6848SOL     OW32002   4.282   3.891   1.053 -0.5710  0.1674  0.0136
 6848SOL    HW132003   4.223   3.931   0.990 -0.6998  0.2122  0.1616
 6848SOL    HW232004   4.222   3.869   1.125 -0.1658 -1.6088 -0.1803
 6849SOL     OW32005   1.211   1.886   5.767 -0.1772  0.1764 -0.5506
 6849SOL    HW132006   1.206   1.975   5.802  0.6263 -0.5884  1.4922
 6849SOL    HW232007   1.154   1.875   5.691  0.4358  0.5092 -1.0612
 6850SOL     OW32008   4.143   2.306   0.389 -0.0990 -0.6939 -0.1485
 6850SOL    HW132009   4.230   2.337   0.362 -0.7140  0.4433 -0.8200
 6850SOL    HW232010   4.180   2.240   0.447  3.4415  1.8289  0.4367
 6851SOL     OW32011   4.189   3.108   2.019  0.1037  0.4743  0.3185
 6851SOL    HW132012   4.100   3.073   2.030 -0.5335  0.8495 -3.6327
 6851SOL    HW232013   4.166   3.200   2.022  0.4134  0.5590  0.0821
 6852SOL     OW32014   1.249   2.185   2.023 -0.0922  0.6064 -0.1933
 6852SOL    HW132015   1.320   2.176   2.087 -0.6818 -1.4617  0.1418
 6852SOL    HW232016   1.242   2.280   2.009 -0.8624  0.5199 -0.3773
 6853SOL     OW32017   4.625   2.191   7.707 -0.4780 -0.0713 -0.0722
 6853SOL    HW132018   4.610   2.286   7.699 -0.6498  0.0253  1.5156
 6853SOL    HW232019   4.709   2.189   7.751 -0.2886 -0.6364 -0.4694
 6854SOL     OW32020   3.966   2.956   7.689 -0.1966  0.0148  0.3129
 6854SOL    HW132021   4.016   2.877   7.707  2.4338  1.0410 -2.5598
 6854SOL    HW232022   4.007   2.987   7.609  0.8795 -1.0145  0.4608
 6855SOL     OW32023   4.659   2.957  10.889 -0.0627 -0.1873  0.3053
 6855SOL    HW132024   0.020   2.978  10.928 -0.1613 -2.0865  1.5125
 6855SOL    HW232025   4.687   2.970  10.798  1.5414 -1.7079  0.6135
 6856SOL     OW32026   4.661   3.053   3.070  0.2008 -0.6080 -0.5456
 6856SOL    HW132027   0.008   3.004   3.113  0.3638  0.0315 -0.0833
 6856SOL    HW232028   4.719   3.088   3.003  0.2907  0.0051 -0.1491
 6857SOL     OW32029   0.678   3.371   9.363  0.1405 -0.3496 -0.1268
 6857SOL    HW132030   0.695   3.456   9.405 -1.3726  0.1847 -0.5859
 6857SOL    HW232031   0.689   3.314   9.439  0.2143  0.6537  0.6282
 6858SOL     OW32032   2.600   2.785   5.057  0.1853  0.0906  0.5361
 6858SOL    HW132033   2.563   2.712   5.006  1.8099 -0.8610  0.7378
 6858SOL    HW232034   2.526   2.824   5.105 -0.1326 -0.4001  0.4526
 6859SOL     OW32035   3.431   3.498   0.607 -0.3182  0.2269 -0.1710
 6859SOL    HW132036   3.420   3.511   0.701 -1.7050  3.1487 -0.7254
 6859SOL    HW232037   3.514   3.537   0.578  0.4771 -0.2971  1.3923
 6860SOL     OW32038   4.509   2.105  15.111  0.2619 -0.1296  0.5471
 6860SOL    HW132039   4.461   2.116  15.194 -0.5849 -0.1116  0.0525
 6860SOL    HW232040   4.499   2.187  15.064  0.0657 -0.4734 -0.0135
 6861SOL     OW32041   2.564   1.383   7.433 -0.3343  0.4742  0.3982
 6861SOL    HW132042   2.619   1.435   7.493  2.6456 -1.5370 -0.5813
 6861SOL    HW232043   2.538   1.318   7.499 -2.0653  0.8305  0.0764
 6862SOL     OW32044   0.175   0.037   2.380  0.0583 -0.5412 -0.7280
 6862SOL    HW132045   0.237   0.053   2.309  1.8142  2.8327  1.5464
 6862SOL    HW232046   0.102   4.723   2.332  0.6493  0.2928 -2.2786
 6863SOL     OW32047   0.815   3.052   5.773 -0.2392 -0.1727  0.0859
 6863SOL    HW132048   0.746   3.024   5.712 -0.4964  0.2042  0.2082
 6863SOL    HW232049   0.886   3.060   5.709  0.0938 -0.7313  0.3882
 6864SOL     OW32050   1.542   4.347   3.521 -0.2783  0.4803  0.2803
 6864SOL    HW132051   1.469   4.288   3.537 -0.2058  0.3451  0.1039
 6864SOL    HW232052   1.499   4.409   3.462  0.9225  0.6370 -0.4243
 6865SOL     OW32053   1.203   0.438  13.369 -0.3953  0.2375 -0.8851
 6865SOL    HW132054   1.290   0.406  13.393 -0.0117  2.3343  0.5146
 6865SOL    HW232055   1.189   0.518  13.420 -0.9470 -0.6579  0.3410
 6866SOL     OW32056   0.459   0.981   8.876 -0.1250  0.6204 -0.7234
 6866SOL    HW132057   0.441   0.943   8.962  1.9212  1.0245 -0.1072
 6866SOL    HW232058   0.447   1.072   8.905 -0.7333  0.5289 -0.6827
 6867SOL     OW32059   3.867   3.303   1.193  0.0771  0.0099 -0.3957
 6867SOL    HW132060   3.842   3.216   1.223 -1.5669  0.7155  0.2405
 6867SOL    HW232061   3.874   3.344   1.279 -1.0200 -1.6479  0.4734
 6868SOL     OW32062   0.910   1.248  13.699  0.4087 -0.2676  0.1467
 6868SOL    HW132063   0.838   1.311  13.693 -0.7332 -1.5327  0.4648
 6868SOL    HW232064   0.971   1.290  13.639  1.1324  1.7488  2.3037
 6869SOL     OW32065   0.479   2.883   9.665 -0.1659 -0.4490 -0.2947
 6869SOL    HW132066   0.405   2.941   9.682  0.4110  0.4863 -0.9505
 6869SOL    HW232067   0.457   2.855   9.576 -1.1713 -0.5140 -0.0286
 6870SOL     OW32068   1.325   1.517   2.052 -0.7752 -0.3191 -0.0917
 6870SOL    HW132069   1.304   1.596   2.101  0.2135 -0.4551  0.5556
 6870SOL    HW232070   1.250   1.462   2.073 -0.3563 -0.3230  1.4325
 6871SOL     OW32071   1.459   0.880   4.896 -0.2323 -0.0281 -0.2752
 6871SOL    HW132072   1.466   0.821   4.821 -0.4587 -0.7407  0.2677
 6871SOL    HW232073   1.418   0.818   4.956  1.0190 -0.8365 -0.2488
 6872SOL     OW32074   1.788   3.390  11.446 -0.2050 -0.6572  0.6614
 6872SOL    HW132075   1.761   3.382  11.538 -0.6730  0.7692  0.6539
 6872SOL    HW232076   1.859   3.454  11.451 -1.6861  1.0550 -0.2191
 6873SOL     OW32077   3.701   1.303   9.941  0.2087  0.0237 -0.1507
 6873SOL    HW132078   3.795   1.299   9.925  0.4654 -1.2222  1.6652
 6873SOL    HW232079   3.710   1.353  10.021  2.6554  2.3457 -1.9034
 6874SOL     OW32080   1.490   0.390   5.879 -0.1920  0.5518 -0.0742
 6874SOL    HW132081   1.471   0.480   5.902 -0.6432  0.3774  0.2327
 6874SOL    HW232082   1.568   0.403   5.825  1.1558  1.0496  2.0095
 6875SOL     OW32083   4.120   2.397   5.471  0.5675  0.2532  0.1471
 6875SOL    HW132084   4.194   2.416   5.528  1.9519 -0.8833 -1.2506
 6875SOL    HW232085   4.148   2.393   5.379  0.6656  0.7741  0.1541
 6876SOL     OW32086   2.577   0.023  12.500  0.1483 -0.1194 -0.1453
 6876SOL    HW132087   2.506   0.086  12.487 -0.4619 -0.7201  0.2898
 6876SOL    HW232088   2.616   0.049  12.583  3.5531  0.3871 -1.8758
 6877SOL     OW32089   0.725   3.242   6.819 -0.0336  0.0603 -0.6460
 6877SOL    HW132090   0.677   3.227   6.737 -0.2179 -0.3041 -0.4708
 6877SOL    HW232091   0.798   3.287   6.776  0.2729 -0.0746 -0.2638
 6878SOL     OW32092   2.703   2.957   4.408  0.3962  0.3178 -0.1813
 6878SOL    HW132093   2.706   2.862   4.400  0.5110  0.1429  1.8997
 6878SOL    HW232094   2.662   2.976   4.324  3.1126 -0.8174 -1.7819
 6879SOL     OW32095   1.369   3.217   8.808  0.2122  0.1741 -0.4484
 6879SOL    HW132096   1.338   3.128   8.819 -1.3000  0.8119  0.4381
 6879SOL    HW232097   1.357   3.226   8.713 -1.1721  2.9014 -0.0274
 6880SOL     OW32098   1.067   1.973   5.505  0.2530  0.0379 -0.0442
 6880SOL    HW132099   1.028   2.051   5.545 -0.4900  0.0838 -0.8645
 6880SOL    HW232100   0.996   1.911   5.519 -0.9655  0.8331 -2.5595
 6881SOL     OW32101   2.440   3.957  15.796  0.1686 -0.2109  0.0550
 6881SOL    HW132102   2.369   3.979  15.856 -1.5362 -1.5769 -1.4928
 6881SOL    HW232103   2.440   4.039  15.746  0.1276  0.7864  1.6790
 6882SOL     OW32104   2.970   0.869   9.112  0.5193 -0.3381  0.1596
 6882SOL    HW132105   2.920   0.807   9.165 -1.8753  0.7850 -0.8062
 6882SOL    HW232106   2.923   0.952   9.121  0.8604 -0.1832  0.5620
 6883SOL     OW32107   4.495   3.551  11.072  0.4047  0.3430 -0.4116
 6883SOL    HW132108   4.521   3.635  11.034  1.4807  0.4762  0.6185
 6883SOL    HW232109   4.484   3.508  10.987 -1.4674  0.6454 -0.3173
 6884SOL     OW32110   1.517   3.103   3.669 -0.0035 -0.4137  0.3526
 6884SOL    HW132111   1.527   3.008   3.660 -0.6218 -0.5011  0.5651
 6884SOL    HW232112   1.442   3.121   3.611  0.7916 -0.5801 -0.7216
 6885SOL     OW32113   3.164   3.596   2.513 -0.3261 -0.0420 -0.3817
 6885SOL    HW132114   3.080   3.553   2.526  1.1522 -2.4948  1.1852
 6885SOL    HW232115   3.163   3.606   2.418  1.6424  0.7373 -0.3139
 6886SOL     OW32116   2.377   0.207  15.202  0.1467  0.6019  0.7747
 6886SOL    HW132117   2.351   0.244  15.286 -0.2540  2.7130 -0.2902
 6886SOL    HW232118   2.395   0.292  15.163  2.1308 -0.6087 -0.9189
 6887SOL     OW32119   1.790   2.355   2.668  0.1530  0.1955 -0.0334
 6887SOL    HW132120   1.745   2.436   2.643 -0.9427  0.4254  2.6074
 6887SOL    HW232121   1.842   2.398   2.736 -0.0150  2.1861 -1.1470
 6888SOL     OW32122   4.581   2.411   7.087 -0.1049 -0.3311 -0.0037
 6888SOL    HW132123   4.575   2.408   7.183  0.8686 -0.3728  0.0610
 6888SOL    HW232124   4.489   2.396   7.065 -0.6579  1.2967  1.1777
 6889SOL     OW32125   4.121   4.453   3.685 -0.4068 -0.0151 -0.2041
 6889SOL    HW132126   4.162   4.522   3.736 -1.3315 -0.3592  0.9942
 6889SOL    HW232127   4.167   4.466   3.602  2.8885  1.0520  1.8328
 6890SOL     OW32128   3.385   3.980   0.407 -0.1344  0.2111 -0.0374
 6890SOL    HW132129   3.344   3.894   0.403  1.0537 -0.3563  0.1509
 6890SOL    HW232130   3.417   4.003   0.320  2.0562  0.3022  0.8107
 6891SOL     OW32131   3.383   0.135   9.146  0.1318 -0.1740 -0.3793
 6891SOL    HW132132   3.350   0.168   9.230 -0.5268 -1.7374 -0.0168
 6891SOL    HW232133   3.328   0.057   9.145  0.0813 -0.1350 -0.6014
 6892SOL     OW32134   0.098   0.262  12.800 -0.3991  0.2506 -0.1264
 6892SOL    HW132135   0.187   0.228  12.798 -1.5489 -2.7943  0.3495
 6892SOL    HW232136   0.118   0.346  12.841  0.8234 -1.1980  2.2446
 6893SOL     OW32137   1.520   0.693  13.343  0.2072  0.2480  0.3800
 6893SOL    HW132138   1.509   0.711  13.437 -1.2768  0.6794  0.1362
 6893SOL    HW232139   1.610   0.720  13.325 -0.3697  2.1408  0.3061
 6894SOL     OW32140   1.053   3.420  16.362  0.1793 -0.3070 -0.0251
 6894SOL    HW132141   1.144   3.443  16.341  0.2797  1.3941  2.3388
 6894SOL    HW232142   1.073   3.403  16.454 -0.7122  0.5403  0.3335
 6895SOL     OW32143   1.649   2.878   7.621  0.0504 -0.4129 -0.2963
 6895SOL    HW132144   1.567   2.833   7.600 -0.7603  1.2885 -0.7078
 6895SOL    HW232145   1.612   2.964   7.603 -1.1441 -1.0149 -0.7054
 6896SOL     OW32146   2.314   3.901   6.257 -0.0397  0.0351  0.4551
 6896SOL    HW132147   2.238   3.958   6.243 -0.2285 -0.6279 -1.1563
 6896SOL    HW232148   2.372   3.964   6.301 -1.3471  2.6180 -1.5083
 6897SOL     OW32149   2.125   4.576   3.526  0.0141 -0.3901 -0.2135
 6897SOL    HW132150   2.047   4.627   3.548  2.3024  1.9681  2.3467
 6897SOL    HW232151   2.135   4.594   3.433  1.8371 -0.5900 -0.0519
 6898SOL     OW32152   0.649   1.951   2.025  0.4575 -0.6252 -0.1038
 6898SOL    HW132153   0.573   1.938   1.968  0.9067 -0.1146 -0.8165
 6898SOL    HW232154   0.706   1.879   2.000  1.7744  0.0237  1.0448
 6899SOL     OW32155   3.444   4.439   8.466 -0.1151  0.1714  0.1557
 6899SOL    HW132156   3.517   4.392   8.506  0.2129 -1.2544 -2.1316
 6899SOL    HW232157   3.411   4.373   8.405  2.5523 -0.0731 -0.9952
 6900SOL     OW32158   3.627   0.123   4.453 -0.6572  0.3282  0.7260
 6900SOL    HW132159   3.585   0.078   4.379  0.1364  0.9132 -0.0865
 6900SOL    HW232160   3.612   0.067   4.529 -1.4057 -1.2992 -0.6196
 6901SOL     OW32161   1.742   2.246  16.357 -0.6241  0.5390  0.0172
 6901SOL    HW132162   1.829   2.278  16.380 -0.1129 -0.7758 -0.0920
 6901SOL    HW232163   1.698   2.328  16.337 -1.3579  0.3839  0.9895
 6902SOL     OW32164   2.872   1.289   8.993 -0.1981 -0.5100  0.2380
 6902SOL    HW132165   2.957   1.319   9.028 -0.4134  1.1750 -0.6910
 6902SOL    HW232166   2.891   1.267   8.902  0.7949 -3.2895  1.0895
 6903SOL     OW32167   0.294   0.861   3.238  0.5004 -0.3334 -0.2832
 6903SOL    HW132168   0.345   0.786   3.206  1.7429 -0.1402  1.2411
 6903SOL    HW232169   0.285   0.919   3.162 -0.9171  1.2083  1.0729
 6904SOL     OW32170   2.556   0.503   4.388 -0.0907  0.2521 -0.4431
 6904SOL    HW132171   2.524   0.462   4.467  0.9031  2.2786  1.0350
 6904SOL    HW232172   2.639   0.455   4.382 -0.2361 -0.0622  0.1866
 6905SOL     OW32173   0.785   3.393   3.648 -0.1261  0.2296  0.0854
 6905SOL    HW132174   0.865   3.430   3.685 -0.7999  1.8612 -0.0814
 6905SOL    HW232175   0.765   3.329   3.716  2.0769 -1.5375 -0.9364
 6906SOL     OW32176   3.537   0.977   2.567 -0.4864  0.5241 -0.1448
 6906SOL    HW132177   3.557   1.053   2.512  0.0560  0.0422 -0.6244
 6906SOL    HW232178   3.576   0.907   2.515 -0.4060 -0.2225  0.9285
 6907SOL     OW32179   2.927   3.290   7.126 -0.1972 -0.7463 -0.0546
 6907SOL    HW132180   2.904   3.208   7.171  0.8463 -1.1809 -0.2947
 6907SOL    HW232181   3.021   3.274   7.121 -0.0608  0.8010 -2.0867
 6908SOL     OW32182   1.808   3.026   5.568  0.2612  0.1364 -0.8614
 6908SOL    HW132183   1.743   3.007   5.635  0.0568  0.8575 -0.8570
 6908SOL    HW232184   1.750   3.069   5.505  0.1106 -0.9695 -1.4796
 6909SOL     OW32185   2.380   0.589   7.120 -0.0094 -0.9153  0.8269
 6909SOL    HW132186   2.429   0.572   7.039  0.5417 -0.0519  0.9832
 6909SOL    HW232187   2.346   0.677   7.109  1.7545 -0.3490 -0.0316
 6910SOL     OW32188   1.877   3.417  13.847  0.1837 -0.3528 -1.0692
 6910SOL    HW132189   1.964   3.456  13.856  0.1812 -0.6677  0.2769
 6910SOL    HW232190   1.905   3.326  13.852  1.3882 -0.0629 -2.4324
 6911SOL     OW32191   3.988   1.069   2.249  0.1171  0.5622  0.7199
 6911SOL    HW132192   3.993   0.976   2.272  1.4068  0.0354 -1.7420
 6911SOL    HW232193   4.021   1.104   2.332  3.2946  1.1478 -0.8153
 6912SOL     OW32194   2.982   1.929   4.861  0.3031  0.9791  0.1303
 6912SOL    HW132195   2.971   1.975   4.944  0.0076 -0.0960  0.6714
 6912SOL    HW232196   2.946   1.843   4.884 -2.7085  1.5899 -2.1878
 6913SOL     OW32197   0.165   2.868   1.832  0.0026  0.0457  0.0232
 6913SOL    HW132198   0.098   2.921   1.875  1.5231  1.1697  1.0195
 6913SOL    HW232199   0.113   2.874   1.752  1.6006 -0.6176 -1.0612
 6914SOL     OW32200   3.842   2.064   2.478  0.2441  0.1979  0.0029
 6914SOL    HW132201   3.898   2.139   2.496 -0.7683  1.3565 -1.6926
 6914SOL    HW232202   3.858   2.007   2.554 -1.8615  0.5012  0.6733
 6915SOL     OW32203   3.205   4.530   8.506  0.4352  0.0387 -0.1753
 6915SOL    HW132204   3.220   4.612   8.459  1.4221  0.2453  0.4994
 6915SOL    HW232205   3.298   4.507   8.503 -0.2229 -2.7747  0.3482
 6916SOL     OW32206   4.123   3.745   0.166  0.4812  0.1728  0.4228
 6916SOL    HW132207   4.074   3.733   0.084  2.3745 -1.1956 -0.5030
 6916SOL    HW232208   4.059   3.786   0.224  2.4071  1.7639  1.4473
 6917SOL     OW32209   2.111   0.968  13.208  1.0289  0.0179 -0.2726
 6917SOL    HW132210   2.100   0.927  13.122  1.0837  0.2035 -0.3676
 6917SOL    HW232211   2.199   1.004  13.200  0.8363  0.6731  0.5280
 6918SOL     OW32212   1.264   2.233  11.099 -0.2437  0.5325 -0.2165
 6918SOL    HW132213   1.244   2.291  11.025 -0.1309  2.6686  1.4347
 6918SOL    HW232214   1.359   2.236  11.089 -0.0655 -0.0674  1.4107
 6919SOL     OW32215   3.373   2.555   6.423  0.3470 -0.2459  0.4844
 6919SOL    HW132216   3.457   2.564   6.378  0.8195  0.0331  1.4285
 6919SOL    HW232217   3.402   2.548   6.514 -1.1780 -1.6176  0.8631
 6920SOL     OW32218   1.176   3.807  15.886  0.2693 -0.5011  0.0076
 6920SOL    HW132219   1.100   3.776  15.936  0.8958 -4.4911 -1.5459
 6920SOL    HW232220   1.160   3.757  15.807 -0.7409 -0.6226  0.2882
 6921SOL     OW32221   2.327   4.236  15.971  0.2975  0.2318  0.2987
 6921SOL    HW132222   2.301   4.326  15.992  0.9569  0.4647  0.1123
 6921SOL    HW232223   2.399   4.218  16.031  0.8056 -1.2296 -0.7606
 6922SOL     OW32224   2.320   2.953   2.542 -0.7727  0.1422  0.1906
 6922SOL    HW132225   2.341   3.035   2.587 -2.4871  0.6720  0.0199
 6922SOL    HW232226   2.283   2.986   2.460 -1.4690 -2.0178 -0.3493
 6923SOL     OW32227   0.523   0.305   5.326 -0.0848  0.3630 -0.1934
 6923SOL    HW132228   0.586   0.326   5.258  0.3480 -0.4052 -0.0308
 6923SOL    HW232229   0.579   0.259   5.389 -2.4610 -2.5939 -0.2139
 6924SOL     OW32230   1.311   2.250  13.244 -0.0781  0.3140 -0.0723
 6924SOL    HW132231   1.362   2.297  13.177  0.3201  2.4839  1.7621
 6924SOL    HW232232   1.355   2.167  13.261 -2.3395 -1.4839 -3.0592
 6925SOL     OW32233   2.217   0.360   1.894  0.5463  0.6693 -0.2057
 6925SOL    HW132234   2.312   0.365   1.880  0.4683 -2.4001 -1.8035
 6925SOL    HW232235   2.187   0.274   1.864  0.2700  0.9651 -0.7799
 6926SOL     OW32236   1.714   3.009   2.297  0.0002 -0.6372 -0.1952
 6926SOL    HW132237   1.682   3.021   2.208 -1.6432 -1.6894  0.2356
 6926SOL    HW232238   1.798   3.048   2.277 -0.5274 -0.2544 -1.6841
 6927SOL     OW32239   2.934   4.561   4.677  0.5141 -0.2921  0.0435
 6927SOL    HW132240   2.959   4.648   4.645  2.6231 -0.8566  0.1140
 6927SOL    HW232241   2.917   4.575   4.770 -0.1881 -0.7222 -0.0228
 6928SOL     OW32242   3.737   0.990   7.737 -0.2644 -0.2615 -0.0330
 6928SOL    HW132243   3.663   0.994   7.676  0.5448  3.4919 -0.7176
 6928SOL    HW232244   3.739   1.082   7.762  1.5326  0.7796 -4.1305
 6929SOL     OW32245   1.014   4.457   4.799 -0.5709  0.3191 -0.0081
 6929SOL    HW132246   0.991   4.416   4.882  1.8270  2.5616  1.7402
 6929SOL    HW232247   1.108   4.443   4.803 -0.3417  1.1097 -2.1000
 6930SOL     OW32248   0.098   0.582   2.215  0.4936 -0.4491 -0.2434
 6930SOL    HW132249   0.138   0.505   2.256 -1.2680 -1.1942  0.0560
 6930SOL    HW232250   0.047   0.535   2.149 -2.5658  1.7270  0.5987
 6931SOL     OW32251   0.978   4.560   7.886  0.0629 -0.4381  0.1678
 6931SOL    HW132252   0.988   4.521   7.973  1.9207 -0.0893  0.1033
 6931SOL    HW232253   0.964   4.649   7.918  1.3983 -0.1665 -0.0217
 6932SOL     OW32254   0.678   3.151   3.812 -0.9122  0.7992 -0.1617
 6932SOL    HW132255   0.746   3.092   3.845  0.6872  2.4138 -0.6034
 6932SOL    HW232256   0.602   3.112   3.856 -0.0555  1.6273  2.0212
 6933SOL     OW32257   0.215   2.599  10.589  0.2138  0.1628  0.3909
 6933SOL    HW132258   0.268   2.623  10.665 -0.0216 -0.8553  0.8827
 6933SOL    HW232259   0.276   2.626  10.521 -0.4055 -1.2731 -0.7184
 6934SOL     OW32260   0.804   3.164  10.083 -0.0047 -0.1683 -0.2569
 6934SOL    HW132261   0.819   3.218  10.005 -0.8602  0.1364 -0.2075
 6934SOL    HW232262   0.765   3.237  10.130  0.3272 -0.9475  1.2367
 6935SOL     OW32263   4.264   1.397   3.061  0.1515  0.2652  0.1453
 6935SOL    HW132264   4.238   1.313   3.022  2.7997 -0.6047  0.2226
 6935SOL    HW232265   4.255   1.385   3.156 -0.6272  0.3249  0.0746
 6936SOL     OW32266   3.710   2.372  16.978  0.2941 -0.0562  0.3823
 6936SOL    HW132267   3.673   2.391  16.892  1.8530  0.3761 -0.2004
 6936SOL    HW232268   3.729   2.279  16.969 -0.1264  0.0393 -1.3879
 6937SOL     OW32269   2.930   1.928  10.010 -0.8020  0.5262  0.2447
 6937SOL    HW132270   2.938   1.994  10.079 -1.2998  1.0057 -0.1596
 6937SOL    HW232271   2.847   1.885  10.030  0.3522 -2.4248 -1.3731
 6938SOL     OW32272   3.697   1.495   3.590 -0.7005  0.3342  0.4414
 6938SOL    HW132273   3.739   1.432   3.649 -1.1059 -1.8813 -1.6183
 6938SOL    HW232274   3.664   1.432   3.526 -0.2767 -0.3880  0.9338
 6939SOL     OW32275   0.867   4.443  17.286  0.0770  0.1844  0.0607
 6939SOL    HW132276   0.812   4.372  17.253  2.6862 -2.6514  1.8462
 6939SOL    HW232277   0.836   4.521  17.239 -0.8192 -0.0478  0.2752
 6940SOL     OW32278   0.272   0.731   7.576 -0.5855  0.3162 -0.0882
 6940SOL    HW132279   0.216   0.675   7.522 -1.7286  0.6678  0.7413
 6940SOL    HW232280   0.318   0.773   7.503  0.8587 -1.1125 -0.0118
 6941SOL     OW32281   4.235   1.446   0.517 -0.4471 -0.0171  0.1822
 6941SOL    HW132282   4.303   1.513   0.510  2.4982 -2.9276  0.7245
 6941SOL    HW232283   4.200   1.441   0.428  1.1165 -0.5374 -0.4081
 6942SOL     OW32284   1.194   0.605   5.543 -0.0577  0.2044  0.4461
 6942SOL    HW132285   1.176   0.513   5.563 -2.7682  0.7666  0.5670
 6942SOL    HW232286   1.212   0.638   5.631 -1.8948  0.1741  0.8325
 6943SOL     OW32287   2.035   1.811   3.604  0.3253 -0.1429  0.3066
 6943SOL    HW132288   1.982   1.752   3.551  2.1295 -1.4587 -0.0290
 6943SOL    HW232289   2.109   1.756   3.629 -0.6499 -2.0545 -1.0748
 6944SOL     OW32290   2.329   3.401   7.794 -0.6039 -0.1981  0.3889
 6944SOL    HW132291   2.268   3.475   7.789  0.8674  1.1499  2.2158
 6944SOL    HW232292   2.333   3.390   7.889 -0.0730 -0.4692  0.3359
 6945SOL     OW32293   2.497   1.844   3.723 -0.1822  0.3016  0.2410
 6945SOL    HW132294   2.586   1.874   3.708  0.6024 -1.0605  2.1537
 6945SOL    HW232295   2.491   1.866   3.816 -0.6291  0.3888  0.1944
 6946SOL     OW32296   4.376   2.538   9.159  0.1426  0.3749  0.3436
 6946SOL    HW132297   4.300   2.595   9.152  0.4580  0.6991 -0.5414
 6946SOL    HW232298   4.417   2.564   9.076  1.1412  0.4026  0.8394
 6947SOL     OW32299   0.251   0.392  10.441  0.1894  0.1185  0.3494
 6947SOL    HW132300   0.186   0.461  10.448 -1.9351 -1.8884  0.4135
 6947SOL    HW232301   0.203   0.326  10.491 -0.9294 -1.0907 -2.3250
 6948SOL     OW32302   2.941   3.931   6.494 -0.1974  0.8081  0.2445
 6948SOL    HW132303   2.972   3.844   6.471 -1.2437  0.5021  0.0261
 6948SOL    HW232304   2.856   3.932   6.449  0.5902 -1.3814 -1.2667
 6949SOL     OW32305   0.764   2.103   3.918  0.2832  0.6727 -0.1888
 6949SOL    HW132306   0.846   2.104   3.967  1.3194  2.0668 -1.9617
 6949SOL    HW232307   0.711   2.150   3.983 -0.6416 -0.6564  0.0256
 6950SOL     OW32308   1.822   4.419  10.012  0.2081 -0.6196  0.3075
 6950SOL    HW132309   1.743   4.391   9.965 -1.1805 -0.6000  2.6636
 6950SOL    HW232310   1.888   4.386   9.952  0.3301  0.1760  0.0033
 6951SOL     OW32311   3.638   3.109   1.106 -0.1262 -0.0593  0.7460
 6951SOL    HW132312   3.726   3.078   1.128 -0.1103  0.5157  1.4786
 6951SOL    HW232313   3.598   3.099   1.192 -1.7278  0.8391  0.1034
 6952SOL     OW32314   4.440   0.623   8.012  0.9489  0.6952  0.1299
 6952SOL    HW132315   4.350   0.602   7.987  1.3617 -0.1718 -0.6216
 6952SOL    HW232316   4.481   0.538   7.999  0.5931  0.5952 -0.3537
 6953SOL     OW32317   1.788   0.320   7.478 -1.0453 -0.2870  0.4610
 6953SOL    HW132318   1.721   0.379   7.442 -0.0429  2.4885  3.1180
 6953SOL    HW232319   1.841   0.318   7.399 -0.4378 -2.5913  0.9536
 6954SOL     OW32320   3.375   3.072   6.021 -0.1036  0.1451 -0.0453
 6954SOL    HW132321   3.333   3.154   6.048  2.0696  1.0755  0.5401
 6954SOL    HW232322   3.381   3.023   6.102  2.9706  0.9159  0.1789
 6955SOL     OW32323   3.569   2.997  10.843  0.1968 -0.2637 -0.3053
 6955SOL    HW132324   3.504   2.978  10.911  0.8867  0.2101  0.4726
 6955SOL    HW232325   3.646   2.985  10.898  0.6759  1.1977 -0.6648
 6956SOL     OW32326   4.588   1.039   4.365  0.1677  0.0181  0.3079
 6956SOL    HW132327   4.509   1.094   4.364  0.3374  0.2909  1.3395
 6956SOL    HW232328   4.654   1.106   4.385 -0.4888  0.4354  1.0589
 6957SOL     OW32329   4.082   2.663  14.591  0.0393 -0.1068 -0.1266
 6957SOL    HW132330   4.006   2.661  14.649  0.0347 -0.9248 -0.1520
 6957SOL    HW232331   4.155   2.640  14.648  0.0028 -1.1183 -0.4749
 6958SOL     OW32332   2.540   3.059   6.714  0.1435  0.5614  0.6628
 6958SOL    HW132333   2.622   3.028   6.751  0.9207  2.4997  0.5541
 6958SOL    HW232334   2.482   2.986   6.733  1.0504 -0.0549  1.0427
 6959SOL     OW32335   2.656   1.046   3.476  0.0670  0.1302  0.3567
 6959SOL    HW132336   2.610   1.124   3.506 -3.2844 -0.8659 -2.1449
 6959SOL    HW232337   2.739   1.089   3.456 -0.7738  2.5435  2.1965
 6960SOL     OW32338   2.229   2.887   8.903 -0.4514  0.1857 -0.1420
 6960SOL    HW132339   2.230   2.849   8.815  2.4870  0.9547 -0.4496
 6960SOL    HW232340   2.324   2.894   8.912 -0.6830 -0.6426  2.7224
 6961SOL     OW32341   1.631   3.738   4.560  0.4196 -0.6808 -0.3920
 6961SOL    HW132342   1.604   3.776   4.643  2.7778  0.6418 -0.2259
 6961SOL    HW232343   1.671   3.655   4.587  0.6247 -0.7773 -0.9889
 6962SOL     OW32344   1.550   3.283   4.708 -0.1452  0.0821 -0.4991
 6962SOL    HW132345   1.500   3.339   4.649  1.7180 -1.6721 -3.7125
 6962SOL    HW232346   1.604   3.232   4.648  1.4989  1.3553 -0.1072
 6963SOL     OW32347   2.129   2.366  13.200 -0.3514 -0.1018 -0.3980
 6963SOL    HW132348   2.168   2.425  13.264  1.4923 -1.8926  0.1286
 6963SOL    HW232349   2.038   2.364  13.230 -0.6860  2.3358 -1.2614
 6964SOL     OW32350   1.640   1.501   2.130 -0.0450 -0.0810 -0.1602
 6964SOL    HW132351   1.545   1.490   2.124  0.2213 -3.6506  2.1283
 6964SOL    HW232352   1.680   1.428   2.085  0.6763  1.2166 -1.6221
 6965SOL     OW32353   4.309   3.623   9.356 -0.4776  0.4104 -0.6317
 6965SOL    HW132354   4.366   3.547   9.369  2.1516  2.2274 -1.5860
 6965SOL    HW232355   4.254   3.597   9.282  0.9148  0.5696 -1.7180
 6966SOL     OW32356   0.053   2.315   4.971 -0.5315  0.2572 -0.2803
 6966SOL    HW132357   0.036   2.321   5.065  1.5722 -0.2019  0.1415
 6966SOL    HW232358   4.698   2.265   4.948  1.1606 -0.8526 -3.6020
 6967SOL     OW32359   1.746   2.075  15.604  0.0623  0.1475 -0.0395
 6967SOL    HW132360   1.732   2.146  15.667  0.6835  0.1903  0.0506
 6967SOL    HW232361   1.688   2.101  15.532  0.9805 -1.0258 -1.1988
 6968SOL     OW32362   1.426   0.517   2.623  0.0312  0.7097  0.8876
 6968SOL    HW132363   1.331   0.524   2.620  0.1793  2.4559  0.4116
 6968SOL    HW232364   1.449   0.442   2.679 -1.3189 -0.9390 -0.7507
 6969SOL     OW32365   2.036   1.334   3.673 -0.1881 -0.2027 -0.2284
 6969SOL    HW132366   2.025   1.268   3.742  0.8499 -0.6388 -0.4699
 6969SOL    HW232367   1.995   1.414   3.707  0.0368 -0.0953 -0.2096
 6970SOL     OW32368   2.392   2.519  15.875 -0.1636 -0.2458 -0.2757
 6970SOL    HW132369   2.375   2.447  15.935 -2.3829 -0.8840 -1.6571
 6970SOL    HW232370   2.334   2.588  15.908 -0.3345  0.3128 -1.7225
 6971SOL     OW32371   3.200   2.757   0.002 -0.5539  0.0702 -0.2211
 6971SOL    HW132372   3.188   2.756   0.097  0.7091 -2.0038 -0.0865
 6971SOL    HW232373   3.260   2.683  17.692 -0.7706 -0.0486 -1.2015
 6972SOL     OW32374   1.632   2.419   8.285  0.1653  0.4438  0.0687
 6972SOL    HW132375   1.575   2.489   8.252  0.4717  0.4137 -0.5205
 6972SOL    HW232376   1.720   2.454   8.270  0.2804 -0.5423 -1.5068
 6973SOL     OW32377   3.434   1.068   5.509 -0.0966 -0.6689 -0.1899
 6973SOL    HW132378   3.362   1.131   5.511 -0.6599 -1.2983 -0.4109
 6973SOL    HW232379   3.464   1.078   5.599  1.2406  0.0365 -0.7198
 6974SOL     OW32380   4.467   1.975   3.350  0.0564 -0.1352 -0.4066
 6974SOL    HW132381   4.522   2.030   3.295  1.5753 -0.1809  1.0708
 6974SOL    HW232382   4.533   1.923   3.395 -1.2652 -2.9484 -1.7512
 6975SOL     OW32383   0.682   4.032   0.336 -0.1718  0.7533  0.1817
 6975SOL    HW132384   0.679   4.115   0.383  1.2403  0.6046  0.5454
 6975SOL    HW232385   0.703   4.057   0.247  0.6854  1.6616  0.6441
 6976SOL     OW32386   3.610   4.227   5.964 -0.5902 -0.2331  0.3880
 6976SOL    HW132387   3.582   4.195   5.877 -1.3042 -0.0016  0.5287
 6976SOL    HW232388   3.705   4.235   5.955 -0.6103 -1.0290 -0.6573
 6977SOL     OW32389   2.603   2.074   9.811  0.7550 -0.4307  0.0357
 6977SOL    HW132390   2.580   2.005   9.872 -0.8928 -0.8592 -1.0919
 6977SOL    HW232391   2.588   2.160   9.850  0.4576  0.7732 -2.7280
 6978SOL     OW32392   1.605   3.970   2.095  0.1145 -0.2455  0.3333
 6978SOL    HW132393   1.609   3.906   2.023  1.9724 -0.5208  0.6830
 6978SOL    HW232394   1.669   4.034   2.064  2.4532 -2.7726 -0.0711
 6979SOL     OW32395   4.701   1.605   7.956  0.3573 -0.0100  0.4152
 6979SOL    HW132396   4.656   1.530   7.994  2.1372 -0.5754  1.3749
 6979SOL    HW232397   0.066   1.598   7.992  0.4270  3.6265  0.9699
 6980SOL     OW32398   2.987   0.494   5.064  0.1585  0.2541 -0.0267
 6980SOL    HW132399   2.923   0.508   5.134 -1.4581 -1.0945 -1.2576
 6980SOL    HW232400   2.943   0.517   4.983 -1.4672 -1.2672  0.4184
 6981SOL     OW32401   0.776   2.200   9.828  0.4152  0.3676 -0.3567
 6981SOL    HW132402   0.771   2.108   9.855  0.9807  0.5427  0.3505
 6981SOL    HW232403   0.817   2.198   9.741 -2.6367 -0.0150 -1.7844
 6982SOL     OW32404   3.311   3.768  10.621 -0.3810  0.6254  0.0617
 6982SOL    HW132405   3.256   3.842  10.649 -0.4726  0.6526 -0.1892
 6982SOL    HW232406   3.251   3.698  10.595  0.1705 -0.2936  1.3120
 6983SOL     OW32407   2.583   1.128   8.456  0.7888  0.0526 -0.0803
 6983SOL    HW132408   2.657   1.160   8.507  1.4427 -1.4843 -0.0527
 6983SOL    HW232409   2.520   1.195   8.480 -0.0483 -1.5429  2.1329
 6984SOL     OW32410   3.655   1.864  10.988 -0.2145 -0.4856 -0.6779
 6984SOL    HW132411   3.673   1.773  11.012 -0.4059  0.0871  1.5894
 6984SOL    HW232412   3.572   1.840  10.945  0.1871  0.8573 -2.1895
 6985SOL     OW32413   2.255   4.679  12.283 -0.1470  0.2873  0.0459
 6985SOL    HW132414   2.200   4.692  12.206  1.9038 -0.0894 -1.4501
 6985SOL    HW232415   2.341   4.654  12.249 -0.0015 -1.7321  1.8394
 6986SOL     OW32416   1.439   2.951   4.359 -0.2081  0.2717 -0.1207
 6986SOL    HW132417   1.386   2.893   4.413  0.8091 -0.9580 -0.4409
 6986SOL    HW232418   1.444   2.897   4.280 -2.3879 -1.7614  1.1515
 6987SOL     OW32419   3.088   0.759  15.135 -0.0044 -0.1848 -0.0269
 6987SOL    HW132420   3.156   0.721  15.079 -1.1408 -2.7592  0.3310
 6987SOL    HW232421   3.047   0.834  15.091  1.0523 -0.1900 -1.0262
 6988SOL     OW32422   4.642   0.054  11.974 -0.3707 -0.7315 -0.3412
 6988SOL    HW132423   4.669   4.723  11.900  2.1842  1.0411 -0.7321
 6988SOL    HW232424   0.004   0.065  12.017 -0.7916 -1.8468  0.7718
 6989SOL     OW32425   3.977   4.480   2.484  0.1374 -0.1522 -0.3169
 6989SOL    HW132426   3.925   4.429   2.546  4.2406  0.7683  3.8792
 6989SOL    HW232427   3.994   4.415   2.415  2.7505 -0.6057  0.7738
 6990SOL     OW32428   0.237   0.161   5.186 -0.0404 -0.0921 -0.1093
 6990SOL    HW132429   0.179   0.088   5.163 -0.6444 -0.1709  1.6377
 6990SOL    HW232430   0.293   0.163   5.109  2.0730 -0.4603  1.4280
 6991SOL     OW32431   2.167   3.937  14.596  0.3650  0.1362 -0.0654
 6991SOL    HW132432   2.148   3.845  14.616 -4.0965  0.6456 -1.9346
 6991SOL    HW232433   2.223   3.935  14.518 -0.3824  0.7089 -0.6148
 6992SOL     OW32434   0.002   3.132   6.215  0.5003 -0.0542 -0.2371
 6992SOL    HW132435   0.021   3.219   6.250  0.0840 -0.6343  1.4173
 6992SOL    HW232436   4.721   3.075   6.292 -1.4277  1.3565  0.6883
 6993SOL     OW32437   3.610   1.789  17.294 -0.1489 -0.0200 -0.1306
 6993SOL    HW132438   3.543   1.829  17.238  1.5432  2.1281 -0.5825
 6993SOL    HW232439   3.676   1.780  17.225 -2.0416  0.0557 -1.9629
 6994SOL     OW32440   1.932   0.348   8.874  0.6535 -0.0128 -0.6429
 6994SOL    HW132441   1.984   0.272   8.848  1.0086  0.3472 -0.9848
 6994SOL    HW232442   1.846   0.306   8.878  0.9568 -0.5745 -0.0283
 6995SOL     OW32443   1.076   0.895   6.585  0.5938 -0.4336  0.0665
 6995SOL    HW132444   1.097   0.965   6.523 -1.0043  0.8956  1.0345
 6995SOL    HW232445   1.036   0.832   6.526  0.2495  1.2180 -1.4677
 6996SOL     OW32446   3.991   2.072   8.661  0.3548  0.0449  0.7733
 6996SOL    HW132447   4.001   2.153   8.711  2.3458 -1.1928  2.3470
 6996SOL    HW232448   4.078   2.033   8.662  0.8504  1.1760  1.3766
 6997SOL     OW32449   4.323   0.342   7.774 -0.1683  0.3420 -0.2746
 6997SOL    HW132450   4.241   0.390   7.762 -1.1402 -1.1093  0.4809
 6997SOL    HW232451   4.308   0.317   7.865  2.8777 -0.3607  0.0236
 6998SOL     OW32452   0.759   4.362  12.070  0.0392  0.1485 -0.0719
 6998SOL    HW132453   0.823   4.421  12.031  0.6488 -0.2746  0.2997
 6998SOL    HW232454   0.788   4.277  12.036  0.8453  0.3370  0.1521
 6999SOL     OW32455   1.130   0.942   8.641  0.0066  0.3498 -0.6626
 6999SOL    HW132456   1.056   0.881   8.645 -0.5744  0.9690 -2.1304
 6999SOL    HW232457   1.104   1.009   8.705  2.9703  1.7781 -0.9571
 7000SOL     OW32458   0.696   4.160   2.477  0.4019  0.5135 -0.3814
 7000SOL    HW132459   0.741   4.215   2.542  0.6020 -0.2131  0.0853
 7000SOL    HW232460   0.749   4.192   2.404  1.5654 -0.9405 -0.1789
 7001SOL     OW32461   2.188   2.362   6.375  0.2833 -0.0033 -0.1168
 7001SOL    HW132462   2.111   2.352   6.430  0.1229  0.4090 -0.2683
 7001SOL    HW232463   2.168   2.452   6.351  0.6071  0.1374  0.1374
 7002SOL     OW32464   4.088   2.354  10.956 -0.2076 -0.5204 -0.6293
 7002SOL    HW132465   4.007   2.351  10.906 -1.3852  1.2071  1.1828
 7002SOL    HW232466   4.142   2.277  10.935 -1.4542 -1.4754 -0.3873
 7003SOL     OW32467   3.102   4.633   7.582  0.0969 -0.6267  0.5745
 7003SOL    HW132468   3.167   4.667   7.643  1.2708 -0.4407 -0.8130
 7003SOL    HW232469   3.129   4.672   7.499  1.2546 -1.6765  0.4625
 7004SOL     OW32470   1.729   1.871  13.223 -0.3372  0.2068 -0.2140
 7004SOL    HW132471   1.794   1.942  13.218  1.2291 -1.3449 -1.8389
 7004SOL    HW232472   1.777   1.801  13.179 -0.5980 -0.8123  1.1203
 7005SOL     OW32473   1.633   4.056   4.162 -0.0996  0.1354  0.0691
 7005SOL    HW132474   1.693   4.129   4.149 -0.4275  0.6804  1.6767
 7005SOL    HW232475   1.673   4.005   4.232 -0.8212 -0.9805 -0.3215
 7006SOL     OW32476   3.639   0.218   2.772  0.3535 -0.4454  0.5858
 7006SOL    HW132477   3.651   0.294   2.714  0.1885  0.0109  1.1544
 7006SOL    HW232478   3.569   0.242   2.832  1.8868  1.1871  1.7175
 7007SOL     OW32479   4.673   0.778  14.482  0.4636 -0.2850  0.2754
 7007SOL    HW132480   4.705   0.707  14.426  3.4702  1.3736 -0.0985
 7007SOL    HW232481   4.712   0.854  14.439 -2.9165  0.7060 -1.0201
 7008SOL     OW32482   1.569   1.647   2.389  0.0128 -0.6805 -0.0484
 7008SOL    HW132483   1.660   1.651   2.418  0.1508  1.3232 -0.7427
 7008SOL    HW232484   1.582   1.600   2.306  0.6758 -1.0896  0.2898
 7009SOL     OW32485   3.169   2.225   1.441  0.2527 -0.7269 -0.4316
 7009SOL    HW132486   3.138   2.224   1.531 -2.1853 -1.1247 -1.2696
 7009SOL    HW232487   3.228   2.150   1.434  0.1552 -0.9017  0.6320
 7010SOL     OW32488   4.098   1.793   7.476  0.0281 -0.0243  0.1504
 7010SOL    HW132489   4.159   1.784   7.550 -0.6064  0.7789  0.7671
 7010SOL    HW232490   4.103   1.888   7.460 -0.6238  0.3929  2.3974
 7011SOL     OW32491   3.255   2.665  13.050 -0.0561  0.1976  0.5810
 7011SOL    HW132492   3.246   2.760  13.038  0.3803  0.0751 -0.7787
 7011SOL    HW232493   3.335   2.662  13.103 -0.2971 -0.1226  0.9301
 7012SOL     OW32494   0.153   3.164   2.951 -0.3111  0.8474 -0.3798
 7012SOL    HW132495   0.217   3.112   2.902 -0.4674 -0.5829  0.9392
 7012SOL    HW232496   0.196   3.165   3.036 -0.6183  1.5022 -0.2307
 7013SOL     OW32497   1.730   4.372   9.120  0.5581  0.4298  0.0907
 7013SOL    HW132498   1.768   4.286   9.132 -1.0863 -0.2463  0.4470
 7013SOL    HW232499   1.753   4.405   9.206 -0.4879 -0.1116  0.5797
 7014SOL     OW32500   0.190   0.095  16.799  0.0889  0.1172  0.1900
 7014SOL    HW132501   0.232   0.173  16.762 -1.5109  1.4619  1.1905
 7014SOL    HW232502   0.168   0.053  16.716 -1.6718 -1.4475  1.4435
 7015SOL     OW32503   1.578   0.648   8.647  0.4284 -0.5299  0.6153
 7015SOL    HW132504   1.650   0.689   8.696  0.4190  0.7121 -0.4229
 7015SOL    HW232505   1.506   0.709   8.632  0.6193 -0.6603 -0.8289
 7016SOL     OW32506   3.888   4.174  13.495 -0.1591 -0.1563 -0.1064
 7016SOL    HW132507   3.805   4.220  13.503 -0.2975 -0.7868  2.0707
 7016SOL    HW232508   3.867   4.111  13.426 -1.9599 -1.1137  1.2960
 7017SOL     OW32509   1.913   3.296   6.173 -0.1494 -0.0242 -0.2376
 7017SOL    HW132510   1.949   3.363   6.231  1.2887 -0.0641 -1.1016
 7017SOL    HW232511   1.915   3.346   6.092 -2.5838  1.2186  0.4434
 7018SOL     OW32512   1.253   2.458   6.555 -0.6887 -0.0958  0.5012
 7018SOL    HW132513   1.346   2.469   6.574 -0.9031 -2.1979  2.6884
 7018SOL    HW232514   1.225   2.412   6.634 -0.2333 -0.3991  0.4865
 7019SOL     OW32515   4.156   0.970   4.827 -0.2945 -0.5700  0.1748
 7019SOL    HW132516   4.085   0.906   4.831  0.1888 -1.1706 -0.9491
 7019SOL    HW232517   4.113   1.036   4.882 -2.4436 -0.7929 -1.2222
 7020SOL     OW32518   0.941   1.929  10.033 -0.0175  0.3851 -0.2208
 7020SOL    HW132519   0.893   1.925  10.116  0.9242  0.7020  0.3295
 7020SOL    HW232520   0.876   1.938   9.962 -0.4204  2.4132  0.4026
 7021SOL     OW32521   2.029   1.760  14.117 -0.5796 -0.5272  0.0931
 7021SOL    HW132522   2.041   1.807  14.199  3.4078  3.8467 -3.0695
 7021SOL    HW232523   2.082   1.681  14.124 -3.3796 -2.3537  0.8551
 7022SOL     OW32524   1.919   0.682   1.142  0.3757  0.0145  0.4406
 7022SOL    HW132525   1.939   0.650   1.054  0.5408 -0.9875  0.8462
 7022SOL    HW232526   1.824   0.678   1.134  0.4657 -0.7926 -0.1400
 7023SOL     OW32527   0.711   0.734   5.653 -0.0291  0.0088  0.3735
 7023SOL    HW132528   0.773   0.787   5.704 -2.4188  0.4921  2.8188
 7023SOL    HW232529   0.725   0.653   5.701 -3.3543 -0.5051  0.5029
 7024SOL     OW32530   0.212   0.603   7.339 -0.2792  0.7126  0.0966
 7024SOL    HW132531   0.142   0.647   7.292 -2.0428 -3.3088 -1.1045
 7024SOL    HW232532   0.164   0.520   7.344  0.8526  0.0837  0.7928
 7025SOL     OW32533   1.361   0.685   2.249  0.1949  0.3257 -0.0583
 7025SOL    HW132534   1.277   0.663   2.208 -0.0864 -0.3623  0.8774
 7025SOL    HW232535   1.417   0.677   2.172  0.5701  1.7277  0.0681
 7026SOL     OW32536   4.324   0.339  17.116 -0.2338  0.5383  0.2555
 7026SOL    HW132537   4.358   0.251  17.134 -1.2489  0.3733  1.3807
 7026SOL    HW232538   4.349   0.383  17.197  1.3618  1.6661 -0.8577
 7027SOL     OW32539   0.803   1.614   6.558 -0.4829  0.0226 -0.1723
 7027SOL    HW132540   0.793   1.572   6.473 -2.0352 -2.0635  1.0317
 7027SOL    HW232541   0.889   1.577   6.578 -0.6228 -0.7310 -1.0104
 7028SOL     OW32542   1.003   0.984   2.520  0.5034 -0.4811 -0.2250
 7028SOL    HW132543   0.987   0.934   2.440 -1.3574 -1.4470  0.7449
 7028SOL    HW232544   0.993   0.924   2.593 -0.2657  1.1809  1.0437
 7029SOL     OW32545   3.580   3.285   8.058  0.0905 -0.0211 -0.1804
 7029SOL    HW132546   3.656   3.238   8.092 -0.8787 -0.9372  0.7067
 7029SOL    HW232547   3.557   3.238   7.978 -0.0841  1.0147 -0.7454
 7030SOL     OW32548   2.253   1.198   8.577  0.4170 -0.2969  0.2090
 7030SOL    HW132549   2.165   1.211   8.612 -0.4211  0.5322 -2.1897
 7030SOL    HW232550   2.299   1.280   8.597  0.0496 -0.1110  0.2935
 7031SOL     OW32551   1.465   1.882   9.037 -0.6944  0.5198 -0.2348
 7031SOL    HW132552   1.534   1.871   9.103 -0.9320  3.1961  0.4299
 7031SOL    HW232553   1.505   1.921   8.960  0.5178  1.3098  0.7864
 7032SOL     OW32554   1.145   3.359   5.429 -0.0514 -0.3193  0.2105
 7032SOL    HW132555   1.124   3.369   5.336 -2.7991 -1.0908  0.7512
 7032SOL    HW232556   1.165   3.449   5.452 -1.9696  0.3777 -0.8780
 7033SOL     OW32557   0.141   1.584   3.866 -0.0545  0.1198 -0.4837
 7033SOL    HW132558   0.208   1.619   3.924 -1.4041  0.2125  1.0435
 7033SOL    HW232559   0.155   1.639   3.789 -0.5428  3.9120  2.0994
 7034SOL     OW32560   4.028   3.097   4.164  0.1426 -0.2642  0.2330
 7034SOL    HW132561   4.061   3.181   4.131  0.2218 -0.2143  0.4434
 7034SOL    HW232562   3.955   3.127   4.217  1.9294  2.1741  1.3208
 7035SOL     OW32563   3.514   1.651   8.657  0.3864 -0.3143 -0.1711
 7035SOL    HW132564   3.523   1.716   8.587 -0.3594  0.7421  0.7185
 7035SOL    HW232565   3.419   1.666   8.659  0.2318 -1.2682 -0.1531
 7036SOL     OW32566   3.785   2.620   4.147 -0.2223  0.2900  0.3715
 7036SOL    HW132567   3.807   2.686   4.213  0.5484  0.7403 -0.3251
 7036SOL    HW232568   3.837   2.656   4.075  1.8543 -2.8956  0.2887
 7037SOL     OW32569   1.314   1.146   4.439 -0.0530 -0.2190  0.4523
 7037SOL    HW132570   1.383   1.191   4.488  0.0163 -0.8152  0.9015
 7037SOL    HW232571   1.269   1.223   4.405  2.2431  0.4198 -1.1557
 7038SOL     OW32572   0.569   2.767   8.493 -0.1982 -0.4920 -0.4019
 7038SOL    HW132573   0.618   2.849   8.487 -1.6058  0.5951  2.5813
 7038SOL    HW232574   0.521   2.779   8.576 -2.6800 -4.9158 -1.1976
 7039SOL     OW32575   4.508   0.574   9.667  0.1823  0.6014  0.9302
 7039SOL    HW132576   4.560   0.623   9.603 -0.2799 -2.2028 -1.6039
 7039SOL    HW232577   4.474   0.500   9.618  1.6118  0.2612  0.4645
 7040SOL     OW32578   1.190   4.092   8.723 -0.1184  0.2744 -0.7017
 7040SOL    HW132579   1.170   4.027   8.791 -0.2464  0.0411 -0.9641
 7040SOL    HW232580   1.131   4.167   8.729  0.4834  0.9304 -3.3175
 7041SOL     OW32581   1.556   1.069  16.301  0.0930  0.3144  0.3136
 7041SOL    HW132582   1.596   1.138  16.354  0.1460  2.1617 -2.1058
 7041SOL    HW232583   1.525   1.121  16.226  0.9642  1.3287  0.6601
 7042SOL     OW32584   0.864   1.180   3.433  0.4486 -0.2661  0.0238
 7042SOL    HW132585   0.824   1.210   3.514  0.4606  0.5442 -0.2702
 7042SOL    HW232586   0.904   1.098   3.462  0.4794  0.0389  0.8270
 7043SOL     OW32587   2.485   4.654   7.065  0.4007 -0.1468 -0.1091
 7043SOL    HW132588   2.559   4.643   7.006  0.3353 -0.4021 -0.1439
 7043SOL    HW232589   2.427   4.582   7.039 -1.2647  1.1158  0.0584
 7044SOL     OW32590   0.826   2.725  16.422  0.3943  0.6744  0.0125
 7044SOL    HW132591   0.794   2.723  16.332 -0.8968 -1.7740  0.5259
 7044SOL    HW232592   0.911   2.682  16.410 -0.6120 -1.4570  0.4711
 7045SOL     OW32593   0.938   1.541   2.117 -0.2195 -0.4177 -0.1006
 7045SOL    HW132594   1.018   1.489   2.124 -0.3775 -0.7481 -0.7164
 7045SOL    HW232595   0.880   1.466   2.107  0.4747 -0.7793 -1.4051
 7046SOL     OW32596   2.092   3.655   4.280 -0.6903  0.9059 -0.4231
 7046SOL    HW132597   2.005   3.638   4.317 -0.4198  1.6232  0.5205
 7046SOL    HW232598   2.117   3.562   4.275  0.2382  1.0859  0.8913
 7047SOL     OW32599   1.643   2.088   1.929  0.4028  0.1971 -0.0962
 7047SOL    HW132600   1.571   2.036   1.894  0.1155  0.4115  0.1791
 7047SOL    HW232601   1.598   2.138   1.997  0.4716  0.9713 -0.6215
 7048SOL     OW32602   1.052   0.054   6.839  0.3004 -0.0528 -0.4543
 7048SOL    HW132603   1.061   0.097   6.754 -0.3079  0.2367 -0.3661
 7048SOL    HW232604   1.143   0.072   6.865 -0.4828  2.4091  0.5334
 7049SOL     OW32605   1.287   3.022   6.745  0.0119 -0.2135 -0.4416
 7049SOL    HW132606   1.293   3.006   6.839 -1.5963  1.4461 -0.0682
 7049SOL    HW232607   1.375   3.054   6.726 -0.5940  0.6687 -1.8018
 7050SOL     OW32608   2.236   0.380   7.222 -0.0565 -0.0901  0.0968
 7050SOL    HW132609   2.216   0.349   7.134 -2.5172  1.3940  0.1469
 7050SOL    HW232610   2.288   0.457   7.200 -0.3443 -0.5230 -2.0181
 7051SOL     OW32611   0.878   1.222   6.582 -0.3206 -0.6996 -0.1207
 7051SOL    HW132612   0.868   1.204   6.676 -1.3095  1.1450  0.1172
 7051SOL    HW232613   0.946   1.289   6.588 -0.8081 -0.3407  1.6259
 7052SOL     OW32614   0.607   1.070   3.286 -0.0006 -0.0692 -0.1132
 7052SOL    HW132615   0.601   1.059   3.381  0.9695  0.2379 -0.0177
 7052SOL    HW232616   0.702   1.060   3.286  0.1846  1.4165  2.1244
 7053SOL     OW32617   3.487   4.060   2.622  0.1328  0.2927 -0.3779
 7053SOL    HW132618   3.408   4.107   2.596  1.7679  3.6099  0.7267
 7053SOL    HW232619   3.448   3.972   2.614 -1.8207  0.8077  3.2488
 7054SOL     OW32620   2.141   4.016   1.982  0.3254  0.3569 -0.1793
 7054SOL    HW132621   2.228   3.976   1.979  0.6723  1.1694 -0.7675
 7054SOL    HW232622   2.092   3.935   1.994  0.0355  0.1608 -2.7732
 7055SOL     OW32623   2.443   3.593   3.605  0.4586 -0.2432  0.0174
 7055SOL    HW132624   2.496   3.559   3.678 -0.3872 -2.8171 -0.5568
 7055SOL    HW232625   2.499   3.651   3.554  0.5796  0.9099  1.4677
 7056SOL     OW32626   2.922   0.285   3.408  0.2365  0.2455  0.5868
 7056SOL    HW132627   3.012   0.253   3.418 -0.1329 -1.3251 -1.1398
 7056SOL    HW232628   2.933   0.340   3.330 -1.5239 -0.5795 -0.2491
 7057SOL     OW32629   3.966   2.351   3.340 -0.8858  0.4445 -0.3941
 7057SOL    HW132630   3.977   2.268   3.294 -0.7219 -0.3040  0.9995
 7057SOL    HW232631   4.008   2.325   3.422  1.5176 -1.6103 -2.2631
 7058SOL     OW32632   2.166   4.629   3.252  0.1069  0.0834  0.1501
 7058SOL    HW132633   2.118   4.710   3.268 -0.5995 -0.5660  1.4176
 7058SOL    HW232634   2.116   4.617   3.171 -2.7874  1.3256  1.7653
 7059SOL     OW32635   4.341   3.410  16.538  0.2387 -0.0424 -0.2296
 7059SOL    HW132636   4.360   3.492  16.492  0.3763 -0.4259 -0.8689
 7059SOL    HW232637   4.354   3.336  16.478 -1.1365  0.9259 -1.7056
 7060SOL     OW32638   0.549   4.066   2.163 -0.0633 -0.4533 -0.1568
 7060SOL    HW132639   0.532   3.976   2.134  1.6125 -1.3444  1.6372
 7060SOL    HW232640   0.519   4.057   2.254 -0.5380  0.6044 -0.2060
 7061SOL     OW32641   3.391   2.452   3.760 -0.4616  0.3837  0.5335
 7061SOL    HW132642   3.465   2.509   3.737 -1.4015  2.2348  2.1114
 7061SOL    HW232643   3.423   2.361   3.759 -1.7189 -0.0329 -2.5384
 7062SOL     OW32644   0.070   0.427   8.961  0.1103 -0.1981  0.3762
 7062SOL    HW132645   0.050   0.515   8.993  1.1248 -0.8887  2.9794
 7062SOL    HW232646   0.010   0.370   9.010 -0.2929  0.2390  0.3897
 7063SOL     OW32647   3.181   0.806   9.282 -0.1444  0.1575  0.8317
 7063SOL    HW132648   3.161   0.849   9.365 -1.5142 -1.8122  1.5367
 7063SOL    HW232649   3.128   0.840   9.210 -0.2336 -0.9636  0.3670
 7064SOL     OW32650   3.390   1.696   4.861  0.5283 -0.1636 -0.0371
 7064SOL    HW132651   3.445   1.734   4.929 -2.8541 -0.6224  2.9569
 7064SOL    HW232652   3.397   1.601   4.875 -0.8582  0.0566  2.1496
 7065SOL     OW32653   0.035   1.858  15.452 -0.4633  0.2339  0.3938
 7065SOL    HW132654   0.070   1.873  15.364  0.9970  2.0480  1.2827
 7065SOL    HW232655   4.664   1.863  15.437 -0.3865  2.1857  0.5701
 7066SOL     OW32656   2.092   0.976   3.173 -0.5328 -0.4666  0.4380
 7066SOL    HW132657   2.039   0.996   3.250 -0.9615  0.6739 -0.1596
 7066SOL    HW232658   2.177   0.987   3.217 -0.6873  0.3033  0.5396
 7067SOL     OW32659   0.860   1.765   1.975  0.1474 -0.3315 -0.1402
 7067SOL    HW132660   0.800   1.714   1.921 -0.4657  1.4413 -1.1124
 7067SOL    HW232661   0.892   1.702   2.040  1.8540  1.1281  0.4244
 7068SOL     OW32662   0.944   2.504   9.457  0.6327 -0.1902  0.8441
 7068SOL    HW132663   0.989   2.507   9.372  0.9902  1.0264  1.0723
 7068SOL    HW232664   0.900   2.421   9.440  1.0724 -0.0553 -0.9877
 7069SOL     OW32665   3.476   1.802  10.228 -0.3123 -0.2957  0.1312
 7069SOL    HW132666   3.528   1.837  10.156  1.1652 -0.2351  1.2287
 7069SOL    HW232667   3.483   1.871  10.294 -1.0162  0.1388 -0.2500
 7070SOL     OW32668   2.888   4.091  10.759  0.7929  0.1909 -0.2575
 7070SOL    HW132669   2.974   4.054  10.738  0.6485  0.2782 -1.0190
 7070SOL    HW232670   2.835   4.012  10.750  2.5915 -1.3157  2.4592
 7071SOL     OW32671   4.616   1.654   3.055  0.0797 -0.5368 -0.7022
 7071SOL    HW132672   4.680   1.695   2.997  0.1851  0.3080  0.0140
 7071SOL    HW232673   4.609   1.566   3.017  0.9406  0.7823 -3.9235
 7072SOL     OW32674   0.238   4.367   2.747 -0.1358  0.4094 -0.1061
 7072SOL    HW132675   0.326   4.332   2.734  0.5643  1.9796  0.3575
 7072SOL    HW232676   0.205   4.308   2.815  0.7147 -1.2209 -1.1086
 7073SOL     OW32677   2.266   2.195   7.241 -0.4327 -0.0839 -0.3039
 7073SOL    HW132678   2.299   2.182   7.152  1.2901  0.1007  0.3111
 7073SOL    HW232679   2.233   2.285   7.250 -0.3754 -0.0462 -0.4710
 7074SOL     OW32680   4.327   1.103   2.161  0.0007 -0.6040 -0.0360
 7074SOL    HW132681   4.354   1.011   2.164 -0.1135 -0.6132  0.6081
 7074SOL    HW232682   4.298   1.112   2.070 -0.2155 -0.8347  0.0117
 7075SOL     OW32683   1.551   4.108  15.377  0.0382  0.6421  0.4893
 7075SOL    HW132684   1.597   4.141  15.455 -1.5042  0.6764  1.3755
 7075SOL    HW232685   1.471   4.158  15.389  0.6653  1.8659 -0.3832
 7076SOL     OW32686   2.667   0.877   9.851  0.8794  0.7603  0.6513
 7076SOL    HW132687   2.714   0.823   9.915  0.6560 -1.1490 -0.7802
 7076SOL    HW232688   2.579   0.838   9.848  1.0280  0.3965  1.0089
 7077SOL     OW32689   2.653   4.565  12.792 -0.2981 -0.0808 -0.3423
 7077SOL    HW132690   2.618   4.484  12.756  0.6940 -0.3032 -0.8081
 7077SOL    HW232691   2.577   4.621  12.808  0.7691  0.2968  3.4096
 7078SOL     OW32692   4.071   2.613   8.276  0.4091  0.3672 -0.1122
 7078SOL    HW132693   4.071   2.530   8.323 -1.3495  0.7220  0.5193
 7078SOL    HW232694   4.052   2.586   8.187  1.0570  1.6966 -0.6605
 7079SOL     OW32695   1.888   0.781   2.845  0.3156 -0.1422 -0.4876
 7079SOL    HW132696   1.855   0.859   2.800  0.2746 -0.0418 -0.2847
 7079SOL    HW232697   1.981   0.792   2.869  0.4075  0.6197 -1.2268
 7080SOL     OW32698   3.534   2.329   8.092 -0.3707 -0.2163  0.5310
 7080SOL    HW132699   3.501   2.247   8.058  2.7845 -1.3977  0.3269
 7080SOL    HW232700   3.460   2.371   8.137 -0.8865 -0.9748  0.3765
 7081SOL     OW32701   0.081   2.557   9.964  0.3141  0.2064  0.1882
 7081SOL    HW132702   0.155   2.570   9.905 -0.1646 -0.4245 -0.5636
 7081SOL    HW232703   0.118   2.499  10.030  2.4683 -0.0218 -1.2136
 7082SOL     OW32704   2.218   1.215   2.200 -0.2027 -0.0393 -0.3678
 7082SOL    HW132705   2.297   1.240   2.152 -0.4196  1.0634 -0.1412
 7082SOL    HW232706   2.247   1.143   2.256 -0.0730  0.2990 -0.0038
 7083SOL     OW32707   4.344   2.434  15.260  0.1832 -0.0256  0.1014
 7083SOL    HW132708   4.290   2.363  15.227 -0.6529  1.5970 -2.0945
 7083SOL    HW232709   4.373   2.468  15.175  0.6487  0.2019  0.3493
 7084SOL     OW32710   1.212   0.490   3.936  0.4638 -0.4942 -0.1833
 7084SOL    HW132711   1.247   0.439   4.010  0.3184 -0.2994  0.0189
 7084SOL    HW232712   1.118   0.474   3.938  0.0690  2.0386  1.6156
 7085SOL     OW32713   4.177   1.736   8.698 -0.1006 -0.1049 -0.0658
 7085SOL    HW132714   4.148   1.651   8.730 -2.6723  0.8915  0.2679
 7085SOL    HW232715   4.093   1.779   8.709  0.4940  0.8183  0.9059
 7086SOL     OW32716   0.548   3.157   8.101  0.3146 -0.5731  0.5338
 7086SOL    HW132717   0.561   3.063   8.085 -3.6505 -1.1881  0.7395
 7086SOL    HW232718   0.635   3.184   8.073 -0.1636 -0.1848 -0.5829
 7087SOL     OW32719   4.016   3.795  16.999  0.5679  0.2862  0.1852
 7087SOL    HW132720   4.078   3.840  16.941 -2.3073  0.2281 -2.9099
 7087SOL    HW232721   4.068   3.720  17.026 -0.6270  0.4948  3.0343
 7088SOL     OW32722   0.984   0.803   2.718 -0.2104  0.2897  0.1681
 7088SOL    HW132723   1.055   0.782   2.780 -1.0943  0.4189  1.2229
 7088SOL    HW232724   0.908   0.772   2.768 -0.9971 -0.1350 -1.2997
 7089SOL     OW32725   1.623   2.353   9.117  0.1461 -0.6259  0.6361
 7089SOL    HW132726   1.685   2.304   9.063  0.5375  1.0478 -0.4396
 7089SOL    HW232727   1.686   2.418   9.149  0.4509  0.4338 -2.0615
 7090SOL     OW32728   4.563   0.085   7.249 -0.1663  0.3239 -0.1577
 7090SOL    HW132729   4.505   0.012   7.226 -1.6146  0.7454  2.1829
 7090SOL    HW232730   4.502   0.153   7.276 -0.8813 -0.3901  0.0456
 7091SOL     OW32731   4.040   3.448   0.177  0.3647 -0.2163 -0.0258
 7091SOL    HW132732   3.967   3.493   0.218 -0.1600 -2.9470  2.0362
 7091SOL    HW232733   4.111   3.485   0.229  0.4485  0.7019 -0.7938
 7092SOL     OW32734   1.779   1.475   5.989  0.0929  0.4268 -0.0369
 7092SOL    HW132735   1.783   1.569   6.003 -0.6773 -0.1251  3.7880
 7092SOL    HW232736   1.684   1.462   5.997 -0.0505  1.1197 -0.6086
 7093SOL     OW32737   1.646   0.246  11.398 -0.1026  0.3537 -0.1569
 7093SOL    HW132738   1.641   0.237  11.303 -2.4573  0.4234 -0.0297
 7093SOL    HW232739   1.611   0.162  11.428  0.0178  0.2257 -0.3778
 7094SOL     OW32740   0.306   1.513   1.875 -0.5187  0.2152  0.3732
 7094SOL    HW132741   0.339   1.543   1.790 -1.5609 -1.8486 -0.7603
 7094SOL    HW232742   0.320   1.590   1.930  0.5293 -1.1973  2.1165
 7095SOL     OW32743   4.443   1.761   4.657  0.0467 -0.3570 -0.2324
 7095SOL    HW132744   4.484   1.763   4.571 -1.3053  1.0121 -0.8289
 7095SOL    HW232745   4.467   1.673   4.688 -0.3478  0.1468  1.4817
 7096SOL     OW32746   0.992   0.172   3.600 -0.1971  0.4034 -0.0523
 7096SOL    HW132747   0.906   0.154   3.561 -0.6637  1.3494  0.5473
 7096SOL    HW232748   1.044   0.128   3.533  1.4528  2.2930 -0.0196
 7097SOL     OW32749   3.931   1.680  14.915  0.3529  0.3178  0.9172
 7097SOL    HW132750   3.994   1.751  14.903 -0.5125  0.9576  0.1481
 7097SOL    HW232751   3.992   1.613  14.944  2.6309  1.4406 -1.3081
 7098SOL     OW32752   1.815   1.503   5.154 -0.1307 -0.7142  0.0583
 7098SOL    HW132753   1.879   1.495   5.083  0.6300 -1.1747  0.8040
 7098SOL    HW232754   1.732   1.473   5.116  0.9685 -2.7412 -0.7876
 7099SOL     OW32755   0.879   2.149   8.615 -0.4819 -0.0441  0.4104
 7099SOL    HW132756   0.785   2.132   8.613 -0.2142 -1.5551  0.5523
 7099SOL    HW232757   0.889   2.176   8.524  1.9498 -3.4639 -0.3630
 7100SOL     OW32758   0.603   1.624   5.444 -0.0236 -0.0452 -0.4041
 7100SOL    HW132759   0.541   1.610   5.515 -1.1196 -0.4590 -1.4507
 7100SOL    HW232760   0.552   1.612   5.364 -1.1655 -0.8358  0.4369
 7101SOL     OW32761   2.497   1.115  10.230  0.5260 -0.1730 -0.4391
 7101SOL    HW132762   2.469   1.182  10.292 -1.2923 -2.3425  1.0873
 7101SOL    HW232763   2.571   1.087  10.284  0.1928 -0.7481 -0.2837
 7102SOL     OW32764   2.605   4.386   5.799 -0.4151 -0.0437 -1.0548
 7102SOL    HW132765   2.672   4.449   5.827  0.7279 -2.0612  0.6999
 7102SOL    HW232766   2.661   4.310   5.782  1.1212  1.1403 -1.3293
 7103SOL     OW32767   1.305   1.964   1.354  0.4616  0.0465 -0.3307
 7103SOL    HW132768   1.313   1.896   1.420 -1.8988 -0.5283 -0.6736
 7103SOL    HW232769   1.216   1.991   1.375 -0.3189 -3.2280  0.5586
 7104SOL     OW32770   3.654   1.833  12.369  0.0365  0.1392 -0.3100
 7104SOL    HW132771   3.610   1.769  12.313 -0.9669 -1.4445  2.3076
 7104SOL    HW232772   3.602   1.809  12.446  0.8251 -0.4161  0.0450
 7105SOL     OW32773   4.376   2.442  10.855  0.1235  0.1134 -0.7746
 7105SOL    HW132774   4.300   2.465  10.802 -0.5992  0.3869  0.3797
 7105SOL    HW232775   4.442   2.470  10.791  0.8795  0.6278  0.2237
 7106SOL     OW32776   2.471   4.506  10.290 -0.5054  0.0506 -0.2542
 7106SOL    HW132777   2.472   4.535  10.381 -0.0185 -0.9696  0.0707
 7106SOL    HW232778   2.561   4.476  10.275 -0.3547  1.5841 -2.4428
 7107SOL     OW32779   3.127   0.954   4.333 -0.3301  0.7151  0.1902
 7107SOL    HW132780   3.147   1.036   4.288  0.4049  0.1249 -0.5618
 7107SOL    HW232781   3.094   0.900   4.261  2.5307  0.6968 -1.0971
 7108SOL     OW32782   4.723   3.022   0.018  0.0355 -0.0847 -0.1657
 7108SOL    HW132783   4.667   3.069  17.651 -0.1893 -1.3228 -0.9039
 7108SOL    HW232784   4.667   2.947   0.036  0.1783 -0.0401  0.4471
 7109SOL     OW32785   3.366   0.880  16.362  0.3538  0.2668  0.3776
 7109SOL    HW132786   3.372   0.785  16.369 -1.8875 -0.2484 -4.2864
 7109SOL    HW232787   3.271   0.894  16.353  0.4893  0.2777 -1.0837
 7110SOL     OW32788   4.174   3.110   1.027 -0.0219  0.1752 -0.2001
 7110SOL    HW132789   4.117   3.122   0.952 -1.1812 -1.4861  0.4250
 7110SOL    HW232790   4.153   3.020   1.052  2.7508  0.0158  1.5954
 7111SOL     OW32791   4.651   4.063   7.875 -0.0211 -0.0130  0.2049
 7111SOL    HW132792   4.653   3.969   7.857 -0.1427  0.1545 -0.6938
 7111SOL    HW232793   4.596   4.069   7.953  1.1133  1.1388  0.9155
 7112SOL     OW32794   3.035   2.844   9.426  0.4436  0.0926 -0.0119
 7112SOL    HW132795   3.041   2.818   9.518  0.2985  0.0233 -0.0232
 7112SOL    HW232796   3.130   2.851   9.414  0.7833 -1.4977  1.8473
 7113SOL     OW32797   2.728   0.534   6.719 -0.1203 -0.0324 -0.0223
 7113SOL    HW132798   2.730   0.447   6.759 -0.1324  0.9327  2.0478
 7113SOL    HW232799   2.821   0.558   6.719 -0.2418  0.4211  0.6931
 7114SOL     OW32800   3.461   1.441   4.795 -0.1101  0.8087  0.0426
 7114SOL    HW132801   3.550   1.422   4.824 -0.3292 -0.1877  0.0726
 7114SOL    HW232802   3.417   1.372   4.845  0.1058  1.4495  1.1170
 7115SOL     OW32803   2.520   0.832   8.645  0.5658  0.5243  0.1040
 7115SOL    HW132804   2.466   0.754   8.645  0.1143  0.8434  0.7629
 7115SOL    HW232805   2.570   0.814   8.565 -0.1824 -1.0678  0.0033
 7116SOL     OW32806   0.344   0.984   2.368 -0.3942 -0.2502 -0.3368
 7116SOL    HW132807   0.297   1.041   2.309  0.8448  1.7417  0.6000
 7116SOL    HW232808   0.389   0.925   2.308  2.0547 -1.1012  2.2865
 7117SOL     OW32809   2.546   3.613   2.244  0.3518 -0.3079 -0.4269
 7117SOL    HW132810   2.552   3.665   2.164  2.1679  0.2009  0.0472
 7117SOL    HW232811   2.624   3.642   2.291  0.8980  2.1122 -2.8595
 7118SOL     OW32812   3.338   4.047   9.205 -0.2100  0.0809  0.6699
 7118SOL    HW132813   3.318   4.092   9.287 -1.1641 -2.5081  1.8452
 7118SOL    HW232814   3.428   4.073   9.186 -0.1680 -0.9686 -0.5139
 7119SOL     OW32815   3.043   4.596   6.673 -0.5510  0.0799  0.0122
 7119SOL    HW132816   3.116   4.541   6.646 -2.4914 -2.4887  0.0640
 7119SOL    HW232817   3.015   4.543   6.748  0.4178  0.9988  1.0421
 7120SOL     OW32818   4.039   2.013   0.545 -0.2031  0.1324 -0.5879
 7120SOL    HW132819   4.130   2.038   0.530  0.0009  0.9956  2.1137
 7120SOL    HW232820   4.039   2.033   0.639  0.7064  0.1709 -0.5966
 7121SOL     OW32821   0.681   0.147   7.380 -0.3307 -0.1810 -0.4602
 7121SOL    HW132822   0.660   0.239   7.362 -1.0161  0.1928  2.2994
 7121SOL    HW232823   0.756   0.119   7.328 -0.2335  1.9986 -1.4842
 7122SOL     OW32824   3.724   2.457  17.371  0.5295  0.3045  0.4278
 7122SOL    HW132825   3.776   2.386  17.332  0.0136 -0.5177  1.2249
 7122SOL    HW232826   3.636   2.420  17.362  1.0309 -1.0998  1.2145
 7123SOL     OW32827   0.224   3.299  10.702  0.1215 -0.5184  0.9794
 7123SOL    HW132828   0.253   3.237  10.769  0.3607  0.0320  1.3856
 7123SOL    HW232829   0.256   3.252  10.625  0.2900  0.7324  0.2978
 7124SOL     OW32830   1.719   4.073   2.714  0.3278 -0.4390 -0.4846
 7124SOL    HW132831   1.786   4.056   2.780  0.3187  2.6036  0.2998
 7124SOL    HW232832   1.640   4.036   2.753  0.1804 -0.4076 -0.7498
 7125SOL     OW32833   2.055   0.702   5.665  0.2118  0.2861  0.2517
 7125SOL    HW132834   2.022   0.712   5.576 -2.1721 -0.7612  1.0150
 7125SOL    HW232835   2.137   0.749   5.670  0.6990 -0.4588 -0.7373
 7126SOL     OW32836   0.758   0.794  16.705  0.1121  0.4003  0.0756
 7126SOL    HW132837   0.820   0.750  16.646 -0.0013  0.2926  0.0369
 7126SOL    HW232838   0.695   0.842  16.652  2.6867  1.1762 -2.2882
 7127SOL     OW32839   4.715   3.361  14.849 -0.1545  0.3052 -0.4568
 7127SOL    HW132840   4.624   3.365  14.879  0.2176 -1.9162  1.0237
 7127SOL    HW232841   0.030   3.294  14.905  0.9043  2.7539  1.7711
 7128SOL     OW32842   0.065   0.288   2.099 -0.2618  0.3135  0.3753
 7128SOL    HW132843   0.143   0.242   2.130 -0.2226  0.2778  0.2242
 7128SOL    HW232844   0.099   0.322   2.016  0.2628 -1.9759 -0.3531
 7129SOL     OW32845   1.484   0.424   9.218 -0.4982  0.6053  0.0637
 7129SOL    HW132846   1.481   0.329   9.227 -1.4051  0.6697  0.5292
 7129SOL    HW232847   1.391   0.448   9.209 -0.9524 -1.4113 -0.5277
 7130SOL     OW32848   2.560   3.864   7.642 -0.6953  0.0129  0.3833
 7130SOL    HW132849   2.561   3.788   7.700 -0.4548  0.2307  0.6638
 7130SOL    HW232850   2.517   3.831   7.563 -0.7815  2.5608 -0.6406
 7131SOL     OW32851   0.247   3.013   7.879  0.6544  0.3105  0.2022
 7131SOL    HW132852   0.251   3.095   7.829 -0.3000 -0.2040 -0.7334
 7131SOL    HW232853   0.292   2.956   7.816  1.1482  0.8673  0.0418
 7132SOL     OW32854   4.383   2.913   5.480  0.3282  0.5575  0.4692
 7132SOL    HW132855   4.470   2.873   5.471 -0.6191 -1.4446  0.3898
 7132SOL    HW232856   4.333   2.850   5.430  1.4367  0.1097 -0.0783
 7133SOL     OW32857   1.703   1.264   9.340  0.2776  0.0896 -0.0553
 7133SOL    HW132858   1.650   1.337   9.309  0.5653  0.3705  0.1103
 7133SOL    HW232859   1.714   1.295   9.430 -1.1318  0.7231 -0.1023
 7134SOL     OW32860   3.199   2.396   2.740  0.3724 -0.1981 -0.1584
 7134SOL    HW132861   3.104   2.381   2.738  0.6205 -1.7142 -0.7499
 7134SOL    HW232862   3.213   2.398   2.645 -4.2980  0.8481 -0.8338
 7135SOL     OW32863   0.094   4.199  12.931  0.1081  0.4672  0.6235
 7135SOL    HW132864   0.014   4.238  12.894  1.3434  2.3788 -0.0083
 7135SOL    HW232865   0.149   4.277  12.930 -0.1130  0.6299  0.9988
 7136SOL     OW32866   1.898   2.439   5.720  0.1112  0.0542  0.9437
 7136SOL    HW132867   1.914   2.359   5.771 -0.5201  1.5561  3.4852
 7136SOL    HW232868   1.820   2.408   5.674  0.2885  2.1247 -0.7691
 7137SOL     OW32869   4.004   1.134   8.880  0.3876  0.2435  0.6841
 7137SOL    HW132870   3.978   1.068   8.815 -0.3223  1.3037 -0.1168
 7137SOL    HW232871   4.002   1.217   8.832 -0.8256  0.2849  0.8122
 7138SOL     OW32872   0.381   4.571   6.457  0.6110 -0.0210 -0.1108
 7138SOL    HW132873   0.439   4.564   6.381 -0.2689  1.0578 -0.8804
 7138SOL    HW232874   0.422   4.625   6.526 -1.6012  0.7015  0.6422
 7139SOL     OW32875   3.252   3.706   3.857  1.0969 -0.0033 -0.2762
 7139SOL    HW132876   3.245   3.790   3.812 -0.5277  0.1476  0.2586
 7139SOL    HW232877   3.236   3.655   3.778 -1.6739 -1.1698  1.0090
 7140SOL     OW32878   4.076   1.511  12.457 -0.3015 -0.2094  0.7068
 7140SOL    HW132879   4.096   1.524  12.365 -2.2416  0.0176  0.3154
 7140SOL    HW232880   4.049   1.602  12.471 -0.1342  0.1846 -1.6192
 7141SOL     OW32881   3.098   1.230  17.365 -0.4278 -0.2844 -0.2938
 7141SOL    HW132882   3.037   1.287  17.412  0.8521  1.5558 -0.8437
 7141SOL    HW232883   3.063   1.142  17.375  1.2970 -0.9544 -0.0941
 7142SOL     OW32884   3.423   0.109  10.845  0.4798  0.7931  0.2418
 7142SOL    HW132885   3.349   0.126  10.903  0.6447 -0.5516  0.8356
 7142SOL    HW232886   3.445   0.018  10.865  0.1033  0.4387 -0.9472
 7143SOL     OW32887   2.846   2.767   2.061 -0.0588  0.7408  0.0916
 7143SOL    HW132888   2.855   2.683   2.016 -2.6493  0.0256  0.9306
 7143SOL    HW232889   2.926   2.765   2.113  0.4539 -0.4432 -0.7200
 7144SOL     OW32890   0.115   1.700   6.965 -0.4687  0.3736  0.1556
 7144SOL    HW132891   0.163   1.663   7.039  1.3206  0.9065 -0.7512
 7144SOL    HW232892   0.135   1.638   6.895  0.2669  0.2403  0.4833
 7145SOL     OW32893   0.584   0.750   6.695 -0.5352 -0.0251  0.0777
 7145SOL    HW132894   0.653   0.705   6.645 -1.0848 -1.0641  0.2538
 7145SOL    HW232895   0.515   0.767   6.631 -0.3300  0.6386  0.0336
 7146SOL     OW32896   3.319   2.846   7.287  0.3466  0.4699  0.3962
 7146SOL    HW132897   3.323   2.791   7.365 -0.4362  2.0208  1.5244
 7146SOL    HW232898   3.385   2.806   7.230 -0.8208  0.4799 -0.9689
 7147SOL     OW32899   0.311   1.698   2.624 -0.9208 -0.0145  0.6242
 7147SOL    HW132900   0.291   1.787   2.596  0.9209 -0.0139 -0.7200
 7147SOL    HW232901   0.266   1.656   2.551 -1.6152  0.8276  0.5793
 7148SOL     OW32902   1.100   1.396  12.740  0.1038 -0.4395  0.6774
 7148SOL    HW132903   1.062   1.472  12.783  1.6579  0.2170  0.9001
 7148SOL    HW232904   1.129   1.334  12.807 -0.5071 -1.4613 -0.0109
 7149SOL     OW32905   1.119   3.112  16.425 -0.6892  0.4131 -0.7801
 7149SOL    HW132906   1.037   3.101  16.473 -0.0964 -0.7334 -0.0267
 7149SOL    HW232907   1.084   3.102  16.337  0.2857 -0.0387 -1.1278
 7150SOL     OW32908   2.237   1.644   0.817  0.2808 -0.1187 -0.0743
 7150SOL    HW132909   2.327   1.675   0.827  0.5574 -0.0607 -2.5811
 7150SOL    HW232910   2.186   1.677   0.891 -0.2961 -0.5638 -0.2675
 7151SOL     OW32911   1.510   0.141   5.788  0.6984  0.4363  0.6304
 7151SOL    HW132912   1.515   0.145   5.693  2.2215 -2.2067  0.5966
 7151SOL    HW232913   1.527   0.228   5.824 -0.6962  1.0464 -0.2091
 7152SOL     OW32914   0.170   1.307   8.500 -0.0101  0.6223 -0.2677
 7152SOL    HW132915   0.169   1.358   8.419 -0.2273  0.9108 -0.0851
 7152SOL    HW232916   0.097   1.339   8.552  1.3199  2.1799  0.6288
 7153SOL     OW32917   2.208   0.580   3.764  0.3091 -0.2380 -0.3216
 7153SOL    HW132918   2.274   0.609   3.702  0.1499  0.4063 -0.1924
 7153SOL    HW232919   2.127   0.595   3.716  0.7662  0.8956 -0.7338
 7154SOL     OW32920   2.980   2.845  17.532  0.3350 -0.2708 -0.2447
 7154SOL    HW132921   3.050   2.799  17.579  0.0417 -1.8221 -1.3588
 7154SOL    HW232922   3.029   2.917  17.491  1.4011 -1.3436 -0.8320
 7155SOL     OW32923   0.102   1.232   2.923 -0.5006  0.6746  0.1665
 7155SOL    HW132924   0.029   1.286   2.893  0.6802  1.5550 -1.1154
 7155SOL    HW232925   0.102   1.241   3.018 -1.0163  0.7439  0.1644
 7156SOL     OW32926   0.065   1.493   6.042 -0.3502 -0.4931 -0.2478
 7156SOL    HW132927   0.044   1.480   5.949  0.2586 -0.6378 -0.3635
 7156SOL    HW232928   0.035   1.583   6.047  0.6323 -0.1575 -0.3771
 7157SOL     OW32929   1.564   2.071   9.856  0.4987  0.6854  0.6770
 7157SOL    HW132930   1.556   2.021   9.937 -0.5770  0.0236  0.1681
 7157SOL    HW232931   1.534   2.159   9.879  0.5622  0.8845  0.0001
 7158SOL     OW32932   0.611   3.761   2.137 -0.0718 -0.1865 -0.2968
 7158SOL    HW132933   0.551   3.785   2.066  1.8581  0.1216 -1.8354
 7158SOL    HW232934   0.607   3.665   2.136  0.5934 -0.1985 -1.2982
 7159SOL     OW32935   0.563   1.434   3.083  0.3851  0.2429 -0.5024
 7159SOL    HW132936   0.622   1.505   3.058  0.7960 -0.1252 -0.5571
 7159SOL    HW232937   0.565   1.429   3.178  1.9679 -0.7934 -0.5982
 7160SOL     OW32938   2.951   1.592   8.901 -0.4009 -0.1777 -0.1269
 7160SOL    HW132939   2.873   1.581   8.846 -0.3181  1.6528 -0.6037
 7160SOL    HW232940   2.999   1.512   8.882  2.0252  1.5065 -1.0185
 7161SOL     OW32941   1.511   0.154   1.624 -0.2270 -0.6604 -0.1352
 7161SOL    HW132942   1.490   0.090   1.691  0.3242  1.8430  2.4740
 7161SOL    HW232943   1.584   0.110   1.581  0.9579  0.7623  0.4013
 7162SOL     OW32944   0.016   4.508  14.168 -0.3237 -0.6577 -0.1852
 7162SOL    HW132945   0.052   4.528  14.081 -2.3557  0.2993 -0.8005
 7162SOL    HW232946   0.084   4.555  14.217 -1.5487  1.2753 -0.3156
 7163SOL     OW32947   2.789   2.457   2.072 -0.7277  0.7160  0.5263
 7163SOL    HW132948   2.838   2.456   2.154 -0.2485 -0.1534  0.2396
 7163SOL    HW232949   2.698   2.473   2.098 -0.4028  1.3679  1.2622
 7164SOL     OW32950   4.274   3.704   2.661  0.0995  0.4865  0.1171
 7164SOL    HW132951   4.266   3.771   2.593 -0.5439  1.4015  1.0902
 7164SOL    HW232952   4.289   3.621   2.617  0.2354  0.3690  0.3819
 7165SOL     OW32953   2.331   1.687  12.992  0.3285 -0.0494 -0.2574
 7165SOL    HW132954   2.315   1.745  13.066 -2.8889 -0.0085 -1.0052
 7165SOL    HW232955   2.425   1.703  12.998  0.2665 -0.7748  2.5264
 7166SOL     OW32956   0.250   4.572   3.562 -0.2763 -0.6331  0.4175
 7166SOL    HW132957   0.165   4.589   3.520  1.1600  2.2486 -1.3078
 7166SOL    HW232958   0.254   4.476   3.564 -2.5294 -0.7686 -1.2185
 7167SOL     OW32959   1.436   1.052   2.353 -0.1637 -0.3082 -0.1105
 7167SOL    HW132960   1.503   1.080   2.415 -0.2153 -0.4807  0.0213
 7167SOL    HW232961   1.370   1.119   2.368  0.5621  0.8295 -2.0067
 7168SOL     OW32962   0.789   2.717  15.470 -0.6303 -0.0637 -0.0880
 7168SOL    HW132963   0.759   2.662  15.543  2.7851 -1.7719  0.0414
 7168SOL    HW232964   0.719   2.706  15.406 -0.4992 -0.9356 -0.0867
 7169SOL     OW32965   2.737   4.706   4.095 -0.0023 -0.0552  0.1043
 7169SOL    HW132966   2.800   0.028   4.038 -1.0309 -1.6590 -2.3039
 7169SOL    HW232967   2.777   4.634   4.144 -0.7206 -0.5190  0.0018
 7170SOL     OW32968   4.339   0.775   3.021 -0.2799  0.2791 -0.1095
 7170SOL    HW132969   4.393   0.809   2.950 -0.7830 -0.5062 -0.8582
 7170SOL    HW232970   4.400   0.788   3.094 -0.8369 -0.9028  0.5615
 7171SOL     OW32971   0.057   2.516  17.629 -0.2635 -0.3495 -0.2338
 7171SOL    HW132972   0.019   2.601  17.607 -1.8473 -1.6892 -2.7108
 7171SOL    HW232973   0.096   2.532   0.020  0.6716 -2.4009 -0.2732
 7172SOL     OW32974   4.332   2.779   4.996 -0.6610 -0.3203  1.2916
 7172SOL    HW132975   4.296   2.769   5.084  1.5194  2.5108  2.5186
 7172SOL    HW232976   4.396   2.708   4.985 -0.8839 -0.4832  1.0495
 7173SOL     OW32977   2.714   2.649   0.715 -0.3755  0.2188 -0.1520
 7173SOL    HW132978   2.640   2.619   0.662 -1.4459  0.5891  1.1388
 7173SOL    HW232979   2.768   2.694   0.650 -0.3418  1.3625  0.6630
 7174SOL     OW32980   1.932   0.271   0.369 -0.0721 -0.2897 -0.3935
 7174SOL    HW132981   1.887   0.290   0.287  2.0225  1.4932 -1.1354
 7174SOL    HW232982   1.954   0.355   0.411 -1.8652 -0.4899  0.9388
 7175SOL     OW32983   3.427   1.892   5.698  0.0278 -0.6242  0.2859
 7175SOL    HW132984   3.405   1.800   5.714 -0.2974 -0.6829 -0.5084
 7175SOL    HW232985   3.483   1.909   5.774 -1.2681  0.7765  0.9299
 7176SOL     OW32986   4.464   1.252   1.134 -0.3171 -0.1435 -1.0555
 7176SOL    HW132987   4.548   1.291   1.110 -0.2655  1.5624  1.8259
 7176SOL    HW232988   4.471   1.160   1.109  0.5009 -0.4974  0.4592
 7177SOL     OW32989   1.040   0.055  11.877 -0.0251  0.0199 -0.2310
 7177SOL    HW132990   1.125   0.012  11.886 -0.2495 -1.4312 -5.3500
 7177SOL    HW232991   1.072   0.125  11.821  0.0287 -0.6150 -0.9940
 7178SOL     OW32992   0.966   3.976  16.745 -0.3411  0.3475 -0.1471
 7178SOL    HW132993   1.025   3.937  16.810  1.9537  0.7905 -1.9827
 7178SOL    HW232994   0.910   3.904  16.717 -0.3028 -0.6024  2.2367
 7179SOL     OW32995   1.330   4.471   5.721  0.1234  0.1886 -0.2708
 7179SOL    HW132996   1.320   4.376   5.716 -1.1812  0.4089 -1.8503
 7179SOL    HW232997   1.349   4.483   5.814  0.1956  3.9722 -0.7782
 7180SOL     OW32998   0.003   3.173   3.735 -0.4593 -0.0199  0.3934
 7180SOL    HW132999   4.665   3.109   3.772  0.0889 -0.4120  0.6239
 7180SOL    HW233000   0.086   3.147   3.775 -1.2232 -2.5801  0.3513
 7181SOL     OW33001   0.685   1.410  13.688 -0.3234  0.0572 -0.1875
 7181SOL    HW133002   0.625   1.436  13.618 -1.6542 -1.7568  0.2662
 7181SOL    HW233003   0.733   1.490  13.708 -1.6575  0.8748 -0.2773
 7182SOL     OW33004   4.470   0.069  13.220  0.3315 -0.1630  0.3037
 7182SOL    HW133005   4.548   0.027  13.256 -0.9404 -0.9024  2.2473
 7182SOL    HW233006   4.510   0.099  13.139  1.3800  2.8392  1.9377
 7183SOL     OW33007   2.398   0.246  11.195  0.4578  0.1449  0.2983
 7183SOL    HW133008   2.328   0.303  11.225 -0.4904 -1.9966  2.1662
 7183SOL    HW233009   2.476   0.302  11.192  1.0339 -0.5280  2.1893
 7184SOL     OW33010   4.339   1.146   6.332 -0.1323 -0.6585 -0.1198
 7184SOL    HW133011   4.245   1.159   6.323 -0.2408 -1.9403 -0.8638
 7184SOL    HW233012   4.351   1.073   6.272  5.1665 -1.6884  2.1136
 7185SOL     OW33013   4.578   0.640  17.139 -0.3227  0.0492 -0.0237
 7185SOL    HW133014   4.580   0.734  17.160  1.4211 -0.0726  0.3951
 7185SOL    HW233015   4.672   0.619  17.139 -0.3428 -0.0422  0.6049
 7186SOL     OW33016   0.749   2.884   9.496 -0.3081 -0.2489 -0.3119
 7186SOL    HW133017   0.659   2.860   9.471  0.3044 -2.0121 -0.8541
 7186SOL    HW233018   0.735   2.926   9.580 -0.5193 -1.2603  0.1598
 7187SOL     OW33019   2.594   1.603   7.260 -0.1760  0.5903  0.5182
 7187SOL    HW133020   2.563   1.529   7.312  0.4400  1.2518  1.8293
 7187SOL    HW233021   2.551   1.665   7.318 -1.0871  0.2526  0.2117
 7188SOL     OW33022   1.755   2.736   3.283 -0.2750  0.0727 -0.0412
 7188SOL    HW133023   1.769   2.830   3.267  2.2283 -0.0626  1.3557
 7188SOL    HW233024   1.811   2.693   3.219  0.3736  1.3291 -0.3106
 7189SOL     OW33025   1.191   4.671   4.551  0.0757  0.0183 -0.0193
 7189SOL    HW133026   1.212   4.593   4.602 -1.7791 -0.5581 -0.1533
 7189SOL    HW233027   1.209   4.640   4.462 -0.5439 -2.7071  0.8139
 7190SOL     OW33028   4.528   4.138   5.575  0.6258 -0.5051 -0.2770
 7190SOL    HW133029   4.514   4.207   5.640  1.5537 -0.5820  0.0110
 7190SOL    HW233030   4.542   4.187   5.494 -0.8553  1.8930  0.9309
 7191SOL     OW33031   0.851   3.590   8.056 -0.4053 -0.2821 -0.0344
 7191SOL    HW133032   0.930   3.637   8.029 -1.2260  1.4198  0.5359
 7191SOL    HW233033   0.888   3.505   8.079 -2.7309 -0.9644  1.1825
 7192SOL     OW33034   2.737   1.907   3.578 -0.0208 -0.1116  0.3395
 7192SOL    HW133035   2.804   1.902   3.510 -0.6682  1.9924 -0.4403
 7192SOL    HW233036   2.681   1.979   3.550  1.3943  1.0782  0.5710
 7193SOL     OW33037   0.475   1.854   5.269  0.4091 -0.6447 -0.3833
 7193SOL    HW133038   0.386   1.884   5.249  1.7956  1.7569 -2.8491
 7193SOL    HW233039   0.460   1.762   5.245  0.8150 -0.3987 -1.5866
 7194SOL     OW33040   1.122   1.052   5.875 -0.0642  0.8779 -0.2733
 7194SOL    HW133041   1.182   0.995   5.922 -1.2978 -1.7301 -1.8072
 7194SOL    HW233042   1.082   0.992   5.812  0.3880 -1.0044  1.2418
 7195SOL     OW33043   3.813   4.357   7.283  0.6857  0.3696 -0.3266
 7195SOL    HW133044   3.729   4.370   7.239 -0.1516 -2.2343  0.4439
 7195SOL    HW233045   3.792   4.293   7.352 -0.1401  0.6633 -0.3024
 7196SOL     OW33046   0.461   2.564   8.878  0.1707 -0.3192 -0.0795
 7196SOL    HW133047   0.550   2.600   8.875  0.8244 -1.8369  1.2684
 7196SOL    HW233048   0.466   2.509   8.800  1.1155 -0.5773  0.1642
 7197SOL     OW33049   0.161   2.086   7.083  0.2649  0.4076 -0.2668
 7197SOL    HW133050   0.109   2.065   7.161  2.6625 -0.1682  1.1905
 7197SOL    HW233051   0.121   2.022   7.023 -0.0511  0.8389 -0.5143
 7198SOL     OW33052   0.884   2.931  15.012  0.1302 -0.0123  0.3561
 7198SOL    HW133053   0.861   2.867  14.945 -3.1841  1.1736  0.3233
 7198SOL    HW233054   0.865   3.005  14.953  0.3091 -1.5177 -1.5989
 7199SOL     OW33055   1.235   3.152   1.680  0.3359  0.7295  0.2667
 7199SOL    HW133056   1.148   3.128   1.711  0.5361  1.1085  1.1153
 7199SOL    HW233057   1.246   3.113   1.593 -2.4381 -0.6645  0.5342
 7200SOL     OW33058   0.556   3.300   5.806  0.4099  0.4573 -0.2976
 7200SOL    HW133059   0.535   3.360   5.878  1.0051  0.6089 -0.2526
 7200SOL    HW233060   0.517   3.220   5.842  0.6685 -0.2401 -1.5669
 7201SOL     OW33061   2.848   0.007  12.182  0.5869 -0.7152  0.0032
 7201SOL    HW133062   2.861   4.645  12.222  3.5566 -0.2979 -0.1067
 7201SOL    HW233063   2.806   4.702  12.100 -0.5938  0.4664  0.1908
 7202SOL     OW33064   1.925   3.917   7.820  0.3069  0.5330  0.5245
 7202SOL    HW133065   1.877   3.991   7.858 -0.6172 -0.4348  1.2418
 7202SOL    HW233066   1.953   3.955   7.737  0.2009 -0.3979  0.0604
 7203SOL     OW33067   2.478   3.391  15.915  0.1228  0.1785  0.0463
 7203SOL    HW133068   2.390   3.428  15.918 -0.1797 -0.3774 -2.0979
 7203SOL    HW233069   2.468   3.296  15.923 -0.8025  0.3389  0.8511
 7204SOL     OW33070   1.405   1.065   1.934  0.4923  0.0811 -0.0071
 7204SOL    HW133071   1.397   1.159   1.916  1.5661  0.3551  1.0030
 7204SOL    HW233072   1.499   1.059   1.949  0.1328  1.9747  2.8941
 7205SOL     OW33073   0.605   3.928   9.123 -0.4762 -0.6657  0.1840
 7205SOL    HW133074   0.674   3.929   9.055 -0.4720 -0.3755  0.1926
 7205SOL    HW233075   0.547   4.002   9.106  1.2808  0.9797  1.4031
 7206SOL     OW33076   0.940   3.827   7.192 -0.2909  0.6324  0.3529
 7206SOL    HW133077   0.893   3.748   7.219 -1.5403  1.7225  1.4132
 7206SOL    HW233078   0.906   3.887   7.260 -1.4120  0.6430 -0.2118
 7207SOL     OW33079   1.319   0.952   9.562  0.2833 -0.5217 -0.1116
 7207SOL    HW133080   1.316   1.043   9.534  0.2810 -0.6664 -0.5806
 7207SOL    HW233081   1.373   0.952   9.641  0.2475 -0.2283 -0.0859
 7208SOL     OW33082   4.334   1.775   6.633 -0.1123  0.0254  0.1587
 7208SOL    HW133083   4.250   1.787   6.676  0.0867  0.7144  0.3546
 7208SOL    HW233084   4.383   1.737   6.706  0.6700  0.6193 -0.0541
 7209SOL     OW33085   0.878   1.662   3.215 -0.2984 -0.0769  0.3142
 7209SOL    HW133086   0.909   1.615   3.292 -2.1740 -1.5530  0.1591
 7209SOL    HW233087   0.900   1.755   3.226 -0.9737  0.0908  0.2831
 7210SOL     OW33088   3.257   3.674  16.418  0.1330 -0.4695 -0.1930
 7210SOL    HW133089   3.178   3.675  16.473  0.5613 -2.4750  0.4456
 7210SOL    HW233090   3.259   3.587  16.380  1.1012 -0.3376 -0.4388
 7211SOL     OW33091   0.721   1.593  15.335  0.6068  0.1441 -0.3338
 7211SOL    HW133092   0.745   1.655  15.404  0.4696  1.4417 -1.4418
 7211SOL    HW233093   0.628   1.609  15.320  0.7332  1.7639  0.6104
 7212SOL     OW33094   2.974   0.859   5.537  0.0503  0.7147 -0.1449
 7212SOL    HW133095   2.928   0.939   5.513  0.5266  1.1599  0.4351
 7212SOL    HW233096   2.922   0.835   5.613 -0.2838 -0.7872 -0.8446
 7213SOL     OW33097   3.771   3.137  10.351  0.3602  0.0258 -0.2776
 7213SOL    HW133098   3.788   3.225  10.318  0.8085  0.3311  0.7447
 7213SOL    HW233099   3.680   3.125  10.328 -0.2069 -0.2746  2.0904
 7214SOL     OW33100   0.489   1.753  15.325  0.3638 -0.3753 -0.3040
 7214SOL    HW133101   0.487   1.848  15.328 -0.0740 -0.4118  0.5012
 7214SOL    HW233102   0.421   1.738  15.258  1.4090 -2.8452 -0.8120
 7215SOL     OW33103   1.703   2.659   9.203 -0.3722 -0.1304  0.0070
 7215SOL    HW133104   1.793   2.651   9.233 -0.3605 -2.6051 -0.7457
 7215SOL    HW233105   1.708   2.750   9.174 -1.9869 -1.0332 -3.0406
 7216SOL     OW33106   3.718   3.799   4.291 -0.4858 -0.5112 -0.1150
 7216SOL    HW133107   3.703   3.839   4.206 -0.1023 -0.1147  0.0042
 7216SOL    HW233108   3.665   3.719   4.286 -1.6979  0.3084 -0.2977
 7217SOL     OW33109   1.668   2.363   2.054 -0.1518  0.0432 -0.3560
 7217SOL    HW133110   1.731   2.402   2.115 -0.1590  0.8800 -0.8927
 7217SOL    HW233111   1.721   2.338   1.979  1.4028  1.6295  0.2270
 7218SOL     OW33112   3.024   0.098   7.842  0.3592 -0.0500 -0.2463
 7218SOL    HW133113   3.114   0.078   7.817 -0.6597 -2.0328 -2.4138
 7218SOL    HW233114   3.039   0.117   7.934 -1.5080  1.1389 -0.1806
 7219SOL     OW33115   4.436   4.438   1.334  0.0295 -0.1628 -0.3423
 7219SOL    HW133116   4.418   4.520   1.288  1.3960  1.9743  2.9398
 7219SOL    HW233117   4.347   4.421   1.364 -0.2851  1.4303 -0.3622
 7220SOL     OW33118   2.620   0.860   2.857  0.0906 -0.3491  0.1548
 7220SOL    HW133119   2.678   0.894   2.789 -0.2248 -1.4461 -0.6533
 7220SOL    HW233120   2.644   0.916   2.931  0.9870  0.5947 -0.8449
 7221SOL     OW33121   4.197   1.910   3.701  0.3669 -0.1862  0.8409
 7221SOL    HW133122   4.264   1.841   3.703 -0.2110 -0.8855 -3.2320
 7221SOL    HW233123   4.235   1.955   3.626 -2.6699  1.8948  0.5338
 7222SOL     OW33124   0.475   2.999   3.929 -0.4145 -0.7128 -0.3589
 7222SOL    HW133125   0.404   3.010   3.866 -0.3014 -0.2904 -0.4167
 7222SOL    HW233126   0.428   2.992   4.012 -0.4036 -1.0536 -0.3844
 7223SOL     OW33127   3.771   2.379   7.218  0.1865 -0.1104 -0.2718
 7223SOL    HW133128   3.818   2.297   7.233  2.2144  0.7503 -1.9379
 7223SOL    HW233129   3.822   2.418   7.147 -0.8046 -2.6049 -2.3469
 7224SOL     OW33130   1.996   4.438   8.416 -0.4199 -0.3488  0.9359
 7224SOL    HW133131   1.982   4.373   8.346  1.5688  0.5269 -0.2769
 7224SOL    HW233132   2.022   4.382   8.489  1.3143 -0.4749  0.2138
 7225SOL     OW33133   4.311   4.488   3.194 -0.1893  0.1017 -0.3899
 7225SOL    HW133134   4.355   4.462   3.113  0.3415 -0.5790  0.1084
 7225SOL    HW233135   4.255   4.413   3.217 -0.8397  0.4847 -0.7426
 7226SOL     OW33136   1.590   2.116   4.956 -0.3346  0.1097  0.6660
 7226SOL    HW133137   1.567   2.049   5.020 -1.4014  1.1304  1.3346
 7226SOL    HW233138   1.504   2.156   4.945 -0.2023  0.0186 -0.7982
 7227SOL     OW33139   1.481   1.886   5.652 -0.1302 -0.2454  0.2394
 7227SOL    HW133140   1.463   1.974   5.684 -2.0534 -0.5983  0.1451
 7227SOL    HW233141   1.404   1.847   5.693 -0.2659 -1.2815 -1.0006
 7228SOL     OW33142   1.961   1.208   9.264 -0.0149  0.1613  0.0944
 7228SOL    HW133143   1.870   1.238   9.269  0.3231  1.3352 -0.8118
 7228SOL    HW233144   2.004   1.287   9.229 -2.3111  0.3358 -2.2773
 7229SOL     OW33145   4.127   4.183   6.001 -0.4799 -0.1830 -0.0783
 7229SOL    HW133146   4.115   4.089   5.987  0.0927 -0.5008  1.5471
 7229SOL    HW233147   4.175   4.216   5.926  1.1609 -0.1639  0.9854
 7230SOL     OW33148   4.139   0.931  15.445  0.7569 -0.1306 -0.1720
 7230SOL    HW133149   4.115   1.023  15.461 -0.8355 -0.3646 -1.2587
 7230SOL    HW233150   4.105   0.908  15.359 -1.9447  2.8627  0.1008
 7231SOL     OW33151   0.564   4.458   8.050  0.5396  0.1283  0.2415
 7231SOL    HW133152   0.585   4.434   7.960  0.7525  1.3368 -0.0429
 7231SOL    HW233153   0.541   4.551   8.045  0.3894 -0.0025 -1.6213
 7232SOL     OW33154   2.463   1.976   5.279 -0.0358  0.1698 -0.0509
 7232SOL    HW133155   2.552   1.985   5.313  0.5119 -1.0660 -1.1039
 7232SOL    HW233156   2.465   2.010   5.189 -2.1081 -1.3079 -0.6441
 7233SOL     OW33157   3.854   4.085   2.428 -0.0556  0.0522  0.0248
 7233SOL    HW133158   3.915   4.158   2.415 -2.1806  1.4322 -2.1709
 7233SOL    HW233159   3.771   4.122   2.399 -0.8275 -0.9871  0.9249
 7234SOL     OW33160   2.841   0.620   8.852  0.8146  0.0297 -0.3306
 7234SOL    HW133161   2.825   0.575   8.935 -2.5525  0.7424 -0.6166
 7234SOL    HW233162   2.793   0.703   8.860  2.3123  0.7601  1.1495
 7235SOL     OW33163   3.672   4.612  11.488 -0.3202  0.1907  0.4720
 7235SOL    HW133164   3.705   4.548  11.551 -0.1286 -2.1247 -1.9823
 7235SOL    HW233165   3.628   4.682  11.538 -1.4102  1.0917 -1.7713
 7236SOL     OW33166   3.172   2.874   3.403  0.1087 -0.5181  0.4368
 7236SOL    HW133167   3.088   2.913   3.380  0.3467 -0.1244  0.2316
 7236SOL    HW233168   3.240   2.925   3.358 -0.3610  0.8028  1.2227
 7237SOL     OW33169   2.636   1.158   2.222  0.1803  0.4470 -0.1962
 7237SOL    HW133170   2.626   1.200   2.307 -0.3199  1.2309 -0.6470
 7237SOL    HW233171   2.679   1.078   2.253 -1.0783  0.5282  1.7366
 7238SOL     OW33172   2.818   3.191   8.661  0.1372  0.6605 -0.3051
 7238SOL    HW133173   2.777   3.136   8.728 -0.6644  0.9235 -0.5813
 7238SOL    HW233174   2.772   3.181   8.578 -0.0683  1.1375 -0.2485
 7239SOL     OW33175   4.620   1.559   3.345  0.3097  0.1307  0.1413
 7239SOL    HW133176   4.606   1.562   3.250  0.3844 -3.0156  0.0184
 7239SOL    HW233177   4.637   1.652   3.361 -2.7828  0.7708 -0.2072
 7240SOL     OW33178   2.131   4.554   7.806  0.0531  0.0748 -0.2267
 7240SOL    HW133179   2.084   4.620   7.754  1.3138  1.3215  0.2288
 7240SOL    HW233180   2.157   4.612   7.877  0.3562 -0.2725 -0.0543
 7241SOL     OW33181   3.536   3.121   0.090 -0.4335 -0.2228 -0.3520
 7241SOL    HW133182   3.587   3.160   0.162 -0.8819 -0.6151  0.1754
 7241SOL    HW233183   3.450   3.134   0.128 -0.5191  1.0150 -0.9507
 7242SOL     OW33184   0.744   0.484  12.814  0.1261  0.6206  0.0960
 7242SOL    HW133185   0.828   0.446  12.788  0.0821  0.3771  0.3198
 7242SOL    HW233186   0.775   0.552  12.873 -1.3986  3.0356 -1.8423
 7243SOL     OW33187   3.568   2.842  11.116 -0.0786 -0.0055  0.9979
 7243SOL    HW133188   3.497   2.849  11.180  1.0357  0.5165  2.1750
 7243SOL    HW233189   3.585   2.748  11.127  1.5370  0.0867 -0.8524
 7244SOL     OW33190   1.099   1.025   0.535  0.1459  0.3947 -0.2144
 7244SOL    HW133191   1.187   1.011   0.498  0.1657  0.3704 -0.1579
 7244SOL    HW233192   1.116   1.011   0.628  2.1419  1.2966 -0.4281
 7245SOL     OW33193   3.047   2.499   2.275 -0.1891  0.0274  0.2485
 7245SOL    HW133194   3.066   2.576   2.328 -0.1286 -0.1515  0.4915
 7245SOL    HW233195   3.099   2.524   2.199 -0.7889 -1.0863 -0.5382
 7246SOL     OW33196   1.080   3.049   3.959  0.1715 -0.4392  0.1205
 7246SOL    HW133197   1.103   3.107   3.886 -0.5941  0.8504  0.8884
 7246SOL    HW233198   1.152   2.987   3.963  2.3004  2.1167  1.5469
 7247SOL     OW33199   1.783   0.603   4.521  0.0140 -0.3564  0.1896
 7247SOL    HW133200   1.708   0.546   4.537 -0.8960  0.4765 -1.1068
 7247SOL    HW233201   1.729   0.679   4.500  0.2895 -0.2525 -0.1557
 7248SOL     OW33202   1.259   1.968   2.811  0.0655  0.2579 -0.0148
 7248SOL    HW133203   1.341   1.921   2.829  0.3258  1.4727  1.9961
 7248SOL    HW233204   1.292   2.042   2.761 -0.2963  0.3762 -0.0793
 7249SOL     OW33205   4.695   3.275   4.471 -0.1346 -0.7892 -0.1536
 7249SOL    HW133206   0.055   3.260   4.427  1.3742  1.2595  1.9983
 7249SOL    HW233207   4.709   3.361   4.512 -0.7021  0.2175 -2.0657
 7250SOL     OW33208   3.696   3.793   5.686  0.3369 -0.1243 -0.1434
 7250SOL    HW133209   3.780   3.838   5.689 -1.4583  3.2192 -0.2225
 7250SOL    HW233210   3.728   3.705   5.704  0.6992 -0.1429 -0.8793
 7251SOL     OW33211   2.764   2.227  16.278 -0.3677  0.0492 -0.4648
 7251SOL    HW133212   2.752   2.267  16.364  1.1268 -2.6740  0.9930
 7251SOL    HW233213   2.846   2.269  16.253 -0.0966 -0.1605  0.0799
 7252SOL     OW33214   2.038   2.905   1.756 -0.1665 -0.7581 -0.4084
 7252SOL    HW133215   1.945   2.883   1.764 -1.1389  3.6651  0.7157
 7252SOL    HW233216   2.041   3.000   1.771  1.2049 -0.5811 -1.9211
 7253SOL     OW33217   4.694   4.005   6.389  0.2110  0.2654 -0.6537
 7253SOL    HW133218   4.607   4.026   6.421 -0.6262 -3.1407 -0.6736
 7253SOL    HW233219   4.673   3.964   6.305  0.3020 -0.2175 -0.4416
 7254SOL     OW33220   2.661   4.686   7.385 -0.3342  0.4320  0.0317
 7254SOL    HW133221   2.698   4.684   7.296 -0.0061 -1.5129  0.2065
 7254SOL    HW233222   2.739   4.719   7.428 -0.1211  0.8608 -0.6808
 7255SOL     OW33223   2.296   0.215  12.842 -0.3506  0.0367  0.0759
 7255SOL    HW133224   2.324   0.302  12.869 -1.5541 -0.4125  2.8003
 7255SOL    HW233225   2.216   0.199  12.893 -0.9692 -0.5405 -1.0931
 7256SOL     OW33226   3.803   3.520  16.618  0.2054 -0.3454 -0.1357
 7256SOL    HW133227   3.804   3.436  16.571  1.6744 -1.6072  2.1587
 7256SOL    HW233228   3.751   3.566  16.552  0.5659  0.3965  0.1054
 7257SOL     OW33229   2.958   0.813   6.385 -0.0958  0.1277  1.0908
 7257SOL    HW133230   2.874   0.845   6.418 -0.2645  1.2370 -0.4372
 7257SOL    HW233231   2.936   0.729   6.345  1.1735  0.0938  0.4960
 7258SOL     OW33232   4.563   0.070  12.857 -0.1048 -0.2760  0.7480
 7258SOL    HW133233   4.489   0.127  12.834 -1.0217 -2.4900 -1.7782
 7258SOL    HW233234   4.609   0.124  12.921 -1.6428  2.0718 -0.1034
 7259SOL     OW33235   3.017   3.603   4.495  0.0447  0.0934  0.4743
 7259SOL    HW133236   3.023   3.519   4.450 -1.6757  0.8895 -1.2268
 7259SOL    HW233237   2.959   3.589   4.570 -0.9442 -1.3742 -0.5613
 7260SOL     OW33238   1.994   0.515   8.646  0.2212  0.4362  0.3258
 7260SOL    HW133239   1.977   0.473   8.730 -1.0174 -1.8011 -1.0475
 7260SOL    HW233240   2.086   0.493   8.630  0.5568  1.6812  0.5472
 7261SOL     OW33241   4.330   3.462   3.805 -0.2999  0.5557  0.1028
 7261SOL    HW133242   4.360   3.393   3.865  0.6987  0.1429 -0.8778
 7261SOL    HW233243   4.407   3.467   3.749  1.4895  0.3637  2.5210
 7262SOL     OW33244   2.931   2.969   2.265 -0.4353 -0.8018 -0.4033
 7262SOL    HW133245   2.848   3.015   2.255  0.8844  1.5010 -0.8191
 7262SOL    HW233246   2.987   3.031   2.217  0.3426 -1.5274 -0.4323
 7263SOL     OW33247   3.549   1.909   5.947  1.0571  0.1508 -0.5382
 7263SOL    HW133248   3.474   1.902   6.006  0.5592 -0.8941 -1.2964
 7263SOL    HW233249   3.618   1.863   5.996  1.5233 -0.4338 -1.7506
 7264SOL     OW33250   3.648   2.006   8.273 -0.3248 -0.0166  0.7309
 7264SOL    HW133251   3.711   2.077   8.272 -2.0101  1.5025  2.4609
 7264SOL    HW233252   3.624   2.005   8.180 -0.2834  2.4819  0.7099
 7265SOL     OW33253   4.374   4.029   9.303 -0.6841  0.0550 -0.0903
 7265SOL    HW133254   4.367   4.116   9.263  1.1097 -0.3742 -1.3802
 7265SOL    HW233255   4.427   3.979   9.240 -1.6343 -1.0121 -0.0512
 7266SOL     OW33256   0.319   1.923   5.625  0.1354  0.4764  0.6602
 7266SOL    HW133257   0.227   1.900   5.639 -0.1705  1.0563 -0.3434
 7266SOL    HW233258   0.301   1.960   5.538 -0.1639 -0.8851  0.1418
 7267SOL     OW33259   1.441   2.273   2.193 -0.0401 -0.0656 -0.4727
 7267SOL    HW133260   1.518   2.310   2.150 -0.6698 -0.5666 -2.0218
 7267SOL    HW233261   1.444   2.316   2.279 -0.2607  1.8439 -1.4140
 7268SOL     OW33262   2.412   1.958   9.335 -0.2677  0.1488 -1.1231
 7268SOL    HW133263   2.486   2.016   9.319  1.1268 -0.9838  1.0466
 7268SOL    HW233264   2.414   1.956   9.431 -0.7141 -0.0051 -1.1159
 7269SOL     OW33265   3.607   1.159   9.137 -0.0622 -0.1954  0.3104
 7269SOL    HW133266   3.531   1.136   9.191 -0.2306  0.1488  0.2199
 7269SOL    HW233267   3.669   1.092   9.166  0.2180  1.1121  2.7058
 7270SOL     OW33268   2.792   1.603   4.332  0.3292 -0.1018  0.3501
 7270SOL    HW133269   2.719   1.541   4.340 -0.1347  0.5176  0.9235
 7270SOL    HW233270   2.858   1.534   4.333  0.2265 -0.1931  2.0476
 7271SOL     OW33271   0.432   0.751   5.637 -0.5507 -0.2532  0.4429
 7271SOL    HW133272   0.523   0.722   5.639  0.0401  1.4961 -1.1481
 7271SOL    HW233273   0.454   0.840   5.666 -0.8774 -0.4786  1.3761
 7272SOL     OW33274   1.639   4.439   0.631  0.0919  0.4666 -0.5569
 7272SOL    HW133275   1.551   4.464   0.660  0.3286  0.3080  0.2893
 7272SOL    HW233276   1.631   4.345   0.648  1.2790  0.6233  0.9031
 7273SOL     OW33277   3.896   0.656   2.013 -0.3594 -0.5893  0.1424
 7273SOL    HW133278   3.870   0.583   2.071 -0.3594 -2.3719 -2.0928
 7273SOL    HW233279   3.924   0.715   2.083 -1.3157  0.8244 -0.6625
 7274SOL     OW33280   1.474   4.571   3.382 -0.4061 -0.3406  0.4865
 7274SOL    HW133281   1.428   4.595   3.302 -0.9120 -0.3201  0.7870
 7274SOL    HW233282   1.569   4.578   3.370 -0.5161 -0.3833 -0.4759
 7275SOL     OW33283   1.968   2.483   1.980 -0.0155 -0.1448  0.0565
 7275SOL    HW133284   1.911   2.550   1.942  0.6173  0.9309  0.9943
 7275SOL    HW233285   1.991   2.434   1.901 -2.3727 -1.8934  0.4328
 7276SOL     OW33286   4.457   4.363  10.423 -0.0405 -0.0328  0.3491
 7276SOL    HW133287   4.479   4.342  10.514 -0.3484 -0.6704  0.2768
 7276SOL    HW233288   4.378   4.312  10.406  0.8482 -1.2289 -0.1863
 7277SOL     OW33289   1.124   2.355   6.306 -0.2637 -0.0155  0.1440
 7277SOL    HW133290   1.201   2.351   6.250  0.6001  2.5969  1.1183
 7277SOL    HW233291   1.165   2.399   6.381  1.0235 -0.0350 -0.5485
 7278SOL     OW33292   2.120   4.282  11.056  0.5968  0.0127  0.3553
 7278SOL    HW133293   2.156   4.195  11.037 -0.2257  0.1510 -1.8007
 7278SOL    HW233294   2.195   4.312  11.107 -0.6781  1.7402  1.1997
 7279SOL     OW33295   2.325   0.411   5.790 -0.1047 -0.5700  0.5671
 7279SOL    HW133296   2.268   0.462   5.848 -0.1714  0.0296 -0.0217
 7279SOL    HW233297   2.408   0.413   5.838  0.7484 -2.2362 -0.8751
 7280SOL     OW33298   4.567   3.719   3.375  0.4466  0.9929 -0.2725
 7280SOL    HW133299   4.484   3.744   3.335  0.0976  1.3480  0.6692
 7280SOL    HW233300   4.548   3.630   3.403 -0.2890  1.4207  0.5969
 7281SOL     OW33301   3.193   4.192  11.832  0.7850  0.2887 -0.1105
 7281SOL    HW133302   3.263   4.221  11.889  1.5808 -1.0723 -0.3815
 7281SOL    HW233303   3.232   4.226  11.751  1.6047  0.2627  0.2779
 7282SOL     OW33304   2.389   4.570  16.238  0.0105  0.2849  0.3072
 7282SOL    HW133305   2.464   4.523  16.274 -2.6032 -3.0080  1.4310
 7282SOL    HW233306   2.327   4.570  16.310  0.4250 -0.9056  0.6650
 7283SOL     OW33307   1.716   0.604   6.619 -0.2221 -0.1000 -0.5200
 7283SOL    HW133308   1.634   0.575   6.580 -0.9420  1.9285 -0.5410
 7283SOL    HW233309   1.721   0.692   6.579 -1.1194 -1.2783 -3.2328
 7284SOL     OW33310   2.311   2.212   3.144 -0.3610 -0.2696 -0.6527
 7284SOL    HW133311   2.310   2.141   3.080 -2.8866 -1.8505  1.1572
 7284SOL    HW233312   2.266   2.284   3.099 -2.7251 -0.5908  1.2013
 7285SOL     OW33313   1.644   3.139   4.131  0.2518 -0.0210 -0.1171
 7285SOL    HW133314   1.686   3.104   4.053  1.7853  0.8045  0.3356
 7285SOL    HW233315   1.553   3.134   4.104  0.2396  0.0394 -0.0861
 7286SOL     OW33316   0.633   0.994   4.791  0.1590 -0.5421  0.2336
 7286SOL    HW133317   0.586   1.051   4.851 -0.4169 -1.5878  0.7793
 7286SOL    HW233318   0.656   0.912   4.835 -1.4500 -1.0472  0.1192
 7287SOL     OW33319   3.053   1.255   3.153  0.3595  0.2205 -0.2527
 7287SOL    HW133320   3.001   1.302   3.088  1.2359  2.2873  0.5433
 7287SOL    HW233321   3.133   1.305   3.171 -0.0368  1.3751 -1.6722
 7288SOL     OW33322   0.126   1.932   3.190  0.2142  0.2052 -0.0680
 7288SOL    HW133323   0.192   1.969   3.249 -0.5524  2.2141 -0.4607
 7288SOL    HW233324   0.177   1.863   3.147  0.7666  0.4115  0.2439
 7289SOL     OW33325   0.074   3.310  16.568  0.5180 -0.7173  0.7290
 7289SOL    HW133326   0.159   3.270  16.548  0.6324 -0.6881  1.1488
 7289SOL    HW233327   0.095   3.402  16.582  0.7751 -0.3852 -1.8325
 7290SOL     OW33328   1.259   3.299   9.751  0.5116 -0.8334  0.2382
 7290SOL    HW133329   1.237   3.281   9.843  0.3872 -1.9852 -0.0141
 7290SOL    HW233330   1.202   3.235   9.709  0.2510  0.1030 -0.8271
 7291SOL     OW33331   0.209   0.375   6.271 -0.0709 -0.7651 -0.1083
 7291SOL    HW133332   0.276   0.403   6.209 -3.8600  1.9180 -2.9947
 7291SOL    HW233333   0.272   0.332   6.328 -1.1388  0.2962  1.8537
 7292SOL     OW33334   0.939   0.128   0.374 -0.4583 -0.7830 -0.4777
 7292SOL    HW133335   0.952   0.038   0.403 -1.3300 -0.5511  0.6515
 7292SOL    HW233336   0.845   0.144   0.371 -0.6815 -1.5753  2.0806
 7293SOL     OW33337   3.011   3.676   1.276  0.3050 -0.3348 -0.1503
 7293SOL    HW133338   3.040   3.765   1.295  0.3399 -0.2929 -0.3905
 7293SOL    HW233339   2.919   3.674   1.301  0.8120  3.4051  1.9797
 7294SOL     OW33340   0.263   2.429   7.350  0.0335 -0.0633 -0.2955
 7294SOL    HW133341   0.190   2.424   7.411  0.4749 -0.5399  0.1939
 7294SOL    HW233342   0.235   2.510   7.308 -1.4931 -0.2607  0.3650
 7295SOL     OW33343   3.233   2.530   9.042 -0.0489 -0.1456  0.1285
 7295SOL    HW133344   3.202   2.525   9.132  4.0527  0.9670  1.6039
 7295SOL    HW233345   3.258   2.622   9.031 -4.0512  1.1809  1.9578
 7296SOL     OW33346   0.796   3.911   2.259  0.3409  0.3147  0.3233
 7296SOL    HW133347   0.798   4.001   2.227  1.1426 -0.1005 -0.7905
 7296SOL    HW233348   0.722   3.868   2.219  0.3248 -0.4770  1.1991
 7297SOL     OW33349   0.844   3.963   1.895 -0.5442  0.7425 -0.2965
 7297SOL    HW133350   0.795   4.045   1.885 -0.0528  1.0163 -0.4896
 7297SOL    HW233351   0.936   3.989   1.898 -0.6588  1.0718  0.6674
 7298SOL     OW33352   4.364   2.550   4.243 -0.5652 -0.4561  0.5231
 7298SOL    HW133353   4.283   2.590   4.211  0.1313 -0.3809 -1.1828
 7298SOL    HW233354   4.416   2.534   4.164 -3.1330  1.0195 -1.4612
 7299SOL     OW33355   3.255   2.310   6.554  0.5812 -0.0908  0.2234
 7299SOL    HW133356   3.163   2.289   6.566  1.5101 -4.0540  0.3878
 7299SOL    HW233357   3.260   2.394   6.509  0.7064 -1.6712 -2.7227
 7300SOL     OW33358   4.708   1.625   2.653 -0.4989 -0.0104  0.2172
 7300SOL    HW133359   0.047   1.683   2.696 -0.3878 -0.5929  0.8502
 7300SOL    HW233360   0.050   1.565   2.615 -0.6211 -0.1803  0.2731
 7301SOL     OW33361   3.265   3.567  15.335 -0.4629  0.2881 -0.5878
 7301SOL    HW133362   3.339   3.615  15.299  0.5170 -2.1939 -1.8691
 7301SOL    HW233363   3.222   3.644  15.373 -0.8927  0.4265 -1.3511
 7302SOL     OW33364   4.423   3.794   8.856  0.4727  0.4495  0.3457
 7302SOL    HW133365   4.408   3.884   8.826  0.4713 -0.0453 -1.1027
 7302SOL    HW233366   4.519   3.790   8.854  0.5137  0.5177  1.7010
 7303SOL     OW33367   1.949   4.294   5.959  0.1042 -0.0926 -0.5791
 7303SOL    HW133368   1.993   4.224   5.911 -0.7696 -1.4910  0.6984
 7303SOL    HW233369   2.014   4.365   5.957  1.2581 -1.1667 -1.0217
 7304SOL     OW33370   4.548   2.706  11.032  0.2194  0.9218 -0.4257
 7304SOL    HW133371   4.568   2.648  10.959 -1.1943 -0.7217  0.4905
 7304SOL    HW233372   4.594   2.786  11.004  2.7526 -0.2843  0.2792
 7305SOL     OW33373   4.652   4.623  14.785 -0.1564  0.2253 -0.4173
 7305SOL    HW133374   4.595   4.554  14.818  2.6311 -0.9402  1.9865
 7305SOL    HW233375   4.625   4.623  14.693 -1.3406 -0.3506 -0.0692
 7306SOL     OW33376   0.854   3.543  11.706 -0.1975 -0.0068  0.2363
 7306SOL    HW133377   0.782   3.566  11.647 -0.9338 -1.0685  0.7318
 7306SOL    HW233378   0.928   3.562  11.648 -1.0177 -3.7193 -2.0455
 7307SOL     OW33379   4.005   4.383   4.012 -1.2718 -0.5886  0.0298
 7307SOL    HW133380   3.963   4.308   4.055 -2.1015 -0.0062  0.2208
 7307SOL    HW233381   4.017   4.446   4.083 -0.5573  0.5700 -1.1241
 7308SOL     OW33382   3.632   3.876  11.498  0.1982  0.2845  0.0596
 7308SOL    HW133383   3.629   3.793  11.546 -0.2432 -0.1446 -0.7014
 7308SOL    HW233384   3.653   3.939  11.566 -0.3168 -1.6097  1.9813
 7309SOL     OW33385   1.284   3.963   4.766 -0.6631 -0.4127  0.5135
 7309SOL    HW133386   1.287   3.957   4.861 -3.0558  0.9071  0.6572
 7309SOL    HW233387   1.300   3.873   4.738  0.6958  0.3839 -1.3073
 7310SOL     OW33388   0.012   4.575  13.397 -0.0589 -0.2789  0.4444
 7310SOL    HW133389   0.046   4.487  13.411  0.3981 -0.2252 -0.3653
 7310SOL    HW233390   0.094   4.618  13.421  0.0661 -0.6049  0.5968
 7311SOL     OW33391   0.756   3.207   1.435 -0.0171  0.3612  0.1507
 7311SOL    HW133392   0.844   3.192   1.471  0.5890  0.3398 -1.3352
 7311SOL    HW233393   0.704   3.160   1.500 -0.5520  1.9702  0.8715
 7312SOL     OW33394   4.619   3.973   6.959  0.4232 -0.5147 -0.6727
 7312SOL    HW133395   4.526   3.952   6.952  0.5082 -0.7062 -1.1829
 7312SOL    HW233396   4.670   3.895   6.936 -1.7692 -1.7999 -1.1050
 7313SOL     OW33397   0.118   0.242   8.386  0.1931  0.3649 -0.3481
 7313SOL    HW133398   0.157   0.234   8.473 -2.5512 -0.5315  0.7927
 7313SOL    HW233399   0.187   0.281   8.334  0.1264 -0.6815 -1.2279
 7314SOL     OW33400   0.703   4.497   2.219  0.4837  0.3818 -0.5091
 7314SOL    HW133401   0.615   4.473   2.247  1.1001 -2.2430 -0.8374
 7314SOL    HW233402   0.725   4.417   2.171 -1.1128 -0.7347  0.6604
 7315SOL     OW33403   1.757   1.998   3.968  0.3535 -0.5468 -0.4394
 7315SOL    HW133404   1.716   1.995   3.882 -0.8883 -2.1507  0.2003
 7315SOL    HW233405   1.804   2.081   3.965 -1.3439  0.3625 -1.5480
 7316SOL     OW33406   3.419   2.138   4.310  0.3078  0.4475 -0.4065
 7316SOL    HW133407   3.342   2.104   4.356  1.2318  0.6353  1.2807
 7316SOL    HW233408   3.385   2.151   4.222  1.5635 -0.6195 -1.0449
 7317SOL     OW33409   1.749   0.112  10.484 -0.0041 -0.3576  0.0136
 7317SOL    HW133410   1.789   0.038  10.529 -1.4467 -1.4060 -0.4266
 7317SOL    HW233411   1.686   0.144  10.548  1.2605  0.5602  0.8078
 7318SOL     OW33412   1.061   2.973  15.210 -0.0608  0.1698  0.8306
 7318SOL    HW133413   1.058   3.066  15.186 -1.4011 -0.1662 -0.3071
 7318SOL    HW233414   1.010   2.937  15.137 -0.7032  0.8750  0.9371
 7319SOL     OW33415   0.417   3.304   3.459  0.2877  0.2323  0.0539
 7319SOL    HW133416   0.462   3.355   3.526  1.5391 -0.3781 -0.3285
 7319SOL    HW233417   0.387   3.230   3.512 -0.9764 -1.4794 -3.0486
 7320SOL     OW33418   3.333   4.134   7.250  0.0159  1.0159  0.2605
 7320SOL    HW133419   3.251   4.150   7.298  0.1176 -0.0379  0.7739
 7320SOL    HW233420   3.307   4.068   7.186 -0.7666  0.7563  0.8299
 7321SOL     OW33421   1.173   4.710  10.088  0.1502  0.0631 -0.6107
 7321SOL    HW133422   1.084   4.675  10.091 -0.2283  1.1179  0.4296
 7321SOL    HW233423   1.188   4.696  10.181 -0.6243 -0.2838 -0.5320
 7322SOL     OW33424   0.983   2.358   8.791  0.4164 -0.1509 -0.4270
 7322SOL    HW133425   1.072   2.393   8.780  0.5172 -0.1144  0.4716
 7322SOL    HW233426   0.981   2.293   8.721  0.4362 -0.5471 -0.0593
 7323SOL     OW33427   3.886   4.232   5.576 -0.5139 -0.5143  0.7321
 7323SOL    HW133428   3.816   4.277   5.529  0.2561  0.6050  0.6470
 7323SOL    HW233429   3.967   4.255   5.529 -0.6744 -1.1374  0.1594
 7324SOL     OW33430   1.558   1.431   4.767 -0.6793  0.7396 -0.1873
 7324SOL    HW133431   1.630   1.392   4.816  0.3366  1.0630 -1.4147
 7324SOL    HW233432   1.550   1.375   4.689  1.0094 -0.3610  0.4300
 7325SOL     OW33433   1.786   2.248   2.998 -0.1544  0.1286 -0.2434
 7325SOL    HW133434   1.766   2.200   3.079  1.1626 -0.0793 -0.0502
 7325SOL    HW233435   1.869   2.207   2.976 -0.0047  1.0124 -1.3170
 7326SOL     OW33436   0.167   3.325   6.437  0.3713 -0.4275 -0.0767
 7326SOL    HW133437   0.249   3.320   6.388  0.5143  0.9329  0.0454
 7326SOL    HW233438   0.140   3.413   6.412  1.1559 -0.1247  0.1591
 7327SOL     OW33439   0.387   3.313   7.412 -0.2715 -0.5219  0.3122
 7327SOL    HW133440   0.341   3.396   7.399  0.0160 -0.5895 -1.1150
 7327SOL    HW233441   0.468   3.349   7.450 -0.3249 -0.4676  0.3751
 7328SOL     OW33442   2.326   4.340  11.232 -0.4119  0.4229  0.0107
 7328SOL    HW133443   2.415   4.307  11.216 -0.2248  1.8595 -1.8651
 7328SOL    HW233444   2.330   4.415  11.174  0.8615 -1.3698 -2.2051
 7329SOL     OW33445   3.133   3.035   4.307 -0.3097  0.1579 -0.2472
 7329SOL    HW133446   3.055   3.026   4.362  0.6006 -0.1889  1.0066
 7329SOL    HW233447   3.200   3.022   4.374  0.0296  0.5915 -0.5096
 7330SOL     OW33448   0.965   4.616  13.779  0.4431  0.1661  0.7065
 7330SOL    HW133449   1.052   4.654  13.780 -0.1559  1.5546  0.1445
 7330SOL    HW233450   0.955   4.593  13.871  1.9794  0.9642  1.0661
 7331SOL     OW33451   2.114   4.624   5.908 -0.4586 -0.5037  0.0544
 7331SOL    HW133452   2.178   4.564   5.869 -0.4334  0.4384 -1.3359
 7331SOL    HW233453   2.115   4.701   5.852  0.8106  0.8114  1.9175
 7332SOL     OW33454   0.551   3.074   6.644  0.7036  0.1668  0.6111
 7332SOL    HW133455   0.621   3.023   6.604  0.9184  0.6855  0.3275
 7332SOL    HW233456   0.493   3.094   6.571 -1.9527  0.8087  2.8617
 7333SOL     OW33457   3.383   3.447   0.272 -0.3514  0.1910  0.2081
 7333SOL    HW133458   3.410   3.503   0.200 -0.7517  2.3861  1.7357
 7333SOL    HW233459   3.343   3.375   0.224 -0.0853 -0.4129  0.8982
 7334SOL     OW33460   1.601   3.931   3.557 -1.0357  0.3404  0.0879
 7334SOL    HW133461   1.593   3.917   3.651  1.9970 -1.9281 -0.0055
 7334SOL    HW233462   1.517   3.908   3.519 -1.3875  0.7124  0.6417
 7335SOL     OW33463   3.981   2.068   3.334  0.1140  0.8349 -0.1744
 7335SOL    HW133464   4.048   2.072   3.403  0.3463 -0.9022 -0.3065
 7335SOL    HW233465   4.037   2.084   3.257  0.9832 -1.3034  0.0225
 7336SOL     OW33466   1.128   4.337   3.930  0.2544 -0.4540  0.0738
 7336SOL    HW133467   1.186   4.402   3.891 -0.3309 -0.0487 -0.1151
 7336SOL    HW233468   1.111   4.279   3.856 -1.2534 -0.1203  0.1708
 7337SOL     OW33469   3.021   4.199   4.180  0.6833  0.4540 -0.3055
 7337SOL    HW133470   3.008   4.251   4.101 -2.7413 -0.8790 -0.5949
 7337SOL    HW233471   3.110   4.162   4.177  1.0701  1.4303 -0.9961
 7338SOL     OW33472   0.160   3.719   7.917 -0.0021 -0.3342  0.2211
 7338SOL    HW133473   0.082   3.716   7.972 -0.1256  2.3860  0.1874
 7338SOL    HW233474   0.133   3.672   7.838  1.9450 -0.8576 -0.1374
 7339SOL     OW33475   2.694   4.505  17.439  0.0038  0.0857 -0.3219
 7339SOL    HW133476   2.721   4.436  17.499  0.4204  1.0713  0.6138
 7339SOL    HW233477   2.781   4.529  17.407 -0.5579 -0.9501 -2.6599
 7340SOL     OW33478   4.094   1.486   7.446 -0.4460 -0.1036 -0.3917
 7340SOL    HW133479   4.156   1.426   7.489 -0.1311 -0.5783 -1.5153
 7340SOL    HW233480   4.066   1.536   7.523  0.4532  0.5279 -0.4780
 7341SOL     OW33481   1.078   3.533   7.176  0.1109  0.5466  0.0579
 7341SOL    HW133482   1.055   3.560   7.265 -1.9852  0.8750 -0.5766
 7341SOL    HW233483   1.173   3.539   7.177  0.1017  0.6892  0.1438
 7342SOL     OW33484   4.674   0.559   7.277  0.0270 -0.1365  1.1307
 7342SOL    HW133485   4.579   0.549   7.264  0.2502 -0.7937  0.0721
 7342SOL    HW233486   4.703   0.601   7.196 -0.3406 -1.3996  0.3429
 7343SOL     OW33487   0.849   1.192   6.309  0.1859  0.5627 -0.1432
 7343SOL    HW133488   0.875   1.199   6.401  0.3431  0.6616 -0.1944
 7343SOL    HW233489   0.765   1.146   6.315  0.7430 -0.4649 -0.2180
 7344SOL     OW33490   0.155   0.456   2.838 -0.2587 -0.6000  0.7533
 7344SOL    HW133491   0.203   0.516   2.895  0.1948  0.5403 -0.8368
 7344SOL    HW233492   0.192   0.465   2.751 -0.8878  0.2398  0.5761
 7345SOL     OW33493   2.750   1.043   9.065 -0.2301 -0.4190  0.0009
 7345SOL    HW133494   2.664   1.050   9.106 -1.4135 -1.3891 -2.2641
 7345SOL    HW233495   2.794   1.127   9.074  0.8800 -0.7349 -2.4328
 7346SOL     OW33496   4.060   4.637  16.562 -0.2610 -0.2851 -0.3130
 7346SOL    HW133497   4.041   4.675  16.476 -2.8053 -3.7272 -1.2897
 7346SOL    HW233498   3.994   4.569  16.579  0.0801 -0.4596  0.3234
 7347SOL     OW33499   1.016   3.217  10.266 -0.5690  0.1580 -0.6665
 7347SOL    HW133500   0.942   3.176  10.222 -1.7442  1.2450  0.3327
 7347SOL    HW233501   1.002   3.311  10.256  2.0234  0.5211 -0.9126
 7348SOL     OW33502   0.386   2.631  15.386  0.4163  0.0115 -0.0958
 7348SOL    HW133503   0.475   2.622  15.351 -0.2625 -0.4526 -1.6899
 7348SOL    HW233504   0.344   2.688  15.323 -2.3274 -0.6442  1.1533
 7349SOL     OW33505   3.340   3.134   7.580  0.1382  0.1330  0.7033
 7349SOL    HW133506   3.412   3.184   7.540  0.1935 -1.0746 -0.7120
 7349SOL    HW233507   3.389   3.071   7.633  1.2515  1.5765  1.3935
 7350SOL     OW33508   1.901   4.421  11.173 -0.3611 -0.2147  0.0729
 7350SOL    HW133509   1.983   4.441  11.129  1.4252 -5.2991  1.1368
 7350SOL    HW233510   1.924   4.337  11.212  0.8902 -0.8529 -2.0293
 7351SOL     OW33511   3.280   1.612  15.398  0.3482 -0.3832  0.0386
 7351SOL    HW133512   3.277   1.669  15.475 -0.3926 -0.8723  0.3653
 7351SOL    HW233513   3.326   1.533  15.426  0.9906  0.9344  2.7064
 7352SOL     OW33514   3.864   3.739   9.648 -0.3601 -0.4880  0.3644
 7352SOL    HW133515   3.858   3.790   9.729  0.6754 -0.1754  0.2471
 7352SOL    HW233516   3.959   3.734   9.640 -0.2641 -0.8360  1.7329
 7353SOL     OW33517   1.194   3.659   2.105  0.1267  0.4883 -0.0759
 7353SOL    HW133518   1.106   3.694   2.109  0.1738  1.0077 -2.9706
 7353SOL    HW233519   1.241   3.709   2.172 -2.1353  0.2127  1.6885
 7354SOL     OW33520   0.608   3.142   3.360 -0.3641  0.3844 -0.6071
 7354SOL    HW133521   0.554   3.221   3.350 -0.4617  0.1946 -1.6474
 7354SOL    HW233522   0.567   3.091   3.429  1.6073  1.0076  1.0035
 7355SOL     OW33523   2.373   1.555   5.645 -0.1160  0.2744  0.2893
 7355SOL    HW133524   2.354   1.545   5.552  1.9588 -0.1252 -0.0868
 7355SOL    HW233525   2.401   1.646   5.645  0.8244 -0.0166  0.3394
 7356SOL     OW33526   2.527   0.753   5.987 -0.1584 -0.2190 -0.1649
 7356SOL    HW133527   2.495   0.679   6.039 -0.6263  0.3686  0.3789
 7356SOL    HW233528   2.528   0.822   6.053 -0.1819  0.0824 -0.4772
 7357SOL     OW33529   1.578   0.593  10.917  0.1409  0.2035 -0.0268
 7357SOL    HW133530   1.489   0.613  10.947  0.1281 -1.4075  1.0230
 7357SOL    HW233531   1.557   0.500  10.930 -0.2612  0.6008  2.1274
 7358SOL     OW33532   2.755   3.992  14.632  0.1114 -0.2756  0.2158
 7358SOL    HW133533   2.687   3.924  14.635  0.3257 -0.5561 -1.5083
 7358SOL    HW233534   2.823   3.929  14.656 -0.7333 -1.8372 -1.5357
 7359SOL     OW33535   2.643   1.895   3.051 -0.0983  0.2943  0.2821
 7359SOL    HW133536   2.633   1.990   3.042 -0.1171  0.5641  3.0496
 7359SOL    HW233537   2.682   1.880   2.965 -0.2081 -3.5646  0.9351
 7360SOL     OW33538   3.488   1.257   1.399 -0.1598  0.0476 -0.0786
 7360SOL    HW133539   3.543   1.254   1.321 -0.0515 -1.0874  0.0425
 7360SOL    HW233540   3.512   1.177   1.446 -1.2121  0.1427  0.6267
 7361SOL     OW33541   3.378   0.446   9.128  0.2101 -0.4257 -0.6323
 7361SOL    HW133542   3.375   0.354   9.154  1.3424 -0.0438  0.8341
 7361SOL    HW233543   3.284   0.466   9.132  0.7257  2.1854 -1.8462
 7362SOL     OW33544   2.680   0.361  12.598 -0.7366  0.3340  0.3322
 7362SOL    HW133545   2.717   0.405  12.521 -0.0982  0.2248  0.5828
 7362SOL    HW233546   2.729   0.281  12.615 -3.2349 -0.6581  2.8956
 7363SOL     OW33547   1.397   4.653   2.819 -0.2853  0.4080  0.2340
 7363SOL    HW133548   1.356   4.668   2.734 -0.1832 -0.8835 -0.0497
 7363SOL    HW233549   1.473   4.600   2.795 -1.5929 -0.8146 -1.2575
 7364SOL     OW33550   2.451   0.702  10.071 -0.0512 -0.2170  0.4769
 7364SOL    HW133551   2.471   0.614  10.041 -1.4919 -0.5076  0.3756
 7364SOL    HW233552   2.541   0.734  10.082  0.3874 -1.5371  0.7248
 7365SOL     OW33553   0.296   1.461   3.017  0.4887  0.0109  0.1382
 7365SOL    HW133554   0.269   1.388   2.960 -1.2138  0.6995  0.0422
 7365SOL    HW233555   0.347   1.416   3.084  0.0863 -1.0665 -0.2769
 7366SOL     OW33556   2.626   1.227  11.586 -0.2080 -0.0392  0.2895
 7366SOL    HW133557   2.696   1.163  11.568 -0.0729 -0.1193  1.1009
 7366SOL    HW233558   2.562   1.185  11.528 -0.8996 -0.2590  1.2150
 7367SOL     OW33559   4.627   0.490  13.069 -0.2038  0.7143 -0.1907
 7367SOL    HW133560   4.700   0.552  13.059  0.5969  0.2243  2.6843
 7367SOL    HW233561   4.565   0.528  13.131 -0.4821  0.8979 -0.5794
 7368SOL     OW33562   2.498   2.100  11.279  0.1122 -0.0754  0.2705
 7368SOL    HW133563   2.468   2.167  11.340 -0.6311 -0.8243  0.7378
 7368SOL    HW233564   2.447   2.023  11.305  0.5756 -0.9329 -1.3815
 7369SOL     OW33565   3.483   1.362   6.083 -0.2266 -0.4692  0.2045
 7369SOL    HW133566   3.560   1.374   6.139  0.1509  2.0706 -0.8481
 7369SOL    HW233567   3.413   1.326   6.138 -1.7818  0.9327 -0.8667
 7370SOL     OW33568   1.465   0.229   6.408 -0.0547  0.0400  0.3908
 7370SOL    HW133569   1.505   0.219   6.321 -0.1494  0.5905  0.2846
 7370SOL    HW233570   1.520   0.173   6.463  1.4203  0.8651 -0.2442
 7371SOL     OW33571   2.101   3.819   7.993 -0.3656  0.0685 -0.4426
 7371SOL    HW133572   2.025   3.838   7.939  0.3903  1.3797 -1.0424
 7371SOL    HW233573   2.057   3.800   8.076  0.3403 -1.0555 -0.3218
 7372SOL     OW33574   1.671   3.487   1.208 -0.0778  0.2621  0.6400
 7372SOL    HW133575   1.758   3.455   1.233  0.9346  1.3228 -1.5808
 7372SOL    HW233576   1.611   3.453   1.274 -0.2399 -0.1906  0.2572
 7373SOL     OW33577   2.675   4.264  10.661 -0.3182 -0.3362 -0.6491
 7373SOL    HW133578   2.634   4.263  10.575 -0.4463  0.4364 -0.6002
 7373SOL    HW233579   2.764   4.233  10.641 -0.8545 -1.2971 -1.5402
 7374SOL     OW33580   3.176   2.877   7.966  0.3540 -0.3886 -0.4215
 7374SOL    HW133581   3.154   2.846   8.054 -1.1021  2.0909  0.0921
 7374SOL    HW233582   3.096   2.912   7.927 -1.0845 -1.9334  1.1386
 7375SOL     OW33583   3.354   1.852   3.099  0.4628  0.1397  0.3523
 7375SOL    HW133584   3.432   1.907   3.108  2.2037 -2.2397  0.0705
 7375SOL    HW233585   3.391   1.768   3.072  1.6217  1.1305 -1.1531
 7376SOL     OW33586   0.414   2.745   3.467  0.0382 -0.5353 -0.5181
 7376SOL    HW133587   0.412   2.773   3.375 -1.3138 -0.1903 -0.3898
 7376SOL    HW233588   0.448   2.823   3.512 -3.5291  0.7203  0.0522
 7377SOL     OW33589   0.919   1.765   9.691  0.1017 -0.1732 -0.0928
 7377SOL    HW133590   0.997   1.818   9.676  0.5448 -1.4704 -2.3814
 7377SOL    HW233591   0.878   1.801   9.770 -2.6319  0.2841 -1.7545
 7378SOL     OW33592   3.301   3.264  13.581 -0.5154 -0.1052 -0.1699
 7378SOL    HW133593   3.323   3.354  13.605  0.5167 -0.2546 -0.5205
 7378SOL    HW233594   3.373   3.258  13.517  2.2609 -0.5073  2.9902
 7379SOL     OW33595   1.887   0.310   2.146  0.1235 -0.0823 -0.2668
 7379SOL    HW133596   1.906   0.264   2.064 -1.7109 -1.5004  0.1073
 7379SOL    HW233597   1.896   0.402   2.122 -2.1897  0.3090  0.3866
 7380SOL     OW33598   2.684   1.326   4.847  0.0554 -0.2683  0.2548
 7380SOL    HW133599   2.612   1.278   4.807  0.9261 -0.9719 -0.4819
 7380SOL    HW233600   2.750   1.259   4.866 -0.4876 -0.8419  0.1002
 7381SOL     OW33601   4.411   0.543   7.191  0.4050  0.0019  0.2579
 7381SOL    HW133602   4.379   0.509   7.108 -0.1472 -0.4896  0.6703
 7381SOL    HW233603   4.355   0.499   7.255 -0.2618  1.6811  0.8592
 7382SOL     OW33604   1.165   0.377   5.670 -0.2915  0.5645  0.4339
 7382SOL    HW133605   1.203   0.297   5.633  2.0776  0.7994  2.4318
 7382SOL    HW233606   1.135   0.353   5.757 -2.1617  0.1445 -0.3158
 7383SOL     OW33607   3.136   0.664   3.526 -0.0340 -0.2143  0.5368
 7383SOL    HW133608   3.095   0.695   3.445 -0.8930  0.3025  1.1676
 7383SOL    HW233609   3.150   0.570   3.516  2.2125  0.2602 -0.9446
 7384SOL     OW33610   0.971   0.416  17.024 -0.1934  0.1471 -0.4768
 7384SOL    HW133611   0.941   0.507  17.025 -1.7416 -0.3322 -3.5368
 7384SOL    HW233612   1.006   0.408  17.113 -0.6749 -0.5236 -0.3495
 7385SOL     OW33613   1.247   1.956  14.576 -0.5981 -0.0837 -0.0283
 7385SOL    HW133614   1.325   1.999  14.611 -1.3388  0.1045  1.3620
 7385SOL    HW233615   1.175   2.017  14.588 -0.4857 -0.0097  0.2572
 7386SOL     OW33616   1.012   2.039  13.344  0.1745 -0.9934  0.1642
 7386SOL    HW133617   1.105   2.019  13.330  0.3401 -0.2224  0.1753
 7386SOL    HW233618   0.976   1.951  13.336 -1.4752 -0.4085  1.2529
 7387SOL     OW33619   3.815   4.382  11.129  0.2211  0.3715  0.0931
 7387SOL    HW133620   3.891   4.436  11.151 -1.0032  2.1616 -0.0760
 7387SOL    HW233621   3.745   4.446  11.120  1.0043  1.3593  1.0387
 7388SOL     OW33622   0.861   0.663  15.459 -0.2494 -0.4960  0.7077
 7388SOL    HW133623   0.941   0.612  15.470  0.5287  0.6828  0.6477
 7388SOL    HW233624   0.877   0.695  15.370 -0.7981 -2.5169 -0.1185
 7389SOL     OW33625   2.509   3.780   0.694 -0.2724  0.5792  0.2874
 7389SOL    HW133626   2.589   3.803   0.646 -0.9323 -1.5036 -1.7748
 7389SOL    HW233627   2.540   3.813   0.778 -0.8954  0.7994  0.4292
 7390SOL     OW33628   0.908   0.077   5.020  0.0007  0.3652  0.4040
 7390SOL    HW133629   0.977   0.057   4.957 -2.0063  0.8238 -1.9588
 7390SOL    HW233630   0.956   0.123   5.089  3.2995 -1.4253 -0.7260
 7391SOL     OW33631   4.626   3.336  15.524  0.0666  0.4963 -0.2814
 7391SOL    HW133632   4.602   3.383  15.604  0.2579  2.0301 -1.1192
 7391SOL    HW233633   4.632   3.252  15.569  0.9651  1.8329  2.1100
 7392SOL     OW33634   0.420   1.147   6.967  0.8483  0.2483 -0.5961
 7392SOL    HW133635   0.396   1.063   7.005  0.4626  0.0825 -1.1953
 7392SOL    HW233636   0.460   1.186   7.044 -2.1212 -1.4779  1.8294
 7393SOL     OW33637   4.550   4.249   2.422  0.2783  0.0319  0.1843
 7393SOL    HW133638   4.573   4.179   2.483  0.6208 -1.6456 -1.8799
 7393SOL    HW233639   4.613   4.234   2.352  1.5232  0.3057  1.2348
 7394SOL     OW33640   4.352   1.646  14.740  0.0854  0.2284  0.0145
 7394SOL    HW133641   4.382   1.573  14.686  0.3084  1.9856 -2.2790
 7394SOL    HW233642   4.412   1.627  14.811  0.8203  0.4866 -0.5323
 7395SOL     OW33643   4.529   2.249   6.014 -0.3267  0.3139  0.3472
 7395SOL    HW133644   4.487   2.288   6.091 -2.1642 -0.5620 -0.2128
 7395SOL    HW233645   4.448   2.237   5.964 -0.7038  0.6373  0.8823
 7396SOL     OW33646   0.890   3.334   6.277 -0.1530  0.0180  0.2417
 7396SOL    HW133647   0.863   3.321   6.186  0.1597  1.4483 -0.0576
 7396SOL    HW233648   0.982   3.309   6.278 -0.1572  0.0155  0.6319
 7397SOL     OW33649   0.992   2.239   3.167  0.6379 -0.2323  0.1400
 7397SOL    HW133650   0.960   2.290   3.093  3.9266  0.6371 -0.6363
 7397SOL    HW233651   1.066   2.188   3.134 -0.9299 -1.0389 -2.0913
 7398SOL     OW33652   1.669   1.685   8.260  0.3220 -0.6247  0.0710
 7398SOL    HW133653   1.661   1.649   8.348  2.0357 -0.2244  0.3950
 7398SOL    HW233654   1.626   1.770   8.274  1.1326 -0.3204  0.7278
 7399SOL     OW33655   1.805   1.735   4.841 -0.2784  0.0729  0.0336
 7399SOL    HW133656   1.875   1.693   4.792 -0.1029 -0.3477  0.6502
 7399SOL    HW233657   1.853   1.764   4.919  1.3254  0.2002 -1.0067
 7400SOL     OW33658   1.865   0.120  10.097  0.0972 -0.5105 -0.3844
 7400SOL    HW133659   1.805   0.088  10.164  0.0380  1.3503  0.4606
 7400SOL    HW233660   1.927   0.178  10.142 -1.8356 -0.6610  2.4837
 7401SOL     OW33661   3.341   3.958   3.009 -0.1264 -0.0948  0.2897
 7401SOL    HW133662   3.421   3.975   2.960 -1.4460 -1.7197 -2.4234
 7401SOL    HW233663   3.364   3.975   3.101 -0.9223  0.0497  0.4593
 7402SOL     OW33664   2.283   2.824   0.726  0.5335  0.1990  0.2259
 7402SOL    HW133665   2.282   2.769   0.647 -1.2256  1.2438 -0.4758
 7402SOL    HW233666   2.253   2.912   0.701  0.8737 -0.2486 -1.8033
 7403SOL     OW33667   4.540   3.311  13.024  0.4074 -0.5451 -0.2853
 7403SOL    HW133668   4.550   3.369  12.949 -2.1572 -1.2882 -1.1900
 7403SOL    HW233669   4.630   3.304  13.056  0.9371 -3.3725 -2.4049
 7404SOL     OW33670   3.599   4.525  10.542 -0.7408 -0.2271  0.7353
 7404SOL    HW133671   3.555   4.468  10.605 -0.7585 -1.0878 -0.0585
 7404SOL    HW233672   3.689   4.492  10.544 -0.3652  0.8878  2.2663
 7405SOL     OW33673   3.728   3.696   1.998  0.0030 -0.3354 -0.3905
 7405SOL    HW133674   3.743   3.685   1.904  2.1836  0.2236 -0.1175
 7405SOL    HW233675   3.692   3.784   2.003  0.5780 -0.0430 -1.5530
 7406SOL     OW33676   3.129   2.568  17.336 -0.6318  0.5345  0.0529
 7406SOL    HW133677   3.140   2.530  17.249  1.0595  0.8317  0.1313
 7406SOL    HW233678   3.209   2.620  17.343  1.2750 -2.5159  0.5163
 7407SOL     OW33679   0.570   3.873   8.053 -0.2222 -0.1897  0.0393
 7407SOL    HW133680   0.501   3.851   7.991 -0.0154  0.1668 -0.3226
 7407SOL    HW233681   0.620   3.938   8.003  0.1212  0.7654  1.6055
 7408SOL     OW33682   4.130   4.499   7.997  0.0057  0.0389 -0.2647
 7408SOL    HW133683   4.100   4.590   8.007 -1.5595 -0.6012  0.8670
 7408SOL    HW233684   4.132   4.492   7.901 -1.9148 -2.0240 -0.1317
 7409SOL     OW33685   1.740   3.608   6.015  0.0216  0.4400  0.7520
 7409SOL    HW133686   1.702   3.617   5.927  0.7272 -0.9909  0.2878
 7409SOL    HW233687   1.797   3.533   5.996 -1.0645 -0.1024 -0.3894
 7410SOL     OW33688   3.705   4.592   0.056  0.0240  0.5142  0.0003
 7410SOL    HW133689   3.666   4.666   0.103 -1.7791 -0.2936 -0.1995
 7410SOL    HW233690   3.678   4.616  17.663  1.5930  2.6227  0.0858
 7411SOL     OW33691   2.572   3.144   7.063 -0.0192  0.1363 -0.4658
 7411SOL    HW133692   2.549   3.214   7.002  1.5123 -0.6504 -1.9474
 7411SOL    HW233693   2.638   3.093   7.017  0.2573  2.8593 -3.0842
 7412SOL     OW33694   4.168   2.229  15.052 -0.0586 -0.4349  0.0799
 7412SOL    HW133695   4.178   2.136  15.030 -0.4680 -0.4186 -0.1821
 7412SOL    HW233696   4.118   2.229  15.134  0.0527  1.6258  0.1590
 7413SOL     OW33697   3.082   4.480   8.736  0.0185  0.1068 -0.0353
 7413SOL    HW133698   3.078   4.388   8.710  0.7757  0.1430 -0.2825
 7413SOL    HW233699   3.114   4.514   8.652  0.6167  0.4944  0.3458
 7414SOL     OW33700   4.245   0.404  14.326  0.3382 -0.1312 -0.5331
 7414SOL    HW133701   4.250   0.308  14.325  2.3147 -0.0060 -1.9624
 7414SOL    HW233702   4.339   0.418  14.321  0.4563 -0.8611 -0.3330
 7415SOL     OW33703   0.212   0.984  13.005  0.2433 -0.3629  0.4816
 7415SOL    HW133704   0.229   1.044  12.933  2.6776 -0.9253  0.6051
 7415SOL    HW233705   0.285   0.994  13.066  1.4817 -0.9385 -0.8874
 7416SOL     OW33706   0.368   2.123   3.791 -0.2542  0.2845  0.7160
 7416SOL    HW133707   0.449   2.164   3.762 -1.2394  1.2098 -0.7659
 7416SOL    HW233708   0.309   2.166   3.728  0.0634  1.6833  1.3684
 7417SOL     OW33709   0.279   1.826   7.924 -0.2892 -0.1024  0.2066
 7417SOL    HW133710   0.220   1.836   7.849  1.2898 -0.0974 -1.0284
 7417SOL    HW233711   0.350   1.801   7.865 -2.4816  0.5401 -2.7025
 7418SOL     OW33712   0.470   2.023  15.308 -0.2452 -0.1477  0.3340
 7418SOL    HW133713   0.412   2.089  15.269  0.6747  0.1387 -0.5351
 7418SOL    HW233714   0.539   2.075  15.349  0.8781 -0.0636 -1.6619
 7419SOL     OW33715   0.293   2.079   8.733  0.3524  0.0608 -0.0381
 7419SOL    HW133716   0.346   2.046   8.805 -1.0553 -2.1927 -0.0070
 7419SOL    HW233717   0.215   2.102   8.784  2.6856  1.6110  2.8353
 7420SOL     OW33718   1.275   1.897   0.846 -0.1500  0.8312  0.0495
 7420SOL    HW133719   1.212   1.864   0.911 -2.7912  1.5551 -2.1312
 7420SOL    HW233720   1.354   1.886   0.898 -1.5757 -3.2002  1.3394
 7421SOL     OW33721   4.060   0.614   5.929  0.2474  0.4132  0.0058
 7421SOL    HW133722   3.967   0.598   5.940  0.2566 -0.3268 -0.9609
 7421SOL    HW233723   4.052   0.671   5.853  1.1942 -0.7336 -0.9684
 7422SOL     OW33724   1.951   0.444   1.850  0.2207 -0.7313  0.6116
 7422SOL    HW133725   1.933   0.538   1.843 -0.9212 -0.9150  1.1038
 7422SOL    HW233726   2.044   0.431   1.830  0.6278  1.1115  1.2967
 7423SOL     OW33727   0.698   1.857   0.140 -0.2675  0.4641  0.7306
 7423SOL    HW133728   0.690   1.762   0.147  0.1000  0.0994 -3.3056
 7423SOL    HW233729   0.632   1.870   0.071  1.8584  2.5597 -0.8857
 7424SOL     OW33730   0.143   2.651   8.622  0.0790  0.1056  0.0325
 7424SOL    HW133731   0.172   2.578   8.677  1.2608 -1.2123 -2.3225
 7424SOL    HW233732   0.133   2.600   8.541 -0.5756  0.0976  0.1180
 7425SOL     OW33733   2.705   1.594   8.172 -0.2745 -0.4679  0.2419
 7425SOL    HW133734   2.704   1.649   8.094  1.8473  0.0185  0.5620
 7425SOL    HW233735   2.695   1.664   8.236  1.0732 -0.6918  0.6882
 7426SOL     OW33736   1.666   2.362   0.855 -0.5352 -0.3329  0.5746
 7426SOL    HW133737   1.585   2.391   0.812 -0.5508 -2.0843 -0.5549
 7426SOL    HW233738   1.630   2.286   0.900 -0.9889  0.0392  0.8479
 7427SOL     OW33739   0.056   1.010   7.618 -0.1393 -0.2331  0.8092
 7427SOL    HW133740   4.712   1.067   7.654 -0.4616 -1.2038  1.7405
 7427SOL    HW233741   0.129   1.016   7.680  2.1797 -0.9900 -1.8262
 7428SOL     OW33742   4.052   2.438   9.382  0.6222 -0.2314 -0.1032
 7428SOL    HW133743   4.015   2.368   9.328 -1.7526  0.6073  0.4598
 7428SOL    HW233744   4.137   2.404   9.409  0.2631  0.3469  1.7342
 7429SOL     OW33745   1.470   0.464  16.614  0.4160  0.3289 -1.2113
 7429SOL    HW133746   1.376   0.452  16.609  0.3397  1.1628 -1.7445
 7429SOL    HW233747   1.481   0.399  16.684 -0.3872 -0.0006 -1.3977
 7430SOL     OW33748   3.956   4.197   7.786 -0.0829  0.6185  0.7622
 7430SOL    HW133749   4.034   4.206   7.840  0.4653  4.4582 -0.6613
 7430SOL    HW233750   4.006   4.155   7.716  0.9421  2.8154  0.1901
 7431SOL     OW33751   1.009   0.852   4.398 -0.6994 -0.6094 -0.1468
 7431SOL    HW133752   1.088   0.841   4.451  0.6020  0.5354 -1.8620
 7431SOL    HW233753   1.015   0.775   4.342  0.0859 -0.4146 -0.3259
 7432SOL     OW33754   4.187   2.110   4.912 -0.4773 -0.0525 -0.4558
 7432SOL    HW133755   4.095   2.097   4.933 -0.0553  0.8809  1.9871
 7432SOL    HW233756   4.187   2.055   4.833  0.0738 -0.3750 -0.2314
 7433SOL     OW33757   3.905   0.486   6.310 -0.2729 -0.3626 -0.2822
 7433SOL    HW133758   3.991   0.528   6.315 -0.2143 -0.3917 -1.0449
 7433SOL    HW233759   3.915   0.417   6.376 -2.3401  0.0707  0.4779
 7434SOL     OW33760   0.147   3.137   6.605 -0.1943 -0.2829 -0.0349
 7434SOL    HW133761   0.156   3.204   6.537  0.7417 -0.0068  0.3693
 7434SOL    HW233762   0.076   3.185   6.647  0.3104 -0.3256  0.8593
 7435SOL     OW33763   3.100   2.794   1.253 -0.2440 -0.4325 -0.2009
 7435SOL    HW133764   3.067   2.829   1.336 -1.5948 -2.2239  0.0189
 7435SOL    HW233765   3.095   2.875   1.203 -0.8494 -1.0475 -1.1438
 7436SOL     OW33766   1.979   4.390   2.186  0.1106  0.0934 -0.5484
 7436SOL    HW133767   2.048   4.323   2.184  0.0780  0.0073  1.2844
 7436SOL    HW233768   1.978   4.385   2.090  1.3367 -1.7848 -0.4678
 7437SOL     OW33769   2.203   2.172   6.200 -0.1432 -0.0061  1.0231
 7437SOL    HW133770   2.154   2.213   6.128 -0.9368 -1.1481  0.9040
 7437SOL    HW233771   2.183   2.239   6.266  0.0762  0.7137  0.3597
 7438SOL     OW33772   2.536   2.814   5.526  0.1118  0.9935 -0.0443
 7438SOL    HW133773   2.488   2.787   5.604  0.1142 -2.8210 -1.3562
 7438SOL    HW233774   2.512   2.742   5.468 -0.4904  0.6431  0.6412
 7439SOL     OW33775   3.741   3.340   3.694  0.2160  0.2985 -0.1758
 7439SOL    HW133776   3.669   3.286   3.660 -0.5347  0.3048  1.4257
 7439SOL    HW233777   3.821   3.298   3.662 -0.9674 -1.9275 -0.2347
 7440SOL     OW33778   1.762   1.099   8.700  0.7095 -0.2114 -0.1100
 7440SOL    HW133779   1.742   1.013   8.737 -3.0039  0.3277 -0.8806
 7440SOL    HW233780   1.727   1.075   8.614  1.0481 -2.3920  0.3701
 7441SOL     OW33781   4.635   2.434  16.829 -0.2250  0.5442 -0.1083
 7441SOL    HW133782   4.565   2.493  16.802 -0.8599 -0.8230 -1.3831
 7441SOL    HW233783   4.708   2.478  16.785  1.4976 -2.9080 -0.6717
 7442SOL     OW33784   0.977   4.156   4.781  0.1642  0.7298 -0.1694
 7442SOL    HW133785   1.046   4.177   4.844 -0.6456 -0.0483  0.9778
 7442SOL    HW233786   1.022   4.085   4.736  1.2059  0.5266  1.1761
 7443SOL     OW33787   4.469   2.418  13.715  0.7931  0.1081 -0.0248
 7443SOL    HW133788   4.518   2.356  13.660  3.2220  2.0930 -0.0769
 7443SOL    HW233789   4.537   2.430  13.781  1.9102 -1.4059 -0.8942
 7444SOL     OW33790   1.911   3.250   2.481  0.2064  0.0883  0.0541
 7444SOL    HW133791   1.817   3.245   2.463  0.2594  0.8015 -0.4149
 7444SOL    HW233792   1.947   3.197   2.410 -2.7160 -0.0487 -1.3339
 7445SOL     OW33793   3.088   4.242   5.372 -0.1494 -0.0515 -0.1060
 7445SOL    HW133794   3.027   4.174   5.343  0.2462  0.6077 -2.4703
 7445SOL    HW233795   3.022   4.291   5.423 -0.6342  0.4911 -1.2691
 7446SOL     OW33796   2.944   3.617   3.410 -0.5517 -0.3627 -0.1919
 7446SOL    HW133797   2.895   3.633   3.490  0.1121  3.7442 -0.6030
 7446SOL    HW233798   2.914   3.692   3.358  0.3262 -0.2291 -0.5096
 7447SOL     OW33799   1.756   4.446   6.913 -0.0756  0.2217 -0.1145
 7447SOL    HW133800   1.797   4.360   6.910 -2.0677 -0.8035  2.1361
 7447SOL    HW233801   1.821   4.493   6.966 -1.4128  1.7047  0.2232
 7448SOL     OW33802   3.481   2.905  13.038 -0.3495 -0.1688 -0.6614
 7448SOL    HW133803   3.386   2.918  13.043 -0.5096 -0.6898 -2.3515
 7448SOL    HW233804   3.503   2.908  13.131  1.1364  2.6526 -1.1049
 7449SOL     OW33805   2.502   2.217   3.728  0.7725  0.3841  0.2249
 7449SOL    HW133806   2.476   2.146   3.669  2.2517  1.7047 -1.9837
 7449SOL    HW233807   2.440   2.201   3.799  0.2950 -1.1470 -0.5456
 7450SOL     OW33808   2.572   0.055   3.893  0.3603 -0.2824  0.6436
 7450SOL    HW133809   2.513   4.703   3.900 -0.7432  0.6211  1.0632
 7450SOL    HW233810   2.616   0.041   3.977  1.8380  2.9184  0.3659
 7451SOL     OW33811   4.313   2.401   3.501 -0.4622  0.5602 -0.0380
 7451SOL    HW133812   4.338   2.353   3.580 -0.2468 -2.5263 -1.9974
 7451SOL    HW233813   4.374   2.375   3.433  1.1228 -0.2259  1.6885
 7452SOL     OW33814   3.886   2.273   9.157  0.7108  0.1843 -0.4620
 7452SOL    HW133815   3.793   2.255   9.172  0.8077 -1.0350 -1.3267
 7452SOL    HW233816   3.937   2.212   9.210 -1.3321 -0.6128  0.5786
 7453SOL     OW33817   3.595   2.611   5.980  0.5660  0.0135 -0.3392
 7453SOL    HW133818   3.518   2.645   6.026 -0.5636 -4.2955  0.9812
 7453SOL    HW233819   3.574   2.628   5.888 -0.2336 -0.8294 -0.3066
 7454SOL     OW33820   4.377   0.634   5.325 -0.0294 -0.4970 -0.0168
 7454SOL    HW133821   4.419   0.710   5.366  2.2188 -1.0467 -1.2753
 7454SOL    HW233822   4.447   0.570   5.337  0.0886 -0.1504  1.1794
 7455SOL     OW33823   1.087   2.005   3.730 -0.0565  0.1265 -0.1877
 7455SOL    HW133824   1.088   1.909   3.736 -0.0659  0.0861 -0.8522
 7455SOL    HW233825   1.064   2.037   3.817 -0.5152 -0.5592 -0.0463
 7456SOL     OW33826   0.533   4.295   4.343 -0.5157 -0.2066  0.0754
 7456SOL    HW133827   0.465   4.232   4.368 -0.2266 -0.7418 -0.4791
 7456SOL    HW233828   0.482   4.376   4.339  0.4956  0.3995 -0.4777
 7457SOL     OW33829   1.599   3.046   8.701  0.8165 -0.2401  0.3430
 7457SOL    HW133830   1.549   3.092   8.634 -0.3403  0.0459  1.3888
 7457SOL    HW233831   1.674   3.103   8.714  0.7823 -0.1910  0.3218
 7458SOL     OW33832   2.092   3.374   8.061 -0.0733  0.1966 -0.0660
 7458SOL    HW133833   2.163   3.408   8.115 -0.9827  1.7193  0.1790
 7458SOL    HW233834   2.018   3.359   8.120  0.1376 -2.3259 -0.4203
 7459SOL     OW33835   4.339   1.398  11.051 -0.1415 -0.0203 -0.5298
 7459SOL    HW133836   4.360   1.305  11.060  1.6258  0.4751  0.7357
 7459SOL    HW233837   4.422   1.443  11.068  0.4041 -0.9742 -0.6139
 7460SOL     OW33838   3.807   3.482   5.485  1.0993  0.3091  0.2269
 7460SOL    HW133839   3.882   3.532   5.516  1.9404 -0.7513 -0.0782
 7460SOL    HW233840   3.853   3.410   5.442  0.0027  0.0464 -0.5208
 7461SOL     OW33841   2.899   3.513   5.393  0.3709  0.0037 -0.2264
 7461SOL    HW133842   2.852   3.437   5.358  0.3920 -1.3277  2.5905
 7461SOL    HW233843   2.935   3.472   5.472  0.9397 -1.7781 -1.4066
 7462SOL     OW33844   3.213   2.131  15.867 -0.0046 -0.7375  0.1755
 7462SOL    HW133845   3.291   2.075  15.866  0.8242  0.4383 -0.4592
 7462SOL    HW233846   3.162   2.076  15.926 -0.3676  1.9729  2.3277
 7463SOL     OW33847   1.964   2.425   9.101  0.5483 -0.6281 -0.5980
 7463SOL    HW133848   1.955   2.477   9.181  1.6377 -1.6272  0.1778
 7463SOL    HW233849   1.968   2.499   9.042  0.3624 -0.1554 -0.0222
 7464SOL     OW33850   2.850   2.101   2.448  0.1166  0.1476  0.0768
 7464SOL    HW133851   2.944   2.090   2.464  0.1665 -0.3463 -0.5862
 7464SOL    HW233852   2.841   2.165   2.378  0.5128 -0.8166 -0.8487
 7465SOL     OW33853   4.091   4.372   1.899  0.2242 -0.1902 -0.1954
 7465SOL    HW133854   4.152   4.325   1.956  0.6658  2.1697  1.3194
 7465SOL    HW233855   4.026   4.400   1.964  0.0487  2.8169 -1.6778
 7466SOL     OW33856   2.103   0.394   6.123 -0.5583  0.3201 -0.1978
 7466SOL    HW133857   2.062   0.470   6.164 -1.5224  0.6558 -1.7749
 7466SOL    HW233858   2.102   0.417   6.030 -0.1547  1.0337 -0.0285
 7467SOL     OW33859   1.082   0.038   4.824  0.5135 -0.4332  0.1893
 7467SOL    HW133860   1.080   4.683   4.769  0.2380  0.7690 -1.5154
 7467SOL    HW233861   1.119   0.100   4.760 -1.0102  0.0058 -0.2622
 7468SOL     OW33862   2.013   2.517   7.796  0.1458 -0.2128 -0.1798
 7468SOL    HW133863   2.076   2.458   7.754  0.2300 -1.1023  1.1949
 7468SOL    HW233864   1.946   2.452   7.816 -0.5894  0.0241 -1.8434
 7469SOL     OW33865   3.261   1.107   2.122  0.3958 -0.7038  0.1108
 7469SOL    HW133866   3.323   1.062   2.179  0.8651 -0.2780 -0.0705
 7469SOL    HW233867   3.312   1.184   2.098 -0.7497  0.1510  0.3913
 7470SOL     OW33868   4.150   4.301  17.561 -0.6539 -0.4387 -0.3703
 7470SOL    HW133869   4.215   4.339  17.501 -0.9289 -2.1463 -1.7552
 7470SOL    HW233870   4.163   4.206  17.565  0.6845 -0.2172  0.6578
 7471SOL     OW33871   2.122   0.804   9.336 -0.9759  0.1744 -0.3139
 7471SOL    HW133872   2.078   0.725   9.305  0.9293 -0.7375 -0.7058
 7471SOL    HW233873   2.134   0.793   9.430  0.2603 -1.6122 -0.6946
 7472SOL     OW33874   4.049   4.235  10.601  0.2669  0.3910  0.5263
 7472SOL    HW133875   3.953   4.234  10.592  0.4526  1.2082 -1.5507
 7472SOL    HW233876   4.054   4.172  10.673 -2.3352  0.6149  0.9323
 7473SOL     OW33877   4.133   1.832   4.470 -0.3310 -0.1973 -0.4172
 7473SOL    HW133878   4.195   1.760   4.457  0.6549  0.7338 -0.9236
 7473SOL    HW233879   4.054   1.781   4.452 -0.9352  0.6872 -0.2694
 7474SOL     OW33880   2.076   1.739   5.317 -0.2654  0.1937  0.8403
 7474SOL    HW133881   2.105   1.669   5.258 -1.3564 -0.2143  0.7786
 7474SOL    HW233882   1.993   1.709   5.355 -1.0296  1.2859  0.0328
 7475SOL     OW33883   4.702   0.910   7.106  0.2633  0.0586  0.1771
 7475SOL    HW133884   0.008   0.908   7.197  0.3338  0.5755  0.1702
 7475SOL    HW233885   4.616   0.869   7.113  0.2255  0.4507  1.8852
 7476SOL     OW33886   0.025   3.973   3.090 -0.1089 -0.1525  0.8210
 7476SOL    HW133887   0.057   4.052   3.134  3.5400 -2.3123  2.0219
 7476SOL    HW233888   0.111   3.934   3.074  0.3616  1.3230 -0.2721
 7477SOL     OW33889   4.045   2.251   7.161  0.9182  0.2793  0.2802
 7477SOL    HW133890   4.052   2.312   7.087  2.2727 -0.4307 -0.1907
 7477SOL    HW233891   4.034   2.171   7.109  0.3214  1.8313 -1.9952
 7478SOL     OW33892   1.959   1.102   9.718 -0.2203  0.3678 -0.4901
 7478SOL    HW133893   1.900   1.160   9.766  0.2453  1.8039 -1.6408
 7478SOL    HW233894   2.033   1.081   9.775 -1.9346 -2.3346  0.7091
 7479SOL     OW33895   2.110   0.091   2.081 -0.3969  0.0977 -0.0259
 7479SOL    HW133896   2.155   0.081   1.997  0.0616 -1.2838  0.3924
 7479SOL    HW233897   2.031   0.051   2.045 -1.4217  2.1259 -0.0292
 7480SOL     OW33898   3.898   4.407  16.615  0.3228  0.0955  0.0504
 7480SOL    HW133899   3.880   4.314  16.629 -1.1246  0.5409  1.1695
 7480SOL    HW233900   3.811   4.448  16.618  0.6571  0.9159 -1.4896
 7481SOL     OW33901   2.572   1.239   7.684  0.1666 -0.0897 -0.7849
 7481SOL    HW133902   2.592   1.273   7.771  0.8280 -2.1583 -0.1147
 7481SOL    HW233903   2.551   1.147   7.702 -0.4129 -0.7030 -4.6893
 7482SOL     OW33904   3.200   3.970   7.074  0.2983 -0.5365  0.2862
 7482SOL    HW133905   3.272   3.920   7.036 -1.1418 -1.6873 -0.9159
 7482SOL    HW233906   3.150   3.980   6.993 -1.1267  2.3476  1.4930
 7483SOL     OW33907   1.552   4.535   7.591  0.2404  0.5871  0.0338
 7483SOL    HW133908   1.518   4.598   7.655 -0.3771 -0.0226  0.3073
 7483SOL    HW233909   1.557   4.601   7.522 -0.3485  0.6327  0.0376
 7484SOL     OW33910   0.919   1.430  15.566 -0.1612 -0.2723  0.8242
 7484SOL    HW133911   0.863   1.470  15.499  0.2022  0.1448  0.7683
 7484SOL    HW233912   0.926   1.341  15.532  0.0625  0.2502 -0.5061
 7485SOL     OW33913   2.142   1.771   1.740  0.0528  0.3423  0.1201
 7485SOL    HW133914   2.132   1.741   1.831  0.8665 -2.5795 -0.7610
 7485SOL    HW233915   2.080   1.844   1.745  0.3357  0.5930  0.0010
 7486SOL     OW33916   3.190   1.864   7.313 -0.0333  0.0271 -0.0388
 7486SOL    HW133917   3.275   1.836   7.346 -0.8022 -1.2256  0.8821
 7486SOL    HW233918   3.201   1.957   7.333 -1.4975  0.2061 -0.0209
 7487SOL     OW33919   4.038   0.154   7.644 -0.9739 -0.1326 -0.7181
 7487SOL    HW133920   4.026   0.234   7.593 -1.5580 -0.2982 -0.8391
 7487SOL    HW233921   4.077   0.102   7.573  1.3914  0.7366 -0.0563
 7488SOL     OW33922   0.769   1.317   0.404 -0.1171  0.0867 -0.3617
 7488SOL    HW133923   0.821   1.311   0.324  1.5615 -0.4593  0.7807
 7488SOL    HW233924   0.826   1.288   0.476  2.2693 -0.6050 -2.5451
 7489SOL     OW33925   2.426   3.338   2.348 -0.2023  0.1705 -0.3064
 7489SOL    HW133926   2.501   3.398   2.346  0.5396 -0.6267  3.5539
 7489SOL    HW233927   2.418   3.332   2.253 -1.3305 -0.2518 -0.1858
 7490SOL     OW33928   1.515   0.588   6.929 -0.1287  0.0388  0.8755
 7490SOL    HW133929   1.568   0.638   6.867  0.5566 -1.7719  0.0086
 7490SOL    HW233930   1.514   0.647   7.004  0.3731 -0.5568  1.3428
 7491SOL     OW33931   1.846   0.442   9.548 -0.2173  0.7541  0.1081
 7491SOL    HW133932   1.820   0.391   9.625  2.7758 -1.9837 -0.6956
 7491SOL    HW233933   1.791   0.519   9.557  0.0788  0.9672  0.0810
 7492SOL     OW33934   4.594   2.779   5.374 -0.0717 -0.0419 -0.2120
 7492SOL    HW133935   4.617   2.820   5.290  1.5344 -0.3649  0.0724
 7492SOL    HW233936   4.615   2.687   5.358 -1.4745 -0.4070  0.0542
 7493SOL     OW33937   4.166   1.849  14.902  0.3218 -0.1391  0.1025
 7493SOL    HW133938   4.179   1.879  14.813 -0.1039  0.6040  0.2880
 7493SOL    HW233939   4.259   1.854  14.924  0.4518 -2.6291  0.1218
 7494SOL     OW33940   3.894   4.178   4.184 -0.4374 -0.0680  0.5184
 7494SOL    HW133941   3.852   4.256   4.218  1.2790  0.9473  0.3299
 7494SOL    HW233942   3.924   4.144   4.269 -0.9358 -0.0992  0.6822
 7495SOL     OW33943   1.574   3.408   2.608  0.2152  0.4877  0.3971
 7495SOL    HW133944   1.591   3.339   2.544  1.3117  0.6211  0.5534
 7495SOL    HW233945   1.483   3.426   2.584  0.3178 -1.7560 -1.6637
 7496SOL     OW33946   3.080   2.890  10.281  0.7599  0.0643 -0.6855
 7496SOL    HW133947   3.134   2.880  10.360  0.8557  0.8197 -0.6544
 7496SOL    HW233948   3.116   2.812  10.238 -1.9686 -0.9050 -1.1773
 7497SOL     OW33949   1.485   4.697  13.234  0.1814 -0.0187 -0.6017
 7497SOL    HW133950   1.547   4.624  13.238  0.3631  0.4151  4.2370
 7497SOL    HW233951   1.471   4.716  13.327  0.1417 -1.5212 -0.3083
 7498SOL     OW33952   0.154   1.345   0.932  0.0119 -0.0598 -0.9826
 7498SOL    HW133953   0.176   1.288   0.858 -0.0436  0.6067 -1.5126
 7498SOL    HW233954   0.059   1.334   0.939  0.2871 -1.3132  0.7396
 7499SOL     OW33955   4.592   1.388   0.580  0.2528  0.1381 -0.4872
 7499SOL    HW133956   4.557   1.343   0.657  0.1478 -0.7299 -1.0376
 7499SOL    HW233957   4.600   1.481   0.599 -0.8101  0.6596 -2.5983
 7500SOL     OW33958   2.079   0.105   5.710  0.4115 -0.0201 -0.0283
 7500SOL    HW133959   2.146   0.171   5.694  1.5424 -1.2483 -0.3691
 7500SOL    HW233960   2.037   0.097   5.624 -2.9981 -2.2086  1.8517
 7501SOL     OW33961   0.709   4.700   0.702 -0.1207 -0.1069 -0.0017
 7501SOL    HW133962   0.783   4.661   0.749 -0.8329  0.7167  1.7922
 7501SOL    HW233963   0.705   0.064   0.739 -0.0658 -0.2701  0.3924
 7502SOL     OW33964   2.535   3.939  11.905 -0.1641  0.1600  0.2849
 7502SOL    HW133965   2.510   4.027  11.878  0.9073  0.4658  0.3124
 7502SOL    HW233966   2.629   3.955  11.912  0.1179 -1.6168  0.4179
 7503SOL     OW33967   0.347   2.814   3.172 -0.5816 -0.0874  0.0470
 7503SOL    HW133968   0.441   2.798   3.181  0.0035  2.3425 -1.6330
 7503SOL    HW233969   0.333   2.800   3.078 -2.9469  1.0961  0.2245
 7504SOL     OW33970   3.365   2.329   5.154  0.4613 -0.2006 -0.2096
 7504SOL    HW133971   3.329   2.357   5.238  2.3282 -1.6279  1.0700
 7504SOL    HW233972   3.368   2.234   5.172 -0.6448 -0.0268  0.8905
 7505SOL     OW33973   0.334   1.992   2.768  0.2970 -0.3838 -0.1815
 7505SOL    HW133974   0.353   2.066   2.710  0.5673 -1.2340 -1.1620
 7505SOL    HW233975   0.381   2.025   2.845  0.6727  0.1955 -0.6616
 7506SOL     OW33976   3.350   2.716   2.183 -0.1679  0.1550 -0.3637
 7506SOL    HW133977   3.314   2.633   2.151 -0.8744  0.9687 -1.7171
 7506SOL    HW233978   3.416   2.726   2.115  1.8594  0.9688  1.7566
 7507SOL     OW33979   1.830   1.523   2.510 -0.3303 -0.3687 -0.3243
 7507SOL    HW133980   1.872   1.446   2.472  0.2756 -1.4977  2.6663
 7507SOL    HW233981   1.756   1.477   2.549 -1.2017 -0.6548 -2.3226
 7508SOL     OW33982   3.599   4.340  12.736  0.3368  0.5114 -0.3646
 7508SOL    HW133983   3.506   4.362  12.736  0.3359  0.5083 -0.5816
 7508SOL    HW233984   3.601   4.248  12.764 -0.0655  0.9370  1.0700
 7509SOL     OW33985   1.665   4.595   5.722  0.0049 -0.2954  0.0068
 7509SOL    HW133986   1.721   4.625   5.794 -0.4986 -2.1702  1.1940
 7509SOL    HW233987   1.620   4.679   5.709  2.4831  1.0707  0.3340
 7510SOL     OW33988   0.361   0.319   5.710  0.1342  0.2504  0.3610
 7510SOL    HW133989   0.359   0.232   5.751 -0.1296  0.1976  0.2397
 7510SOL    HW233990   0.455   0.326   5.691 -0.2035  1.9115 -0.6925
 7511SOL     OW33991   0.547   1.472  12.846  0.1969  0.5736  0.2445
 7511SOL    HW133992   0.585   1.545  12.798  0.4469  1.0487  1.1826
 7511SOL    HW233993   0.620   1.410  12.841 -0.2859 -0.0280  0.6060
 7512SOL     OW33994   3.271   3.740   7.380 -0.3439  0.4175  0.3348
 7512SOL    HW133995   3.284   3.831   7.407  0.6220  0.6053 -0.7915
 7512SOL    HW233996   3.181   3.720   7.406  0.6556 -1.8820  1.9649
 7513SOL     OW33997   4.261   3.966  10.605 -0.4298 -0.3034  0.2492
 7513SOL    HW133998   4.176   3.929  10.628 -1.0978  1.0512 -0.0358
 7513SOL    HW233999   4.295   3.955  10.694  1.5551  1.3727 -0.2994
 7514SOL     OW34000   0.787   1.964   4.279  0.2590  0.1903  0.0755
 7514SOL    HW134001   0.815   2.055   4.293 -0.1173 -0.1262  2.7358
 7514SOL    HW234002   0.869   1.915   4.284 -0.8019 -1.4380  1.3380
 7515SOL     OW34003   3.986   1.756   0.446  0.3591 -0.1312  0.0818
 7515SOL    HW134004   3.961   1.848   0.459  1.3827  0.1881 -0.2313
 7515SOL    HW234005   3.913   1.733   0.388  0.7210  0.0958 -0.4671
 7516SOL     OW34006   0.581   3.164   9.222  0.1304 -0.7078 -0.1001
 7516SOL    HW134007   0.578   3.189   9.129  1.2524  0.0796  0.0779
 7516SOL    HW234008   0.625   3.242   9.254 -0.9868  1.2478 -3.2301
 7517SOL     OW34009   2.115   3.112  14.033 -0.0021 -0.5006  0.0417
 7517SOL    HW134010   2.049   3.117  13.963 -1.9382  1.1484  1.9775
 7517SOL    HW234011   2.081   3.169  14.102 -0.5572  0.3748 -0.9549
 7518SOL     OW34012   2.133   0.382   2.362 -0.2126  0.3020 -0.2222
 7518SOL    HW134013   2.087   0.452   2.409  0.4372 -0.5165  1.6429
 7518SOL    HW234014   2.164   0.427   2.284  0.8378  0.5360  0.3278
 7519SOL     OW34015   2.643   3.530   5.741 -0.9776  0.1341  0.0160
 7519SOL    HW134016   2.626   3.439   5.717 -1.1616  0.6939 -2.0442
 7519SOL    HW234017   2.558   3.550   5.781 -1.4398  1.2029 -1.4686
 7520SOL     OW34018   1.271   1.459   2.841  0.1076 -0.4208 -0.4612
 7520SOL    HW134019   1.248   1.370   2.814  0.6917 -0.8436  0.4363
 7520SOL    HW234020   1.295   1.500   2.758  1.8081  0.2144  0.3326
 7521SOL     OW34021   0.131   3.640   3.915  0.5335  0.3567  0.3079
 7521SOL    HW134022   0.055   3.587   3.940  0.4265 -0.5798 -2.0406
 7521SOL    HW234023   0.114   3.710   3.978 -1.0932  2.0117 -1.9778
 7522SOL     OW34024   4.169   3.585   6.770  0.1241 -0.3798  0.3641
 7522SOL    HW134025   4.168   3.676   6.739  1.4055 -0.5360 -0.1509
 7522SOL    HW234026   4.151   3.529   6.695 -1.3116  0.3564  0.1669
 7523SOL     OW34027   2.251   1.622   1.362 -0.4196 -0.5223  0.6471
 7523SOL    HW134028   2.170   1.572   1.363 -0.7220 -0.0181  1.9958
 7523SOL    HW234029   2.298   1.543   1.388  1.4488 -0.2271 -1.8152
 7524SOL     OW34030   2.205   4.198   8.829 -0.4648  0.0618  0.0852
 7524SOL    HW134031   2.293   4.173   8.855 -0.2891  0.1434 -0.4246
 7524SOL    HW234032   2.179   4.244   8.909 -0.3304 -0.4758  0.4363
 7525SOL     OW34033   2.780   3.628   1.509 -0.3602  0.6236  0.6351
 7525SOL    HW134034   2.813   3.718   1.512  1.1307  0.0452  1.7099
 7525SOL    HW234035   2.767   3.618   1.603 -2.6585  0.7795  0.3316
 7526SOL     OW34036   1.204   0.371  16.590  0.6310 -0.4833 -0.1830
 7526SOL    HW134037   1.131   0.327  16.633 -1.4779  0.7828 -2.4021
 7526SOL    HW234038   1.215   0.310  16.517  1.2857 -1.7672  1.0100
 7527SOL     OW34039   1.020   4.264   2.213  0.3994 -0.0350 -0.5152
 7527SOL    HW134040   1.055   4.280   2.125  0.3020  3.0197 -0.0014
 7527SOL    HW234041   0.930   4.253   2.184  0.0873  0.2625  0.3638
 7528SOL     OW34042   2.032   2.914   1.031  0.0667 -0.2351  0.2371
 7528SOL    HW134043   1.984   2.995   1.014  0.1943 -0.1265  0.3895
 7528SOL    HW234044   2.114   2.951   1.062  0.1976 -0.7591  0.5127
 7529SOL     OW34045   1.605   4.375   5.266 -0.2832  0.2649 -0.2678
 7529SOL    HW134046   1.583   4.461   5.232  0.3659  0.9641  1.0950
 7529SOL    HW234047   1.599   4.393   5.359 -0.6701 -1.3585  0.0289
 7530SOL     OW34048   1.514   1.900   5.107 -0.2588  0.0340  0.1081
 7530SOL    HW134049   1.535   1.809   5.089 -0.4232  0.1788 -0.8250
 7530SOL    HW234050   1.504   1.902   5.202 -0.5453  0.8497  0.0635
 7531SOL     OW34051   0.434   0.436   0.223  0.6840  0.9485 -0.2512
 7531SOL    HW134052   0.494   0.475   0.286  0.9843 -0.8609  0.5890
 7531SOL    HW234053   0.449   0.489   0.145  0.0522 -0.9412 -1.6552
 7532SOL     OW34054   1.246   1.097   3.555  0.3737 -0.3044  0.6160
 7532SOL    HW134055   1.253   1.066   3.465 -1.5476 -0.0706  0.3833
 7532SOL    HW234056   1.160   1.064   3.583 -1.6915  4.1976 -0.3999
 7533SOL     OW34057   2.820   1.486   9.559 -0.0863 -0.8020 -0.2004
 7533SOL    HW134058   2.870   1.567   9.572  2.9714 -2.7699  0.3989
 7533SOL    HW234059   2.818   1.449   9.648  0.0029 -1.6190 -0.5315
 7534SOL     OW34060   1.362   0.298   4.703 -0.2055 -0.5153  0.1712
 7534SOL    HW134061   1.277   0.264   4.673 -1.5019  1.2231  1.8343
 7534SOL    HW234062   1.344   0.298   4.797 -1.1414 -1.4681 -0.0023
 7535SOL     OW34063   2.072   1.983   3.965  0.3469  0.2832  0.1597
 7535SOL    HW134064   2.043   1.904   3.920  2.2404 -1.7237  2.4848
 7535SOL    HW234065   2.095   1.948   4.051  1.1706  1.0610  0.2542
 7536SOL     OW34066   3.684   3.543  14.410 -0.4376 -0.2064  0.0336
 7536SOL    HW134067   3.772   3.568  14.381 -0.6362  0.1448 -0.2588
 7536SOL    HW234068   3.713   3.492  14.486  2.0532 -0.0189 -0.8029
 7537SOL     OW34069   0.482   3.738   8.591  0.0843  0.1868 -0.7130
 7537SOL    HW134070   0.391   3.766   8.585  0.1524  1.0536  2.0344
 7537SOL    HW234071   0.492   3.707   8.501  0.9239  1.2588 -0.9865
 7538SOL     OW34072   2.333   3.149   0.868  0.4727 -0.1442 -0.2821
 7538SOL    HW134073   2.322   3.123   0.777  1.4887  3.7785 -1.5036
 7538SOL    HW234074   2.240   3.152   0.891  0.0844  0.5673 -1.9827
 7539SOL     OW34075   2.114   1.180  13.843 -0.1492  0.1215 -0.0075
 7539SOL    HW134076   2.201   1.201  13.878 -0.6131  0.6939  0.7977
 7539SOL    HW234077   2.071   1.264  13.857  0.0442  0.2392 -0.1195
 7540SOL     OW34078   2.849   1.532   2.431 -0.0518  0.4564  0.2423
 7540SOL    HW134079   2.756   1.526   2.453 -0.7773  0.3740 -2.7211
 7540SOL    HW234080   2.851   1.474   2.354  1.1580 -0.8989  1.2952
 7541SOL     OW34081   4.373   4.452   5.975 -0.4912 -0.1285 -0.1119
 7541SOL    HW134082   4.435   4.514   6.014 -1.1195 -0.0311  0.7299
 7541SOL    HW234083   4.298   4.504   5.946 -0.6877 -1.0092 -1.1766
 7542SOL     OW34084   2.649   4.490   9.999  0.0200 -0.6435  0.1570
 7542SOL    HW134085   2.661   4.480  10.093  0.8122  0.3868  0.1742
 7542SOL    HW234086   2.623   4.403   9.970  1.7737 -1.0305 -0.2249
 7543SOL     OW34087   0.193   3.659   8.191  0.1126  0.0264 -0.3728
 7543SOL    HW134088   0.228   3.745   8.168  0.1945 -0.1710 -0.9598
 7543SOL    HW234089   0.124   3.649   8.126  0.0850  0.4766 -0.4104
 7544SOL     OW34090   2.709   1.622   6.781  0.4822 -0.1130  0.6095
 7544SOL    HW134091   2.620   1.645   6.809 -0.0455 -2.3383  0.7327
 7544SOL    HW234092   2.723   1.554   6.846 -0.0152 -0.4391  0.3758
 7545SOL     OW34093   0.694   1.234  11.048  0.0135 -0.2139 -0.1174
 7545SOL    HW134094   0.630   1.179  11.093 -0.8336  0.5608 -0.3680
 7545SOL    HW234095   0.680   1.310  11.104 -1.4426 -1.4676  1.2278
 7546SOL     OW34096   1.375   4.178  16.317 -0.3443 -0.3907 -0.3704
 7546SOL    HW134097   1.436   4.109  16.343  0.7300 -0.1006 -2.0949
 7546SOL    HW234098   1.292   4.138  16.291  0.5300 -0.4610 -3.1046
 7547SOL     OW34099   4.470   2.141   4.128  0.3792 -0.7384  0.2361
 7547SOL    HW134100   4.514   2.066   4.169 -1.3822 -0.6650  2.3054
 7547SOL    HW234101   4.460   2.201   4.202  2.5982 -1.8157  1.3997
 7548SOL     OW34102   3.190   2.176   9.264  0.1455 -0.3210 -0.1967
 7548SOL    HW134103   3.226   2.186   9.175  1.7674  0.4831  0.5516
 7548SOL    HW234104   3.258   2.220   9.314 -0.8789  0.6007  0.3799
 7549SOL     OW34105   3.111   3.255  12.898 -0.2732 -0.2464 -0.0449
 7549SOL    HW134106   3.023   3.242  12.862 -0.6344 -1.1107  1.1413
 7549SOL    HW234107   3.102   3.208  12.981  1.1946  0.9783  0.7979
 7550SOL     OW34108   2.498   0.860   4.800  0.1197 -0.5761 -0.5207
 7550SOL    HW134109   2.554   0.836   4.726 -1.1258  1.6831 -2.2073
 7550SOL    HW234110   2.416   0.864   4.751  0.4124  0.4264 -0.9194
 7551SOL     OW34111   4.480   3.644  11.471  0.1654 -0.2681 -0.0787
 7551SOL    HW134112   4.449   3.641  11.562  0.7332 -1.5999  0.0733
 7551SOL    HW234113   4.557   3.702  11.475 -0.4489  0.4890  0.9394
 7552SOL     OW34114   3.716   2.453   7.675  0.2072 -0.3301 -0.1743
 7552SOL    HW134115   3.642   2.412   7.629 -0.1627 -1.6616  1.6105
 7552SOL    HW234116   3.782   2.426   7.611 -0.6560  0.3639 -1.3676
 7553SOL     OW34117   2.051   4.295   9.029  0.6403  0.0344  0.3441
 7553SOL    HW134118   2.057   4.344   9.111  0.8185 -0.3171  0.5425
 7553SOL    HW234119   1.989   4.233   9.068  0.4566 -1.4278 -2.2851
 7554SOL     OW34120   3.025   2.154   8.920 -0.4606  0.4637  0.9410
 7554SOL    HW134121   3.096   2.180   8.977  0.9562 -0.9822 -0.1559
 7554SOL    HW234122   3.030   2.058   8.921 -1.6326  0.3935  0.3945
 7555SOL     OW34123   3.014   1.212   6.436  0.4736  0.1368  0.0322
 7555SOL    HW134124   3.002   1.185   6.345  1.1525  1.1576 -0.3752
 7555SOL    HW234125   3.082   1.149   6.462 -0.2695 -1.3229 -1.6261
 7556SOL     OW34126   4.048   0.660   4.264 -0.2425  0.1106 -0.1075
 7556SOL    HW134127   4.039   0.640   4.358 -2.3343 -1.2849 -0.6027
 7556SOL    HW234128   4.033   0.580   4.215 -0.7182  0.1623 -0.0499
 7557SOL     OW34129   2.133   4.548  12.798 -0.3858 -0.7849  0.4855
 7557SOL    HW134130   2.176   4.571  12.716  0.6594  0.8167  1.4677
 7557SOL    HW234131   2.158   4.612  12.865  1.9043 -0.1463 -0.9801
 7558SOL     OW34132   2.743   1.553  12.298  0.3293 -0.4345  0.2111
 7558SOL    HW134133   2.777   1.569  12.386 -1.3746  1.5383  0.4926
 7558SOL    HW234134   2.649   1.539  12.305  0.2760 -0.1622  0.0250
 7559SOL     OW34135   4.141   4.710   7.445  0.0238 -0.0079  0.1728
 7559SOL    HW134136   4.214   4.650   7.430 -0.9709 -1.2782  0.4580
 7559SOL    HW234137   4.064   4.653   7.442  0.2435 -0.3592  1.2629
 7560SOL     OW34138   3.913   4.559   0.264 -0.0083  0.6515 -0.6032
 7560SOL    HW134139   3.843   4.583   0.204  0.0525 -0.8876 -1.2818
 7560SOL    HW234140   3.979   4.531   0.200  0.1786  0.6708 -0.4201
 7561SOL     OW34141   3.918   0.305   6.556 -0.1315  0.4458  0.4732
 7561SOL    HW134142   3.869   0.254   6.620  1.8063  0.1619  1.7289
 7561SOL    HW234143   3.984   0.350   6.608  0.2889  2.4146 -1.7543
 7562SOL     OW34144   2.120   3.098   3.220  0.2421  0.4833  0.0201
 7562SOL    HW134145   2.101   3.156   3.146  0.7967  0.9227  0.2197
 7562SOL    HW234146   2.214   3.116   3.221  0.3735 -0.2531  1.1442
 7563SOL     OW34147   3.318   0.513  16.607 -0.2392  0.3379 -0.4125
 7563SOL    HW134148   3.268   0.574  16.553  0.3097  0.9811 -0.1949
 7563SOL    HW234149   3.388   0.569  16.640 -1.8154  1.3395  1.2096
 7564SOL     OW34150   1.041   3.620   7.432 -0.1336 -0.5522  0.0166
 7564SOL    HW134151   0.953   3.624   7.468 -0.2405 -0.2265 -0.2768
 7564SOL    HW234152   1.086   3.557   7.488  0.8814  0.8712  0.8070
 7565SOL     OW34153   3.116   2.963   9.971 -0.5824  0.5559  0.1160
 7565SOL    HW134154   3.206   2.934   9.990 -0.6360  0.7121  0.6248
 7565SOL    HW234155   3.082   2.877   9.948 -0.0143  0.3256  0.1354
 7566SOL     OW34156   1.413   3.177   2.715 -0.0969 -0.0622  0.1035
 7566SOL    HW134157   1.415   3.260   2.762 -0.1954  1.2838 -2.3143
 7566SOL    HW234158   1.384   3.197   2.627 -1.9560  0.5835  0.8752
 7567SOL     OW34159   2.502   0.891  12.718  0.0072 -0.3976 -0.6533
 7567SOL    HW134160   2.523   0.924  12.630  0.5358  0.3944 -0.2330
 7567SOL    HW234161   2.574   0.926  12.770 -0.6845  2.1849 -1.4226
 7568SOL     OW34162   4.267   2.718  11.454 -0.3122  0.5402 -0.1359
 7568SOL    HW134163   4.220   2.798  11.479  0.4959  1.5916 -1.9977
 7568SOL    HW234164   4.355   2.754  11.461  0.7432 -2.0556 -0.4748
 7569SOL     OW34165   1.834   3.723  15.355 -0.3968  0.7121 -0.1356
 7569SOL    HW134166   1.925   3.705  15.331 -0.6898 -1.5050  0.4784
 7569SOL    HW234167   1.835   3.818  15.343 -0.6138  0.5029 -1.8155
 7570SOL     OW34168   4.648   1.164   6.099  0.0630  0.3776 -0.1913
 7570SOL    HW134169   4.557   1.191   6.085 -0.7671 -3.4708 -2.0806
 7570SOL    HW234170   4.680   1.199   6.016 -3.1467  0.4093 -1.4401
 7571SOL     OW34171   1.370   4.170   5.755 -0.1807 -0.0372  0.5583
 7571SOL    HW134172   1.431   4.154   5.683 -0.4278 -0.7259  0.5033
 7571SOL    HW234173   1.363   4.080   5.787 -0.5397 -0.9495 -2.0228
 7572SOL     OW34174   3.167   1.540  16.049 -0.1362 -0.4609 -0.0556
 7572SOL    HW134175   3.160   1.548  15.954 -0.2464  1.2320  0.0970
 7572SOL    HW234176   3.205   1.454  16.068 -1.7407 -0.7096  2.0958
 7573SOL     OW34177   4.349   3.866  17.222  0.2874  0.6510 -0.1183
 7573SOL    HW134178   4.274   3.807  17.229  2.2532 -1.6233  1.6137
 7573SOL    HW234179   4.311   3.954  17.213 -0.4363  0.0402 -2.7328
 7574SOL     OW34180   1.062   1.491   6.480  0.3050 -0.0379 -0.6344
 7574SOL    HW134181   1.033   1.465   6.393 -0.7692 -0.1410 -0.2511
 7574SOL    HW234182   1.114   1.418   6.512 -1.7660 -1.0784  0.3618
 7575SOL     OW34183   0.541   1.406   2.790  0.4934  0.1225  0.7314
 7575SOL    HW134184   0.586   1.328   2.822  0.7127  0.1361  0.4609
 7575SOL    HW234185   0.510   1.457   2.865 -0.1169 -0.3620  0.8023
 7576SOL     OW34186   1.755   4.335   2.392  0.1411 -0.5654  0.0789
 7576SOL    HW134187   1.681   4.376   2.348  0.1595  0.8624  1.3414
 7576SOL    HW234188   1.833   4.379   2.357  0.0080  0.1546  0.6639
 7577SOL     OW34189   1.065   0.526  13.136 -0.0248 -0.1282  0.0368
 7577SOL    HW134190   1.129   0.487  13.077 -0.7961 -1.0342 -0.2089
 7577SOL    HW234191   1.125   0.537  13.209 -0.5414 -3.3616  0.9590
 7578SOL     OW34192   4.014   4.262  15.135  0.0083  0.0544 -0.2076
 7578SOL    HW134193   3.925   4.277  15.102 -0.1588 -0.9913 -0.2466
 7578SOL    HW234194   4.039   4.353  15.154 -2.8043  0.5777  0.9919
 7579SOL     OW34195   2.609   3.491  12.539 -0.2992 -0.1326  0.5299
 7579SOL    HW134196   2.526   3.510  12.495  0.5676  0.3463 -0.8900
 7579SOL    HW234197   2.675   3.555  12.514 -0.3866  0.1951  1.1494
 7580SOL     OW34198   1.150   2.052  11.273 -1.0465  0.2836 -0.7226
 7580SOL    HW134199   1.190   2.126  11.228 -2.2663  1.2124 -0.2609
 7580SOL    HW234200   1.215   2.034  11.341 -0.2982 -0.7057 -1.6890
 7581SOL     OW34201   3.853   1.559   7.707 -0.5850  0.1940 -0.0910
 7581SOL    HW134202   3.858   1.640   7.757 -1.4033 -1.2842  2.3741
 7581SOL    HW234203   3.914   1.505   7.758 -1.1983 -0.6156 -0.2257
 7582SOL     OW34204   0.839   3.372   0.851  0.5978  0.6610 -0.2174
 7582SOL    HW134205   0.868   3.381   0.760  2.8165  0.4786  0.4919
 7582SOL    HW234206   0.915   3.320   0.874  0.1784 -0.3098 -1.0420
 7583SOL     OW34207   3.800   0.181  11.104  0.3616 -0.4182 -0.4943
 7583SOL    HW134208   3.805   0.087  11.086  0.4889 -0.6192  0.5791
 7583SOL    HW234209   3.854   0.203  11.181  0.2356  0.4796 -0.6650
 7584SOL     OW34210   1.441   1.282  17.166 -0.3882 -0.1746 -0.3529
 7584SOL    HW134211   1.534   1.262  17.159 -0.5370 -0.9566 -0.0158
 7584SOL    HW234212   1.437   1.374  17.191  1.1223 -0.3969  0.7033
 7585SOL     OW34213   3.325   4.484  12.024  0.1861 -0.7740 -0.3439
 7585SOL    HW134214   3.337   4.563  12.077 -1.5592 -0.4186 -0.4732
 7585SOL    HW234215   3.316   4.516  11.934 -0.8511 -0.7972 -0.2420
 7586SOL     OW34216   4.172   1.179   7.230 -0.0434  0.2801 -0.7694
 7586SOL    HW134217   4.187   1.086   7.244  0.3082  0.5280  0.5662
 7586SOL    HW234218   4.200   1.204   7.318 -3.1110 -2.2433  0.8865
 7587SOL     OW34219   3.881   0.367   8.745  0.0119  0.2459  1.4976
 7587SOL    HW134220   3.946   0.428   8.712  0.8746 -2.3631 -1.6567
 7587SOL    HW234221   3.847   0.327   8.665  0.0411  0.1923  1.5122
 7588SOL     OW34222   2.832   0.699   9.339  0.1826  0.0839 -0.0793
 7588SOL    HW134223   2.887   0.715   9.416 -0.4173  0.0237  0.3676
 7588SOL    HW234224   2.742   0.722   9.363  1.0169  1.3389  1.8919
 7589SOL     OW34225   2.406   3.046   2.113 -0.0713 -1.0600 -0.0859
 7589SOL    HW134226   2.434   3.131   2.080 -0.3751 -1.5642 -1.6371
 7589SOL    HW234227   2.484   2.994   2.091 -0.7043 -3.0102  2.1862
 7590SOL     OW34228   0.308   0.367  10.801  0.2222 -0.5397  0.3704
 7590SOL    HW134229   0.301   0.447  10.750 -1.8588  0.0800  1.6315
 7590SOL    HW234230   0.215   0.345  10.810  1.1923 -2.8798  4.8907
 7591SOL     OW34231   2.096   2.956  16.078 -0.3893  0.7156  0.1812
 7591SOL    HW134232   2.130   2.878  16.035  1.9806  1.9974 -0.3030
 7591SOL    HW234233   2.172   2.993  16.124 -0.7610 -1.7023  2.7522
 7592SOL     OW34234   2.246   3.618   7.528 -0.1787 -0.1347  0.3452
 7592SOL    HW134235   2.340   3.621   7.545 -0.0022  0.4843 -0.7962
 7592SOL    HW234236   2.215   3.644   7.615 -2.5912 -0.7190 -0.3355
 7593SOL     OW34237   4.418   2.235  14.605 -0.2612 -0.3439  0.3790
 7593SOL    HW134238   4.448   2.323  14.581  2.9176 -1.5077  0.1827
 7593SOL    HW234239   4.323   2.249  14.615 -0.4678 -1.8318  0.4161
 7594SOL     OW34240   1.928   2.962   3.356 -0.6580  0.2493 -0.1163
 7594SOL    HW134241   1.980   2.906   3.414 -0.3586 -1.3021 -1.8837
 7594SOL    HW234242   1.991   3.001   3.296  0.3235 -0.8552  0.1767
 7595SOL     OW34243   1.783   1.842   2.362 -0.2930 -0.0107  0.1287
 7595SOL    HW134244   1.848   1.909   2.339 -0.1395 -0.5602 -1.0458
 7595SOL    HW234245   1.821   1.768   2.316 -2.5840  0.4896 -2.5621
 7596SOL     OW34246   3.561   0.764   3.418  0.0233  0.4895  0.4844
 7596SOL    HW134247   3.523   0.702   3.480  2.5311 -0.5077  1.0250
 7596SOL    HW234248   3.640   0.798   3.460 -0.1401 -0.3228  1.4656
 7597SOL     OW34249   3.412   1.587   7.592  0.1200 -0.8596 -0.0129
 7597SOL    HW134250   3.468   1.519   7.630 -0.6748 -0.7115  1.3975
 7597SOL    HW234251   3.448   1.657   7.646  0.2088 -2.1707  1.6359
 7598SOL     OW34252   0.076   3.638   9.179  0.3045 -0.1739 -0.1134
 7598SOL    HW134253   0.013   3.699   9.216  1.9274  0.7111  1.2083
 7598SOL    HW234254   0.132   3.702   9.134 -0.1471  1.1843  1.2682
 7599SOL     OW34255   1.507   2.487   8.708  0.4151 -0.5402  0.0776
 7599SOL    HW134256   1.510   2.418   8.641  1.2510 -0.7737  0.3495
 7599SOL    HW234257   1.583   2.537   8.676 -1.2903 -0.7036 -4.1915
 7600SOL     OW34258   4.131   3.238   4.674  0.6007 -0.1014  0.6008
 7600SOL    HW134259   4.115   3.305   4.608  0.6538  0.0240  0.7157
 7600SOL    HW234260   4.225   3.225   4.664  0.5769  0.7259 -0.7834
 7601SOL     OW34261   0.494   0.626   5.352  0.0703 -0.5938 -0.0325
 7601SOL    HW134262   0.411   0.663   5.324 -1.2599 -1.3396  2.9578
 7601SOL    HW234263   0.483   0.596   5.443 -0.6668 -1.7746 -0.5096
 7602SOL     OW34264   1.674   2.021   9.619 -0.2030  0.6697 -0.1097
 7602SOL    HW134265   1.652   2.054   9.706 -0.5979  0.5666 -0.1689
 7602SOL    HW234266   1.762   2.056   9.606  0.1306  0.0254  0.4050
 7603SOL     OW34267   3.285   4.417   5.330  0.4159 -0.5159 -0.0113
 7603SOL    HW134268   3.257   4.497   5.374 -0.1985 -1.4096  1.1932
 7603SOL    HW234269   3.217   4.354   5.351 -2.4781  2.5944 -0.0332
 7604SOL     OW34270   3.772   3.157   0.277  0.0223 -0.0895  0.1422
 7604SOL    HW134271   3.687   3.144   0.320 -0.3652  0.3022 -0.4862
 7604SOL    HW234272   3.825   3.193   0.348 -0.0529 -0.0025  0.1549
 7605SOL     OW34273   1.133   0.958   1.864  0.3517  0.2821 -0.0951
 7605SOL    HW134274   1.166   0.934   1.777 -2.6009  1.2667 -1.4635
 7605SOL    HW234275   1.201   0.924   1.923  0.1375 -1.1486 -0.6835
 7606SOL     OW34276   4.144   0.860   3.977 -0.2342  0.3449 -0.4732
 7606SOL    HW134277   4.190   0.846   4.059  0.9775 -0.0893 -1.2191
 7606SOL    HW234278   4.049   0.856   3.990 -0.2237  1.2167 -0.1357
 7607SOL     OW34279   3.838   4.721  14.853  0.0167 -0.3635  0.2544
 7607SOL    HW134280   3.761   0.052  14.869  0.3563  0.1996 -0.0193
 7607SOL    HW234281   3.821   4.702  14.761 -1.9733  1.0848  0.3273
 7608SOL     OW34282   3.788   3.538   0.606 -0.2841 -0.3075 -0.0148
 7608SOL    HW134283   3.728   3.609   0.626  1.6189  1.1947  0.3239
 7608SOL    HW234284   3.831   3.521   0.690  1.8384  1.0644 -0.8473
 7609SOL     OW34285   2.553   2.607   6.047 -0.0587  0.0553 -0.6460
 7609SOL    HW134286   2.480   2.566   6.001  1.0052  1.4608 -3.6033
 7609SOL    HW234287   2.563   2.550   6.123 -0.1355  2.4687  1.1676
 7610SOL     OW34288   1.494   1.876   2.512  0.0967 -0.1371  0.9309
 7610SOL    HW134289   1.513   1.798   2.461 -0.0091  0.0376  0.6263
 7610SOL    HW234290   1.405   1.862   2.545  0.3835  0.6707  2.0492
 7611SOL     OW34291   2.115   3.175  14.426 -0.0151  0.0894 -0.1420
 7611SOL    HW134292   2.158   3.135  14.501 -1.2723  0.1764  0.6280
 7611SOL    HW234293   2.065   3.099  14.394  0.2931  0.2556 -1.0297
 7612SOL     OW34294   2.822   4.637   4.916  0.2664  0.1693 -0.1384
 7612SOL    HW134295   2.730   4.627   4.940  0.6004  1.4422  1.6545
 7612SOL    HW234296   2.867   4.606   4.994  0.4775  3.0768  0.9080
 7613SOL     OW34297   3.245   1.872  16.869  0.0765  0.1175 -0.7678
 7613SOL    HW134298   3.253   1.843  16.778  0.2773  1.3449 -1.1414
 7613SOL    HW234299   3.228   1.789  16.914  0.9463 -0.7058 -1.9489
 7614SOL     OW34300   3.675   2.082   7.719 -0.3658  0.6911  0.8155
 7614SOL    HW134301   3.676   2.177   7.728  1.2831  0.6709  0.8020
 7614SOL    HW234302   3.767   2.076   7.697 -0.4248  0.5632  0.6024
 7615SOL     OW34303   4.456   1.132   2.961  0.1037  0.7296  0.4156
 7615SOL    HW134304   4.413   1.121   2.877 -2.9571 -0.4515  2.1263
 7615SOL    HW234305   4.501   1.049   2.976  0.7970  1.1561  0.6801
 7616SOL     OW34306   1.877   0.209   3.045  0.2312  0.4481  0.1909
 7616SOL    HW134307   1.951   0.150   3.029  0.0797 -0.4747  2.7592
 7616SOL    HW234308   1.844   0.230   2.958 -0.2135 -0.0099  0.2444
 7617SOL     OW34309   1.013   0.211  10.838 -0.4608 -0.1709  0.1005
 7617SOL    HW134310   0.950   0.275  10.804 -0.8954 -1.0841 -0.7884
 7617SOL    HW234311   1.032   0.162  10.758 -2.0533  0.3850 -0.6188
 7618SOL     OW34312   1.885   2.906   8.971 -0.5027  0.3173  0.0487
 7618SOL    HW134313   1.915   2.900   9.061 -1.1811 -0.4460  0.2223
 7618SOL    HW234314   1.793   2.930   8.977 -0.9566 -1.2175 -0.7023
 7619SOL     OW34315   0.348   3.011   4.170  0.5757  0.5690  0.5129
 7619SOL    HW134316   0.358   2.933   4.225 -2.8771 -0.6728 -0.6397
 7619SOL    HW234317   0.344   3.077   4.240  0.4739 -1.6650  2.6146
 7620SOL     OW34318   0.841   3.100   9.301  0.0672 -0.2884 -0.0545
 7620SOL    HW134319   0.858   3.055   9.383 -0.6555 -0.0729  0.2112
 7620SOL    HW234320   0.746   3.106   9.304  0.0663 -1.6663  2.0695
 7621SOL     OW34321   3.664   2.164   9.933  0.5688  0.3153 -0.4703
 7621SOL    HW134322   3.707   2.139  10.016  0.0456  2.8015  0.5374
 7621SOL    HW234323   3.684   2.257   9.922 -2.0541  0.5252 -3.3756
 7622SOL     OW34324   4.189   4.187  11.472  0.1457 -0.2782 -0.5496
 7622SOL    HW134325   4.179   4.260  11.411  0.2701 -0.6907 -1.0628
 7622SOL    HW234326   4.194   4.230  11.557  2.2823  0.1007 -0.8696
 7623SOL     OW34327   2.489   1.326   6.370 -0.3903 -0.0703 -0.4268
 7623SOL    HW134328   2.413   1.373   6.339 -0.0174 -0.9082 -2.6227
 7623SOL    HW234329   2.502   1.363   6.457  0.4974 -0.8261 -0.2261
 7624SOL     OW34330   1.343   3.874  14.887 -0.1372  0.4140  0.3429
 7624SOL    HW134331   1.427   3.905  14.852 -0.6819 -0.9782 -2.2346
 7624SOL    HW234332   1.300   3.953  14.918 -0.5861  0.3194 -0.0334
 7625SOL     OW34333   2.909   3.257   4.953  0.2434  0.2203  0.8161
 7625SOL    HW134334   2.972   3.242   4.882 -1.0092 -0.8904 -0.0443
 7625SOL    HW234335   2.961   3.282   5.030  0.5744  1.7303  0.0962
 7626SOL     OW34336   2.009   3.334   7.793  0.0703  0.1095 -0.4065
 7626SOL    HW134337   1.937   3.320   7.855 -1.2566  2.4047 -1.4219
 7626SOL    HW234338   2.086   3.318   7.846 -1.9281 -1.8794  1.9249
 7627SOL     OW34339   0.544   0.519   8.720  0.1612  0.4162 -0.1251
 7627SOL    HW134340   0.465   0.507   8.773 -1.0881  1.0394 -1.8546
 7627SOL    HW234341   0.576   0.596   8.768  2.5918 -0.6121 -0.0933
 7628SOL     OW34342   2.657   1.706   5.614  0.0205 -0.1593  0.0197
 7628SOL    HW134343   2.575   1.715   5.565  0.0934  1.8078  0.2722
 7628SOL    HW234344   2.631   1.747   5.696 -2.4841 -0.9401 -0.3799
 7629SOL     OW34345   2.982   4.479   8.349 -0.1629 -0.0264  0.6680
 7629SOL    HW134346   2.933   4.528   8.415  0.2905  2.1484 -0.5820
 7629SOL    HW234347   3.059   4.479   8.404  0.9235  0.7894 -0.8447
 7630SOL     OW34348   0.122   2.007  12.614  0.0953 -0.0192 -0.2372
 7630SOL    HW134349   0.170   1.945  12.669  0.3108  1.4062  1.1646
 7630SOL    HW234350   0.100   2.082  12.669 -0.1449 -1.7929  2.0843
 7631SOL     OW34351   1.712   3.091  16.252 -0.1545 -0.1638 -0.5349
 7631SOL    HW134352   1.765   3.019  16.286 -0.6755  0.1012  0.8290
 7631SOL    HW234353   1.758   3.113  16.172  1.1113 -1.8338 -0.2745
 7632SOL     OW34354   3.645   2.883   9.601  0.4485 -0.1268  0.6495
 7632SOL    HW134355   3.635   2.959   9.543 -0.4435 -0.9588 -0.3031
 7632SOL    HW234356   3.579   2.906   9.666  1.4290 -2.8264  2.5831
 7633SOL     OW34357   0.348   2.712   2.697 -0.4983 -0.0017 -0.0147
 7633SOL    HW134358   0.305   2.633   2.666  2.2609 -1.0091 -1.2864
 7633SOL    HW234359   0.280   2.767   2.736  0.1775  0.0949  1.0211
 7634SOL     OW34360   2.581   4.199  10.055  0.3162 -0.1526  0.1308
 7634SOL    HW134361   2.623   4.207  10.141  3.3375  2.1424 -1.5600
 7634SOL    HW234362   2.604   4.107  10.038  1.4125  0.5680 -2.3775
 7635SOL     OW34363   3.198   4.062  11.349 -0.1395  0.0358 -0.1506
 7635SOL    HW134364   3.249   4.134  11.312 -1.5918  2.0893  1.7857
 7635SOL    HW234365   3.107   4.093  11.356 -0.2260 -0.4756  1.0722
 7636SOL     OW34366   4.127   1.374   0.016  0.6211  0.3013 -0.9341
 7636SOL    HW134367   4.119   1.292   0.064 -0.6778 -0.5251 -2.5668
 7636SOL    HW234368   4.096   1.347  17.624  0.4110 -1.1516 -0.4140
 7637SOL     OW34369   1.258   4.596   4.151  0.3081 -0.4216  0.0916
 7637SOL    HW134370   1.199   4.560   4.217  0.4692  1.2219  1.1154
 7637SOL    HW234371   1.346   4.574   4.184  0.2508 -0.4151  0.2476
 7638SOL     OW34372   2.594   3.526   6.333 -1.1955 -0.1074  0.7652
 7638SOL    HW134373   2.535   3.579   6.279  0.0029  1.4569  0.9844
 7638SOL    HW234374   2.634   3.460   6.278  0.4794  0.9314  0.7437
 7639SOL     OW34375   0.803   1.973   7.519  0.2571  0.1795 -0.3938
 7639SOL    HW134376   0.872   2.004   7.577  1.1258 -0.9653 -0.8303
 7639SOL    HW234377   0.740   2.043   7.537  0.2525  0.1254 -0.2035
 7640SOL     OW34378   1.264   1.814   1.629 -0.5841 -0.1502 -0.5711
 7640SOL    HW134379   1.293   1.735   1.675 -0.0121  0.4969  0.1867
 7640SOL    HW234380   1.232   1.867   1.702  2.1880  2.9907 -1.6247
 7641SOL     OW34381   0.363   0.510   6.106 -0.4768 -0.3447  0.2273
 7641SOL    HW134382   0.366   0.485   6.013 -3.4480 -2.7781  0.7867
 7641SOL    HW234383   0.454   0.508   6.136 -0.3240  3.0411 -0.0365
 7642SOL     OW34384   1.254   2.309   4.772 -0.6668 -0.6277  0.5227
 7642SOL    HW134385   1.289   2.237   4.721 -3.6290 -1.0024 -1.0113
 7642SOL    HW234386   1.302   2.297   4.853  0.6642  1.0984 -0.0002
 7643SOL     OW34387   0.712   3.216  14.407 -0.0677  0.6450 -0.2317
 7643SOL    HW134388   0.698   3.291  14.464 -0.7670  0.2466  0.1130
 7643SOL    HW234389   0.783   3.167  14.446  1.1526  2.8920  0.3841
 7644SOL     OW34390   0.609   0.905   2.477 -0.1460 -0.8028 -0.1766
 7644SOL    HW134391   0.661   0.825   2.469 -1.0558 -1.5125  1.1182
 7644SOL    HW234392   0.662   0.967   2.426 -0.0666  0.1582  1.0841
 7645SOL     OW34393   1.314   4.377   7.092 -0.0658  0.0036 -0.3986
 7645SOL    HW134394   1.396   4.396   7.046  0.4532  1.2664  1.0536
 7645SOL    HW234395   1.311   4.282   7.086 -1.1944 -0.1758  3.1600
 7646SOL     OW34396   2.538   3.512   7.344  0.2466  0.1739 -0.2439
 7646SOL    HW134397   2.487   3.539   7.421  0.5739  2.5294 -0.8452
 7646SOL    HW234398   2.476   3.452   7.303  2.5357 -1.1546 -1.7021
 7647SOL     OW34399   0.995   2.463   5.294 -0.2123  0.3472  0.4878
 7647SOL    HW134400   0.938   2.424   5.360  1.1913  1.8029  2.5712
 7647SOL    HW234401   1.041   2.529   5.346 -0.7120  1.2615 -0.2260
 7648SOL     OW34402   3.589   2.000   6.652  0.3529 -0.2029 -0.1291
 7648SOL    HW134403   3.515   2.005   6.591 -1.0329 -1.8462  1.4024
 7648SOL    HW234404   3.550   1.953   6.725  1.4547 -0.7065  0.1339
 7649SOL     OW34405   3.824   1.511   6.385 -0.0946 -0.0727  0.2999
 7649SOL    HW134406   3.830   1.470   6.299  1.2325  0.0600  0.3355
 7649SOL    HW234407   3.747   1.559   6.356 -0.4244 -0.9047 -0.2166
 7650SOL     OW34408   4.595   4.046  13.081  1.0300 -0.2296 -0.3639
 7650SOL    HW134409   4.620   4.130  13.118 -0.6257 -0.0920  0.4082
 7650SOL    HW234410   4.500   4.053  13.072  1.0646  2.0316  1.0973
 7651SOL     OW34411   0.042   2.232   5.265  0.0861  0.2019  0.0719
 7651SOL    HW134412   0.008   2.191   5.344  1.6821 -1.5168 -0.1316
 7651SOL    HW234413   0.135   2.210   5.268  0.4061  1.3157 -2.0512
 7652SOL     OW34414   4.500   0.170   4.784  0.3633  0.0372  0.4476
 7652SOL    HW134415   4.406   0.164   4.803  0.7090  1.6801  2.5669
 7652SOL    HW234416   4.507   0.078   4.758 -2.5648  0.8035 -3.2054
 7653SOL     OW34417   1.822   0.783   8.756 -0.0194  0.0401  0.3769
 7653SOL    HW134418   1.897   0.832   8.791  0.5024  0.7475 -1.6655
 7653SOL    HW234419   1.833   0.702   8.805 -2.1213 -1.3445 -1.4138
 7654SOL     OW34420   2.507   0.381   9.191 -0.0515  0.0352 -0.3169
 7654SOL    HW134421   2.599   0.358   9.176  0.8576  2.6799  1.1017
 7654SOL    HW234422   2.466   0.302   9.225 -0.2600  0.4647  0.4385
 7655SOL     OW34423   1.311   0.585   0.890  0.2357  0.7904 -0.2547
 7655SOL    HW134424   1.230   0.610   0.846 -1.0517 -2.1062  0.4649
 7655SOL    HW234425   1.371   0.621   0.825 -1.3849 -0.6975 -2.5734
 7656SOL     OW34426   1.018   2.959   6.297 -0.3927  0.4643  0.1652
 7656SOL    HW134427   0.992   3.020   6.366  0.5688 -0.2968  1.1882
 7656SOL    HW234428   1.088   3.012   6.258  2.1378 -0.6668  3.1598
 7657SOL     OW34429   2.468   0.849   5.507 -0.3777 -0.4241  0.2341
 7657SOL    HW134430   2.389   0.828   5.557  0.5171 -2.9196  0.6497
 7657SOL    HW234431   2.530   0.798   5.559  0.6291 -0.0892 -0.6452
 7658SOL     OW34432   0.058   4.505  11.768  0.5700  0.3003 -0.3597
 7658SOL    HW134433   4.714   4.459  11.717  0.7720 -2.4238  1.8487
 7658SOL    HW234434   0.122   4.541  11.706  0.4339  0.5139 -0.3758
 7659SOL     OW34435   3.759   3.753  13.406  0.1495 -0.0012 -0.3016
 7659SOL    HW134436   3.847   3.716  13.408  0.4715  0.6869 -1.4723
 7659SOL    HW234437   3.699   3.679  13.403 -0.6635  0.6134  0.7187
 7660SOL     OW34438   1.510   3.822   8.285 -0.3469  0.3643 -0.1091
 7660SOL    HW134439   1.596   3.838   8.324  1.8727 -0.3779 -4.7836
 7660SOL    HW234440   1.523   3.853   8.195 -0.3122  2.3212  0.5625
 7661SOL     OW34441   0.726   4.218   1.863  0.2868 -0.1560  0.3658
 7661SOL    HW134442   0.738   4.188   1.773 -0.8510  0.6868 -0.0739
 7661SOL    HW234443   0.750   4.309   1.846 -0.3034 -0.0434  0.1430
 7662SOL     OW34444   0.558   4.337  10.171  0.2072 -0.6974  0.0433
 7662SOL    HW134445   0.646   4.319  10.137 -0.1737 -2.6740  0.0807
 7662SOL    HW234446   0.522   4.280  10.103 -4.0568  0.2824  1.4801
 7663SOL     OW34447   1.604   0.511   3.260  0.0811  0.4913 -0.6556
 7663SOL    HW134448   1.542   0.447   3.227 -0.8208  0.6999  0.6459
 7663SOL    HW234449   1.674   0.446   3.260 -0.9424 -0.5845 -1.0305
 7664SOL     OW34450   1.885   2.549   8.279  0.0069  0.3013 -0.2751
 7664SOL    HW134451   1.871   2.622   8.219  1.4961 -1.1565 -2.4100
 7664SOL    HW234452   1.960   2.577   8.332 -0.7605  0.3997  0.7442
 7665SOL     OW34453   2.317   2.025   2.950  0.2232 -0.1606  0.4168
 7665SOL    HW134454   2.303   2.053   2.860  0.0150 -2.8038 -0.3671
 7665SOL    HW234455   2.310   1.930   2.938 -1.7022 -0.2407  2.1138
 7666SOL     OW34456   2.040   4.248   3.296 -0.2768 -0.5502 -0.1380
 7666SOL    HW134457   2.037   4.179   3.363  1.2426  0.7126  1.2284
 7666SOL    HW234458   1.953   4.283   3.312  0.1463  0.2543  0.4151
 7667SOL     OW34459   4.044   2.957  15.647  0.1151 -0.3897 -0.5560
 7667SOL    HW134460   4.062   3.003  15.565  0.3507  2.7307  1.2496
 7667SOL    HW234461   3.995   2.889  15.603 -3.1698  0.7016  1.4394
 7668SOL     OW34462   0.549   0.124   1.477  0.0088  0.5156  0.3537
 7668SOL    HW134463   0.609   0.066   1.523  0.4849  1.4164  0.8432
 7668SOL    HW234464   0.477   0.061   1.467  0.6920 -0.0573 -0.9848
 7669SOL     OW34465   4.485   0.125   7.633 -0.0881 -0.3237  0.6311
 7669SOL    HW134466   4.455   0.158   7.549 -1.3651 -0.0936  1.1740
 7669SOL    HW234467   4.450   0.194   7.688  0.8091  0.7731 -0.1740
 7670SOL     OW34468   2.249   0.568  14.290  0.0227 -0.1430  0.1231
 7670SOL    HW134469   2.338   0.599  14.270 -0.0064  1.0337  1.8422
 7670SOL    HW234470   2.241   0.519  14.208  0.5109  0.4959 -0.3108
 7671SOL     OW34471   4.113   1.999  14.670 -0.5674  0.2639  0.1951
 7671SOL    HW134472   4.141   2.013  14.580 -1.5756  0.7385 -0.0504
 7671SOL    HW234473   4.118   2.091  14.698  0.4459  0.6930 -1.3917
 7672SOL     OW34474   2.712   0.209   4.236  0.5687 -0.3584 -0.2918
 7672SOL    HW134475   2.619   0.220   4.219  0.5767  1.2128  0.7066
 7672SOL    HW234476   2.732   0.131   4.184  4.1379 -1.2172  2.3620
 7673SOL     OW34477   4.666   3.021   4.384  0.0730 -0.0254  0.2374
 7673SOL    HW134478   4.587   2.992   4.429 -1.0938  3.6428  0.5593
 7673SOL    HW234479   4.690   3.091   4.445 -1.7007 -0.2768  1.2235
 7674SOL     OW34480   4.010   3.248   4.916 -0.0486  0.1359 -0.2976
 7674SOL    HW134481   3.921   3.244   4.882  0.2238 -2.0254 -0.7759
 7674SOL    HW234482   4.055   3.256   4.832 -2.1300 -1.7868 -1.5762
 7675SOL     OW34483   0.757   1.681   2.254  0.1971  0.1475 -0.2913
 7675SOL    HW134484   0.817   1.623   2.208  0.5994  0.3971 -0.0753
 7675SOL    HW234485   0.812   1.752   2.288  0.4998  0.0974 -0.6746
 7676SOL     OW34486   2.705   0.330   2.908 -0.0828  0.3866 -0.5476
 7676SOL    HW134487   2.622   0.290   2.883 -0.7622  0.4071  1.6397
 7676SOL    HW234488   2.714   0.399   2.842  1.0396  0.6441 -0.1436
 7677SOL     OW34489   0.660   3.314  13.047  0.3341 -0.6005 -0.4486
 7677SOL    HW134490   0.709   3.386  13.086 -2.1934  1.1015 -0.4484
 7677SOL    HW234491   0.583   3.362  13.017 -0.9554 -1.0517  2.1604
 7678SOL     OW34492   1.287   3.661   6.400  0.3924  0.0946 -0.1011
 7678SOL    HW134493   1.360   3.654   6.339 -0.8574  0.5690 -1.6665
 7678SOL    HW234494   1.301   3.750   6.432  1.2956 -0.8018  1.9696
 7679SOL     OW34495   0.390   1.202   6.687  0.1213  0.2953  0.2315
 7679SOL    HW134496   0.395   1.188   6.782  0.0622  0.2136  0.2228
 7679SOL    HW234497   0.460   1.263   6.666  0.9684 -0.2887  1.3586
 7680SOL     OW34498   0.522   1.737  13.011 -0.0868  0.3775 -0.3245
 7680SOL    HW134499   0.462   1.783  12.953 -2.0919 -0.6996  0.9271
 7680SOL    HW234500   0.574   1.812  13.041 -2.1654  0.9270  1.8172
 7681SOL     OW34501   3.953   4.361   6.139  0.1356 -0.5746 -0.1223
 7681SOL    HW134502   4.015   4.293   6.111  0.4176 -0.0784 -0.6986
 7681SOL    HW234503   3.957   4.421   6.065  0.0134  1.7200  1.7318
 7682SOL     OW34504   4.390   3.713   7.161 -0.0606 -0.1169 -0.1589
 7682SOL    HW134505   4.475   3.674   7.137  0.0627 -1.7477  2.8938
 7682SOL    HW234506   4.356   3.749   7.080  0.2254 -1.1050 -0.7130
 7683SOL     OW34507   0.984   3.911   2.473  0.0131 -0.2465  0.1617
 7683SOL    HW134508   0.904   3.927   2.424  1.3899  0.7665 -1.7671
 7683SOL    HW234509   1.032   3.994   2.466  0.2235 -0.2648  1.4174
 7684SOL     OW34510   3.511   2.864   1.742 -0.1366  0.0577 -0.0240
 7684SOL    HW134511   3.431   2.824   1.709  0.1222 -0.5920  0.1475
 7684SOL    HW234512   3.517   2.949   1.697  0.2405  0.1787  0.2502
 7685SOL     OW34513   3.576   2.900   5.325 -0.2545  0.3499  0.4154
 7685SOL    HW134514   3.522   2.878   5.401  1.0220 -0.2288  1.1455
 7685SOL    HW234515   3.590   2.816   5.282 -0.5476  0.6893 -0.3488
 7686SOL     OW34516   2.087   1.102   4.354 -0.2120  0.2124  0.4139
 7686SOL    HW134517   2.035   1.037   4.402  0.3256  0.2223  1.0177
 7686SOL    HW234518   2.173   1.061   4.360  0.5104  1.1005 -4.2192
 7687SOL     OW34519   2.606   2.040   5.965  0.2739 -0.4079 -0.6185
 7687SOL    HW134520   2.567   2.101   5.902  0.4123  1.5426  1.2070
 7687SOL    HW234521   2.545   2.042   6.038  0.3584 -1.0134 -0.5358
 7688SOL     OW34522   2.700   3.031   5.496  0.2124  0.4500  0.0707
 7688SOL    HW134523   2.637   3.102   5.483 -0.8997 -0.6627 -0.6876
 7688SOL    HW234524   2.636   2.960   5.499 -0.5462  1.1412  0.0193
 7689SOL     OW34525   2.328   4.366  13.913  1.0008  0.0107 -0.1006
 7689SOL    HW134526   2.284   4.418  13.846 -0.2367 -2.4523 -1.1852
 7689SOL    HW234527   2.324   4.282  13.868 -0.7046  0.6354 -1.1340
 7690SOL     OW34528   2.188   3.357  10.185 -0.6750 -0.1726  0.0566
 7690SOL    HW134529   2.233   3.292  10.239  0.5926  1.7850  1.3664
 7690SOL    HW234530   2.234   3.349  10.102 -1.5822  1.9846 -0.6710
 7691SOL     OW34531   2.977   3.978   7.553 -0.5555  0.1553  0.4553
 7691SOL    HW134532   2.980   4.008   7.462  0.9059 -1.0584  0.1115
 7691SOL    HW234533   2.891   4.017   7.572  1.1629  3.4955  1.3334
 7692SOL     OW34534   3.808   3.849   2.739  0.0432 -0.4261 -0.1418
 7692SOL    HW134535   3.816   3.944   2.736 -1.0157 -0.3441 -0.3595
 7692SOL    HW234536   3.900   3.823   2.752 -0.3579 -1.5570  0.3938
 7693SOL     OW34537   1.377   1.882   7.842  0.1949  0.0681  0.2714
 7693SOL    HW134538   1.436   1.811   7.867  0.1704 -0.3285 -0.7801
 7693SOL    HW234539   1.446   1.949   7.844 -0.6094  0.9208 -0.5103
 7694SOL     OW34540   2.814   3.350   0.977  0.6507  0.2175  0.0315
 7694SOL    HW134541   2.832   3.381   0.888 -0.4458  1.6126  0.2906
 7694SOL    HW234542   2.723   3.325   0.959  0.2528  1.2036  0.7071
 7695SOL     OW34543   4.166   0.574   3.936 -0.0819 -0.0717 -0.5367
 7695SOL    HW134544   4.158   0.668   3.953  0.9213 -0.1197  0.1979
 7695SOL    HW234545   4.238   0.547   3.993 -3.0400 -2.5780  2.1101
 7696SOL     OW34546   2.415   4.521   3.900  0.0243 -0.7081  0.3669
 7696SOL    HW134547   2.462   4.438   3.899  0.8132 -0.2840  1.0900
 7696SOL    HW234548   2.409   4.531   3.805  1.4302  1.7031  0.5265
 7697SOL     OW34549   1.856   4.617  10.655  0.1213 -0.5901 -0.0269
 7697SOL    HW134550   1.843   4.678  10.727  1.8005  1.2874 -1.3136
 7697SOL    HW234551   1.903   4.539  10.686 -0.5599 -0.9876  0.0143
 7698SOL     OW34552   3.351   3.166   6.533  0.2669  0.9036 -0.1426
 7698SOL    HW134553   3.260   3.165   6.503 -0.4348 -1.1386  2.1300
 7698SOL    HW234554   3.354   3.078   6.570 -0.8761  1.1605  0.5556
 7699SOL     OW34555   2.718   4.340   6.891  0.3494 -0.7554  0.5367
 7699SOL    HW134556   2.743   4.364   6.980  0.2334 -1.7293  0.8365
 7699SOL    HW234557   2.623   4.339   6.891  0.3506 -2.0530 -0.2395
 7700SOL     OW34558   0.203   1.524   5.722 -0.4048  0.3337  0.0873
 7700SOL    HW134559   0.273   1.572   5.767 -2.8770  2.7104  1.4102
 7700SOL    HW234560   0.204   1.582   5.646  1.4180 -0.6596 -0.6457
 7701SOL     OW34561   1.219   3.342  16.608 -0.0113  0.4934 -0.2167
 7701SOL    HW134562   1.309   3.344  16.640 -0.7329  0.0498  1.7909
 7701SOL    HW234563   1.211   3.255  16.567  1.8123  1.2657 -2.2010
 7702SOL     OW34564   2.518   3.559   7.619 -0.1678  0.0502  0.8090
 7702SOL    HW134565   2.473   3.483   7.657  1.1502 -0.8226  0.6407
 7702SOL    HW234566   2.592   3.569   7.678 -0.4576 -1.6294  1.4546
 7703SOL     OW34567   1.135   0.440   9.483 -0.2774 -0.4122  0.1930
 7703SOL    HW134568   1.161   0.514   9.537 -0.0680 -0.6810  0.4547
 7703SOL    HW234569   1.139   0.366   9.543 -2.1985 -1.2378 -0.7144
 7704SOL     OW34570   2.542   1.995   2.436 -0.2962  0.2185  0.1587
 7704SOL    HW134571   2.566   2.081   2.402 -0.3676 -0.8360 -2.6258
 7704SOL    HW234572   2.570   1.940   2.363  1.0742  0.2106  0.6986
 7705SOL     OW34573   1.398   2.138   5.633  0.5210 -0.4956 -0.0910
 7705SOL    HW134574   1.377   2.161   5.542 -0.0272 -1.6078 -0.2461
 7705SOL    HW234575   1.348   2.197   5.690  1.6667 -0.4690  0.8844
 7706SOL     OW34576   1.463   3.999   6.039 -0.2535 -0.1855  0.4985
 7706SOL    HW134577   1.422   4.011   6.125  0.3360  2.0553  0.4709
 7706SOL    HW234578   1.407   3.929   6.007 -0.1713  0.9162 -2.0363
 7707SOL     OW34579   4.340   0.254   3.942 -0.1125 -0.4411  0.4068
 7707SOL    HW134580   4.258   0.224   3.980  0.3898 -1.1166  0.9636
 7707SOL    HW234581   4.359   0.331   3.996 -2.5104 -0.2479  0.9499
 7708SOL     OW34582   3.557   3.057   8.360 -0.1591 -0.2162  0.5543
 7708SOL    HW134583   3.557   3.062   8.456 -0.6825  2.0752  0.4209
 7708SOL    HW234584   3.650   3.070   8.347 -0.2979  0.5915  0.3623
 7709SOL     OW34585   0.365   0.589   0.819  0.2957  0.4435 -0.0833
 7709SOL    HW134586   0.292   0.564   0.763 -1.4185  0.7938  1.9980
 7709SOL    HW234587   0.330   0.617   0.904 -1.1382  2.6756 -1.4008
 7710SOL     OW34588   1.234   1.410   5.190 -0.1474 -0.0478  0.3782
 7710SOL    HW134589   1.311   1.379   5.142 -1.8103 -1.4761 -1.3426
 7710SOL    HW234590   1.175   1.419   5.116  2.2882  2.4222 -1.2374
 7711SOL     OW34591   2.741   1.061   6.845  0.5129  0.2499 -0.4608
 7711SOL    HW134592   2.711   1.145   6.880 -0.1803 -0.3941  0.4858
 7711SOL    HW234593   2.774   1.098   6.763 -1.2852 -0.9380 -1.7271
 7712SOL     OW34594   0.571   0.958   5.348  0.1988 -0.2460 -0.3418
 7712SOL    HW134595   0.622   0.924   5.275  0.5512 -0.7883  0.1618
 7712SOL    HW234596   0.566   0.878   5.400 -1.9042 -1.4147 -2.3686
 7713SOL     OW34597   3.909   1.805   4.231 -0.0263  0.0830  0.0217
 7713SOL    HW134598   3.956   1.724   4.212  0.9626  0.5443  0.5010
 7713SOL    HW234599   3.827   1.779   4.273 -0.0512  0.2796  0.0938
 7714SOL     OW34600   0.344   2.578  13.881 -0.3108  0.1909  0.4082
 7714SOL    HW134601   0.302   2.538  13.958 -0.3751 -0.3141  0.1107
 7714SOL    HW234602   0.421   2.629  13.906 -0.5685  0.5692  0.4267
 7715SOL     OW34603   0.715   4.114   5.424  0.6800  0.4474 -0.1661
 7715SOL    HW134604   0.675   4.027   5.432  2.6009 -0.6402 -2.1539
 7715SOL    HW234605   0.670   4.170   5.360 -3.0964 -1.4189  0.8318
 7716SOL     OW34606   4.008   3.550   5.187  0.5947 -0.0576 -0.6093
 7716SOL    HW134607   3.942   3.558   5.119 -0.2063 -1.1619  0.0321
 7716SOL    HW234608   4.001   3.629   5.242  1.8854 -1.2435  1.2667
 7717SOL     OW34609   0.291   3.926   8.211 -0.3099  0.0801  0.1187
 7717SOL    HW134610   0.380   3.913   8.178  0.1843 -0.3570  1.6419
 7717SOL    HW234611   0.311   3.953   8.301 -0.2288  0.2691  0.0435
 7718SOL     OW34612   3.395   2.734   6.101 -0.1655 -0.1041 -0.2820
 7718SOL    HW134613   3.358   2.784   6.173  1.6422  0.6325  0.1115
 7718SOL    HW234614   3.336   2.739   6.025  0.2071 -0.5931 -0.6034
 7719SOL     OW34615   1.598   4.715   1.842  0.6328  0.6306  0.1422
 7719SOL    HW134616   1.652   4.639   1.821  1.0771  0.9145  0.2724
 7719SOL    HW234617   1.661   0.061   1.860  1.4968 -0.3543  0.8933
 7720SOL     OW34618   2.689   4.157  12.850  0.6982 -0.0976  0.5759
 7720SOL    HW134619   2.620   4.223  12.850  0.1175 -0.7123 -0.5219
 7720SOL    HW234620   2.728   4.163  12.937 -0.2813 -0.8562  1.0697
 7721SOL     OW34621   1.311   1.411   3.645  0.4460 -0.5387  0.0752
 7721SOL    HW134622   1.217   1.413   3.664 -0.1348  0.9431 -3.1012
 7721SOL    HW234623   1.309   1.338   3.583 -0.9139 -0.6860  0.2827
 7722SOL     OW34624   3.031   0.100  12.728  0.0768 -0.1530  0.7925
 7722SOL    HW134625   2.962   0.064  12.672  1.0365 -0.6705 -0.0498
 7722SOL    HW234626   3.056   0.029  12.787 -0.1640 -0.3278  0.6876
 7723SOL     OW34627   1.126   1.330   2.122  0.0928  0.1546 -0.7234
 7723SOL    HW134628   1.161   1.267   2.185 -2.1774 -0.7772 -0.3712
 7723SOL    HW234629   1.092   1.270   2.056  1.0530 -0.0318 -1.0474
 7724SOL     OW34630   3.596   2.905   0.420 -0.1451 -0.0711 -0.4444
 7724SOL    HW134631   3.525   2.888   0.483 -1.8849 -0.0845 -2.4027
 7724SOL    HW234632   3.679   2.898   0.467  0.9626 -1.8017 -2.6071
 7725SOL     OW34633   1.645   0.162  10.728  0.6624  0.0603  0.2904
 7725SOL    HW134634   1.596   0.219  10.787  0.7625 -0.3194  0.7503
 7725SOL    HW234635   1.709   0.134  10.794  0.6491 -0.5442  0.0510
 7726SOL     OW34636   3.593   2.609   0.661  0.5608 -0.5568  0.4722
 7726SOL    HW134637   3.553   2.532   0.620  0.7906 -0.4272  0.0026
 7726SOL    HW234638   3.523   2.672   0.644 -0.4537 -1.4586  1.3027
 7727SOL     OW34639   0.915   2.271  11.312 -0.0730 -0.4208  0.2715
 7727SOL    HW134640   0.885   2.336  11.249 -0.0852 -1.7153 -1.0632
 7727SOL    HW234641   0.971   2.214  11.258  1.2984 -1.3165  2.6384
 7728SOL     OW34642   0.611   2.546  11.537 -0.0213  0.2787 -0.9988
 7728SOL    HW134643   0.553   2.612  11.499 -0.0180  1.5137  1.1275
 7728SOL    HW234644   0.551   2.497  11.593  0.5342 -0.1882 -0.8160
 7729SOL     OW34645   3.420   1.355  11.917 -0.0402  0.1861  0.0008
 7729SOL    HW134646   3.473   1.301  11.859 -2.2164 -1.4419 -0.4662
 7729SOL    HW234647   3.342   1.301  11.930 -0.0017  0.3408  0.9391
 7730SOL     OW34648   3.116   1.944   5.735  0.5172 -0.1470 -0.3401
 7730SOL    HW134649   3.200   1.984   5.757 -0.5832  2.0088 -0.0450
 7730SOL    HW234650   3.115   1.939   5.639  1.2262  2.6335 -0.4988
 7731SOL     OW34651   0.368   1.945   9.632  0.0110 -0.6413 -0.2594
 7731SOL    HW134652   0.427   1.962   9.559 -2.5993 -0.1049 -2.2066
 7731SOL    HW234653   0.387   1.852   9.648 -0.2411 -0.8008 -0.9222
 7732SOL     OW34654   3.366   0.520   8.007  0.5452  0.2386 -0.3129
 7732SOL    HW134655   3.334   0.433   8.031  1.4236 -0.2792 -1.0350
 7732SOL    HW234656   3.310   0.586   8.049 -0.5079  0.1622 -1.6100
 7733SOL     OW34657   0.600   2.591  15.610 -0.1654  0.4255 -0.1787
 7733SOL    HW134658   0.561   2.521  15.662  0.5213  0.3152  0.1721
 7733SOL    HW234659   0.554   2.586  15.526 -1.8630 -0.9732  0.8310
 7734SOL     OW34660   1.651   0.826   4.507 -0.7196 -0.2010  0.3423
 7734SOL    HW134661   1.642   0.865   4.594 -1.9840  0.1221  0.0702
 7734SOL    HW234662   1.634   0.905   4.455  0.7935  0.7216  1.2727
 7735SOL     OW34663   3.165   0.448   2.675 -0.0621 -0.0331  0.0927
 7735SOL    HW134664   3.075   0.459   2.706 -0.4654  0.5388 -1.2915
 7735SOL    HW234665   3.199   0.385   2.739 -0.7357 -0.3476  0.1424
 7736SOL     OW34666   1.585   1.626   6.486 -0.1862  0.0097 -0.5705
 7736SOL    HW134667   1.519   1.631   6.417 -0.9195 -0.9345  0.0672
 7736SOL    HW234668   1.523   1.595   6.552  0.4181  1.5593  0.7220
 7737SOL     OW34669   3.100   4.263   3.382 -0.3566 -0.2326 -0.4327
 7737SOL    HW134670   3.101   4.286   3.289  1.3690 -1.2011 -0.6499
 7737SOL    HW234671   3.008   4.275   3.402  0.4303  1.8085  1.9261
 7738SOL     OW34672   3.112   3.507   5.641  0.6943  0.1294  0.1523
 7738SOL    HW134673   3.144   3.500   5.731 -1.4710  0.1813  0.9359
 7738SOL    HW234674   3.139   3.424   5.604 -2.0406 -1.3042  1.3971
 7739SOL     OW34675   0.606   3.306  10.219 -0.5704  0.3992 -0.0541
 7739SOL    HW134676   0.591   3.396  10.192  1.9429  0.8872  0.1303
 7739SOL    HW234677   0.632   3.320  10.310 -1.6659 -3.7896  0.9185
 7740SOL     OW34678   3.672   2.261   6.462 -0.2629  0.1478 -0.4022
 7740SOL    HW134679   3.708   2.180   6.499 -3.2594 -1.1324 -0.2937
 7740SOL    HW234680   3.594   2.255   6.517 -0.7661 -1.4328 -1.3014
 7741SOL     OW34681   0.856   0.243   4.696 -0.4992 -0.5648  0.6708
 7741SOL    HW134682   0.897   0.316   4.743  0.8374 -1.0041  0.1803
 7741SOL    HW234683   0.934   0.205   4.656  0.4267  0.9162  1.0473
 7742SOL     OW34684   4.097   1.821   6.740 -0.6998  0.1289 -0.5416
 7742SOL    HW134685   4.012   1.783   6.761 -0.3528 -0.5135 -0.2986
 7742SOL    HW234686   4.079   1.915   6.750 -0.2484  0.1321  0.2625
 7743SOL     OW34687   4.002   0.973  15.873 -0.0162 -0.2732 -0.5071
 7743SOL    HW134688   4.020   1.040  15.807  0.9595 -0.9655 -0.9337
 7743SOL    HW234689   4.023   1.025  15.950 -2.1494  0.9878 -0.7762
 7744SOL     OW34690   0.706   1.804  13.288  0.2500  0.1842 -0.1878
 7744SOL    HW134691   0.760   1.831  13.214 -0.8851  0.4267 -0.9304
 7744SOL    HW234692   0.707   1.710  13.270  0.3401  0.6526 -2.5612
 7745SOL     OW34693   3.260   3.701   6.387 -0.1525 -0.4122 -0.5960
 7745SOL    HW134694   3.207   3.733   6.314 -1.2794  1.8784  1.2301
 7745SOL    HW234695   3.211   3.622   6.411  2.3908 -1.6509  0.5361
 7746SOL     OW34696   0.182   2.091   9.941 -0.2971 -0.0748  0.3211
 7746SOL    HW134697   0.154   2.084   9.850 -2.1618 -2.3973  1.0683
 7746SOL    HW234698   0.162   2.004   9.975 -1.5715  0.3467  0.6534
 7747SOL     OW34699   3.041   3.953   7.279 -0.1225  0.3889 -0.1187
 7747SOL    HW134700   3.005   3.864   7.270  1.2139  0.1395 -3.2386
 7747SOL    HW234701   3.097   3.970   7.204  0.6576  0.6503  0.5313
 7748SOL     OW34702   2.228   1.539   8.330  0.4591  0.0695  0.6479
 7748SOL    HW134703   2.168   1.491   8.272  1.9003 -1.5825  0.5006
 7748SOL    HW234704   2.193   1.507   8.413  0.4201 -1.2144  0.1338
 7749SOL     OW34705   1.170   3.499   6.099 -0.3340 -0.3908 -0.0770
 7749SOL    HW134706   1.156   3.415   6.145 -1.4097 -0.9787 -1.5032
 7749SOL    HW234707   1.228   3.468   6.029  0.2173 -0.0723  0.2375
 7750SOL     OW34708   3.665   0.369   7.436  0.1210 -0.3872  0.6567
 7750SOL    HW134709   3.571   0.349   7.440  0.4172 -2.1718 -0.8320
 7750SOL    HW234710   3.660   0.450   7.386 -0.1018 -1.2757 -0.7778
 7751SOL     OW34711   1.542   4.003  16.406 -0.0165  0.3537 -0.4465
 7751SOL    HW134712   1.590   4.009  16.488  0.7006 -1.6300 -0.7304
 7751SOL    HW234713   1.610   3.994  16.340 -1.5984  0.7321 -2.1515
 7752SOL     OW34714   2.900   3.937   5.573  0.1711 -0.1827 -0.0879
 7752SOL    HW134715   2.990   3.905   5.574 -0.0103 -0.6600  0.9635
 7752SOL    HW234716   2.904   4.006   5.506  1.6524  0.0186  0.2055
 7753SOL     OW34717   4.192   4.577   7.710 -0.1212 -0.0678  0.2695
 7753SOL    HW134718   4.270   4.595   7.657 -1.0785 -2.8278 -2.0635
 7753SOL    HW234719   4.146   4.660   7.699  0.0476  0.1484  1.1636
 7754SOL     OW34720   0.421   4.538   4.364 -0.1537  0.2364  0.1665
 7754SOL    HW134721   0.425   4.589   4.445  1.6674 -1.3625  1.1137
 7754SOL    HW234722   0.377   4.598   4.304  1.9767  1.0752 -0.5556
 7755SOL     OW34723   1.176   1.258   6.877 -0.2971 -0.3753 -0.1425
 7755SOL    HW134724   1.142   1.240   6.965 -1.1076  2.0933  0.0614
 7755SOL    HW234725   1.252   1.201   6.871  1.2586  1.7364 -0.5921
 7756SOL     OW34726   1.916   4.017  11.592 -0.5152 -0.8014 -0.0599
 7756SOL    HW134727   1.896   4.025  11.498 -1.9023 -0.1102  0.3057
 7756SOL    HW234728   1.986   3.952  11.595  0.5656  0.4639  1.8920
 7757SOL     OW34729   2.610   1.734  15.244 -0.8169  0.7108 -0.2469
 7757SOL    HW134730   2.674   1.799  15.272 -0.4725 -0.3934  1.5177
 7757SOL    HW234731   2.577   1.770  15.162  1.4037  0.7652 -1.1180
 7758SOL     OW34732   1.923   2.306   5.092 -0.2407  0.2697  0.3636
 7758SOL    HW134733   1.934   2.321   5.186 -1.4655 -2.3021  0.9284
 7758SOL    HW234734   1.935   2.211   5.081  0.3974  0.2526  1.1875
 7759SOL     OW34735   3.969   1.684   9.055 -0.2693 -0.7777  0.1611
 7759SOL    HW134736   3.906   1.613   9.052  0.4140 -1.3661 -0.2486
 7759SOL    HW234737   4.050   1.634   9.068  1.9538  2.1962 -2.1018
 7760SOL     OW34738   3.214   4.672   9.153 -0.5976 -0.0656  0.4401
 7760SOL    HW134739   3.200   4.605   9.219 -1.1606 -1.3257 -0.9765
 7760SOL    HW234740   3.207   4.630   9.067  0.6317  2.2575 -0.8335
 7761SOL     OW34741   2.231   1.553  13.923 -0.2163  0.0735 -0.0682
 7761SOL    HW134742   2.198   1.558  14.013 -0.6037  1.0209 -0.2686
 7761SOL    HW234743   2.320   1.518  13.934  0.6796  1.9584 -1.2218
 7762SOL     OW34744   1.466   1.798   2.847  0.4799  0.3886 -0.0035
 7762SOL    HW134745   1.427   1.767   2.929 -0.3935 -1.0984 -0.9957
 7762SOL    HW234746   1.474   1.711   2.810 -3.0550  0.1639 -0.2458
 7763SOL     OW34747   3.771   4.179  10.811  0.2121  0.2002 -0.2981
 7763SOL    HW134748   3.863   4.162  10.834 -0.5337 -0.6917  2.0325
 7763SOL    HW234749   3.760   4.112  10.744 -0.7322 -1.6483  1.6995
 7764SOL     OW34750   0.345   0.670   2.933  0.0866  0.0712 -0.1443
 7764SOL    HW134751   0.280   0.738   2.949 -0.4504 -0.4130 -0.2570
 7764SOL    HW234752   0.394   0.661   3.014  1.9440  0.7672 -1.1779
 7765SOL     OW34753   1.492   2.053  11.792 -0.2724  0.5370  0.1191
 7765SOL    HW134754   1.552   2.088  11.726 -0.3341 -2.0913 -1.3473
 7765SOL    HW234755   1.553   2.030  11.862  0.5419  2.3325 -0.0019
 7766SOL     OW34756   0.914   1.191   4.139  0.3105 -0.0786  0.2495
 7766SOL    HW134757   0.909   1.236   4.224 -0.1801 -4.3535  2.4743
 7766SOL    HW234758   0.960   1.111   4.161  2.0298  1.1082  0.9610
 7767SOL     OW34759   4.574   2.458   7.739 -0.1307 -0.3895  0.5677
 7767SOL    HW134760   4.537   2.489   7.822 -0.0890  1.5255 -0.1125
 7767SOL    HW234761   4.492   2.442   7.693  0.7701  1.3277 -1.6360
 7768SOL     OW34762   1.786   3.727  11.305  0.6322  1.4480 -0.4144
 7768SOL    HW134763   1.757   3.669  11.235 -0.2525 -0.6450  1.7009
 7768SOL    HW234764   1.855   3.677  11.349  1.2916  2.0516 -0.7659
 7769SOL     OW34765   3.377   0.117   5.624 -0.3469 -0.0931 -0.4501
 7769SOL    HW134766   3.340   0.098   5.711  0.2746 -1.3776 -0.4635
 7769SOL    HW234767   3.302   0.168   5.594  0.4202  1.5546  0.4101
 7770SOL     OW34768   0.104   4.593   1.975  0.4168  0.0643  0.4193
 7770SOL    HW134769   0.173   4.544   1.931  0.3252  0.1620  0.1686
 7770SOL    HW234770   0.061   4.634   1.900 -1.3145 -1.9863  0.2734
 7771SOL     OW34771   1.480   2.613  16.499 -0.2436  0.8258  0.4462
 7771SOL    HW134772   1.482   2.647  16.588 -0.2490  0.5460  0.5504
 7771SOL    HW234773   1.396   2.568  16.499 -0.0504  0.4735  1.5329
 7772SOL     OW34774   4.677   4.690   4.001 -0.0172  0.1820 -0.1488
 7772SOL    HW134775   4.667   4.595   3.996 -0.7752  0.1722  1.7887
 7772SOL    HW234776   4.685   4.718   3.909 -3.1568  1.4547 -0.0338
 7773SOL     OW34777   3.007   3.833   0.507 -0.7641 -0.2066  0.4363
 7773SOL    HW134778   3.019   3.901   0.574  1.8511  0.7375 -0.9735
 7773SOL    HW234779   3.097   3.799   0.499 -0.5444  0.8927 -1.6478
 7774SOL     OW34780   1.612   0.147   0.909  0.2528  0.4137 -0.2511
 7774SOL    HW134781   1.631   0.225   0.960  0.2772  0.1494  0.1407
 7774SOL    HW234782   1.538   0.106   0.953  1.3701  0.1821  1.4103
 7775SOL     OW34783   0.050   4.580   1.336 -0.0754  0.6689  0.6865
 7775SOL    HW134784   0.132   4.532   1.341 -0.4682 -0.2281 -1.3001
 7775SOL    HW234785   0.074   4.666   1.368  1.4028  0.8339 -0.8901
 7776SOL     OW34786   3.389   1.224   4.014  0.7047 -0.4475  0.2070
 7776SOL    HW134787   3.484   1.223   4.000  1.0814  0.3104  2.8252
 7776SOL    HW234788   3.398   1.254   4.104 -3.0098  1.6007 -0.0899
 7777SOL     OW34789   0.740   2.444   5.742  0.7269  0.4406  0.2639
 7777SOL    HW134790   0.806   2.420   5.807  0.4243  2.1075  1.1943
 7777SOL    HW234791   0.664   2.390   5.764 -0.0576  1.5352  0.2181
 7778SOL     OW34792   3.847   0.082   6.723  0.0919  0.2656  0.1779
 7778SOL    HW134793   3.801   0.020   6.666  0.9916 -2.0551  1.9665
 7778SOL    HW234794   3.916   0.022   6.753 -2.6260 -3.1457 -0.4464
 7779SOL     OW34795   0.236   3.736   1.300 -0.3734 -0.2708 -0.3612
 7779SOL    HW134796   0.218   3.830   1.293 -0.1385 -0.3259 -1.7852
 7779SOL    HW234797   0.197   3.719   1.386  0.2097  1.2268  0.2072
 7780SOL     OW34798   3.632   0.478   8.257  0.7382 -0.5188  0.0894
 7780SOL    HW134799   3.553   0.459   8.307  0.2897  1.3050  0.0732
 7780SOL    HW234800   3.647   0.395   8.211  0.5537  0.0683 -1.0228
 7781SOL     OW34801   2.809   1.339   8.604  0.5692 -0.6893 -0.4667
 7781SOL    HW134802   2.875   1.398   8.567  1.4616 -0.2259  1.8392
 7781SOL    HW234803   2.861   1.263   8.631  2.7155  1.1294  0.4875
 7782SOL     OW34804   4.719   3.581   3.652 -0.0084  0.0213  0.2352
 7782SOL    HW134805   4.665   3.660   3.651 -1.9565 -1.2893  1.3743
 7782SOL    HW234806   0.070   3.617   3.700  0.2826  0.5306 -0.6018
 7783SOL     OW34807   1.993   0.805   7.597  0.0245  0.4219  0.0715
 7783SOL    HW134808   2.012   0.744   7.526 -0.4735  0.5739 -0.1902
 7783SOL    HW234809   2.081   0.842   7.603  0.0686  0.0287  1.8132
 7784SOL     OW34810   1.438   3.796   3.380  0.1287 -0.4039 -0.0057
 7784SOL    HW134811   1.347   3.769   3.365 -0.2815  1.3071 -0.5726
 7784SOL    HW234812   1.440   3.878   3.330  1.5080 -0.1264  0.4919
 7785SOL     OW34813   3.011   4.381   2.069  0.2040  0.4191 -0.4726
 7785SOL    HW134814   2.980   4.441   2.137  1.3262 -0.6468  0.9704
 7785SOL    HW234815   3.039   4.438   1.997 -0.9100 -0.2550 -1.4383
 7786SOL     OW34816   1.186   4.709  10.941 -0.5986 -0.2003  0.0015
 7786SOL    HW134817   1.202   0.080  10.951  0.8152 -0.2507 -1.8336
 7786SOL    HW234818   1.272   4.683  10.908 -0.6123 -2.1937  1.5333
 7787SOL     OW34819   0.761   4.414   6.866 -0.4382 -0.0116  0.1079
 7787SOL    HW134820   0.781   4.327   6.901  0.3589 -1.3464 -3.6072
 7787SOL    HW234821   0.835   4.434   6.808  0.0953  0.9605  1.1324
 7788SOL     OW34822   1.168   2.744   5.140 -1.0668  0.4453  0.0271
 7788SOL    HW134823   1.088   2.755   5.090  0.2592  0.6403 -2.0328
 7788SOL    HW234824   1.128   2.754   5.227 -2.0890  1.2704 -0.5392
 7789SOL     OW34825   3.767   2.476   8.760  0.0919  0.4594 -0.4164
 7789SOL    HW134826   3.854   2.490   8.799 -0.1232 -1.0910  0.6502
 7789SOL    HW234827   3.746   2.390   8.797 -1.2567  0.3243 -1.5200
 7790SOL     OW34828   1.437   0.690   4.358 -0.2910  0.1034 -0.1226
 7790SOL    HW134829   1.370   0.724   4.417 -1.8658 -0.4758 -1.5792
 7790SOL    HW234830   1.503   0.648   4.413  0.4416 -0.0336 -1.1017
 7791SOL     OW34831   3.261   0.451   2.058  0.3389  0.2340  0.9569
 7791SOL    HW134832   3.310   0.450   2.140  1.5426  1.6719  0.2486
 7791SOL    HW234833   3.203   0.377   2.078 -1.5328  1.2758 -0.5823
 7792SOL     OW34834   2.805   4.415  10.879 -0.0751  0.2091  0.4082
 7792SOL    HW134835   2.794   4.338  10.824 -2.0552  0.4929  0.3827
 7792SOL    HW234836   2.809   4.374  10.966  0.4752 -1.7991 -0.5743
 7793SOL     OW34837   1.438   1.241   3.380 -0.3315  0.1258 -0.4894
 7793SOL    HW134838   1.346   1.218   3.394 -0.0875  0.3982  1.5841
 7793SOL    HW234839   1.481   1.172   3.429 -2.2429 -0.2204  0.6797
 7794SOL     OW34840   0.939   1.811  15.011 -0.4969 -0.3232 -0.2047
 7794SOL    HW134841   0.944   1.822  14.916 -0.6426  1.3993 -0.0216
 7794SOL    HW234842   0.849   1.843  15.021  0.0763  1.8662 -2.1010
 7795SOL     OW34843   3.264   3.337   8.946 -0.6685  0.0575  1.0905
 7795SOL    HW134844   3.299   3.340   9.035 -1.2456  2.2284  1.2498
 7795SOL    HW234845   3.319   3.399   8.898 -0.0912  0.2123  1.9575
 7796SOL     OW34846   0.158   2.493  16.509 -0.4984  0.1462 -0.4622
 7796SOL    HW134847   0.104   2.543  16.570 -0.9260 -1.1162  0.2032
 7796SOL    HW234848   0.184   2.563  16.449 -2.6543  1.0216 -0.3727
 7797SOL     OW34849   1.854   1.021  13.353  0.0416  0.2259 -0.3208
 7797SOL    HW134850   1.941   1.062  13.357  0.4906 -0.7868  0.4962
 7797SOL    HW234851   1.871   0.927  13.355 -0.7807  0.1276  2.0428
 7798SOL     OW34852   0.240   2.763  10.825  0.5431  0.1074 -0.2128
 7798SOL    HW134853   0.193   2.834  10.869  0.8592 -0.5767  1.2492
 7798SOL    HW234854   0.217   2.691  10.884 -1.8535  0.9221 -0.1444
 7799SOL     OW34855   2.188   1.464  15.552  0.5963  0.2118  0.6786
 7799SOL    HW134856   2.283   1.465  15.539  0.3043 -1.2893 -1.7442
 7799SOL    HW234857   2.176   1.512  15.634 -2.0519  0.8638 -0.0836
 7800SOL     OW34858   2.525   1.414   9.575 -0.1007  0.1167 -0.1892
 7800SOL    HW134859   2.607   1.462   9.560 -0.7837  1.5267  0.5693
 7800SOL    HW234860   2.467   1.490   9.570 -0.2720 -0.0100 -0.1318
 7801SOL     OW34861   2.159   2.799   2.687 -0.3536 -0.2636  0.2647
 7801SOL    HW134862   2.214   2.859   2.637 -0.4599  0.5969  1.1867
 7801SOL    HW234863   2.211   2.783   2.766 -1.1421  2.3323  1.2912
 7802SOL     OW34864   0.484   2.461   2.538  0.5790 -0.5822  0.6808
 7802SOL    HW134865   0.547   2.390   2.543  0.9461 -0.3399 -0.8315
 7802SOL    HW234866   0.462   2.456   2.445  1.1655 -2.5216  0.6524
 7803SOL     OW34867   0.729   2.209  11.482  0.0790 -0.1010  0.1123
 7803SOL    HW134868   0.804   2.232  11.427  0.6326  0.1097  0.9723
 7803SOL    HW234869   0.762   2.226  11.570  0.4765  0.3096 -0.1134
 7804SOL     OW34870   3.548   1.899  11.285  0.2699  0.3282 -0.0813
 7804SOL    HW134871   3.502   1.816  11.299  1.7141 -0.3486  0.6738
 7804SOL    HW234872   3.636   1.866  11.266 -0.1099 -1.0925  0.5902
 7805SOL     OW34873   4.136   0.624   0.206 -0.1020 -0.7008 -0.3015
 7805SOL    HW134874   4.071   0.659   0.267 -1.5930  0.3616 -2.4799
 7805SOL    HW234875   4.153   0.700   0.150 -0.2873  0.1397  0.7926
 7806SOL     OW34876   3.934   1.533   9.379 -0.2101  0.0332  0.1815
 7806SOL    HW134877   3.908   1.452   9.421 -1.1265  0.0275 -0.3788
 7806SOL    HW234878   3.851   1.554   9.335  0.2607 -2.6067 -1.9637
 7807SOL     OW34879   4.106   0.692  15.832  0.3836  0.0021  0.7197
 7807SOL    HW134880   4.011   0.693  15.818  0.4883  0.1862  0.0464
 7807SOL    HW234881   4.126   0.785  15.842  0.4314 -0.1463  2.0077
 7808SOL     OW34882   0.253   1.375   6.919 -0.1280 -0.2764  0.1163
 7808SOL    HW134883   0.185   1.360   6.985 -0.0641 -2.1543 -0.2343
 7808SOL    HW234884   0.288   1.289   6.943  1.0926  0.8063  2.2786
 7809SOL     OW34885   1.992   4.005   3.173  0.2268  0.2453  0.3585
 7809SOL    HW134886   2.011   4.093   3.205  0.0119  0.2006  0.6147
 7809SOL    HW234887   1.934   3.984   3.246 -0.5627 -3.5558 -1.3694
 7810SOL     OW34888   0.561   3.050   2.707  0.6021 -0.7737 -0.4998
 7810SOL    HW134889   0.505   3.128   2.707  1.1185 -0.3550  3.5203
 7810SOL    HW234890   0.608   3.078   2.629  0.5913 -0.5006 -0.4121
 7811SOL     OW34891   1.000   1.532   2.437 -0.5520 -0.1234 -0.2897
 7811SOL    HW134892   0.941   1.600   2.470 -1.1662 -0.4561 -0.6995
 7811SOL    HW234893   0.938   1.494   2.375  0.3611  1.1140 -1.9687
 7812SOL     OW34894   0.476   3.623   3.922  0.3065 -0.2874 -0.2308
 7812SOL    HW134895   0.426   3.613   4.003 -1.8296  0.8343 -1.3963
 7812SOL    HW234896   0.544   3.687   3.946  0.8550 -1.0219  0.1754
 7813SOL     OW34897   1.386   2.226  13.804 -0.1558 -0.3830 -0.2207
 7813SOL    HW134898   1.331   2.163  13.758 -1.0869  2.5574 -3.0959
 7813SOL    HW234899   1.460   2.171  13.828  0.2678  0.9454  1.5505
 7814SOL     OW34900   3.671   2.404   2.741 -0.6225  0.2217  0.2334
 7814SOL    HW134901   3.585   2.362   2.731 -1.4295  1.9109  0.1207
 7814SOL    HW234902   3.666   2.434   2.832 -1.9155 -2.8911  1.2241
 7815SOL     OW34903   3.931   2.356   2.768 -0.4221  0.1555  0.3062
 7815SOL    HW134904   3.946   2.280   2.823 -0.2607 -0.0157  0.0287
 7815SOL    HW234905   3.836   2.351   2.759 -0.2866 -0.5138 -0.7738
 7816SOL     OW34906   1.642   3.554   5.749  0.7066 -0.4526 -0.5521
 7816SOL    HW134907   1.700   3.597   5.687 -2.3280  2.1644 -1.5539
 7816SOL    HW234908   1.564   3.531   5.699  0.6144 -2.9546  0.7548
 7817SOL     OW34909   4.148   4.256   4.468  0.5625  0.5963  0.2432
 7817SOL    HW134910   4.220   4.197   4.447 -0.1541 -0.0017 -0.5419
 7817SOL    HW234911   4.155   4.325   4.402  0.8656 -1.7142 -2.1117
 7818SOL     OW34912   0.667   2.461   1.051  0.1342 -0.3352  0.4765
 7818SOL    HW134913   0.612   2.435   1.125  0.6701  0.9183  1.3266
 7818SOL    HW234914   0.754   2.433   1.080  0.7313  0.8861 -0.1325
 7819SOL     OW34915   0.842   4.113   5.106 -0.1017  0.3054  0.3678
 7819SOL    HW134916   0.777   4.152   5.165  1.3746  0.0766  2.1350
 7819SOL    HW234917   0.795   4.048   5.055 -0.0383  0.6444 -0.1200
 7820SOL     OW34918   1.173   0.247   0.508  0.0704  0.7639 -0.1777
 7820SOL    HW134919   1.130   0.229   0.592  1.4348 -0.4103  0.2744
 7820SOL    HW234920   1.100   0.221   0.453 -0.5525 -0.7562  1.3631
 7821SOL     OW34921   2.487   3.501   0.722 -0.1182 -0.2623  0.1131
 7821SOL    HW134922   2.484   3.595   0.739  1.6939 -0.1027 -0.4642
 7821SOL    HW234923   2.553   3.502   0.653  0.4873  0.0501  0.6969
 7822SOL     OW34924   3.549   2.041   7.457  0.5851 -0.3787 -0.4440
 7822SOL    HW134925   3.579   2.078   7.540 -0.5632  1.4122 -0.8201
 7822SOL    HW234926   3.496   1.968   7.488 -1.4116  0.8075 -1.0456
 7823SOL     OW34927   0.507   3.241   0.781 -1.0992 -0.3200 -0.6924
 7823SOL    HW134928   0.488   3.276   0.868  0.8347 -1.7516  0.2886
 7823SOL    HW234929   0.446   3.168   0.767  0.2053 -1.3088 -1.2096
 7824SOL     OW34930   2.745   1.487   6.300 -0.5630  0.6795  0.6810
 7824SOL    HW134931   2.661   1.478   6.344 -1.3441  0.8828 -0.7641
 7824SOL    HW234932   2.725   1.413   6.242 -0.0060  0.1698  1.1398
 7825SOL     OW34933   0.411   2.916   8.125 -0.1365 -0.1148  0.0672
 7825SOL    HW134934   0.392   2.875   8.210  1.2001 -0.6494  0.1116
 7825SOL    HW234935   0.334   2.970   8.108  0.0395  0.7942  2.1731
 7826SOL     OW34936   1.317   0.822   0.155 -0.0338 -0.2919  0.1999
 7826SOL    HW134937   1.242   0.777   0.116  2.1107 -2.3891 -1.4894
 7826SOL    HW234938   1.372   0.830   0.078  0.0739 -2.6388  0.0445
 7827SOL     OW34939   3.510   3.790   5.491 -0.3481 -0.2834 -0.2492
 7827SOL    HW134940   3.551   3.765   5.574 -1.2395  0.5154  0.4323
 7827SOL    HW234941   3.559   3.872   5.482  0.7008 -0.9766 -0.7656
 7828SOL     OW34942   2.955   1.206   9.594 -0.0050  0.1214  0.1840
 7828SOL    HW134943   2.891   1.147   9.635 -2.2058  1.9611 -0.6472
 7828SOL    HW234944   2.942   1.284   9.647 -0.9624 -2.0352  3.1569
 7829SOL     OW34945   4.621   1.870  13.252  0.1941  0.1383 -0.7694
 7829SOL    HW134946   4.610   1.917  13.169  2.2148 -0.4505 -1.3714
 7829SOL    HW234947   4.622   1.946  13.310  0.5721  0.1288 -0.7632
 7830SOL     OW34948   0.267   0.170   4.764 -0.2535 -0.3909 -0.0312
 7830SOL    HW134949   0.214   0.140   4.690 -1.0638 -2.8107  1.5454
 7830SOL    HW234950   0.202   0.200   4.829 -0.9556  1.2152 -1.4753
 7831SOL     OW34951   1.877   3.716   8.498 -0.0761  0.0787  0.1031
 7831SOL    HW134952   1.815   3.677   8.559  0.4673 -3.1883 -1.4312
 7831SOL    HW234953   1.874   3.809   8.521 -0.6664  0.0741  0.0318
 7832SOL     OW34954   0.952   1.724  16.197  0.7631 -0.3452  0.4356
 7832SOL    HW134955   0.861   1.752  16.185  1.2421  1.0175  0.0415
 7832SOL    HW234956   0.958   1.733  16.292  0.4940 -2.6372  0.6747
 7833SOL     OW34957   2.134   0.287   4.405 -0.6144 -0.0017  0.7754
 7833SOL    HW134958   2.226   0.310   4.391  0.0820 -2.2284  1.7198
 7833SOL    HW234959   2.097   0.369   4.372 -2.5810 -1.0044  0.4888
 7834SOL     OW34960   1.626   0.449  15.054 -0.0150 -0.6355  0.1068
 7834SOL    HW134961   1.604   0.366  15.096 -0.5523 -1.0630 -1.0089
 7834SOL    HW234962   1.709   0.456  15.101 -0.0307 -2.3159  0.3794
 7835SOL     OW34963   0.542   0.034   2.976 -0.0568  0.3745  0.2562
 7835SOL    HW134964   0.479   4.704   2.928  1.3199 -0.4870 -0.5893
 7835SOL    HW234965   0.491   0.058   3.053 -1.3510 -2.0324  0.1394
 7836SOL     OW34966   3.334   0.812  12.937  0.0500 -0.2800 -0.2120
 7836SOL    HW134967   3.333   0.779  13.027 -1.4780 -0.8767 -0.4504
 7836SOL    HW234968   3.364   0.902  12.951 -1.0863  0.0525  0.0782
 7837SOL     OW34969   0.249   2.534  14.430 -0.0044 -0.2431  0.5709
 7837SOL    HW134970   0.298   2.467  14.477 -1.6170 -0.7748  1.5101
 7837SOL    HW234971   0.251   2.512  14.337 -1.3115  1.0726  0.2207
 7838SOL     OW34972   2.439   0.224  12.421 -0.3228  0.1087  0.0754
 7838SOL    HW134973   2.363   0.195  12.371 -0.3306  0.8546 -0.3399
 7838SOL    HW234974   2.389   0.290  12.468 -0.7979  0.3783 -0.8058
 7839SOL     OW34975   1.401   0.730   9.880 -0.4137 -0.1420 -0.6681
 7839SOL    HW134976   1.480   0.679   9.895  0.0308  0.9388  0.6830
 7839SOL    HW234977   1.389   0.753   9.972  1.3492 -0.0755 -0.4529
 7840SOL     OW34978   3.602   2.712  17.483  0.0553 -0.2251 -0.0797
 7840SOL    HW134979   3.611   2.630  17.435  0.1937 -0.4930  0.4131
 7840SOL    HW234980   3.649   2.683  17.560 -2.4705 -1.0186  1.1532
 7841SOL     OW34981   0.483   1.172   3.063 -0.3551  0.4099 -0.3054
 7841SOL    HW134982   0.551   1.143   3.125 -0.0838 -0.2405 -0.9185
 7841SOL    HW234983   0.512   1.263   3.051 -1.5331  0.8277 -0.0292
 7842SOL     OW34984   1.625   4.590   3.689  0.4271 -0.3722 -0.0854
 7842SOL    HW134985   1.599   4.519   3.630  2.3093 -0.2490 -1.0356
 7842SOL    HW234986   1.616   4.666   3.632 -1.6956 -0.5917 -0.0444
 7843SOL     OW34987   2.471   2.150  10.622  0.4757  0.4423  0.1934
 7843SOL    HW134988   2.461   2.085  10.552  1.6900 -0.4664  0.8450
 7843SOL    HW234989   2.387   2.144  10.667  1.0737  0.2330  1.2824
 7844SOL     OW34990   2.504   3.995   3.386 -0.0603  0.0500 -0.0988
 7844SOL    HW134991   2.455   4.069   3.422  1.3059  0.0924  1.6391
 7844SOL    HW234992   2.556   4.034   3.316 -3.5884 -1.0469 -3.3287
 7845SOL     OW34993   2.257   1.794   8.178 -0.0265 -0.2385  0.0651
 7845SOL    HW134994   2.169   1.812   8.210 -0.6742 -1.7420 -0.8681
 7845SOL    HW234995   2.253   1.704   8.211 -0.9160  0.3145  1.4863
 7846SOL     OW34996   1.976   2.659   7.122 -0.4435 -0.2962 -0.5942
 7846SOL    HW134997   1.966   2.577   7.171  1.3982 -0.6909 -0.8860
 7846SOL    HW234998   2.056   2.698   7.157 -1.3595  1.3675 -0.3500
 7847SOL     OW34999   1.180   4.534   0.205 -0.3025 -0.2912 -0.4226
 7847SOL    HW135000   1.162   4.573   0.120 -1.2750  2.4793  1.0752
 7847SOL    HW235001   1.274   4.552   0.203 -0.0495 -1.6010 -0.3272
 7848SOL     OW35002   1.207   0.894  15.587  0.1023 -0.6192  0.1319
 7848SOL    HW135003   1.186   0.808  15.551 -1.1310 -1.2761  2.3666
 7848SOL    HW235004   1.170   0.961  15.529  0.4352  0.3491  1.0246
 7849SOL     OW35005   0.812   3.574   7.211 -0.3851  0.3901 -0.1448
 7849SOL    HW135006   0.772   3.498   7.253 -2.6089  0.0508 -2.8185
 7849SOL    HW235007   0.896   3.535   7.187 -0.5517 -1.1575  1.7744
 7850SOL     OW35008   4.253   0.560  12.278  0.3515 -0.0261 -0.0244
 7850SOL    HW135009   4.283   0.511  12.202  0.7319  2.5963 -1.5532
 7850SOL    HW235010   4.159   0.539  12.281 -0.4444  3.5062  0.1093
 7851SOL     OW35011   0.939   3.094   9.057 -0.2109 -0.2220  0.8821
 7851SOL    HW135012   0.854   3.109   9.016 -0.3960  2.0355  2.1511
 7851SOL    HW235013   0.923   3.110   9.149  0.8952 -4.8712  1.8956
 7852SOL     OW35014   2.809   1.038   5.111  0.0928  0.0905 -0.0248
 7852SOL    HW135015   2.783   0.950   5.137  2.3109 -0.5355  0.0480
 7852SOL    HW235016   2.775   1.044   5.022  1.3546 -0.1864 -0.5260
 7853SOL     OW35017   4.008   0.758   0.475 -0.2007 -0.3689 -0.0513
 7853SOL    HW135018   3.974   0.725   0.558  0.3085 -1.1068 -0.1380
 7853SOL    HW235019   4.089   0.799   0.506 -1.4643  0.7886  1.7559
 7854SOL     OW35020   0.682   0.744   8.521 -0.5422  0.1295 -0.2314
 7854SOL    HW135021   0.704   0.651   8.511 -1.3871 -0.3529  2.6811
 7854SOL    HW235022   0.663   0.749   8.614  0.3562  0.6994 -0.0793
 7855SOL     OW35023   3.738   2.873  11.364 -0.2218  0.3505  0.0043
 7855SOL    HW135024   3.695   2.859  11.280  1.7019 -1.5168 -0.6862
 7855SOL    HW235025   3.828   2.892  11.336  0.6843 -1.7383  1.4684
 7856SOL     OW35026   0.867   4.438   2.602 -0.3532 -0.0070 -0.0591
 7856SOL    HW135027   0.958   4.438   2.572 -0.8104 -0.7605 -1.4445
 7856SOL    HW235028   0.832   4.503   2.541  0.3894 -0.2972 -0.7864
 7857SOL     OW35029   2.375   3.198  14.730 -0.9185 -0.5883  0.0417
 7857SOL    HW135030   2.331   3.128  14.682 -1.8274  0.3391 -0.4763
 7857SOL    HW235031   2.463   3.162  14.747 -1.0597 -0.1568  1.6226
 7858SOL     OW35032   4.333   3.854   9.494  0.4048 -0.6730 -0.0021
 7858SOL    HW135033   4.314   3.782   9.434  1.3168 -1.4377  0.6386
 7858SOL    HW235034   4.335   3.921   9.426 -0.4886 -1.5595 -0.9067
 7859SOL     OW35035   3.174   2.946  15.731 -0.1933  0.6974  0.9258
 7859SOL    HW135036   3.188   3.005  15.804 -2.9517  0.2157  1.8372
 7859SOL    HW235037   3.194   3.004  15.658  2.8213 -0.2173  1.0310
 7860SOL     OW35038   1.829   3.980   3.398 -0.1050 -0.0668  0.5654
 7860SOL    HW135039   1.827   4.066   3.440  2.8242  1.0569 -1.5786
 7860SOL    HW235040   1.749   3.940   3.431 -1.5559  2.4291  0.0781
 7861SOL     OW35041   3.412   3.222   3.383 -0.2057 -0.0142 -0.3222
 7861SOL    HW135042   3.391   3.299   3.330 -2.5126 -1.8092 -1.9716
 7861SOL    HW235043   3.399   3.152   3.318 -1.7884 -0.4022  0.4177
 7862SOL     OW35044   0.959   1.506  12.989 -0.2295 -0.1462  0.6084
 7862SOL    HW135045   1.043   1.508  13.034  0.5556  0.6841 -0.8967
 7862SOL    HW235046   0.919   1.573  13.045 -0.1616  0.4531 -0.0628
 7863SOL     OW35047   4.374   1.748   3.232 -0.2690 -0.4176  0.0782
 7863SOL    HW135048   4.435   1.703   3.173 -0.1547  2.1097 -1.6946
 7863SOL    HW235049   4.427   1.823   3.259 -0.7212  0.5458 -1.7520
 7864SOL     OW35050   1.055   0.542  11.612  0.1082 -0.1582  0.2784
 7864SOL    HW135051   1.142   0.531  11.572 -0.0980 -1.0385  0.0881
 7864SOL    HW235052   0.995   0.539  11.538 -0.1103 -0.2534  0.4623
 7865SOL     OW35053   2.836   0.999   0.457 -0.3509 -0.4416  0.1196
 7865SOL    HW135054   2.858   0.984   0.549  0.3993 -0.6304 -0.0928
 7865SOL    HW235055   2.916   1.000   0.406 -0.4101 -0.1017  0.0278
 7866SOL     OW35056   2.614   1.400   9.023 -0.7096 -0.1063  0.4034
 7866SOL    HW135057   2.698   1.357   9.039  0.6291  2.4754  0.2706
 7866SOL    HW235058   2.593   1.423   9.114  0.5179  0.9856  0.4099
 7867SOL     OW35059   3.808   2.381  11.887 -0.0076  0.0634  0.5371
 7867SOL    HW135060   3.736   2.435  11.919  0.8129  0.5732  1.4948
 7867SOL    HW235061   3.875   2.433  11.931  0.1846 -1.4965  2.1033
 7868SOL     OW35062   3.639   0.711   8.071 -0.2416  0.4284  0.2708
 7868SOL    HW135063   3.568   0.755   8.118  0.0206 -0.4112  1.4607
 7868SOL    HW235064   3.634   0.625   8.114 -3.2660 -0.2907 -1.5516
 7869SOL     OW35065   1.461   4.214  15.709  0.0231 -0.5172 -0.6411
 7869SOL    HW135066   1.388   4.156  15.731  0.6570 -1.5840 -1.3474
 7869SOL    HW235067   1.444   4.237  15.618 -0.8358 -0.5243 -0.4896
 7870SOL     OW35068   1.891   2.348   8.718  0.2691  0.0799 -0.4606
 7870SOL    HW135069   1.825   2.418   8.713  0.8727  0.5479 -1.8539
 7870SOL    HW235070   1.965   2.404   8.738  0.1218  0.3607 -0.7070
 7871SOL     OW35071   1.656   2.386   7.369 -0.1152  0.0754 -0.2809
 7871SOL    HW135072   1.589   2.365   7.303  1.8123 -1.4774 -1.7084
 7871SOL    HW235073   1.607   2.460   7.406 -1.2011 -0.4921 -0.5870
 7872SOL     OW35074   0.253   2.287   3.092 -0.7947 -0.2877 -0.5075
 7872SOL    HW135075   0.177   2.316   3.143  0.1841  1.3938 -0.0282
 7872SOL    HW235076   0.254   2.352   3.022  1.1125  0.1864 -0.0338
 7873SOL     OW35077   0.086   1.954  14.130 -0.1024 -0.0066  0.0449
 7873SOL    HW135078   0.030   1.993  14.198 -1.2949 -1.3283 -0.1663
 7873SOL    HW235079   0.138   2.028  14.099  1.5082 -1.3911 -0.5360
 7874SOL     OW35080   3.307   0.823   4.496 -0.1823 -0.3688 -0.3525
 7874SOL    HW135081   3.378   0.887   4.501 -0.7796  0.3139 -0.5305
 7874SOL    HW235082   3.246   0.873   4.441  0.6188  3.1477  1.9737
 7875SOL     OW35083   2.536   1.481  16.981 -0.4784 -0.2391  0.0140
 7875SOL    HW135084   2.530   1.556  17.040  0.4727 -0.3467  0.2560
 7875SOL    HW235085   2.446   1.451  16.978 -1.0428  1.4508  0.1886
 7876SOL     OW35086   1.993   0.455   5.056  0.2761 -0.3974  0.4203
 7876SOL    HW135087   1.952   0.513   4.991  0.3845  0.7313  1.3453
 7876SOL    HW235088   1.959   0.368   5.040 -2.0186  1.0798 -2.6567
 7877SOL     OW35089   1.657   0.703   5.726  0.0124  0.1006 -0.2422
 7877SOL    HW135090   1.696   0.661   5.802  0.5540  0.6079 -0.2402
 7877SOL    HW235091   1.637   0.623   5.676  2.0344 -0.7678  0.3630
 7878SOL     OW35092   3.300   2.412   5.980 -0.2731  0.3273  0.1020
 7878SOL    HW135093   3.271   2.414   6.071  1.5883 -1.8143  0.7570
 7878SOL    HW235094   3.248   2.485   5.946  1.0407  1.6681  0.9938
 7879SOL     OW35095   0.613   3.088   5.280 -0.0732  0.1693  0.8214
 7879SOL    HW135096   0.534   3.034   5.272  0.8133 -1.5596  4.1852
 7879SOL    HW235097   0.619   3.097   5.184  4.2056  2.2592  1.3108
 7880SOL     OW35098   3.491   0.199   7.161 -0.6529  0.4096 -0.3539
 7880SOL    HW135099   3.466   0.200   7.254 -3.2048  0.3709 -1.0477
 7880SOL    HW235100   3.555   0.269   7.158 -0.9767  0.7604  0.7752
 7881SOL     OW35101   0.894   3.748  17.217  0.5631 -0.1231  0.6457
 7881SOL    HW135102   0.915   3.784  17.303 -1.3268 -2.1288  1.9369
 7881SOL    HW235103   0.903   3.827  17.163  2.4312  0.2020  1.4347
 7882SOL     OW35104   2.927   1.867   8.863  0.0327  0.5656 -0.1530
 7882SOL    HW135105   2.944   1.775   8.882  0.9091  1.0093  1.1952
 7882SOL    HW235106   2.887   1.899   8.944  1.8272 -1.3481  1.4791
 7883SOL     OW35107   2.730   0.795  10.112 -0.2242 -0.3958  0.5197
 7883SOL    HW135108   2.813   0.839  10.131  1.3637 -2.0307 -2.5531
 7883SOL    HW235109   2.754   0.705  10.134  2.4034  0.5640  1.6367
 7884SOL     OW35110   1.997   4.230  11.966  0.2093  0.3296  0.0214
 7884SOL    HW135111   2.003   4.313  11.919  0.3319  0.6794  0.6517
 7884SOL    HW235112   2.021   4.267  12.051 -1.8266  0.1598  0.6782
 7885SOL     OW35113   4.713   1.797   1.003  0.3057 -0.1253  0.4604
 7885SOL    HW135114   4.688   1.764   0.916  2.7152 -0.8738  0.0413
 7885SOL    HW235115   0.040   1.877   0.987  0.0776 -0.5182 -2.2456
 7886SOL     OW35116   3.087   3.329   4.434 -0.3199  0.4500  0.1524
 7886SOL    HW135117   3.138   3.268   4.381  1.6965  0.8361  1.6372
 7886SOL    HW235118   3.104   3.290   4.519 -1.2803 -0.4116 -0.0554
 7887SOL     OW35119   2.785   4.540   0.729  0.4320 -0.7582 -0.9876
 7887SOL    HW135120   2.798   4.563   0.821 -1.1586 -0.4043 -0.8645
 7887SOL    HW235121   2.712   4.599   0.711  0.9754  0.0974 -0.4064
 7888SOL     OW35122   4.029   2.062  16.893 -0.2084  0.0564  0.4459
 7888SOL    HW135123   4.124   2.058  16.897 -0.1931  1.8535  1.8148
 7888SOL    HW235124   4.004   1.972  16.916 -1.8166 -0.0346 -1.6163
 7889SOL     OW35125   0.260   4.641  14.238 -0.0827 -0.3136 -0.0400
 7889SOL    HW135126   0.320   4.583  14.285 -1.8116 -1.7345  0.3756
 7889SOL    HW235127   0.292   0.002  14.272  1.2726 -0.5953 -0.5952
 7890SOL     OW35128   3.601   3.182   1.364  0.1946 -0.2639  0.4655
 7890SOL    HW135129   3.686   3.167   1.405 -0.3486 -0.3906  1.5475
 7890SOL    HW235130   3.592   3.270   1.400 -1.8601 -0.6775  0.9886
 7891SOL     OW35131   0.248   1.242  17.532 -0.0243 -0.2407  0.1271
 7891SOL    HW135132   0.297   1.178  17.481 -1.5294 -1.2806 -0.0195
 7891SOL    HW235133   0.229   1.194  17.613  2.3521 -0.5927  0.4919
 7892SOL     OW35134   2.440   2.964   5.192  0.3694 -0.1903 -0.3266
 7892SOL    HW135135   2.380   3.011   5.134  1.7338  1.1134 -0.6728
 7892SOL    HW235136   2.502   3.034   5.211  1.0107 -0.6183 -0.8607
 7893SOL     OW35137   2.535   1.265   5.359  0.0601  0.2338 -0.0536
 7893SOL    HW135138   2.460   1.324   5.352 -0.4896 -0.4887 -0.2086
 7893SOL    HW235139   2.595   1.307   5.296 -0.3473  2.3942  0.9897
 7894SOL     OW35140   4.172   3.461   2.406  0.5463  0.0724  0.1265
 7894SOL    HW135141   4.081   3.479   2.430  0.4099  1.5346 -1.4991
 7894SOL    HW235142   4.169   3.515   2.327  0.0169 -0.0694  0.0457
 7895SOL     OW35143   4.447   2.865   7.173  0.2489  0.7136  0.4721
 7895SOL    HW135144   4.419   2.922   7.101 -2.0998 -0.2648  0.6069
 7895SOL    HW235145   4.542   2.871   7.170  0.1881  0.9854 -0.9093
 7896SOL     OW35146   4.429   0.280  12.696 -0.5196  0.1065  0.3867
 7896SOL    HW135147   4.365   0.214  12.721 -0.0869 -0.7257 -0.6555
 7896SOL    HW235148   4.367   0.349  12.674 -1.3385 -0.5676  0.5634
 7897SOL     OW35149   1.607   1.459   3.408  0.5070 -0.3330 -0.5720
 7897SOL    HW135150   1.544   1.387   3.418 -0.1941  0.4604  0.7803
 7897SOL    HW235151   1.593   1.509   3.489  2.0877  1.0299 -1.1553
 7898SOL     OW35152   3.245   1.271   8.663  0.1684 -0.4939  0.9470
 7898SOL    HW135153   3.340   1.267   8.649  0.1140  2.0508 -0.0686
 7898SOL    HW235154   3.212   1.334   8.599 -1.1576 -2.7822 -0.6488
 7899SOL     OW35155   0.359   1.605  13.257  0.1904 -0.6305 -0.2480
 7899SOL    HW135156   0.372   1.678  13.318 -0.5610 -0.6705 -0.0437
 7899SOL    HW235157   0.266   1.583  13.267 -0.3479  0.6830 -2.4507
 7900SOL     OW35158   3.646   4.288   0.238 -0.3696 -0.6495  0.2791
 7900SOL    HW135159   3.689   4.286   0.153 -2.0870  3.5716 -0.7014
 7900SOL    HW235160   3.711   4.331   0.293  0.5048 -1.1638 -0.3640
 7901SOL     OW35161   2.061   3.217  12.164 -0.4808  0.0419 -0.1712
 7901SOL    HW135162   2.012   3.233  12.245 -0.5903 -2.4803  0.2532
 7901SOL    HW235163   2.150   3.216  12.198 -0.0037 -0.6413 -1.4446
 7902SOL     OW35164   0.609   1.300  16.094  0.1057  0.7836 -0.5471
 7902SOL    HW135165   0.693   1.308  16.048  0.9244 -0.2674  0.7690
 7902SOL    HW235166   0.624   1.350  16.174 -1.4131  1.2585 -0.5524
 7903SOL     OW35167   0.967   3.084   0.654 -0.3309  0.2541  0.2305
 7903SOL    HW135168   1.022   3.007   0.639 -1.5898 -0.7361  0.6929
 7903SOL    HW235169   0.948   3.060   0.745  1.5271  1.2337  0.8597
 7904SOL     OW35170   4.129   0.683   9.002  0.4313 -0.0312  0.4738
 7904SOL    HW135171   4.123   0.593   8.970  0.2156  0.0680  0.2382
 7904SOL    HW235172   4.217   0.698   8.966  0.9250 -1.1195  1.2324
 7905SOL     OW35173   2.099   0.862   8.859  0.5615  0.3434 -0.4613
 7905SOL    HW135174   2.179   0.883   8.810 -0.1869 -0.4107 -2.0182
 7905SOL    HW235175   2.132   0.778   8.890 -1.3309  0.1009  0.8515
 7906SOL     OW35176   4.249   2.732  12.836 -0.3431 -0.0699 -0.4830
 7906SOL    HW135177   4.183   2.798  12.856  0.5193  0.7806 -0.4644
 7906SOL    HW235178   4.297   2.780  12.768  4.1716 -0.8253  2.1991
 7907SOL     OW35179   0.734   2.727   6.896 -0.0053 -0.3063  0.3405
 7907SOL    HW135180   0.708   2.818   6.910  1.1657 -0.0916  1.1126
 7907SOL    HW235181   0.648   2.687   6.883 -0.2253 -0.3752  2.0119
 7908SOL     OW35182   3.702   1.908   1.428  0.2004 -0.0310  0.4498
 7908SOL    HW135183   3.698   1.918   1.523  1.8333 -1.8357  0.7083
 7908SOL    HW235184   3.659   1.988   1.398 -2.4351 -1.1442  1.2225
 7909SOL     OW35185   4.718   0.136   2.738  0.3477 -0.3367  0.0880
 7909SOL    HW135186   4.629   0.165   2.757  0.7542  1.2944 -0.5497
 7909SOL    HW235187   0.016   0.184   2.658 -0.2764  0.6260  0.5029
 7910SOL     OW35188   4.297   2.260  11.937 -0.0394 -1.1125  0.2537
 7910SOL    HW135189   4.362   2.279  11.870  0.0738 -1.8576  0.1500
 7910SOL    HW235190   4.341   2.215  12.009 -0.7754 -0.2660  1.2468
 7911SOL     OW35191   0.415   4.525   2.137 -0.2676 -0.1343 -0.6661
 7911SOL    HW135192   0.332   4.527   2.186 -1.2444  1.7097 -2.4268
 7911SOL    HW235193   0.420   4.434   2.106 -1.7846 -0.7391  0.8166
 7912SOL     OW35194   1.929   3.431   5.939 -0.1894  0.6242  0.6458
 7912SOL    HW135195   1.925   3.400   5.849 -2.0049  1.1006  0.5780
 7912SOL    HW235196   1.984   3.508   5.920  1.5244 -0.9336 -0.7258
 7913SOL     OW35197   2.399   4.472  11.780  0.7352  0.0912  0.6810
 7913SOL    HW135198   2.351   4.442  11.702  3.7846 -0.6138 -0.9132
 7913SOL    HW235199   2.326   4.523  11.815  1.3931  2.3140 -1.2664
 7914SOL     OW35200   2.033   3.930  11.353 -0.2227  0.4042  0.0034
 7914SOL    HW135201   2.102   3.881  11.398 -0.6213  0.3709  0.5792
 7914SOL    HW235202   2.040   3.892  11.266 -0.4972  0.3229  0.0169
 7915SOL     OW35203   0.315   0.542  11.931  0.5635  0.0255  0.1363
 7915SOL    HW135204   0.371   0.607  11.975  1.1129  0.1456 -0.7370
 7915SOL    HW235205   0.287   0.587  11.852 -0.2609 -1.4254 -0.3839
 7916SOL     OW35206   3.028   3.603  16.567 -0.5463 -0.6121 -0.4153
 7916SOL    HW135207   3.030   3.509  16.555 -3.5361 -0.5193 -1.7401
 7916SOL    HW235208   2.972   3.629  16.493  0.8075  0.6557 -0.9988
 7917SOL     OW35209   3.056   0.426   5.429  0.1617  0.0837  0.4052
 7917SOL    HW135210   3.132   0.414   5.373  1.0638  3.1703  0.9591
 7917SOL    HW235211   3.025   0.512   5.398 -1.5852 -0.4138  0.7368
 7918SOL     OW35212   0.541   1.999   6.454  0.1170  0.0544 -0.1831
 7918SOL    HW135213   0.488   2.046   6.391 -1.6367  0.7676  1.8343
 7918SOL    HW235214   0.521   2.033   6.541 -0.8246 -1.5904  0.2566
 7919SOL     OW35215   2.917   0.596  10.100 -0.4576  0.1636 -0.0831
 7919SOL    HW135216   3.003   0.579  10.140  0.5449  3.2459 -0.9072
 7919SOL    HW235217   2.896   0.512  10.060  1.2129 -0.5108  0.4411
 7920SOL     OW35218   0.298   1.326   3.805 -0.3791  0.2825  0.5553
 7920SOL    HW135219   0.326   1.370   3.725 -0.9678 -1.5687 -0.6772
 7920SOL    HW235220   0.202   1.328   3.797 -0.4588 -2.1434  0.9735
 7921SOL     OW35221   3.726   0.337  10.551 -0.1636 -0.2586  0.1590
 7921SOL    HW135222   3.790   0.307  10.486 -2.0412 -0.8361 -1.4461
 7921SOL    HW235223   3.679   0.403  10.499 -2.2539 -1.6073  0.3772
 7922SOL     OW35224   0.541   4.251  17.536  0.1317 -0.2601 -0.1725
 7922SOL    HW135225   0.559   4.345  17.528 -0.7219 -0.1462 -0.7293
 7922SOL    HW235226   0.456   4.251  17.493 -0.0192 -3.1892  0.1117
 7923SOL     OW35227   0.956   0.712   1.011  0.4376 -0.4041 -0.1819
 7923SOL    HW135228   0.903   0.648   1.059  0.2277 -0.7622 -0.9002
 7923SOL    HW235229   1.011   0.757   1.075  0.2694 -0.6154  0.1136
 7924SOL     OW35230   2.544   2.452   4.220  0.1122  0.2062  0.1600
 7924SOL    HW135231   2.562   2.546   4.229  0.4594  0.1588 -0.0401
 7924SOL    HW235232   2.543   2.443   4.125  2.5782  2.2166 -0.0877
 7925SOL     OW35233   0.349   4.108   1.275  0.2957 -0.4922  0.5947
 7925SOL    HW135234   0.329   4.109   1.368 -0.2817 -0.7238  0.4729
 7925SOL    HW235235   0.444   4.093   1.277  0.2530 -0.7409  0.6884
 7926SOL     OW35236   0.479   1.545   6.120 -0.3709 -0.1045 -0.5753
 7926SOL    HW135237   0.466   1.511   6.209 -2.5868  0.7333 -0.5851
 7926SOL    HW235238   0.527   1.471   6.083  1.0479 -0.1625  1.3284
 7927SOL     OW35239   3.921   4.100   4.446  0.5746  0.0433  0.4323
 7927SOL    HW135240   4.005   4.141   4.467  0.1334  0.1743  1.9392
 7927SOL    HW235241   3.869   4.176   4.469 -0.5939 -0.0644 -1.8207
 7928SOL     OW35242   2.498   3.324   5.668 -0.4113  0.7003  0.0812
 7928SOL    HW135243   2.471   3.233   5.681  1.5158  0.3506  1.5289
 7928SOL    HW235244   2.411   3.363   5.672 -0.0240  1.6989 -1.3264
 7929SOL     OW35245   3.022   0.590   1.482 -0.0936 -0.2718  0.5882
 7929SOL    HW135246   2.982   0.671   1.513  0.2332  0.3400 -0.6206
 7929SOL    HW235247   2.950   0.529   1.497 -0.2670 -0.5931 -1.5778
 7930SOL     OW35248   3.684   0.212   8.200  0.0171 -0.0045 -0.6553
 7930SOL    HW135249   3.754   0.166   8.155 -0.9332 -1.6020 -0.4938
 7930SOL    HW235250   3.642   0.153   8.263 -1.9276  1.5762 -0.4597
 7931SOL     OW35251   2.117   4.464   1.641 -0.1149 -0.1409 -0.1786
 7931SOL    HW135252   2.165   4.535   1.598  0.8394 -0.1715  0.8467
 7931SOL    HW235253   2.180   4.432   1.705 -0.0090 -0.0791 -0.2518
 7932SOL     OW35254   1.061   0.626   4.275 -0.2101  0.3522  0.5594
 7932SOL    HW135255   0.976   0.587   4.296 -0.0276 -0.3129  0.0724
 7932SOL    HW235256   1.121   0.555   4.254 -1.5998 -1.2550  1.9750
 7933SOL     OW35257   2.410   1.741   3.036  0.1333  0.5285  0.2546
 7933SOL    HW135258   2.481   1.805   3.043  3.0984 -2.7482 -0.0490
 7933SOL    HW235259   2.446   1.677   2.975  0.9154  2.1607 -0.9821
 7934SOL     OW35260   3.981   1.307  13.825 -0.1918 -0.2981  0.5251
 7934SOL    HW135261   3.929   1.351  13.758  1.3899  0.2205 -0.3610
 7934SOL    HW235262   3.945   1.219  13.832  1.6095 -1.0569  0.3115
 7935SOL     OW35263   2.692   1.242   4.331 -0.3216 -0.7435  0.4318
 7935SOL    HW135264   2.707   1.267   4.239  2.7819 -1.7252  0.6790
 7935SOL    HW235265   2.775   1.200   4.355 -0.9853 -0.1465  3.6224
 7936SOL     OW35266   4.703   2.236   8.046  0.4233  0.9764 -0.2537
 7936SOL    HW135267   4.706   2.145   8.076  0.1755  0.1748 -2.6455
 7936SOL    HW235268   4.663   2.275   8.123 -1.6582  0.2138 -0.9641
 7937SOL     OW35269   0.659   1.605   0.698 -0.5387  0.1435 -0.2754
 7937SOL    HW135270   0.610   1.578   0.776  1.4406 -1.0702  0.5478
 7937SOL    HW235271   0.628   1.696   0.693 -1.3698 -0.0255  1.7229
 7938SOL     OW35272   2.937   2.378   3.535  0.3276  0.3268 -0.3702
 7938SOL    HW135273   2.989   2.350   3.610  1.6618 -0.3635 -1.5374
 7938SOL    HW235274   2.867   2.423   3.583 -0.3100  1.4691 -2.3736
 7939SOL     OW35275   0.293   1.765  13.467 -0.0442  0.4947  0.2372
 7939SOL    HW135276   0.300   1.743  13.560 -0.8601 -0.7528  0.0063
 7939SOL    HW235277   0.214   1.715  13.445 -0.6969  0.8334  1.8241
 7940SOL     OW35278   3.303   0.595   2.926 -0.0649  0.2446  0.2688
 7940SOL    HW135279   3.273   0.686   2.929 -1.0166  0.0190 -2.2380
 7940SOL    HW235280   3.294   0.586   2.831  0.4678  0.0992  0.2296
 7941SOL     OW35281   3.598   1.019  12.004  0.6591  0.7249  0.5119
 7941SOL    HW135282   3.594   1.007  11.909 -0.0061  1.6028  0.4244
 7941SOL    HW235283   3.694   1.024  12.011  0.9161 -1.9371 -1.1502
 7942SOL     OW35284   0.836   2.392   5.497  0.1183  0.0255 -0.3360
 7942SOL    HW135285   0.799   2.416   5.583  0.2276 -2.3047  0.3732
 7942SOL    HW235286   0.769   2.434   5.444  0.6674  1.1273 -0.1374
 7943SOL     OW35287   1.338   0.188   3.585  0.1601 -0.5427  0.5792
 7943SOL    HW135288   1.415   0.160   3.537 -1.0362  0.6930 -2.0674
 7943SOL    HW235289   1.386   0.221   3.662  2.2600  2.0788 -1.8550
 7944SOL     OW35290   0.697   4.576   4.781  0.5624  0.3056 -0.3859
 7944SOL    HW135291   0.702   4.654   4.836  2.5708  0.8184 -1.3025
 7944SOL    HW235292   0.785   4.538   4.771  0.2818 -1.3750  3.3612
 7945SOL     OW35293   0.362   2.150   3.317  0.0959  0.0381  0.1545
 7945SOL    HW135294   0.325   2.197   3.242  3.2651 -0.2888 -1.6179
 7945SOL    HW235295   0.457   2.162   3.313 -0.1755  0.7086 -4.3605
 7946SOL     OW35296   0.346   0.880   7.372  0.1272  0.1211 -0.2170
 7946SOL    HW135297   0.254   0.893   7.346  0.9522  0.7753 -2.8071
 7946SOL    HW235298   0.386   0.960   7.339  3.2908 -1.3503  0.0316
 7947SOL     OW35299   2.670   3.307   6.628  0.5580  0.8761 -0.2225
 7947SOL    HW135300   2.588   3.355   6.640 -0.6647 -0.6567 -2.5470
 7947SOL    HW235301   2.626   3.237   6.676 -0.1634 -0.2685 -2.5720
 7948SOL     OW35302   1.006   2.874   9.711  0.0971 -0.3067  0.2145
 7948SOL    HW135303   0.950   2.804   9.677 -1.0300  0.8777 -0.3938
 7948SOL    HW235304   0.968   2.889   9.798  3.4914  0.4214  1.5803
 7949SOL     OW35305   0.398   2.361   9.077  0.1960 -0.0119 -0.2677
 7949SOL    HW135306   0.489   2.332   9.068 -0.2254 -1.6089  0.5276
 7949SOL    HW235307   0.403   2.437   9.019 -0.2699  0.8225  0.7923
 7950SOL     OW35308   3.248   1.097   8.168 -0.0884  0.1221  0.2878
 7950SOL    HW135309   3.294   1.173   8.203  1.5742 -0.2126 -1.1692
 7950SOL    HW235310   3.170   1.117   8.219 -0.2319 -1.1661  0.5667
 7951SOL     OW35311   3.698   0.212   9.152  0.2010  0.1926  0.3215
 7951SOL    HW135312   3.696   0.250   9.064 -1.6139 -0.2805  0.1646
 7951SOL    HW235313   3.632   0.143   9.144  1.0021 -0.5492  0.0013
 7952SOL     OW35314   2.665   2.214   7.141 -0.0381  0.2320  0.0251
 7952SOL    HW135315   2.582   2.259   7.125  0.1815  0.6564  0.0660
 7952SOL    HW235316   2.657   2.181   7.231 -0.8988  0.5579  0.0720
 7953SOL     OW35317   0.383   1.884  12.752 -0.0945 -0.4737 -0.2629
 7953SOL    HW135318   0.344   1.799  12.731 -1.4013  0.3057 -0.9489
 7953SOL    HW235319   0.386   1.937  12.673  0.5471  0.3126  0.2880
 7954SOL     OW35320   1.345   2.121   3.889 -0.2560 -0.5644 -0.0143
 7954SOL    HW135321   1.364   2.133   3.796 -1.2271 -0.2202 -0.1596
 7954SOL    HW235322   1.402   2.192   3.917 -0.5287 -0.6538  0.7737
 7955SOL     OW35323   0.724   1.942   9.858 -0.1557  0.1184  0.1671
 7955SOL    HW135324   0.679   1.862   9.884 -1.6422 -0.3373 -3.7791
 7955SOL    HW235325   0.650   1.998   9.833 -0.2437 -0.3437 -0.6153
 7956SOL     OW35326   1.445   3.908  13.907 -0.5604  1.1895 -0.5257
 7956SOL    HW135327   1.396   3.955  13.839 -1.3949  2.4690  0.9730
 7956SOL    HW235328   1.481   3.835  13.856 -0.6544  0.6639  0.1582
 7957SOL     OW35329   4.722   1.190   3.969  0.1535  0.2024  0.0976
 7957SOL    HW135330   4.723   1.227   3.881  0.8802  0.0082  0.0196
 7957SOL    HW235331   4.698   1.103   3.936  3.7884 -0.5633 -0.5611
 7958SOL     OW35332   2.758   3.697   6.461  0.0138  0.2911  0.0495
 7958SOL    HW135333   2.709   3.777   6.445  0.8306  0.5377 -1.2938
 7958SOL    HW235334   2.688   3.636   6.436  1.6791 -0.1087 -3.6253
 7959SOL     OW35335   2.266   2.336  14.510  0.0659  0.0104 -0.1128
 7959SOL    HW135336   2.256   2.252  14.465  0.3286  0.5831 -1.2596
 7959SOL    HW235337   2.190   2.387  14.479 -0.4005  0.2981  1.5128
 7960SOL     OW35338   0.023   2.091   5.813  0.4042 -0.0351  0.4218
 7960SOL    HW135339   0.024   2.027   5.884  1.2099 -0.0356  0.4178
 7960SOL    HW235340   4.684   2.161   5.833 -0.6826 -0.6278 -0.9586
 7961SOL     OW35341   0.437   3.729   9.392  0.4171  0.3741 -0.3046
 7961SOL    HW135342   0.401   3.643   9.370 -0.0223  0.5870 -0.4268
 7961SOL    HW235343   0.361   3.788   9.400  1.1087  1.3021 -0.6652
 7962SOL     OW35344   2.199   2.274   9.045  0.2948 -0.1584  0.0272
 7962SOL    HW135345   2.127   2.334   9.062  2.4827  1.8152  2.2246
 7962SOL    HW235346   2.157   2.188   9.035  0.3011 -0.2004  0.3694
 7963SOL     OW35347   4.336   4.676   2.651  0.0483 -0.1984  0.4229
 7963SOL    HW135348   4.406   4.612   2.656 -0.1103 -0.4388 -0.3686
 7963SOL    HW235349   4.318   4.675   2.557  1.9785  0.0772  0.0634
 7964SOL     OW35350   2.650   3.934   6.444 -0.0257  0.0047  0.1071
 7964SOL    HW135351   2.601   3.925   6.526 -0.4215  1.0211 -0.0126
 7964SOL    HW235352   2.602   3.997   6.389  2.1182  2.7210  1.3250
 7965SOL     OW35353   4.467   1.592   8.765  0.3882  0.2705 -0.0813
 7965SOL    HW135354   4.552   1.577   8.726  0.1251 -1.2080 -0.0924
 7965SOL    HW235355   4.403   1.562   8.700 -2.3458  4.3746  0.7445
 7966SOL     OW35356   0.778   4.027   5.730 -0.4108  0.1931  0.3406
 7966SOL    HW135357   0.856   4.068   5.692  0.0826  0.8556  2.0962
 7966SOL    HW235358   0.761   4.089   5.801 -1.8436 -0.2873  0.4187
 7967SOL     OW35359   1.302   0.259   0.939  0.0100 -0.2226  0.6561
 7967SOL    HW135360   1.343   0.290   1.020  0.2643  1.2276 -0.0126
 7967SOL    HW235361   1.254   0.337   0.910  1.4775  0.3819 -0.1273
 7968SOL     OW35362   3.023   3.962   3.567 -0.8974 -0.3403  0.6514
 7968SOL    HW135363   2.970   4.041   3.570 -1.4420 -0.6853 -0.1439
 7968SOL    HW235364   2.952   3.898   3.574 -2.5809  1.3894 -0.9177
 7969SOL     OW35365   0.860   0.209   3.034 -0.1695  0.4237  0.0961
 7969SOL    HW135366   0.862   0.263   2.955  3.5562  2.7889  1.8293
 7969SOL    HW235367   0.851   0.277   3.101  0.1557  0.9279 -0.3648
 7970SOL     OW35368   2.154   2.908   7.516  0.2535 -0.6435 -0.1537
 7970SOL    HW135369   2.162   2.902   7.421  2.2530 -1.3881  0.0445
 7970SOL    HW235370   2.243   2.891   7.548  1.0512  2.4754 -0.7220
 7971SOL     OW35371   2.190   1.100  11.737 -0.1146  0.3424 -0.1521
 7971SOL    HW135372   2.137   1.085  11.659  1.5482 -0.1718 -1.1887
 7971SOL    HW235373   2.127   1.099  11.809  0.3196  0.2950  0.2265
 7972SOL     OW35374   1.317   3.152  17.319 -0.0311  0.5487  0.4037
 7972SOL    HW135375   1.384   3.107  17.267 -0.6501 -1.3407  1.2134
 7972SOL    HW235376   1.375   3.221  17.351  2.8871  0.1519 -4.0155
 7973SOL     OW35377   0.449   3.590  13.883 -0.3944 -0.3031  0.1071
 7973SOL    HW135378   0.428   3.550  13.799 -0.0250  1.3173 -0.7599
 7973SOL    HW235379   0.386   3.662  13.881  0.4555  0.4158 -0.9921
 7974SOL     OW35380   1.057   3.692   6.248 -0.3151 -0.5909  0.4065
 7974SOL    HW135381   1.083   3.636   6.175  0.3803 -0.6368  0.6899
 7974SOL    HW235382   1.128   3.693   6.312  0.7513 -0.5889 -0.7895
 7975SOL     OW35383   0.397   1.220   9.011 -0.2896  0.0954 -0.0298
 7975SOL    HW135384   0.306   1.237   9.036  0.2948  1.4680  1.2105
 7975SOL    HW235385   0.402   1.278   8.935  2.2275 -0.5435 -0.3505
 7976SOL     OW35386   4.340   1.668   8.501  0.3235 -0.2159 -0.1636
 7976SOL    HW135387   4.307   1.708   8.581 -0.8969  0.8621 -1.1961
 7976SOL    HW235388   4.256   1.655   8.456  0.0442  0.6512  0.1059
 7977SOL     OW35389   0.726   4.364   3.609 -0.1486 -0.3199  0.0559
 7977SOL    HW135390   0.705   4.298   3.542 -3.2937  1.1852 -0.4586
 7977SOL    HW235391   0.663   4.436   3.608 -1.0309 -1.1186 -1.8313
 7978SOL     OW35392   0.657   1.218  12.025  0.3067 -0.3786 -0.4950
 7978SOL    HW135393   0.644   1.310  12.050 -1.1302 -0.6127 -0.4025
 7978SOL    HW235394   0.731   1.192  12.081 -0.7396 -1.0744  0.5559
 7979SOL     OW35395   0.988   1.721   8.911  0.4721  0.4824  0.5412
 7979SOL    HW135396   0.986   1.788   8.843 -1.1602  0.7826  0.8814
 7979SOL    HW235397   0.980   1.646   8.852  0.2607  2.0407 -1.4186
 7980SOL     OW35398   4.642   3.504   5.169  0.2240  0.5556 -0.1109
 7980SOL    HW135399   4.629   3.457   5.251 -0.4888  0.7742 -0.0968
 7980SOL    HW235400   4.630   3.434   5.105 -0.6046  1.0419 -0.5003
 7981SOL     OW35401   3.790   2.682   6.710  0.0730 -0.1826 -0.1163
 7981SOL    HW135402   3.794   2.744   6.637  0.1682 -1.1208 -0.8981
 7981SOL    HW235403   3.824   2.598   6.678  0.1231 -0.7873  1.5400
 7982SOL     OW35404   2.561   0.897   6.196  0.0223  0.1972  0.6214
 7982SOL    HW135405   2.516   0.857   6.271 -3.1185  0.4336 -1.1257
 7982SOL    HW235406   2.601   0.973   6.239  0.7119  0.0640  0.2201
 7983SOL     OW35407   1.163   1.801  10.489 -0.6469 -0.5106  0.4324
 7983SOL    HW135408   1.175   1.787  10.395 -1.7078 -0.7753  0.3315
 7983SOL    HW235409   1.127   1.890  10.484  0.0494 -0.2048  1.0541
 7984SOL     OW35410   2.303   0.202   6.407 -0.2427 -0.2850 -0.1210
 7984SOL    HW135411   2.387   0.243   6.429  0.3632 -1.5755 -0.0317
 7984SOL    HW235412   2.256   0.286   6.398  0.4951  0.2791  1.2992
 7985SOL     OW35413   2.004   1.112  17.260  0.0337  0.3364 -0.1559
 7985SOL    HW135414   2.042   1.024  17.255 -1.2571 -0.2574  0.5105
 7985SOL    HW235415   2.070   1.168  17.219 -0.0700  0.0764 -0.6812
 7986SOL     OW35416   1.015   2.881  16.237 -0.0887  0.5193  0.3582
 7986SOL    HW135417   1.097   2.912  16.197 -0.0928  0.9269  0.6678
 7986SOL    HW235418   1.046   2.793  16.261  1.0050  0.4342 -1.3473
 7987SOL     OW35419   3.954   3.131  17.596  0.2820  0.1896  0.2191
 7987SOL    HW135420   3.916   3.052  17.634  1.0017 -1.2288 -2.0373
 7987SOL    HW235421   4.046   3.127  17.618  0.6081  0.7054 -1.0412
 7988SOL     OW35422   0.974   1.264   9.145  0.0037  0.1171 -0.3786
 7988SOL    HW135423   0.902   1.325   9.132  0.9920  1.5861  1.0862
 7988SOL    HW235424   0.978   1.262   9.241  0.8641  1.3668 -0.3808
 7989SOL     OW35425   3.249   1.809  14.950  0.1672 -0.6172 -0.3594
 7989SOL    HW135426   3.165   1.841  14.915 -0.3426 -2.4532 -0.7850
 7989SOL    HW235427   3.216   1.766  15.029  0.6933 -1.3000 -0.5183
 7990SOL     OW35428   2.112   1.776   7.044  0.3259 -0.6112  0.4353
 7990SOL    HW135429   2.181   1.710   7.058  1.5717  0.9266  1.5841
 7990SOL    HW235430   2.082   1.752   6.956  0.2889 -1.6185  0.7176
 7991SOL     OW35431   2.690   0.016   0.883  0.0295 -0.3602  0.0319
 7991SOL    HW135432   2.759   0.050   0.939  0.8188 -1.4664 -0.2851
 7991SOL    HW235433   2.626   4.710   0.947 -1.4856  0.4184 -1.1071
 7992SOL     OW35434   4.374   4.667   1.201  0.1631 -0.0009  0.1746
 7992SOL    HW135435   4.398   4.690   1.111  0.8927  0.4514  0.4844
 7992SOL    HW235436   4.337   0.030   1.222 -1.3252 -0.7504  0.6444
 7993SOL     OW35437   3.343   0.545   9.490  0.0530  0.4640 -0.0094
 7993SOL    HW135438   3.256   0.586   9.482 -1.1064 -1.5804  2.0009
 7993SOL    HW235439   3.366   0.587   9.574 -0.4401  0.4718  0.1273
 7994SOL     OW35440   2.298   3.800  14.869  0.1676  0.1508  0.3200
 7994SOL    HW135441   2.349   3.747  14.808  0.1059  0.4044  0.0481
 7994SOL    HW235442   2.335   3.884  14.844 -0.9910  0.6818  0.3782
 7995SOL     OW35443   0.765   4.564   3.854  0.5907 -0.2562  0.3995
 7995SOL    HW135444   0.716   4.562   3.771 -0.9824  1.3559  1.2938
 7995SOL    HW235445   0.704   4.521   3.914  0.7135 -0.1910  0.5691
 7996SOL     OW35446   3.132   0.970  15.602  0.2318  0.3808  0.3108
 7996SOL    HW135447   3.170   0.934  15.522 -0.8374 -0.0434 -0.0035
 7996SOL    HW235448   3.210   0.980  15.657  0.4415  1.6432 -0.2148
 7997SOL     OW35449   1.854   0.876  16.804 -0.3318  0.1036 -0.1499
 7997SOL    HW135450   1.948   0.893  16.796 -0.1173 -1.1788 -0.2858
 7997SOL    HW235451   1.816   0.964  16.813 -1.4707 -0.4794  0.7947
 7998SOL     OW35452   2.489   1.393  12.411  0.4722  0.0394 -0.2137
 7998SOL    HW135453   2.473   1.453  12.338  1.9293 -1.2848 -1.6104
 7998SOL    HW235454   2.571   1.347  12.392  1.4162  1.1937  1.0669
 7999SOL     OW35455   1.332   0.967   0.376 -0.2695 -0.7242 -0.3821
 7999SOL    HW135456   1.328   0.919   0.293 -0.6503  1.4832 -1.6478
 7999SOL    HW235457   1.403   1.026   0.351  0.6373 -1.7881 -0.3160
 8000SOL     OW35458   4.124   0.183   4.578 -0.4394  0.4229 -0.2911
 8000SOL    HW135459   4.167   0.167   4.662 -1.9762  1.2085  0.6326
 8000SOL    HW235460   4.035   0.154   4.599 -0.8117  0.1409 -2.2658
 8001SOL     OW35461   2.106   1.188   2.942 -0.2889  0.3273 -0.0632
 8001SOL    HW135462   2.025   1.206   2.895 -0.6909  2.2703  1.3838
 8001SOL    HW235463   2.114   1.269   2.992  0.4474  0.8041 -0.9542
 8002SOL     OW35464   1.078   3.813   9.947  0.1248  0.3754  0.2931
 8002SOL    HW135465   1.161   3.802   9.993  0.1111 -1.0672 -0.0488
 8002SOL    HW235466   1.022   3.847  10.017  2.3771  1.2020  1.6851
 8003SOL     OW35467   1.604   0.631   2.117  0.0921  0.4673 -0.5141
 8003SOL    HW135468   1.694   0.605   2.136 -0.1752  0.8435  1.2415
 8003SOL    HW235469   1.611   0.722   2.086  0.3421  0.5156 -0.3105
 8004SOL     OW35470   4.330   1.994  15.903 -0.1129 -0.5193  0.5443
 8004SOL    HW135471   4.279   2.071  15.929  1.4545  0.9071 -0.6897
 8004SOL    HW235472   4.289   1.944  15.974 -0.1640 -0.6840  0.3986
 8005SOL     OW35473   3.072   2.292   4.863 -0.3051 -0.4983  0.1864
 8005SOL    HW135474   3.122   2.224   4.907 -0.0580 -0.7842 -0.5353
 8005SOL    HW235475   3.015   2.243   4.803 -1.8992  2.2437 -0.5550
 8006SOL     OW35476   2.692   2.333  16.039 -0.3476  0.1875  0.0938
 8006SOL    HW135477   2.671   2.256  15.986 -0.6458  0.7186 -0.5637
 8006SOL    HW235478   2.720   2.293  16.121  1.0155  1.1689  0.1076
 8007SOL     OW35479   4.266   0.124  14.356  0.4139 -0.1218 -0.1807
 8007SOL    HW135480   4.234   0.039  14.325  1.3094 -1.8268  3.5373
 8007SOL    HW235481   4.236   0.121  14.447  0.6668 -0.8350 -0.1261
 8008SOL     OW35482   2.824   4.101   2.238 -0.5331  0.0176  0.0506
 8008SOL    HW135483   2.834   4.141   2.152  2.3429 -1.0647 -0.1020
 8008SOL    HW235484   2.915   4.092   2.265 -0.3155  1.1365 -0.3087
 8009SOL     OW35485   3.676   0.151  10.125 -0.0985  0.1752 -0.6248
 8009SOL    HW135486   3.598   0.141  10.180  0.3501 -1.0283 -0.1918
 8009SOL    HW235487   3.735   0.099  10.180 -0.6771 -0.9209 -1.0347
 8010SOL     OW35488   3.624   2.199   9.322 -0.3580  0.2404 -0.2525
 8010SOL    HW135489   3.685   2.215   9.393  0.6307  0.5425 -1.1646
 8010SOL    HW235490   3.669   2.119   9.296  0.4406  0.6471 -0.1262
 8011SOL     OW35491   3.207   1.051   2.465  0.5940 -0.4956  0.1413
 8011SOL    HW135492   3.292   1.027   2.428  0.7340 -0.3324  0.3648
 8011SOL    HW235493   3.227   1.047   2.558 -1.3704 -0.3949  0.5653
 8012SOL     OW35494   2.094   3.160  17.109  0.5036 -0.0618 -0.3482
 8012SOL    HW135495   2.134   3.093  17.166  1.4218 -0.0603 -0.9975
 8012SOL    HW235496   2.099   3.124  17.021  1.7398 -3.5073  1.1051
 8013SOL     OW35497   0.147   2.095  15.899 -0.2378  0.1719  0.1196
 8013SOL    HW135498   0.180   2.162  15.838 -1.8156  1.1755  0.3615
 8013SOL    HW235499   0.233   2.078  15.936 -0.7182 -4.0064 -0.7263
 8014SOL     OW35500   3.401   0.655   5.247 -0.3171  0.3155 -0.0011
 8014SOL    HW135501   3.433   0.745   5.240 -0.8071  0.4302 -0.7447
 8014SOL    HW235502   3.318   0.675   5.289 -0.4940 -1.2706  0.4099
 8015SOL     OW35503   0.108   4.178   8.175  0.2112 -0.0709 -0.2401
 8015SOL    HW135504   0.137   4.089   8.155 -0.7073 -0.3673 -0.2880
 8015SOL    HW235505   0.189   4.223   8.153  0.9150 -0.6314  1.2766
 8016SOL     OW35506   2.370   1.212  13.898  0.2744  0.4282 -0.2982
 8016SOL    HW135507   2.416   1.145  13.847  0.8716  1.0339 -0.5570
 8016SOL    HW235508   2.360   1.156  13.975 -1.5673  0.0736 -0.7940
 8017SOL     OW35509   4.704   3.854   8.868 -0.4371  0.0175  0.2513
 8017SOL    HW135510   0.070   3.887   8.878 -0.0140 -0.7604 -0.9436
 8017SOL    HW235511   4.710   3.821   8.778  3.7510  0.2770  0.4012
 8018SOL     OW35512   4.252   3.808   3.816  0.4688  0.2423  0.6924
 8018SOL    HW135513   4.347   3.805   3.812  0.3918  0.9210 -1.7254
 8018SOL    HW235514   4.229   3.883   3.760  2.6849  0.3607 -0.0509
 8019SOL     OW35515   3.918   1.460   2.358 -0.3340  0.1172 -0.2176
 8019SOL    HW135516   3.996   1.404   2.369 -0.8583 -0.8284 -1.3900
 8019SOL    HW235517   3.876   1.433   2.277  0.3324  2.1374 -1.2105
 8020SOL     OW35518   3.234   2.778   6.833  0.2744 -0.0205  0.4685
 8020SOL    HW135519   3.204   2.687   6.834  0.0922  0.0368 -0.5314
 8020SOL    HW235520   3.288   2.785   6.913 -0.3794 -1.2839  1.0145
 8021SOL     OW35521   2.082   2.367   7.556 -0.8131 -0.5516 -0.2022
 8021SOL    HW135522   1.988   2.346   7.559 -1.4560  2.1784 -1.1035
 8021SOL    HW235523   2.072   2.441   7.495 -1.3002 -0.3118  0.1641
 8022SOL     OW35524   2.671   3.243   1.391  0.0079  0.0627  0.6889
 8022SOL    HW135525   2.686   3.149   1.393  1.9653  0.3537 -0.3719
 8022SOL    HW235526   2.753   3.281   1.361  0.2445 -0.6062  0.4978
 8023SOL     OW35527   1.122   3.126  13.178 -0.4202  0.4087 -0.4046
 8023SOL    HW135528   1.047   3.084  13.219 -0.6519 -0.3224 -1.5803
 8023SOL    HW235529   1.079   3.183  13.114 -0.5783 -1.2436 -1.7568
 8024SOL     OW35530   2.673   4.204   1.951  0.0279 -0.0584 -0.3416
 8024SOL    HW135531   2.697   4.293   1.926 -1.3392  0.0794 -1.1151
 8024SOL    HW235532   2.610   4.222   2.021  2.1037  0.6115  1.3666
 8025SOL     OW35533   3.931   3.472  17.246  0.8254  0.7556 -0.1449
 8025SOL    HW135534   3.905   3.403  17.307 -0.3952  0.0446 -1.4530
 8025SOL    HW235535   3.897   3.552  17.286 -2.1855  0.0601 -1.2725
 8026SOL     OW35536   3.781   1.508   9.063 -0.0627 -0.3163 -0.5087
 8026SOL    HW135537   3.809   1.419   9.082  1.1991 -0.0189 -1.0143
 8026SOL    HW235538   3.747   1.484   8.977 -1.8165 -1.0119  0.3792
 8027SOL     OW35539   3.567   3.160  17.316 -0.1065  0.4315 -0.2642
 8027SOL    HW135540   3.536   3.074  17.343 -1.1005  1.6142  2.3324
 8027SOL    HW235541   3.585   3.146  17.223  3.5270  0.8738  0.3785
 8028SOL     OW35542   4.614   3.794   4.561 -0.2127 -0.0140  0.1100
 8028SOL    HW135543   4.609   3.882   4.523  1.6033 -0.3112 -0.8587
 8028SOL    HW235544   4.547   3.759   4.502  2.9683 -0.4679 -3.2652
 8029SOL     OW35545   3.075   2.541   1.110  0.3438 -0.0137  0.1231
 8029SOL    HW135546   2.988   2.543   1.070  0.3956 -0.5197 -0.0117
 8029SOL    HW235547   3.081   2.628   1.151  0.3325 -0.2298  0.5820
 8030SOL     OW35548   3.118   2.585   0.778 -0.0653 -0.0029  0.2246
 8030SOL    HW135549   3.047   2.538   0.821  1.7360 -1.4105  1.6215
 8030SOL    HW235550   3.164   2.509   0.742  1.7654  0.4115  1.6877
 8031SOL     OW35551   3.735   0.841   6.292  0.1229  0.2942 -0.6145
 8031SOL    HW135552   3.793   0.870   6.363 -1.2023 -1.7116  1.3091
 8031SOL    HW235553   3.800   0.825   6.224 -0.3391 -0.6241 -0.8343
 8032SOL     OW35554   0.364   3.182   9.758  0.0062 -0.1308 -0.2444
 8032SOL    HW135555   0.324   3.241   9.694 -0.7985  2.6439  2.8005
 8032SOL    HW235556   0.289   3.138   9.798 -0.2138  1.6842  1.3383
 8033SOL     OW35557   3.675   4.173   1.065  0.2071  0.2986 -0.3545
 8033SOL    HW135558   3.742   4.128   1.014  3.4523  1.0616  3.2288
 8033SOL    HW235559   3.664   4.247   1.005  0.9747  0.8040  0.1277
 8034SOL     OW35560   1.976   4.186  11.336  0.0227 -0.0750 -0.2087
 8034SOL    HW135561   1.885   4.157  11.329  0.2219 -1.1903  1.7306
 8034SOL    HW235562   2.013   4.098  11.341  1.5463  0.7329  2.2630
 8035SOL     OW35563   2.483   3.557   4.511 -0.6014 -0.7592  1.0220
 8035SOL    HW135564   2.462   3.477   4.462 -0.3417  0.3749 -0.9367
 8035SOL    HW235565   2.489   3.513   4.596 -1.0602 -0.9651  0.9473
 8036SOL     OW35566   3.332   4.247   8.276 -0.9844  0.1051 -0.0596
 8036SOL    HW135567   3.243   4.256   8.241 -2.2066 -2.6840  2.3469
 8036SOL    HW235568   3.384   4.291   8.209 -2.3689  1.1267 -0.4852
 8037SOL     OW35569   0.383   0.270   0.676  0.8661 -0.2421  0.2866
 8037SOL    HW135570   0.360   0.353   0.719  0.7271  0.3174 -0.8642
 8037SOL    HW235571   0.468   0.289   0.637  1.0221 -3.3787 -0.8609
 8038SOL     OW35572   1.375   0.134  10.665  0.0506 -0.0416  0.0838
 8038SOL    HW135573   1.469   0.120  10.676 -0.0315  0.4140  1.4380
 8038SOL    HW235574   1.349   0.164  10.753 -0.3577  1.1841 -0.4543
 8039SOL     OW35575   2.955   2.002   6.270  0.1165  0.4089  0.0505
 8039SOL    HW135576   3.006   1.964   6.198 -1.7559 -1.4898 -0.2665
 8039SOL    HW235577   2.892   2.051   6.217 -1.4419 -0.5656  1.0206
 8040SOL     OW35578   1.891   3.575   3.833 -0.0836 -0.5516  0.4564
 8040SOL    HW135579   1.891   3.519   3.911 -1.0214 -0.1563  0.7395
 8040SOL    HW235580   1.984   3.592   3.819 -0.2718  0.4464  0.4573
 8041SOL     OW35581   3.167   1.496   2.708 -0.0802  0.1566 -0.6706
 8041SOL    HW135582   3.226   1.532   2.774  2.4792  0.5405 -3.1565
 8041SOL    HW235583   3.139   1.573   2.659  3.7096  1.3341 -1.0452
 8042SOL     OW35584   2.850   3.284   2.747 -0.1256 -0.2281 -0.3551
 8042SOL    HW135585   2.884   3.265   2.834  0.5525 -1.1389 -0.8115
 8042SOL    HW235586   2.886   3.213   2.693  1.0417 -0.5161  0.8202
 8043SOL     OW35587   0.062   3.990   5.535  0.6732 -0.4722 -0.2363
 8043SOL    HW135588   4.698   4.017   5.563  1.1085 -0.0888  0.7559
 8043SOL    HW235589   0.045   3.914   5.481  0.3931  0.3477 -1.2942
 8044SOL     OW35590   4.161   3.370   6.576 -0.3274 -0.0790  0.3053
 8044SOL    HW135591   4.237   3.341   6.627  1.4450  3.0943 -0.5635
 8044SOL    HW235592   4.159   3.308   6.503  2.0251 -0.0080  0.1905
 8045SOL     OW35593   3.095   1.907   2.987 -0.0368 -0.1748 -0.4185
 8045SOL    HW135594   3.170   1.898   3.045  2.2360 -1.2777 -3.5447
 8045SOL    HW235595   3.032   1.948   3.046 -0.7734 -0.4333 -1.0263
 8046SOL     OW35596   2.890   2.896   0.209 -0.8648 -0.1569  0.3744
 8046SOL    HW135597   2.965   2.837   0.211  0.1846  1.1977  0.9095
 8046SOL    HW235598   2.896   2.947   0.128 -1.8647  0.7716  0.8818
 8047SOL     OW35599   0.841   1.067  17.060 -0.3029 -0.2604 -0.0407
 8047SOL    HW135600   0.760   1.084  17.109 -1.1752  0.2168 -1.6292
 8047SOL    HW235601   0.904   1.118  17.109 -0.5836  0.2213 -0.1789
 8048SOL     OW35602   0.246   1.592   8.054 -0.1519 -0.1311 -0.4346
 8048SOL    HW135603   0.337   1.591   8.084 -0.3484  3.8103  0.2217
 8048SOL    HW235604   0.235   1.679   8.015  1.4235  0.1183 -0.3018
 8049SOL     OW35605   2.218   0.333   1.363 -0.3437 -0.7137 -0.0690
 8049SOL    HW135606   2.157   0.379   1.306  0.6742 -0.4490 -0.9407
 8049SOL    HW235607   2.269   0.401   1.407  0.3445 -0.5880 -1.0728
 8050SOL     OW35608   3.876   0.910   8.756  0.3793  0.4342  0.5217
 8050SOL    HW135609   3.858   0.874   8.843 -1.9972  0.5905  0.1017
 8050SOL    HW235610   3.914   0.831   8.718 -0.5881  0.2793 -0.1314
 8051SOL     OW35611   3.889   2.467   6.975 -0.1250 -0.2336  0.1543
 8051SOL    HW135612   3.808   2.434   6.935 -0.4263  1.0621 -0.2795
 8051SOL    HW235613   3.950   2.432   6.910 -0.9810  0.2242 -0.8855
 8052SOL     OW35614   1.724   2.582   6.415  0.0667 -0.2295 -0.2740
 8052SOL    HW135615   1.807   2.621   6.440 -0.9491  1.1338  0.9185
 8052SOL    HW235616   1.670   2.613   6.488 -1.5264  1.1648 -2.0570
 8053SOL     OW35617   4.621   3.141  15.696  0.0677  0.5494  0.4518
 8053SOL    HW135618   4.541   3.116  15.743 -0.1698 -0.2379 -0.3628
 8053SOL    HW235619   4.677   3.071  15.731  0.7468  0.4955 -0.7562
 8054SOL     OW35620   0.600   3.584   5.594 -0.5052 -0.0922 -0.1209
 8054SOL    HW135621   0.505   3.574   5.600 -0.3711 -0.3569  1.7578
 8054SOL    HW235622   0.609   3.673   5.627 -1.9377  0.2479 -0.6580
 8055SOL     OW35623   3.054   3.836   5.921 -0.4768 -0.1193 -0.3080
 8055SOL    HW135624   3.002   3.810   5.997  0.0163  2.3891  0.9029
 8055SOL    HW235625   3.020   3.772   5.858  1.1486 -2.5303  1.2906
 8056SOL     OW35626   1.634   1.002   4.721 -0.2918  0.3101 -0.4748
 8056SOL    HW135627   1.718   1.018   4.764 -0.7675  0.2914  0.4591
 8056SOL    HW235628   1.579   0.980   4.796  2.4614 -2.0987  0.8717
 8057SOL     OW35629   1.988   3.420  14.547  0.1430  0.3229  0.0030
 8057SOL    HW135630   1.899   3.419  14.511  0.3094  1.5204 -0.4514
 8057SOL    HW235631   2.018   3.338  14.508  1.6675 -0.4184  2.7675
 8058SOL     OW35632   0.130   0.669   4.930 -0.0211 -0.1852  0.2743
 8058SOL    HW135633   0.074   0.595   4.954 -0.0006 -0.0696  0.6757
 8058SOL    HW235634   0.191   0.679   5.004 -0.9415 -0.2730  1.0406
 8059SOL     OW35635   0.757   3.847   9.639  0.0049 -0.1694 -0.7216
 8059SOL    HW135636   0.737   3.792   9.715  1.0081 -1.6224 -1.5130
 8059SOL    HW235637   0.740   3.933   9.676 -0.9275 -0.9614  0.7146
 8060SOL     OW35638   2.244   3.573   9.924 -0.9858 -0.9991  0.6527
 8060SOL    HW135639   2.291   3.591  10.005 -0.6442  0.9570  0.0290
 8060SOL    HW235640   2.263   3.480   9.917  1.5851 -0.5503  1.5599
 8061SOL     OW35641   2.192   2.116  14.358  0.3649 -0.5165  0.1733
 8061SOL    HW135642   2.141   2.037  14.372  1.3266 -1.0987  0.3981
 8061SOL    HW235643   2.190   2.122  14.262 -1.3223 -1.9428  0.1145
 8062SOL     OW35644   3.360   0.775   8.424 -0.8858  0.4512  0.5872
 8062SOL    HW135645   3.365   0.870   8.428 -0.0025  0.6111 -4.0161
 8062SOL    HW235646   3.287   0.760   8.484 -0.5458 -0.9489  0.6628
 8063SOL     OW35647   2.641   0.373   0.855  0.0093  0.0779 -0.1331
 8063SOL    HW135648   2.589   0.328   0.788  1.8036  0.9140 -2.0787
 8063SOL    HW235649   2.640   0.307   0.924  1.8853 -0.8861 -1.0043
 8064SOL     OW35650   2.988   0.404  12.833 -0.3502 -0.6064  0.2199
 8064SOL    HW135651   3.012   0.324  12.786  2.3847  0.9460 -1.0534
 8064SOL    HW235652   2.952   0.453  12.758 -1.3820  0.3008  1.3175
 8065SOL     OW35653   2.249   4.129   8.550 -0.4657 -0.1668  0.1635
 8065SOL    HW135654   2.314   4.188   8.511 -0.2358 -0.9484 -0.6086
 8065SOL    HW235655   2.254   4.147   8.644  1.0085  1.1302 -0.1510
 8066SOL     OW35656   1.906   3.522   5.024 -0.1021 -0.0408  0.0501
 8066SOL    HW135657   1.885   3.429   5.014  0.5536 -0.0740 -1.0394
 8066SOL    HW235658   1.996   3.533   4.991 -1.4149  2.1438 -2.8009
 8067SOL     OW35659   0.113   4.656   0.498 -0.0087 -0.5834  0.2582
 8067SOL    HW135660   0.082   0.017   0.466  0.1765 -1.5780 -2.5676
 8067SOL    HW235661   0.049   4.601   0.452 -0.6998 -0.8451  1.5357
 8068SOL     OW35662   1.386   0.106  11.201 -0.0554  0.3515 -0.2852
 8068SOL    HW135663   1.355   0.095  11.111  0.9028  0.5613 -0.6420
 8068SOL    HW235664   1.459   0.166  11.185  0.3235 -0.6122 -2.2162
 8069SOL     OW35665   3.644   0.519   5.357  0.4442 -0.0799  0.3005
 8069SOL    HW135666   3.690   0.550   5.279 -0.6666  1.1037  0.1115
 8069SOL    HW235667   3.558   0.561   5.353  1.3653  1.6893 -0.9678
 8070SOL     OW35668   4.283   1.638   7.308  0.2675  0.3153 -0.3700
 8070SOL    HW135669   4.300   1.562   7.364  2.5094  0.2581 -1.1380
 8070SOL    HW235670   4.192   1.652   7.335  0.7532 -1.0809  2.0204
 8071SOL     OW35671   2.341   1.392   7.955  0.5310  0.2672 -0.0993
 8071SOL    HW135672   2.265   1.433   7.914 -1.2663 -2.1689  0.7875
 8071SOL    HW235673   2.300   1.364   8.037  1.5633 -0.2285  0.2460
 8072SOL     OW35674   2.383   1.706   4.848  0.6427  0.8061 -0.6854
 8072SOL    HW135675   2.460   1.673   4.802 -2.1620 -1.8236 -3.4685
 8072SOL    HW235676   2.410   1.797   4.852 -0.9020  1.2619 -0.5706
 8073SOL     OW35677   0.413   0.047   5.384  0.2225 -0.5994 -0.0058
 8073SOL    HW135678   0.329   0.052   5.339  0.1317  3.4960  0.5648
 8073SOL    HW235679   0.442   0.131   5.347 -1.1199  0.8210  2.1981
 8074SOL     OW35680   3.598   4.219   6.771 -0.1472  0.1573  0.1908
 8074SOL    HW135681   3.585   4.144   6.712 -0.5667  1.1840 -1.0162
 8074SOL    HW235682   3.594   4.179   6.858  0.8839 -0.7620 -0.1805
 8075SOL     OW35683   3.828   3.717   6.752  0.2435  0.6032 -0.6638
 8075SOL    HW135684   3.776   3.695   6.675  0.9464  1.9715 -1.5373
 8075SOL    HW235685   3.768   3.748   6.819 -1.3995 -2.8718 -0.5541
 8076SOL     OW35686   0.337   0.462   8.866 -0.0607 -0.3698  0.0297
 8076SOL    HW135687   0.247   0.429   8.869 -0.3025  0.3136  0.2835
 8076SOL    HW235688   0.362   0.472   8.958  1.4468  2.3510 -0.6822
 8077SOL     OW35689   1.837   4.701   5.941  0.1325  0.6528 -0.0418
 8077SOL    HW135690   1.932   4.685   5.948  0.2818  1.1698 -0.9186
 8077SOL    HW235691   1.804   4.621   5.982 -1.0193  0.2556 -1.7485
 8078SOL     OW35692   0.816   0.894   7.414  0.0182  0.1196 -0.0875
 8078SOL    HW135693   0.727   0.874   7.442  0.0181  0.5894  0.2471
 8078SOL    HW235694   0.835   0.977   7.458  3.1186 -0.7290  0.1313
 8079SOL     OW35695   3.206   3.083   1.138  0.4497 -0.4905  0.4184
 8079SOL    HW135696   3.223   3.107   1.047  2.7296 -0.2060  0.9087
 8079SOL    HW235697   3.138   3.147   1.159  1.5967  0.2062  2.0563
 8080SOL     OW35698   3.634   0.628   4.568 -0.6131 -0.1378  0.5221
 8080SOL    HW135699   3.633   0.644   4.662 -1.2762 -0.0720  0.5014
 8080SOL    HW235700   3.726   0.605   4.556 -0.7738  0.0843 -1.0806
 8081SOL     OW35701   2.897   1.573   8.464 -0.3322 -0.1147  0.2767
 8081SOL    HW135702   2.882   1.578   8.369 -0.0411  3.4399  0.4458
 8081SOL    HW235703   2.902   1.665   8.487 -1.6553  0.3492 -1.2775
 8082SOL     OW35704   3.498   3.206   8.791 -0.0774  0.2903  0.1027
 8082SOL    HW135705   3.450   3.265   8.849 -1.4414 -0.4775 -0.2500
 8082SOL    HW235706   3.506   3.259   8.712 -1.0615  0.9936  0.4778
 8083SOL     OW35707   2.779   3.041   3.933  0.3480 -0.1308 -0.5622
 8083SOL    HW135708   2.845   3.064   3.998  0.3371 -2.3675  0.2297
 8083SOL    HW235709   2.822   2.988   3.866  1.4378  1.6485 -1.2574
 8084SOL     OW35710   0.754   1.393  14.411 -0.0940  0.7023 -0.1700
 8084SOL    HW135711   0.770   1.325  14.477 -0.9856  0.4508 -0.2097
 8084SOL    HW235712   0.820   1.376  14.344 -1.5123 -0.1842 -1.3606
 8085SOL     OW35713   2.894   2.962   1.151 -0.0639 -0.5074  0.1844
 8085SOL    HW135714   2.889   2.927   1.062  0.0392 -1.7748  0.6853
 8085SOL    HW235715   2.923   3.052   1.133  1.9071 -0.9222  1.2516
 8086SOL     OW35716   3.059   2.904   6.624  0.3875 -0.1018 -0.5253
 8086SOL    HW135717   2.979   2.875   6.668 -0.3538  3.6950  0.6414
 8086SOL    HW235718   3.124   2.884   6.691 -0.3925 -1.3904 -0.1501
 8087SOL     OW35719   0.981   0.878  16.871 -0.1062  0.1308 -0.3151
 8087SOL    HW135720   0.909   0.840  16.820 -0.8503  0.0549  0.7915
 8087SOL    HW235721   0.940   0.962  16.895  0.0379  0.3286 -0.7570
 8088SOL     OW35722   1.972   1.636  12.128 -0.4385  0.4366 -0.1613
 8088SOL    HW135723   2.041   1.674  12.182 -0.0629  0.2934 -0.5457
 8088SOL    HW235724   2.021   1.565  12.086 -0.9465 -0.6507  1.0698
 8089SOL     OW35725   4.230   4.323  11.696 -0.0567  0.1611  0.2150
 8089SOL    HW135726   4.293   4.257  11.723  1.0185  0.1258 -2.3273
 8089SOL    HW235727   4.271   4.404  11.725 -2.1679  0.3320  2.7113
 8090SOL     OW35728   1.202   0.811  16.248  0.4863  0.2633  0.1217
 8090SOL    HW135729   1.215   0.722  16.281 -3.0050 -0.2011  0.2058
 8090SOL    HW235730   1.284   0.833  16.203  0.8597 -0.6172  0.3606
 8091SOL     OW35731   0.947   3.923   6.522  0.2268  0.2433  0.1290
 8091SOL    HW135732   0.865   3.878   6.502 -1.1095  2.6205  0.1361
 8091SOL    HW235733   0.962   3.977   6.444 -2.8121 -0.6141 -1.0456
 8092SOL     OW35734   4.013   2.869  13.885 -0.8470 -0.4959 -0.4132
 8092SOL    HW135735   4.076   2.831  13.823  0.4469 -0.0286  0.6295
 8092SOL    HW235736   4.012   2.787  13.934  2.1655 -0.3433 -0.1430
 8093SOL     OW35737   1.193   1.643  16.011  0.0941  0.3549  0.0739
 8093SOL    HW135738   1.157   1.613  15.928 -1.4682  0.8006  0.5866
 8093SOL    HW235739   1.145   1.588  16.073 -0.2327  0.0743 -0.4241
 8094SOL     OW35740   0.686   4.390   2.969  0.6396  0.1882 -0.1693
 8094SOL    HW135741   0.765   4.427   2.929  0.0596 -0.6034 -2.0671
 8094SOL    HW235742   0.723   4.351   3.048 -0.8198 -0.4430  0.1982
 8095SOL     OW35743   1.988   4.448  10.851 -0.1801  0.0225 -0.3462
 8095SOL    HW135744   2.022   4.375  10.903  1.4975  0.3867 -0.9246
 8095SOL    HW235745   2.009   4.526  10.903 -0.1264 -0.8854  0.9995
 8096SOL     OW35746   0.395   1.769   1.966  0.2428 -0.2801 -0.2697
 8096SOL    HW135747   0.305   1.802   1.970 -0.0206 -0.9142 -1.1314
 8096SOL    HW235748   0.423   1.846   1.916 -3.3910  0.0012 -1.8775
 8097SOL     OW35749   0.502   4.081   1.798 -0.1668 -0.2048 -0.3086
 8097SOL    HW135750   0.565   4.146   1.830  0.5668 -1.9826  1.8898
 8097SOL    HW235751   0.505   4.017   1.869  1.4424  1.7296  1.3716
 8098SOL     OW35752   1.081   2.240  12.208  0.0913 -0.1378 -0.2578
 8098SOL    HW135753   1.173   2.219  12.224  0.5649  0.2042 -2.4412
 8098SOL    HW235754   1.079   2.328  12.245 -0.4481  1.0773 -3.1503
 8099SOL     OW35755   1.277   4.070  14.109  0.3086  0.2478  0.6370
 8099SOL    HW135756   1.188   4.052  14.080  1.7993 -3.0493 -1.8409
 8099SOL    HW235757   1.322   3.997  14.067  1.7661 -0.1599  2.9088
 8100SOL     OW35758   4.181   2.804   8.464 -1.0175 -0.3457  0.4951
 8100SOL    HW135759   4.123   2.762   8.527 -0.6080  1.9554  2.4325
 8100SOL    HW235760   4.164   2.754   8.385  0.3793 -1.6756  1.0359
 8101SOL     OW35761   0.292   1.552   7.347 -0.2779  0.1168 -0.4648
 8101SOL    HW135762   0.320   1.489   7.281  0.1046 -0.5407  0.3103
 8101SOL    HW235763   0.207   1.518   7.376 -0.8846  2.2954  0.3357
 8102SOL     OW35764   3.155   3.272   0.379 -0.2770  0.2480  0.1262
 8102SOL    HW135765   3.200   3.353   0.353  0.0927  0.2160  0.6601
 8102SOL    HW235766   3.187   3.198   0.329 -1.3699  0.1058 -0.3509
 8103SOL     OW35767   1.124   2.718   0.944  0.0236 -0.2543  0.3569
 8103SOL    HW135768   1.135   2.764   0.861 -1.1718 -0.7249 -0.0689
 8103SOL    HW235769   1.055   2.776   0.977  0.7774  1.2236 -0.6566
 8104SOL     OW35770   1.105   4.268   5.929  0.1906  0.3158 -0.1184
 8104SOL    HW135771   1.076   4.243   6.017 -0.9712 -0.9784 -0.8652
 8104SOL    HW235772   1.160   4.345   5.944 -0.2009  1.0729 -2.5257
 8105SOL     OW35773   4.170   3.886   5.638  0.0410  0.2440  0.2293
 8105SOL    HW135774   4.182   3.791   5.646  2.3049  0.3644 -1.7201
 8105SOL    HW235775   4.265   3.897   5.635  0.2967 -0.9551  3.9330
 8106SOL     OW35776   2.836   4.465   4.181 -0.1956 -0.0134  0.0554
 8106SOL    HW135777   2.759   4.408   4.184  0.3724 -0.8529 -1.4900
 8106SOL    HW235778   2.895   4.397   4.212 -0.0249 -0.4653 -1.2732
 8107SOL     OW35779   2.458   4.560  12.148  0.0447 -0.2855  0.2101
 8107SOL    HW135780   2.464   4.465  12.150  0.6282 -0.2426  0.3791
 8107SOL    HW235781   2.528   4.580  12.086 -0.6911  1.2176 -0.1473
 8108SOL     OW35782   2.124   3.324   0.882  0.4748 -0.1684  0.0202
 8108SOL    HW135783   2.156   3.354   0.796 -1.8054  1.9453 -0.1014
 8108SOL    HW235784   2.148   3.401   0.934  2.1733 -0.6393 -0.0467
 8109SOL     OW35785   3.466   3.393  17.525  0.7321 -0.7103 -0.0705
 8109SOL    HW135786   3.493   3.301  17.532  0.8410 -0.6470  0.2959
 8109SOL    HW235787   3.401   3.394  17.454  0.7122  0.1741 -0.0369
 8110SOL     OW35788   0.824   0.495  13.741  0.1324  0.7882 -0.0334
 8110SOL    HW135789   0.753   0.454  13.691  0.6709 -0.1056 -0.0578
 8110SOL    HW235790   0.784   0.504  13.828 -0.5136 -0.5852 -0.1824
 8111SOL     OW35791   1.168   1.490   8.475 -0.7028 -0.0814 -0.0489
 8111SOL    HW135792   1.130   1.576   8.492  0.2181  0.2981  0.0931
 8111SOL    HW235793   1.252   1.516   8.439 -0.9637  0.9373  0.0863
 8112SOL     OW35794   1.597   4.672   9.274 -0.1980 -0.3263 -0.5322
 8112SOL    HW135795   1.682   4.716   9.269 -0.1204 -0.6047 -1.5575
 8112SOL    HW235796   1.598   4.622   9.355 -2.2658  1.3327  0.5187
 8113SOL     OW35797   2.779   3.573   4.640 -0.7104  0.0057  0.2071
 8113SOL    HW135798   2.715   3.510   4.671  0.7329 -1.1368  0.8669
 8113SOL    HW235799   2.835   3.585   4.717  0.5163  1.5985 -0.9267
 8114SOL     OW35800   0.812   3.998   7.397  0.1136 -0.6512  0.9459
 8114SOL    HW135801   0.866   4.058   7.449 -1.2241 -0.0430  1.6244
 8114SOL    HW235802   0.774   3.947   7.468 -1.1966 -0.8753  0.0728
 8115SOL     OW35803   2.979   2.345   6.294  0.4043  0.3642 -0.0845
 8115SOL    HW135804   2.947   2.280   6.232  1.1082 -1.2781  1.2940
 8115SOL    HW235805   2.912   2.346   6.362  0.6564 -1.8012  0.1830
 8116SOL     OW35806   1.350   4.042   3.249 -0.3127  0.3814 -0.3790
 8116SOL    HW135807   1.386   4.103   3.185 -1.5332  2.2176  0.6831
 8116SOL    HW235808   1.336   4.109   3.317 -2.0391  1.7202 -2.0494
 8117SOL     OW35809   1.494   0.939   9.754 -0.3888 -0.3159  0.5076
 8117SOL    HW135810   1.469   0.863   9.806 -1.1893  0.3144  1.0565
 8117SOL    HW235811   1.581   0.957   9.790 -0.2879 -1.3289  0.7854
 8118SOL     OW35812   2.576   0.217   3.316  0.2762 -0.2884  0.0615
 8118SOL    HW135813   2.641   0.284   3.292 -0.9054  0.3593 -1.3216
 8118SOL    HW235814   2.531   0.252   3.393 -0.0197 -1.0653  0.2408
 8119SOL     OW35815   0.270   2.935   2.526  0.5103  0.2163 -0.1761
 8119SOL    HW135816   0.229   2.995   2.464 -1.1590  0.9538  1.6419
 8119SOL    HW235817   0.191   2.908   2.572  1.7265 -1.3119  1.0121
 8120SOL     OW35818   3.617   1.745   0.685  0.4281 -0.4560 -0.3933
 8120SOL    HW135819   3.539   1.739   0.630  0.6204 -0.5762 -0.6511
 8120SOL    HW235820   3.658   1.658   0.687 -0.9850 -1.0608  1.7910
 8121SOL     OW35821   0.460   2.412   2.786  0.3689 -0.0467 -0.0081
 8121SOL    HW135822   0.474   2.450   2.700 -2.3963  0.8253 -0.0848
 8121SOL    HW235823   0.391   2.348   2.769 -1.3835  1.6176  0.8698
 8122SOL     OW35824   3.544   2.283   3.296  0.1772 -0.0163  0.1650
 8122SOL    HW135825   3.487   2.316   3.365  1.2252 -0.0939  1.0695
 8122SOL    HW235826   3.625   2.317   3.335 -0.7959  2.1682  0.3151
 8123SOL     OW35827   1.512   4.225  14.328  0.6911 -0.1128 -0.9106
 8123SOL    HW135828   1.586   4.234  14.388  0.2144  1.1007 -0.5154
 8123SOL    HW235829   1.558   4.230  14.244  0.9853  1.2912 -0.6600
 8124SOL     OW35830   0.961   0.476  10.720  0.1344  0.0432  0.7820
 8124SOL    HW135831   1.000   0.564  10.723 -0.5625  0.3738  0.2802
 8124SOL    HW235832   0.878   0.506  10.683  0.0371  0.2201  1.1407
 8125SOL     OW35833   3.659   2.675  11.583  0.1740 -0.7186  0.6274
 8125SOL    HW135834   3.611   2.593  11.590 -1.1461  0.0006  0.0014
 8125SOL    HW235835   3.751   2.651  11.595  0.9348  1.4273 -0.8176
 8126SOL     OW35836   3.652   4.271   2.992 -0.0671 -0.3291 -0.8715
 8126SOL    HW135837   3.652   4.308   2.903  2.9733  1.2405 -0.2297
 8126SOL    HW235838   3.605   4.189   2.982 -2.6295  1.0532 -0.2220
 8127SOL     OW35839   4.439   1.864  14.582 -0.0762  0.5857  0.4815
 8127SOL    HW135840   4.397   1.787  14.620 -0.7974  0.3433 -0.8091
 8127SOL    HW235841   4.414   1.848  14.491 -2.9983 -0.9297  1.5549
 8128SOL     OW35842   1.544   0.221   9.594 -0.0766 -0.0146  0.2822
 8128SOL    HW135843   1.466   0.260   9.635 -1.9039 -0.3992 -2.7864
 8128SOL    HW235844   1.616   0.263   9.640 -1.1409  0.1720  1.7824
 8129SOL     OW35845   2.837   0.562   6.334 -0.0617  0.1393 -0.2462
 8129SOL    HW135846   2.747   0.572   6.365  0.8904  0.3125  2.4701
 8129SOL    HW235847   2.850   0.469   6.356  0.9163  0.1412 -0.8082
 8130SOL     OW35848   3.639   2.054   5.553  0.5347 -0.4784 -0.2186
 8130SOL    HW135849   3.608   2.014   5.472 -2.0991  1.0013  0.0452
 8130SOL    HW235850   3.594   2.004   5.622 -0.3922  0.3973 -0.1898
 8131SOL     OW35851   1.122   1.840   1.896 -0.4643  0.5053 -0.2500
 8131SOL    HW135852   1.035   1.830   1.935  0.0425  2.1032  1.2714
 8131SOL    HW235853   1.177   1.818   1.971 -3.0142  0.4551  1.6171
 8132SOL     OW35854   1.876   2.719   2.245 -0.6307  0.3621  0.4699
 8132SOL    HW135855   1.824   2.676   2.177 -0.6961  0.7010  0.3072
 8132SOL    HW235856   1.915   2.784   2.187  1.1159  0.0190  1.2452
 8133SOL     OW35857   0.597   3.653  16.391  0.4745 -0.2218 -0.3333
 8133SOL    HW135858   0.531   3.651  16.322  1.2782  0.2204 -1.1148
 8133SOL    HW235859   0.667   3.602  16.351  1.1054 -0.3867  0.9532
 8134SOL     OW35860   4.014   2.315   6.806  0.2934  0.4535  0.3990
 8134SOL    HW135861   4.016   2.222   6.829  1.4317  0.2380 -0.5566
 8134SOL    HW235862   3.991   2.312   6.713  0.6368 -1.3222  0.3688
 8135SOL     OW35863   0.907   2.225   4.369  0.2800 -0.1453  0.0062
 8135SOL    HW135864   0.862   2.253   4.449  2.5236 -0.4650  1.4016
 8135SOL    HW235865   0.998   2.226   4.401 -0.3316 -1.1135  1.8097
 8136SOL     OW35866   2.375   4.003   4.813 -0.2020 -0.1187 -0.1650
 8136SOL    HW135867   2.377   3.959   4.728 -1.4339 -0.6023  0.0537
 8136SOL    HW235868   2.381   4.094   4.782 -1.6113 -0.3212 -1.0896
 8137SOL     OW35869   1.724   0.012  13.936 -0.0409 -0.3519 -0.0191
 8137SOL    HW135870   1.788   0.049  13.996  0.4745 -4.7785  2.1421
 8137SOL    HW235871   1.645   0.061  13.958  0.5263  0.1511  0.8989
 8138SOL     OW35872   1.524   1.007   3.464  0.0132  0.4001 -0.0309
 8138SOL    HW135873   1.584   0.937   3.442  0.6148  1.0163 -0.3599
 8138SOL    HW235874   1.450   0.953   3.492  0.9970 -0.4286  0.8961
 8139SOL     OW35875   3.666   2.667   9.848  0.2842 -0.4080 -0.0237
 8139SOL    HW135876   3.683   2.580   9.883 -0.3203 -0.8512 -0.8141
 8139SOL    HW235877   3.571   2.664   9.847  0.2828 -0.0936 -1.1207
 8140SOL     OW35878   1.308   3.297   9.301 -0.3000 -0.0613  0.8473
 8140SOL    HW135879   1.319   3.202   9.313  0.1236 -0.1279 -0.0820
 8140SOL    HW235880   1.214   3.306   9.319 -0.2360 -1.2104  1.7859
 8141SOL     OW35881   0.310   4.016  15.359 -0.0590 -0.1550  0.1088
 8141SOL    HW135882   0.290   3.996  15.268  1.7101 -1.2039 -0.0413
 8141SOL    HW235883   0.393   3.970  15.368 -0.4094 -0.9520 -0.7760
 8142SOL     OW35884   0.600   4.445  13.802  0.3620  0.5003  0.2435
 8142SOL    HW135885   0.668   4.493  13.755  1.0098  0.0782  0.7427
 8142SOL    HW235886   0.651   4.367  13.824  0.8045  0.6490 -0.2441
 8143SOL     OW35887   3.825   2.280   4.763 -0.0656  0.3735 -0.6525
 8143SOL    HW135888   3.865   2.244   4.685  0.6934 -2.8997  1.2660
 8143SOL    HW235889   3.733   2.273   4.737 -0.1491  0.5872 -0.4202
 8144SOL     OW35890   1.692   2.031   5.534 -0.3151 -0.0628 -0.0775
 8144SOL    HW135891   1.605   2.070   5.528 -1.4896 -2.7641 -0.7382
 8144SOL    HW235892   1.680   1.967   5.604  1.3615 -1.0218 -0.6524
 8145SOL     OW35893   2.665   2.803   1.220 -0.2656  0.3348 -0.4758
 8145SOL    HW135894   2.745   2.844   1.186 -0.2048 -0.9186 -1.8328
 8145SOL    HW235895   2.623   2.806   1.135 -0.4287 -2.1422 -0.4660
 8146SOL     OW35896   0.173   4.716  17.048  0.1630 -0.2311  0.2054
 8146SOL    HW135897   0.195   0.001  16.955 -0.1437  0.0401  0.1553
 8146SOL    HW235898   0.165   0.083  17.080  1.0324  0.2232 -0.8175
 8147SOL     OW35899   4.520   2.469   9.991  0.1258  0.1880  0.7863
 8147SOL    HW135900   4.605   2.478   9.949 -1.0703  1.8900 -1.2777
 8147SOL    HW235901   4.531   2.513  10.075 -1.4572  0.1326  1.0348
 8148SOL     OW35902   2.035   3.308   4.299  0.1802  0.1624 -0.1492
 8148SOL    HW135903   1.943   3.302   4.325  0.3777 -0.7694  0.3366
 8148SOL    HW235904   2.062   3.216   4.304 -1.9865 -0.5776 -2.0018
 8149SOL     OW35905   3.195   4.590  16.895 -0.0650  0.6322  0.1199
 8149SOL    HW135906   3.209   4.528  16.966 -0.3506 -2.1821 -2.3060
 8149SOL    HW235907   3.100   4.584  16.902 -0.2404 -0.0830 -2.9270
 8150SOL     OW35908   1.269   1.739   4.888 -0.0300 -0.7308  0.0322
 8150SOL    HW135909   1.354   1.728   4.931  0.9131  0.6913 -1.4851
 8150SOL    HW235910   1.204   1.732   4.959  0.2556 -1.8380  0.1804
 8151SOL     OW35911   3.774   4.015  13.305  0.0713  0.3978  0.1895
 8151SOL    HW135912   3.775   3.922  13.328 -1.1331 -0.1611 -2.0098
 8151SOL    HW235913   3.679   4.028  13.299 -0.0250 -0.1429  0.5064
 8152SOL     OW35914   1.861   4.300   2.634 -0.4457 -0.6220 -0.2060
 8152SOL    HW135915   1.831   4.321   2.545 -1.0484  1.4605  0.4957
 8152SOL    HW235916   1.783   4.251   2.659 -0.5758 -0.0618  0.4977
 8153SOL     OW35917   2.543   0.239   5.356  0.1642 -0.3450 -0.1127
 8153SOL    HW135918   2.611   0.187   5.313  0.2919 -0.0766 -0.2367
 8153SOL    HW235919   2.562   0.229   5.449  0.4575 -0.7876 -0.2171
 8154SOL     OW35920   2.164   2.123   4.677 -0.6934 -0.6814 -0.1844
 8154SOL    HW135921   2.238   2.072   4.710  0.9781  1.5258 -0.5503
 8154SOL    HW235922   2.211   2.181   4.618  0.2555 -1.4422 -0.1823
 8155SOL     OW35923   0.184   3.996   4.751 -0.4921  0.3031  0.0552
 8155SOL    HW135924   0.176   4.081   4.708  2.6364  0.9036  0.6431
 8155SOL    HW235925   0.155   3.930   4.689  0.0121  1.3485 -1.2859
 8156SOL     OW35926   3.378   2.775  17.227 -0.2193 -0.0844 -0.1647
 8156SOL    HW135927   3.311   2.814  17.171  0.3336 -0.2225 -0.9249
 8156SOL    HW235928   3.406   2.695  17.182 -2.0910 -0.8424  0.0095
 8157SOL     OW35929   2.623   1.850   8.425 -0.4343  0.7740 -0.3205
 8157SOL    HW135930   2.640   1.841   8.519  0.7531  0.2217 -0.5877
 8157SOL    HW235931   2.533   1.880   8.426 -0.2902  1.2320 -1.3133
 8158SOL     OW35932   1.310   0.775   7.132 -0.1093 -0.1286  0.0131
 8158SOL    HW135933   1.227   0.822   7.123 -0.2895 -0.7757 -1.6908
 8158SOL    HW235934   1.289   0.722   7.209  0.3000  0.3610  0.4593
 8159SOL     OW35935   0.050   0.264   2.489 -0.2507 -0.1635 -0.4049
 8159SOL    HW135936   0.076   0.185   2.441 -0.3581 -0.4985  0.0946
 8159SOL    HW235937   0.109   0.323   2.442 -0.9241  1.0059  0.2197
 8160SOL     OW35938   3.617   3.174   5.328  0.3609 -0.0438 -0.0586
 8160SOL    HW135939   3.682   3.188   5.397  1.2217  2.8163 -1.4798
 8160SOL    HW235940   3.596   3.080   5.334  1.9702 -0.4779 -1.1687
 8161SOL     OW35941   0.658   3.333  16.497  0.9090 -0.2678 -0.1693
 8161SOL    HW135942   0.639   3.359  16.407 -1.6712 -0.3170  0.3529
 8161SOL    HW235943   0.604   3.394  16.546  0.8156 -0.0511 -0.5387
 8162SOL     OW35944   0.910   0.833   0.224 -1.0082 -0.9960 -0.8664
 8162SOL    HW135945   0.963   0.827   0.304  0.5245  0.7554 -1.7719
 8162SOL    HW235946   0.976   0.793   0.168 -0.3180 -1.3148  0.1765
 8163SOL     OW35947   0.898   2.907   3.092  0.0236 -0.2116 -0.1642
 8163SOL    HW135948   0.971   2.847   3.093 -0.3151 -0.6225 -0.2264
 8163SOL    HW235949   0.910   2.943   3.004  3.5163 -0.6759  0.1398
 8164SOL     OW35950   1.768   1.652   7.998 -0.1852  0.3058 -0.0207
 8164SOL    HW135951   1.863   1.649   7.990 -0.1622 -0.1063  0.4609
 8164SOL    HW235952   1.751   1.654   8.092 -0.4264  2.1069 -0.1087
 8165SOL     OW35953   3.661   3.182   1.989  0.1565  0.2326  0.5238
 8165SOL    HW135954   3.574   3.186   1.950 -0.4919  0.3002  1.9734
 8165SOL    HW235955   3.669   3.087   1.985 -0.1512  0.2463 -0.2796
 8166SOL     OW35956   1.574   2.012   7.372 -0.8143 -0.1664  0.2481
 8166SOL    HW135957   1.643   2.058   7.419 -1.1794 -0.0687  0.6872
 8166SOL    HW235958   1.562   1.943   7.437 -2.3128 -0.1011  0.0378
 8167SOL     OW35959   2.254   3.730  10.671  0.8580  0.3062  0.3235
 8167SOL    HW135960   2.264   3.658  10.735  2.7445 -0.3082 -0.6690
 8167SOL    HW235961   2.160   3.744  10.683  0.9154  1.1811 -0.2946
 8168SOL     OW35962   3.517   1.493  13.196 -0.2817  0.2971  0.3934
 8168SOL    HW135963   3.535   1.447  13.115  4.1886  4.1506 -0.8068
 8168SOL    HW235964   3.425   1.467  13.200 -0.3284  0.5057  0.7592
 8169SOL     OW35965   3.969   4.399  12.364  0.0632  0.3477  0.0150
 8169SOL    HW135966   3.978   4.491  12.337 -3.9967  0.3934 -1.2341
 8169SOL    HW235967   3.919   4.405  12.445 -1.0092  0.1805 -0.6240
 8170SOL     OW35968   3.373   4.264   1.617  0.1489  0.0860  0.3391
 8170SOL    HW135969   3.411   4.176   1.618 -0.5450 -0.1974  1.8591
 8170SOL    HW235970   3.375   4.295   1.707 -1.2454 -1.2222  0.8214
 8171SOL     OW35971   2.273   0.505   8.360  0.8321 -0.1846  0.0644
 8171SOL    HW135972   2.315   0.558   8.292  0.2634  1.3263  0.8784
 8171SOL    HW235973   2.326   0.526   8.437 -4.4823  1.2667  3.3431
 8172SOL     OW35974   4.104   3.652  10.826 -0.6567  0.0485  0.0816
 8172SOL    HW135975   4.168   3.584  10.806 -0.9658 -0.5439  1.1142
 8172SOL    HW235976   4.096   3.647  10.921 -2.7223  3.5839  0.0940
 8173SOL     OW35977   3.378   1.994   1.097 -0.1820 -0.2564  0.3639
 8173SOL    HW135978   3.401   2.060   1.032  0.8024 -1.9488 -1.0109
 8173SOL    HW235979   3.377   1.923   1.032  0.5653  2.2758 -2.4218
 8174SOL     OW35980   3.019   0.123   1.785 -0.2689  0.1285 -0.4257
 8174SOL    HW135981   3.010   0.217   1.769 -0.0481  0.3281  0.6127
 8174SOL    HW235982   2.937   0.077   1.767 -0.2805 -0.7228  1.7917
 8175SOL     OW35983   0.739   3.619   1.380  0.3194 -0.3683  0.2428
 8175SOL    HW135984   0.758   3.712   1.389 -0.9729 -0.1145  0.3998
 8175SOL    HW235985   0.738   3.594   1.472 -1.7499 -0.9905  0.0495
 8176SOL     OW35986   3.108   3.611   0.816 -0.3533 -0.2375  0.1753
 8176SOL    HW135987   3.159   3.545   0.768  0.3177 -1.5885  2.7527
 8176SOL    HW235988   3.119   3.581   0.906  1.1345 -1.6075 -0.4616
 8177SOL     OW35989   3.712   3.284   9.109  0.0699 -0.6595 -0.1412
 8177SOL    HW135990   3.765   3.282   9.189  0.4389 -2.9999 -0.4454
 8177SOL    HW235991   3.743   3.363   9.063  0.8041 -1.3983 -0.9161
 8178SOL     OW35992   2.055   4.026   8.391 -0.8786  0.0207 -0.3858
 8178SOL    HW135993   1.981   4.025   8.452  0.5560 -1.1506  1.3634
 8178SOL    HW235994   2.120   4.074   8.443 -1.3076 -1.2200  1.2885
 8179SOL     OW35995   1.619   2.497   7.979 -0.3023  0.3255 -0.4666
 8179SOL    HW135996   1.696   2.551   7.964 -0.8848  1.3372  0.2316
 8179SOL    HW235997   1.638   2.440   7.905  2.6127 -1.9588  2.0330
 8180SOL     OW35998   0.568   2.301   4.062  0.6241 -0.4011 -0.1785
 8180SOL    HW135999   0.553   2.320   4.155  0.5387 -1.6033  0.0555
 8180SOL    HW236000   0.585   2.388   4.025 -1.4228 -0.0480 -0.2542
 8181SOL     OW36001   0.237   3.147   4.617  0.9296 -0.1416  0.6207
 8181SOL    HW136002   0.326   3.177   4.632  1.1222 -0.3474 -0.1026
 8181SOL    HW236003   0.210   3.209   4.549  2.2209  0.0235  0.2624
 8182SOL     OW36004   1.236   0.193   2.181 -0.3100 -0.1903  0.5407
 8182SOL    HW136005   1.299   0.237   2.237 -0.1707 -0.2594  0.4384
 8182SOL    HW236006   1.280   0.197   2.096  0.0773  0.5028  0.7696
 8183SOL     OW36007   3.091   2.744   4.559  0.2337  0.3933 -0.3533
 8183SOL    HW136008   3.100   2.671   4.621  2.4831  0.0979 -1.0063
 8183SOL    HW236009   3.014   2.787   4.597  1.8205  1.1017  2.1074
 8184SOL     OW36010   4.655   0.527   3.011 -0.1351  0.2659 -0.2636
 8184SOL    HW136011   4.712   0.499   2.939 -1.3487 -2.5629 -0.1392
 8184SOL    HW236012   4.698   0.607   3.042 -1.8113  1.1723 -0.2811
 8185SOL     OW36013   1.581   3.972   3.918  0.0325  0.4034  0.6544
 8185SOL    HW136014   1.643   3.908   3.881  1.2702  2.9951 -1.8062
 8185SOL    HW236015   1.619   3.979   4.005 -2.3086  2.7543  1.4919
 8186SOL     OW36016   3.344   2.322  16.279 -0.0816 -0.1362 -0.3704
 8186SOL    HW136017   3.361   2.253  16.215 -2.2057 -0.1159 -0.9549
 8186SOL    HW236018   3.418   2.306  16.338 -1.1455 -0.3689  0.9011
 8187SOL     OW36019   2.147   3.738  11.616 -0.1416 -0.4563 -0.0946
 8187SOL    HW136020   2.200   3.794  11.673 -1.3105  0.5620 -0.0196
 8187SOL    HW236021   2.198   3.750  11.536  0.4657  0.8627  0.4837
 8188SOL     OW36022   2.370   0.086   4.361  0.5288  0.0978 -0.0938
 8188SOL    HW136023   2.400   0.085   4.452 -0.2319 -0.3729  0.1564
 8188SOL    HW236024   2.428   0.019   4.328 -2.3986 -1.2783 -2.4304
 8189SOL     OW36025   1.515   2.350   3.932 -0.6431  0.1173 -0.3084
 8189SOL    HW136026   1.602   2.338   3.970 -0.4847  1.5479 -0.2531
 8189SOL    HW236027   1.547   2.374   3.845 -0.0284  1.6965  0.3527
 8190SOL     OW36028   2.658   0.966   4.522 -0.2425 -0.0893  0.0222
 8190SOL    HW136029   2.619   0.896   4.469  1.8877  0.2523 -1.9759
 8190SOL    HW236030   2.712   1.007   4.455  1.3184 -3.5005 -0.7857
 8191SOL     OW36031   3.481   3.248  13.372  0.3392  0.5496 -0.4039
 8191SOL    HW136032   3.437   3.205  13.298  1.6890 -1.7138  0.1283
 8191SOL    HW236033   3.563   3.269  13.327 -0.2572  0.8901 -1.3547
 8192SOL     OW36034   3.112   4.337   3.091 -0.1832  0.2047  0.1358
 8192SOL    HW136035   3.065   4.253   3.085  2.6044 -1.4415  1.2947
 8192SOL    HW236036   3.166   4.335   3.012 -1.2943 -0.1344 -0.6073
 8193SOL     OW36037   2.100   3.157   2.670  0.7778 -0.2193 -0.6260
 8193SOL    HW136038   2.042   3.199   2.606  1.8091 -0.7279 -1.8676
 8193SOL    HW236039   2.179   3.211   2.669  0.6515 -0.0144  0.2432
 8194SOL     OW36040   2.074   1.415   6.620  0.3911  0.1803  0.0800
 8194SOL    HW136041   2.076   1.510   6.605  1.0034  0.1245 -0.2238
 8194SOL    HW236042   2.017   1.389   6.547 -1.0952 -0.0178  1.3165
 8195SOL     OW36043   3.946   3.543   7.323  0.3103 -0.3346 -0.4410
 8195SOL    HW136044   4.037   3.534   7.353 -0.3290 -0.4733  1.4597
 8195SOL    HW236045   3.943   3.521   7.230 -0.5213  0.9596 -0.7176
 8196SOL     OW36046   0.485   4.684   7.947 -0.2449  0.5368 -0.0359
 8196SOL    HW136047   0.410   4.700   7.888 -2.6682 -0.6448  2.7138
 8196SOL    HW236048   0.538   0.035   7.918  0.7898 -0.8846 -1.8015
 8197SOL     OW36049   3.000   3.160   0.917 -0.4011  0.4050  0.4552
 8197SOL    HW136050   2.924   3.204   0.955 -2.3765 -2.2703 -0.3880
 8197SOL    HW236051   3.068   3.227   0.929 -1.7445  1.4731  2.0743
 8198SOL     OW36052   2.568   1.683  13.414  0.2906  0.6352 -0.5435
 8198SOL    HW136053   2.518   1.750  13.462 -1.5870 -2.0083  1.1771
 8198SOL    HW236054   2.658   1.699  13.443 -0.4964  2.5757  0.8753
 8199SOL     OW36055   3.061   0.924   5.970 -0.3139  0.3931  0.5782
 8199SOL    HW136056   3.089   0.934   5.879  0.5962 -1.1946  0.7005
 8199SOL    HW236057   3.091   0.834   5.977 -1.0100  0.1585  0.5086
 8200SOL     OW36058   1.588   0.083  15.053  0.1921 -0.6791  0.1551
 8200SOL    HW136059   1.635   0.049  14.977 -0.5977  1.6933 -1.3924
 8200SOL    HW236060   1.651   0.098  15.123 -0.0011 -0.3191  0.2539
 8201SOL     OW36061   1.352   0.447  11.833  0.0261 -0.4589 -0.6480
 8201SOL    HW136062   1.276   0.405  11.872  0.6560  0.8247  1.9249
 8201SOL    HW236063   1.322   0.535  11.855  2.1306  0.1447 -0.2516
 8202SOL     OW36064   0.544   1.170   5.004 -0.2822 -0.2378 -0.5013
 8202SOL    HW136065   0.466   1.118   4.983 -1.7380  1.5986  0.4401
 8202SOL    HW236066   0.494   1.241   5.043 -0.9352 -0.1641 -1.4751
 8203SOL     OW36067   1.442   2.605   9.256 -0.2397  0.2750 -0.2143
 8203SOL    HW136068   1.535   2.612   9.235 -0.1861 -1.1488 -0.4362
 8203SOL    HW236069   1.402   2.553   9.186 -0.4755 -1.3900  1.1690
 8204SOL     OW36070   2.746   2.237   3.315  0.1771 -0.0102  0.0757
 8204SOL    HW136071   2.696   2.317   3.329  0.6190 -0.0010  1.5418
 8204SOL    HW236072   2.831   2.279   3.309 -0.7013  1.8122  0.4563
 8205SOL     OW36073   0.479   1.502   6.943  0.2190 -0.0956  0.3473
 8205SOL    HW136074   0.449   1.591   6.961  1.5450  0.2620  0.8136
 8205SOL    HW236075   0.392   1.464   6.931  1.1469 -2.2207  0.3474
 8206SOL     OW36076   2.358   4.711   7.299  0.2844 -0.1455  0.0644
 8206SOL    HW136077   2.417   0.003   7.225 -1.4761  1.3095 -1.0565
 8206SOL    HW236078   2.388   4.626   7.329  1.8221  0.4654  0.2648
 8207SOL     OW36079   1.748   4.241   8.169  0.1135 -0.1452  0.0333
 8207SOL    HW136080   1.843   4.256   8.176  0.0373  0.1723  0.3748
 8207SOL    HW236081   1.742   4.180   8.242  2.3763 -0.2370  0.1710
 8208SOL     OW36082   4.701   1.903   6.898  0.0771  0.0449 -0.1618
 8208SOL    HW136083   0.038   1.836   6.930 -2.7941 -2.1488  0.6520
 8208SOL    HW236084   0.036   1.960   6.848  1.7810 -1.3741  0.2034
 8209SOL     OW36085   0.541   2.002  16.860 -0.1952  0.6361  0.1634
 8209SOL    HW136086   0.557   1.911  16.884  1.4126  0.0302 -3.2839
 8209SOL    HW236087   0.446   2.014  16.868 -0.1088 -0.3506  2.5306
 8210SOL     OW36088   0.778   0.045  12.364  0.3467  0.3875 -0.0296
 8210SOL    HW136089   0.820   4.690  12.328 -2.2099 -1.5380  1.1614
 8210SOL    HW236090   0.852   0.091  12.402 -0.0551  0.2910  0.8732
 8211SOL     OW36091   1.023   3.238  15.183 -0.3834 -0.2857  0.1016
 8211SOL    HW136092   0.993   3.288  15.107  2.6044 -0.3977 -1.1307
 8211SOL    HW236093   0.987   3.292  15.254  0.0160  0.5575 -0.3419
 8212SOL     OW36094   3.594   0.642   8.556  0.2728 -0.3182  0.9562
 8212SOL    HW136095   3.546   0.656   8.475 -0.5808  0.6233  1.6205
 8212SOL    HW236096   3.602   0.735   8.578  2.1239  0.2058 -1.9420
 8213SOL     OW36097   4.243   1.090   5.520  0.0130  0.5195  0.3916
 8213SOL    HW136098   4.151   1.065   5.530 -0.4348  2.1611  0.2991
 8213SOL    HW236099   4.221   1.175   5.482  2.1996  0.5729 -0.7529
 8214SOL     OW36100   0.179   4.704  12.094  0.0095  0.6799 -0.1878
 8214SOL    HW136101   0.230   0.054  12.127 -0.6643  0.4271  1.3855
 8214SOL    HW236102   0.252   4.648  12.066  0.2311 -0.2816  2.2992
 8215SOL     OW36103   0.000   4.237   4.655  0.2478  0.3192 -0.1206
 8215SOL    HW136104   0.024   4.329   4.663  0.1421  0.1702  1.9684
 8215SOL    HW236105   4.672   4.236   4.575 -0.8805 -1.2311  0.6154
 8216SOL     OW36106   3.274   3.912   1.192 -0.2208  0.2846  0.7148
 8216SOL    HW136107   3.308   4.000   1.204 -1.7206  1.1538 -1.4652
 8216SOL    HW236108   3.184   3.926   1.164 -0.6979  0.9916  2.6657
 8217SOL     OW36109   2.493   2.537   5.444  0.3237  0.0278  0.8016
 8217SOL    HW136110   2.522   2.536   5.353 -1.4480 -0.4893  0.2646
 8217SOL    HW236111   2.553   2.481   5.494  2.9059  0.7353 -1.5091
 8218SOL     OW36112   0.489   1.473   4.945 -0.6640 -0.0815  0.1824
 8218SOL    HW136113   0.564   1.533   4.943 -1.7413  1.2003 -1.6526
 8218SOL    HW236114   0.529   1.395   4.907  2.1733  0.6281  1.6794
 8219SOL     OW36115   3.187   0.426   3.887 -0.5172 -0.3371 -0.2895
 8219SOL    HW136116   3.113   0.462   3.935  0.5047  0.5957  0.5920
 8219SOL    HW236117   3.164   0.351   3.832 -0.8987  0.9023 -1.7954
 8220SOL     OW36118   1.775   2.171   1.696  0.3494 -0.7228  0.2767
 8220SOL    HW136119   1.705   2.160   1.760  0.5390  2.1979  0.9897
 8220SOL    HW236120   1.731   2.119   1.630  0.4140  0.7666 -0.9465
 8221SOL     OW36121   0.359   0.644   6.517 -0.1244 -0.2612 -0.8248
 8221SOL    HW136122   0.451   0.641   6.489  0.8004  2.5675  2.0017
 8221SOL    HW236123   0.309   0.704   6.462 -2.5699  0.8393  2.6154
 8222SOL     OW36124   3.720   4.361   5.360  0.4850  0.6402 -0.2515
 8222SOL    HW136125   3.780   4.409   5.303  0.7716  0.8869  0.2576
 8222SOL    HW236126   3.639   4.369   5.309  0.0317  0.3141  0.4209
 8223SOL     OW36127   3.454   2.194   7.213 -0.3118  0.0714 -0.3864
 8223SOL    HW136128   3.389   2.127   7.195 -1.2873  0.4684  1.6581
 8223SOL    HW236129   3.474   2.175   7.305 -0.5441  0.6450 -0.2143
 8224SOL     OW36130   0.951   3.368   4.058 -0.3949  0.2412 -0.1277
 8224SOL    HW136131   0.856   3.355   4.062 -0.3154 -1.2493 -2.5072
 8224SOL    HW236132   0.961   3.407   3.971  0.2004 -0.1012 -0.2171
 8225SOL     OW36133   2.811   2.117   8.753  0.6150  0.0571  0.3698
 8225SOL    HW136134   2.764   2.045   8.794  0.7599  0.6089  1.5055
 8225SOL    HW236135   2.872   2.148   8.820  1.6523 -1.9876  0.3539
 8226SOL     OW36136   2.369   0.366  10.332  0.4498  0.4779  0.0849
 8226SOL    HW136137   2.416   0.293  10.291  2.3555  0.3408  2.4994
 8226SOL    HW236138   2.297   0.313  10.365  0.8175 -0.7125 -1.0055
 8227SOL     OW36139   2.583   0.832  11.445 -0.1578  0.4059 -0.5813
 8227SOL    HW136140   2.517   0.901  11.459  0.3529  0.3800  1.8223
 8227SOL    HW236141   2.570   0.817  11.351  2.0538  0.3128 -0.8601
 8228SOL     OW36142   0.166   3.071   8.128  0.7937  0.5752 -0.0983
 8228SOL    HW136143   0.184   3.058   8.035  0.2089  4.3893 -0.7527
 8228SOL    HW236144   0.095   3.135   8.123 -0.8504 -1.2660 -0.4012
 8229SOL     OW36145   1.718   2.705  15.685 -0.0559 -0.4503 -0.0188
 8229SOL    HW136146   1.638   2.748  15.656 -1.5517 -1.9354  1.8652
 8229SOL    HW236147   1.770   2.735  15.611  1.3463 -0.7947  0.8397
 8230SOL     OW36148   0.473   0.645   2.494 -0.0094 -0.7562 -0.4535
 8230SOL    HW136149   0.562   0.611   2.491  1.1897  2.2585  0.5589
 8230SOL    HW236150   0.437   0.630   2.407  3.0653 -1.5666 -1.5844
 8231SOL     OW36151   4.282   1.396   5.735  0.4025  0.4094  0.2651
 8231SOL    HW136152   4.337   1.475   5.743 -0.5441  1.1330 -0.3350
 8231SOL    HW236153   4.258   1.398   5.642  4.0047 -0.8212 -0.7003
 8232SOL     OW36154   0.053   1.243   6.720 -0.0034  0.4261  0.1242
 8232SOL    HW136155   4.717   1.316   6.741  1.3020  1.7649 -0.9246
 8232SOL    HW236156   0.060   1.194   6.803  2.1920  0.1976 -0.2111
 8233SOL     OW36157   0.292   2.603   9.278 -0.0688 -0.1273  0.3495
 8233SOL    HW136158   0.265   2.662   9.207  2.9336  1.6955  0.7444
 8233SOL    HW236159   0.206   2.568   9.302 -0.9175  2.5094  1.1089
 8234SOL     OW36160   1.637   3.528  14.107 -0.1016 -0.0958  0.1333
 8234SOL    HW136161   1.711   3.522  14.046 -0.2197 -0.0859 -0.0107
 8234SOL    HW236162   1.610   3.437  14.100  2.3984 -0.9960  2.2082
 8235SOL     OW36163   0.605   4.292   5.636 -0.1317 -0.7138  0.0336
 8235SOL    HW136164   0.544   4.343   5.583 -1.0759 -0.8567  0.9775
 8235SOL    HW236165   0.648   4.236   5.572  0.2808  0.0208 -0.3244
 8236SOL     OW36166   4.575   0.657   2.680  0.2983 -0.2389  0.6156
 8236SOL    HW136167   4.488   0.677   2.646  1.3220  1.0822 -1.1795
 8236SOL    HW236168   4.587   0.571   2.641  0.6106  0.9996 -1.9873
 8237SOL     OW36169   2.454   3.437   8.495  0.2261  0.4809  0.0561
 8237SOL    HW136170   2.365   3.470   8.480 -0.4492 -0.5389  1.8293
 8237SOL    HW236171   2.473   3.499   8.565  0.2903  1.4061 -0.7831
 8238SOL     OW36172   2.022   1.875   3.264  0.0872 -0.6795  0.1834
 8238SOL    HW136173   1.982   1.857   3.178  2.0068 -1.5436 -0.5328
 8238SOL    HW236174   2.068   1.791   3.264 -0.2569 -0.8732 -0.3023
 8239SOL     OW36175   3.925   3.534   4.265  0.2429  0.4968  0.8694
 8239SOL    HW136176   3.836   3.553   4.234  0.9640  1.5910 -0.5177
 8239SOL    HW236177   3.961   3.621   4.276 -0.0815  0.8679 -0.9040
 8240SOL     OW36178   4.084   2.227  12.499 -0.1453 -0.0611  0.5628
 8240SOL    HW136179   4.072   2.321  12.483  0.5008  0.0596  0.7993
 8240SOL    HW236180   4.106   2.202  12.409 -0.7794 -2.3871  1.0470
 8241SOL     OW36181   3.438   4.350   2.106 -0.6773  0.2917 -0.6746
 8241SOL    HW136182   3.519   4.401   2.107  1.1547 -2.5880 -0.9672
 8241SOL    HW236183   3.415   4.331   2.197  1.1710  0.3695 -0.1797
 8242SOL     OW36184   1.144   1.577   7.163  0.6163  0.2373  0.5487
 8242SOL    HW136185   1.070   1.519   7.178 -0.0972  0.9092 -0.3648
 8242SOL    HW236186   1.100   1.662   7.170 -0.9537 -0.4685 -0.8603
 8243SOL     OW36187   3.412   4.239  11.968 -0.1731  0.0488 -0.4914
 8243SOL    HW136188   3.470   4.204  12.036 -0.6426  3.0600  1.4508
 8243SOL    HW236189   3.418   4.334  11.972 -0.0145  0.0707 -1.2289
 8244SOL     OW36190   1.147   2.280   2.687 -0.2630 -0.5047 -0.3028
 8244SOL    HW136191   1.195   2.285   2.604 -0.5647  0.3221 -0.4364
 8244SOL    HW236192   1.114   2.370   2.677 -2.8831 -1.4290  0.1317
 8245SOL     OW36193   4.272   1.521   7.754 -0.1478  0.0649  0.1797
 8245SOL    HW136194   4.253   1.547   7.845  4.2322  0.1240  1.0826
 8245SOL    HW236195   4.289   1.606   7.712 -1.3854  0.7629  1.0782
 8246SOL     OW36196   0.036   0.550   3.833 -0.8741 -0.1449  0.0795
 8246SOL    HW136197   4.716   0.609   3.771 -1.2966  0.9448  1.4228
 8246SOL    HW236198   4.710   0.560   3.914 -0.1140  1.1536  0.3815
 8247SOL     OW36199   4.459   1.932   6.183  0.0371  0.0873 -0.5522
 8247SOL    HW136200   4.551   1.941   6.205  0.1509  1.5009 -1.5934
 8247SOL    HW236201   4.431   1.864   6.244 -0.7884 -0.4127 -1.4838
 8248SOL     OW36202   2.668   1.312   9.307 -0.1130 -0.3294  0.0722
 8248SOL    HW136203   2.581   1.350   9.294  0.7574  1.6138 -0.1422
 8248SOL    HW236204   2.681   1.330   9.401  1.1479 -1.0296  0.0354
 8249SOL     OW36205   4.157   3.340   1.498  0.2324 -0.5325  0.2167
 8249SOL    HW136206   4.236   3.361   1.549  0.5792  2.4143 -1.5201
 8249SOL    HW236207   4.196   3.288   1.427 -0.0942  0.4999 -0.7216
 8250SOL     OW36208   1.540   4.276   5.914  0.1196  0.3696  0.2654
 8250SOL    HW136209   1.483   4.295   5.988 -0.7983  2.8857 -1.0727
 8250SOL    HW236210   1.472   4.223   5.872  0.4910  0.5196 -0.5427
 8251SOL     OW36211   0.134   1.684   1.200 -0.1974  0.3421 -0.3181
 8251SOL    HW136212   0.058   1.643   1.241  0.2947 -0.2332  0.0280
 8251SOL    HW236213   0.097   1.719   1.119 -1.1976  1.5360  0.6637
 8252SOL     OW36214   4.108   0.507   7.713 -0.0099  0.3407  0.2665
 8252SOL    HW136215   4.020   0.477   7.691  0.7738 -1.1483 -0.8257
 8252SOL    HW236216   4.090   0.589   7.759  2.0896  0.0054  1.6937
 8253SOL     OW36217   1.219   0.733  11.806 -0.2601  0.1855 -0.2460
 8253SOL    HW136218   1.138   0.717  11.759 -0.3954  0.0444  0.0333
 8253SOL    HW236219   1.285   0.741  11.737  1.0048 -2.9382  0.5992
 8254SOL     OW36220   2.214   2.906   5.542 -0.3507 -0.7744 -0.0354
 8254SOL    HW136221   2.275   2.962   5.590  0.0703 -2.2345  1.1165
 8254SOL    HW236222   2.148   2.897   5.611  0.8366 -0.4752  1.1549
 8255SOL     OW36223   3.420   0.283  10.541  0.4883 -0.1029 -0.1660
 8255SOL    HW136224   3.326   0.298  10.548  0.9136  2.0517  0.8174
 8255SOL    HW236225   3.459   0.353  10.488  0.2611 -0.9814 -1.4902
 8256SOL     OW36226   0.739   2.687   4.261 -0.3783 -0.0730 -0.6770
 8256SOL    HW136227   0.776   2.600   4.248  1.5731  0.8037 -1.0983
 8256SOL    HW236228   0.711   2.709   4.172 -2.0916  0.9550  0.1091
 8257SOL     OW36229   2.553   4.145   4.029 -0.4111 -0.4127  0.6106
 8257SOL    HW136230   2.479   4.158   3.970 -0.6554  0.7085  1.1721
 8257SOL    HW236231   2.554   4.050   4.042 -0.3854 -0.3470  1.1076
 8258SOL     OW36232   2.903   0.013   6.230 -0.1115 -0.1917 -0.1620
 8258SOL    HW136233   2.933   0.073   6.161 -2.1140  0.1819 -0.6924
 8258SOL    HW236234   2.984   4.696   6.263  0.3677  2.3893  1.8190
 8259SOL     OW36235   1.288   3.494  16.261  0.5030  0.5098 -0.0610
 8259SOL    HW136236   1.304   3.567  16.202 -0.3175  2.0938  1.6993
 8259SOL    HW236237   1.376   3.485  16.298 -0.6470  0.2207  2.5578
 8260SOL     OW36238   4.266   2.126  13.180  0.2173  0.5875 -0.1933
 8260SOL    HW136239   4.354   2.160  13.189 -0.1852  2.2682 -2.4007
 8260SOL    HW236240   4.267   2.105  13.086  0.9145  1.3660 -0.3648
 8261SOL     OW36241   3.566   2.419   1.982 -0.4923  0.2138  0.5244
 8261SOL    HW136242   3.534   2.330   1.994  1.0621 -0.5161 -0.6452
 8261SOL    HW236243   3.593   2.441   2.071 -0.3501 -0.0530  0.5463
 8262SOL     OW36244   1.065   2.600   9.185  0.1562  0.1247  0.1736
 8262SOL    HW136245   1.101   2.515   9.160  1.8474  0.8239  0.2447
 8262SOL    HW236246   0.972   2.582   9.179  0.3027 -0.1365 -1.2743
 8263SOL     OW36247   0.301   2.343  15.452 -0.1550 -0.3218  0.0420
 8263SOL    HW136248   0.296   2.297  15.368  1.5732  1.2071 -0.9105
 8263SOL    HW236249   0.312   2.431  15.414  1.2052 -0.3239  0.4299
 8264SOL     OW36250   3.489   3.576   0.048  0.3033  0.1515 -0.2777
 8264SOL    HW136251   3.500   3.513  17.672 -1.3511  2.8661 -2.9601
 8264SOL    HW236252   3.418   3.631   0.015  0.8467  1.5627  0.8938
 8265SOL     OW36253   0.814   3.836  14.155 -0.2495 -0.9818 -0.2478
 8265SOL    HW136254   0.763   3.860  14.233  0.7258 -0.5733  0.2621
 8265SOL    HW236255   0.773   3.756  14.122 -0.8352 -1.2316  1.0954
 8266SOL     OW36256   2.994   4.642   8.120 -0.3311 -0.1105 -0.0749
 8266SOL    HW136257   3.000   4.559   8.168 -2.5504  0.0582  0.4813
 8266SOL    HW236258   3.083   4.675   8.133 -0.0574 -0.7239 -0.3929
 8267SOL     OW36259   2.781   0.164   2.003  0.3731 -0.4013 -0.0249
 8267SOL    HW136260   2.710   0.187   2.064  0.3835  1.2389 -0.6391
 8267SOL    HW236261   2.727   0.140   1.928 -0.7632  2.9641 -0.2878
 8268SOL     OW36262   4.554   3.809   5.824  0.6801 -0.3900  0.2002
 8268SOL    HW136263   4.505   3.755   5.886  0.4006 -1.0456 -0.5927
 8268SOL    HW236264   4.541   3.897   5.860 -2.7251 -0.2700 -1.3398
 8269SOL     OW36265   3.632   0.233   5.392  0.0756 -0.4368 -0.0809
 8269SOL    HW136266   3.603   0.323   5.411  0.5727  0.1111 -1.8973
 8269SOL    HW236267   3.548   0.187   5.380  0.3702  0.1231 -4.5029
 8270SOL     OW36268   4.153   1.052   8.199 -0.1230 -0.4222  0.4939
 8270SOL    HW136269   4.239   1.012   8.188  0.8341  1.7178  0.2054
 8270SOL    HW236270   4.093   0.983   8.170 -0.9590 -0.0655  1.3604
 8271SOL     OW36271   0.178   3.610   6.295 -0.4846  0.3269  0.0717
 8271SOL    HW136272   0.180   3.692   6.345  2.6146  1.1263 -1.3155
 8271SOL    HW236273   0.255   3.616   6.238 -0.7127 -3.0060 -0.5879
 8272SOL     OW36274   2.839   4.094   0.809 -0.0440 -0.1474  0.0813
 8272SOL    HW136275   2.931   4.068   0.799 -0.3619  0.8485 -5.0198
 8272SOL    HW236276   2.825   4.118   0.901  0.8505 -0.3126  0.2693
 8273SOL     OW36277   3.029   4.187   2.673  0.2407 -0.4324  0.4646
 8273SOL    HW136278   3.000   4.243   2.744 -3.0740  0.1809 -1.3949
 8273SOL    HW236279   3.009   4.231   2.591  0.8717  0.8981  1.0290
 8274SOL     OW36280   3.392   0.029   2.901 -0.5954 -0.5686  0.5296
 8274SOL    HW136281   3.398   0.033   2.996 -1.3333 -0.4276  0.5757
 8274SOL    HW236282   3.371   0.120   2.883  0.5656 -0.4316 -0.1340
 8275SOL     OW36283   2.552   4.343   7.489  0.0228 -0.4211 -0.4143
 8275SOL    HW136284   2.463   4.308   7.483 -0.2299 -0.1142  1.5910
 8275SOL    HW236285   2.589   4.276   7.546 -1.3509 -0.8939 -0.0915
 8276SOL     OW36286   2.715   1.145   9.991 -0.3691  0.0252  0.5458
 8276SOL    HW136287   2.655   1.114  10.058 -0.9531 -0.5784 -0.2538
 8276SOL    HW236288   2.702   1.067   9.936  0.7201 -1.0835  1.8336
 8277SOL     OW36289   2.228   3.408   0.648 -0.7148  0.3497  0.0623
 8277SOL    HW136290   2.202   3.450   0.566  0.5605 -0.1201 -0.5839
 8277SOL    HW236291   2.317   3.442   0.659 -0.2257 -1.2135  0.9283
 8278SOL     OW36292   2.504   3.711   6.164 -0.5962 -0.0109 -0.4586
 8278SOL    HW136293   2.443   3.769   6.209 -1.5216 -0.4036 -1.2039
 8278SOL    HW236294   2.544   3.775   6.105  1.0102 -0.4651  0.1611
 8279SOL     OW36295   3.270   4.573  17.316 -0.3679  0.5283 -0.3875
 8279SOL    HW136296   3.298   4.509  17.249 -0.2934 -0.4433  0.5651
 8279SOL    HW236297   3.259   4.517  17.393 -1.0352  1.7131  0.3810
 8280SOL     OW36298   0.323   0.032   1.328 -0.2439 -0.1782  0.0610
 8280SOL    HW136299   0.249   0.088   1.348  1.0822  1.3554  0.6732
 8280SOL    HW236300   0.310   0.000   1.238 -0.1284  0.4659 -0.1805
 8281SOL     OW36301   3.827   4.138   2.770 -0.0384 -0.2864  0.3703
 8281SOL    HW136302   3.828   4.230   2.743  0.0463 -0.7200 -1.1238
 8281SOL    HW236303   3.902   4.123   2.827  0.2663  0.3416  0.1239
 8282SOL     OW36304   3.050   1.653   5.407  0.2785  0.0533  0.0260
 8282SOL    HW136305   3.040   1.569   5.452  0.3431 -0.1161 -0.2753
 8282SOL    HW236306   3.145   1.665   5.410  0.6292 -2.5466 -0.7213
 8283SOL     OW36307   1.313   0.141  15.963  0.7079  0.0890  0.1453
 8283SOL    HW136308   1.342   0.074  15.901 -0.8318 -0.6658  0.2400
 8283SOL    HW236309   1.256   0.087  16.018 -2.0233  1.5852 -1.2446
 8284SOL     OW36310   3.578   0.490   6.492  0.1853 -0.0463  0.4531
 8284SOL    HW136311   3.620   0.513   6.409  2.8573  1.9656  2.3328
 8284SOL    HW236312   3.540   0.406   6.468  0.9204  0.0718 -1.1360
 8285SOL     OW36313   3.299   3.366   6.280  0.0428 -0.3717  0.8146
 8285SOL    HW136314   3.236   3.319   6.226 -1.6445  1.1190  1.4727
 8285SOL    HW236315   3.242   3.409   6.344  0.1781  2.1404 -0.7534
 8286SOL     OW36316   0.022   1.128   6.958 -0.0959 -0.3067 -0.3758
 8286SOL    HW136317   4.694   1.179   7.021  1.7681 -0.4478  1.2358
 8286SOL    HW236318   0.007   1.046   7.005  1.0407 -0.5059 -0.3602
 8287SOL     OW36319   3.158   1.982   4.009  0.3199 -0.6205 -0.1194
 8287SOL    HW136320   3.131   1.962   3.919 -1.4993 -0.1092  0.3055
 8287SOL    HW236321   3.242   2.018   3.980  1.2074 -2.9860 -0.4543
 8288SOL     OW36322   2.965   2.138  12.034 -0.1634 -0.1151  0.2471
 8288SOL    HW136323   3.006   2.130  11.948  1.8675  0.4976  1.1642
 8288SOL    HW236324   2.925   2.053  12.052  0.7461 -0.5922  0.0405
 8289SOL     OW36325   0.189   2.308   1.894 -0.0676 -0.2195  0.5039
 8289SOL    HW136326   0.235   2.237   1.937  0.4064  0.6484  1.4179
 8289SOL    HW236327   0.123   2.258   1.846  1.0894 -2.1242  0.9257
 8290SOL     OW36328   1.037   2.749  15.402  0.0590  0.4858  1.0204
 8290SOL    HW136329   1.025   2.829  15.350 -1.8709  0.0375  0.7838
 8290SOL    HW236330   0.945   2.740  15.425 -0.2219 -0.6184 -0.5526
 8291SOL     OW36331   4.482   3.869   4.791  0.1711  0.1877 -0.1859
 8291SOL    HW136332   4.533   3.840   4.715  0.5708 -0.9556  0.5153
 8291SOL    HW236333   4.483   3.782   4.832  0.0624 -0.7257 -2.1073
 8292SOL     OW36334   0.026   0.933   8.567  0.4954  0.1695 -0.8217
 8292SOL    HW136335   0.038   0.901   8.656 -1.3864  0.3661 -0.5009
 8292SOL    HW236336   4.662   0.902   8.540  1.1579 -1.9354 -0.5181
 8293SOL     OW36337   0.497   2.617   7.259 -0.1564  0.1911 -0.7932
 8293SOL    HW136338   0.531   2.558   7.191  0.4095  1.1982 -1.3801
 8293SOL    HW236339   0.488   2.698   7.210 -1.6848  0.0098 -0.8096
 8294SOL     OW36340   3.395   2.089   9.958  0.1395  0.2853  0.1754
 8294SOL    HW136341   3.378   2.034   9.881 -0.3368  1.6916 -0.7280
 8294SOL    HW236342   3.488   2.106   9.949  0.2700 -1.2921 -1.7093
 8295SOL     OW36343   1.812   1.040  12.752  0.0735  0.0702 -0.1827
 8295SOL    HW136344   1.884   0.979  12.740 -0.1807 -0.0464 -1.1074
 8295SOL    HW236345   1.817   1.052  12.847  3.5410  0.5717 -0.4514
 8296SOL     OW36346   1.274   2.586   3.475 -0.3837  0.3739  0.1685
 8296SOL    HW136347   1.287   2.497   3.444  0.2140  1.0601 -1.5692
 8296SOL    HW236348   1.351   2.628   3.435  0.5502 -0.3037  1.2726
 8297SOL     OW36349   2.151   0.636   1.317 -0.0974 -0.0302  0.0481
 8297SOL    HW136350   2.201   0.607   1.240  0.5662 -0.5135  0.6529
 8297SOL    HW236351   2.064   0.631   1.279 -0.1931 -0.3637  0.3126
 8298SOL     OW36352   2.870   2.785   6.804  0.0292 -0.8206  0.2381
 8298SOL    HW136353   2.788   2.748   6.772 -0.0153  0.3559 -1.0561
 8298SOL    HW236354   2.879   2.728   6.880  0.0009 -2.6031 -1.1123
 8299SOL     OW36355   4.157   0.010   1.551 -0.1306 -0.5886  0.0955
 8299SOL    HW136356   4.164   0.086   1.610  2.9436  0.9799 -2.2907
 8299SOL    HW236357   4.108   4.674   1.607  0.3667 -1.3199 -0.2488
 8300SOL     OW36358   2.131   2.927  17.278  0.2436 -0.2767 -0.6128
 8300SOL    HW136359   2.105   2.907  17.368 -2.0804  1.9051 -0.8137
 8300SOL    HW236360   2.201   2.864  17.258  0.8246  0.7537 -1.8389
 8301SOL     OW36361   0.105   4.320   7.336  0.0429 -0.1488 -0.4516
 8301SOL    HW136362   0.056   4.266   7.397 -1.8867 -1.0823 -2.8600
 8301SOL    HW236363   0.073   4.300   7.249 -1.0909 -0.1503 -0.0354
 8302SOL     OW36364   4.344   3.597   4.542  0.1761  0.4106  0.2879
 8302SOL    HW136365   4.268   3.635   4.499  0.4314 -1.6751 -2.0100
 8302SOL    HW236366   4.293   3.517   4.556  1.7188 -0.5654  0.3599
 8303SOL     OW36367   2.292   2.386   3.890 -0.3353 -0.2525 -0.3392
 8303SOL    HW136368   2.221   2.404   3.828 -0.1707 -1.8697 -0.9948
 8303SOL    HW236369   2.284   2.291   3.897  0.8331 -0.3739 -0.6682
 8304SOL     OW36370   3.540   3.928  14.564 -0.0702  0.3838  0.2326
 8304SOL    HW136371   3.592   3.967  14.634  0.1702 -0.5928  0.6048
 8304SOL    HW236372   3.463   3.984  14.560  0.7121  1.4161 -0.2104
 8305SOL     OW36373   3.788   3.919   8.664  0.1789  0.1664 -0.3380
 8305SOL    HW136374   3.826   4.004   8.644 -0.0517  0.5211  0.7115
 8305SOL    HW236375   3.697   3.941   8.645 -0.1279 -2.0912 -1.4276
 8306SOL     OW36376   3.992   0.971   7.451 -0.2217  0.2710  0.0719
 8306SOL    HW136377   3.941   0.974   7.371 -0.5149  0.4139  0.2648
 8306SOL    HW236378   3.931   0.932   7.514  0.5019 -1.5795 -0.3597
 8307SOL     OW36379   4.378   2.542  15.021  0.1000 -0.3425 -0.2557
 8307SOL    HW136380   4.387   2.546  14.926  1.0875 -1.2221 -0.1900
 8307SOL    HW236381   4.403   2.631  15.046  1.4362 -0.7358 -0.1905
 8308SOL     OW36382   4.702   3.873  15.913  0.4486 -0.6392 -0.1653
 8308SOL    HW136383   4.634   3.940  15.913  0.7829 -0.3164  1.1735
 8308SOL    HW236384   0.055   3.930  15.914 -1.4294  1.8644  0.0748
 8309SOL     OW36385   2.141   3.873   5.500 -0.0555 -0.0186  0.2687
 8309SOL    HW136386   2.217   3.830   5.460 -1.3216 -0.4594 -1.6714
 8309SOL    HW236387   2.157   3.842   5.589 -0.1593 -1.0001 -0.0533
 8310SOL     OW36388   3.845   3.428   6.908 -0.3877 -0.4209 -0.8361
 8310SOL    HW136389   3.885   3.508   6.874  0.8464 -0.3736  0.7446
 8310SOL    HW236390   3.777   3.468   6.963 -0.3834 -1.3728 -0.1242
 8311SOL     OW36391   3.025   3.930   4.469  0.1532 -0.4221 -0.0805
 8311SOL    HW136392   2.960   3.954   4.404  0.3121  0.5346  0.1163
 8311SOL    HW236393   2.975   3.888   4.539  0.8778 -0.8094  0.2116
 8312SOL     OW36394   0.050   2.803   2.587  0.2779  0.1173  0.1653
 8312SOL    HW136395   4.722   2.824   2.665  0.5328 -0.7409  0.5602
 8312SOL    HW236396   4.705   2.791   2.520 -0.3796  0.2782  0.8059
 8313SOL     OW36397   2.231   0.434  13.973  0.3400  0.1190  0.6720
 8313SOL    HW136398   2.146   0.392  13.989  0.0898  0.8120  1.1594
 8313SOL    HW236399   2.286   0.377  14.026  0.6357 -0.0308  0.2015
 8314SOL     OW36400   2.934   1.155   4.450 -0.3418  0.3317 -0.2878
 8314SOL    HW136401   2.925   1.179   4.542 -1.0969  1.4412 -0.6559
 8314SOL    HW236402   2.997   1.083   4.454 -2.4039 -1.4726 -0.3234
 8315SOL     OW36403   3.143   2.850  17.114 -0.4621 -0.1664  0.6965
 8315SOL    HW136404   3.086   2.927  17.112  0.5907  0.6170  1.1238
 8315SOL    HW236405   3.101   2.788  17.054 -1.4927  0.3531  0.8836
 8316SOL     OW36406   1.395   0.391   8.044  0.2634  0.3833 -0.1310
 8316SOL    HW136407   1.344   0.470   8.058  0.7483  0.7529 -0.4402
 8316SOL    HW236408   1.482   0.421   8.071  0.7744 -1.7362  0.6143
 8317SOL     OW36409   2.404   4.317   8.426 -0.3040  0.7345  0.8567
 8317SOL    HW136410   2.361   4.365   8.354  1.8292 -0.1741 -1.0266
 8317SOL    HW236411   2.458   4.258   8.374  0.5777  0.8988  1.5985
 8318SOL     OW36412   4.111   0.445   8.059 -0.2688  0.2930 -0.0450
 8318SOL    HW136413   4.127   0.402   8.143  0.4182 -1.2295 -0.9508
 8318SOL    HW236414   4.066   0.372   8.015 -1.8355  1.0827  0.2308
 8319SOL     OW36415   2.757   3.695   5.205 -0.5490 -0.4812  0.2793
 8319SOL    HW136416   2.846   3.671   5.231 -1.4259 -0.8041  2.9405
 8319SOL    HW236417   2.713   3.611   5.189 -0.6810 -0.5298  0.9142
 8320SOL     OW36418   1.547   0.369   4.040 -0.4717 -0.3250  0.9943
 8320SOL    HW136419   1.638   0.347   4.025 -0.6362 -0.2295 -0.1726
 8320SOL    HW236420   1.555   0.457   4.003 -0.9857 -0.2573  1.0366
 8321SOL     OW36421   4.312   1.338   8.419  0.0568  0.1777  0.2626
 8321SOL    HW136422   4.383   1.386   8.461  0.5476  1.8055 -2.4352
 8321SOL    HW236423   4.309   1.261   8.475  1.1263 -0.6896 -0.8859
 8322SOL     OW36424   0.255   0.756   5.345 -0.0421 -0.2493  0.6669
 8322SOL    HW136425   0.265   0.850   5.328  0.8904 -0.7634 -1.5881
 8322SOL    HW236426   0.282   0.752   5.436 -0.3229  0.6508  0.7954
 8323SOL     OW36427   1.983   0.604   3.603  0.6512  0.5637  0.3844
 8323SOL    HW136428   1.981   0.545   3.527  1.8916  1.2161 -0.1460
 8323SOL    HW236429   1.889   0.623   3.609  0.6925  0.7859  0.2995
 8324SOL     OW36430   0.785   0.006   1.569 -0.1457  0.9158 -0.1841
 8324SOL    HW136431   0.794   0.058   1.649  2.8990  0.8655 -0.4842
 8324SOL    HW236432   0.865   0.039   1.529 -0.2706  1.0005 -0.3618
 8325SOL     OW36433   0.492   4.282   3.371  0.2506 -0.6501 -0.3189
 8325SOL    HW136434   0.576   4.242   3.347  0.9322  0.9310 -0.5478
 8325SOL    HW236435   0.469   4.211   3.431  2.5566 -1.2736 -0.1553
 8326SOL     OW36436   3.303   0.108   5.181 -0.5255 -0.0478 -0.1653
 8326SOL    HW136437   3.371   0.063   5.233  0.3012  2.1475  0.6512
 8326SOL    HW236438   3.318   0.085   5.090 -0.7809  1.5632 -0.6074
 8327SOL     OW36439   1.201   2.247   2.964 -0.2892 -0.1145  0.6343
 8327SOL    HW136440   1.294   2.228   2.962 -0.2812 -0.1019  0.9315
 8327SOL    HW236441   1.175   2.261   2.873 -0.6511 -0.0197  0.7498
 8328SOL     OW36442   0.927   2.369   1.089  1.3933  0.3798 -0.4021
 8328SOL    HW136443   0.967   2.282   1.094  0.2818 -0.0811  0.5290
 8328SOL    HW236444   0.950   2.412   1.171 -2.7361  1.3552  0.2269
 8329SOL     OW36445   2.590   2.529  16.950  0.0270 -0.4392 -0.1940
 8329SOL    HW136446   2.660   2.593  16.935 -0.4752 -0.1507 -1.2743
 8329SOL    HW236447   2.558   2.570  17.030  0.0628 -0.8977  0.0588
 8330SOL     OW36448   3.210   2.815  10.985 -0.0594 -0.3450  0.2037
 8330SOL    HW136449   3.213   2.836  11.079  0.4747 -0.4597  0.2133
 8330SOL    HW236450   3.212   2.905  10.950 -1.0334 -0.9079 -1.3014
 8331SOL     OW36451   0.020   0.381   0.153 -0.1655  0.2411 -0.2316
 8331SOL    HW136452   4.719   0.311   0.092  1.5537 -1.3336  0.8984
 8331SOL    HW236453   0.115   0.372   0.154 -0.1914 -0.2540 -2.4542
 8332SOL     OW36454   0.496   2.216   0.349 -0.4385  0.7440  0.3165
 8332SOL    HW136455   0.441   2.258   0.283 -1.3368  0.3663  0.8239
 8332SOL    HW236456   0.495   2.272   0.427  0.5433 -1.0761  1.6415
 8333SOL     OW36457   0.558   1.141   4.165 -0.1697  0.0051  0.0369
 8333SOL    HW136458   0.552   1.230   4.130 -0.8813 -0.0372  0.0578
 8333SOL    HW236459   0.469   1.122   4.193 -0.6365  3.1299  0.5814
 8334SOL     OW36460   1.351   3.426   3.883  0.7297  0.0582 -0.5934
 8334SOL    HW136461   1.322   3.361   3.818  0.5692 -0.3501 -0.1124
 8334SOL    HW236462   1.444   3.405   3.878  0.4014 -1.8976  1.8478
 8335SOL     OW36463   1.888   3.744   3.548  0.0038 -0.0977  0.9533
 8335SOL    HW136464   1.873   3.795   3.628  0.0964  0.3633  0.6783
 8335SOL    HW236465   1.882   3.813   3.482  1.8924  0.2172  1.1168
 8336SOL     OW36466   3.260   2.939   2.999 -0.0054  0.5612  0.0930
 8336SOL    HW136467   3.237   2.875   2.931  3.2467 -0.0782 -0.3979
 8336SOL    HW236468   3.260   3.018   2.945  2.0248 -0.5430 -1.5313
 8337SOL     OW36469   0.258   2.551   2.968  0.4279 -0.1020 -0.0211
 8337SOL    HW136470   0.328   2.546   2.902  0.8747 -1.9192  0.5838
 8337SOL    HW236471   0.213   2.632   2.945  1.5680  0.1579 -1.3615
 8338SOL     OW36472   1.756   2.050   6.317  0.0115 -0.0695 -0.4145
 8338SOL    HW136473   1.671   2.010   6.298 -0.0056 -0.0740 -0.3256
 8338SOL    HW236474   1.792   2.090   6.238  1.4170  0.4737  0.4909
 8339SOL     OW36475   4.422   2.992   1.891  0.0018  0.0484 -0.4111
 8339SOL    HW136476   4.384   2.911   1.857  0.0055 -0.0574 -0.1638
 8339SOL    HW236477   4.351   3.011   1.952  0.6639 -0.7050  0.5974
 8340SOL     OW36478   0.463   3.809   1.481 -0.3082 -0.7671  0.1135
 8340SOL    HW136479   0.391   3.772   1.430 -0.4593 -2.0210  1.2137
 8340SOL    HW236480   0.531   3.784   1.419  0.2720  1.4256 -0.1072
 8341SOL     OW36481   0.187   1.054   8.383 -0.0832 -0.1737 -0.3092
 8341SOL    HW136482   0.124   1.009   8.440 -2.0060  1.9365 -0.7886
 8341SOL    HW236483   0.182   1.144   8.415  4.4730  0.6256 -1.7569
 8342SOL     OW36484   0.951   1.086  17.603  0.1595 -0.5935  0.2846
 8342SOL    HW136485   0.859   1.094  17.578  0.2383 -0.0941  0.1480
 8342SOL    HW236486   0.969   1.149  17.673 -1.9098  3.1491 -2.5515
 8343SOL     OW36487   0.116   3.564   2.042 -0.1967 -0.0560  0.2607
 8343SOL    HW136488   0.067   3.598   2.117 -1.0272 -0.5442 -0.0583
 8343SOL    HW236489   0.188   3.515   2.082 -0.2962 -2.1383 -2.1481
 8344SOL     OW36490   0.281   4.332   1.095  0.3945 -0.7806  0.5035
 8344SOL    HW136491   0.310   4.266   1.158  1.7741  0.1939  0.8985
 8344SOL    HW236492   0.280   4.289   1.010 -0.9856 -0.4734  0.3674
 8345SOL     OW36493   0.735   4.667   7.688  0.0206  0.3769 -0.0469
 8345SOL    HW136494   0.732   4.590   7.745 -0.2064 -1.8663 -3.0327
 8345SOL    HW236495   0.702   0.018   7.737  1.0509 -1.8038  3.8941
 8346SOL     OW36496   3.852   0.032  14.589 -0.4456 -0.3863  0.1256
 8346SOL    HW136497   3.821   0.093  14.521 -2.2909 -2.5057 -0.9270
 8346SOL    HW236498   3.836   4.666  14.558 -0.7160  0.2791 -1.6696
 8347SOL     OW36499   3.829   1.026   7.239 -0.8706 -0.0875  0.1888
 8347SOL    HW136500   3.815   0.953   7.178 -4.1662 -0.2653  1.1277
 8347SOL    HW236501   3.860   1.098   7.184 -0.3848  0.2354  0.8918
 8348SOL     OW36502   1.105   3.780   3.830  0.6010 -0.3402 -0.5311
 8348SOL    HW136503   1.117   3.875   3.834 -0.9917 -0.2157  1.8675
 8348SOL    HW236504   1.193   3.748   3.847  1.0110  0.0885 -1.9475
 8349SOL     OW36505   2.633   3.927   6.038 -0.4972 -0.0599  0.6694
 8349SOL    HW136506   2.620   4.021   6.022 -1.0095 -0.1121  0.7632
 8349SOL    HW236507   2.672   3.908   5.953 -0.8525  0.1987  0.4475
 8350SOL     OW36508   1.610   3.433   0.509  0.2935  0.0205  0.1990
 8350SOL    HW136509   1.685   3.470   0.556  1.3150 -1.0648 -0.5822
 8350SOL    HW236510   1.534   3.437   0.568  0.4021 -2.6263  0.5240
 8351SOL     OW36511   3.225   1.021   3.703 -0.0817  0.2642 -0.2424
 8351SOL    HW136512   3.160   0.951   3.712  1.2542 -0.6255  2.6616
 8351SOL    HW236513   3.193   1.073   3.630  1.1268  1.0499 -0.2112
 8352SOL     OW36514   3.200   4.570   7.335  0.3852 -0.4136  0.0776
 8352SOL    HW136515   3.156   4.496   7.377 -1.1041  0.0735 -0.6160
 8352SOL    HW236516   3.151   4.581   7.253  1.7766  1.4852 -0.4904
 8353SOL     OW36517   0.511   3.773   1.082 -0.5120  0.5882  0.3010
 8353SOL    HW136518   0.536   3.686   1.052  0.8350  0.9150  0.4708
 8353SOL    HW236519   0.570   3.829   1.032  0.6156  2.5664  3.8073
 8354SOL     OW36520   4.433   1.635   0.080  0.1005 -0.6473  0.2357
 8354SOL    HW136521   4.479   1.579   0.143  0.0396  1.6808  2.3849
 8354SOL    HW236522   4.363   1.672   0.135  2.2421  1.0005  1.9013
 8355SOL     OW36523   2.182   1.531   2.438  0.0255 -0.2664 -0.2593
 8355SOL    HW136524   2.128   1.474   2.382 -0.8215 -0.2718  0.5596
 8355SOL    HW236525   2.206   1.596   2.372  1.0392  1.2436  1.6133
 8356SOL     OW36526   3.075   3.148   1.648 -0.0694 -0.4256 -0.0005
 8356SOL    HW136527   3.110   3.214   1.706  0.2081  0.1970 -0.8758
 8356SOL    HW236528   2.984   3.177   1.642  0.4013  1.0768  0.2103
 8357SOL     OW36529   2.409   1.779   5.472 -0.6943 -0.2587  0.0341
 8357SOL    HW136530   2.323   1.796   5.510  0.4819  1.8757  1.7344
 8357SOL    HW236531   2.420   1.856   5.416  0.8572  0.7135  1.6868
 8358SOL     OW36532   1.403   0.777   3.179  0.0543 -0.1989  0.4343
 8358SOL    HW136533   1.442   0.707   3.232 -1.2194 -2.8919 -2.1840
 8358SOL    HW236534   1.328   0.727   3.147  1.2971 -1.8750  0.1215
 8359SOL     OW36535   1.952   2.696  16.434 -0.1645  0.5423 -0.1800
 8359SOL    HW136536   1.960   2.626  16.369  0.5964  0.3860  0.0790
 8359SOL    HW236537   1.922   2.769  16.380  0.8301  1.0573 -0.0351
 8360SOL     OW36538   4.476   4.032   0.189  0.0392 -0.0204 -0.1906
 8360SOL    HW136539   4.478   3.936   0.196  2.4062  0.1812  1.7497
 8360SOL    HW236540   4.385   4.049   0.167 -0.3574 -2.1990 -0.2876
 8361SOL     OW36541   3.143   3.036  17.399  0.1754  0.2841 -0.2136
 8361SOL    HW136542   3.165   3.069  17.486  0.5927  0.8883 -0.5500
 8361SOL    HW236543   3.230   3.040  17.359  0.6026  0.5226  0.7607
 8362SOL     OW36544   1.761   4.004  11.314  0.0690  0.3732 -0.5238
 8362SOL    HW136545   1.732   4.018  11.224  0.4552 -2.7125 -1.1194
 8362SOL    HW236546   1.789   3.913  11.303  1.4952  0.9088 -1.3217
 8363SOL     OW36547   0.202   3.222   4.346 -0.2233 -0.4198  0.0124
 8363SOL    HW136548   0.167   3.201   4.259  1.8551  0.1170 -0.9384
 8363SOL    HW236549   0.250   3.299   4.318  0.1691 -1.0582 -1.0579
 8364SOL     OW36550   3.234   4.050  10.935  0.1343 -0.0343 -0.1303
 8364SOL    HW136551   3.325   4.021  10.930  0.2691  0.4492 -0.4973
 8364SOL    HW236552   3.199   4.033  10.847  1.8955 -1.8640 -0.4754
 8365SOL     OW36553   3.573   0.329   3.101  0.5741  0.5096  0.3369
 8365SOL    HW136554   3.609   0.357   3.184 -0.6348 -0.1803  1.0960
 8365SOL    HW236555   3.608   0.240   3.096  1.0589  0.6776  0.7567
 8366SOL     OW36556   3.458   2.093   3.989 -0.0438 -0.5197  0.0675
 8366SOL    HW136557   3.510   2.013   3.984 -0.1764 -0.6643  1.1510
 8366SOL    HW236558   3.460   2.122   3.897 -0.1697  1.0206  0.5427
 8367SOL     OW36559   2.383   0.742  13.382  0.0143 -0.3405  0.1051
 8367SOL    HW136560   2.319   0.693  13.332  0.5648 -0.8958 -0.0579
 8367SOL    HW236561   2.455   0.748  13.320 -1.4787  3.7570 -1.1963
 8368SOL     OW36562   1.383   2.371   6.225 -0.1078 -0.2460 -0.1183
 8368SOL    HW136563   1.382   2.463   6.253 -0.5383  0.2180 -1.6695
 8368SOL    HW236564   1.476   2.359   6.245 -0.7946  0.1336  3.3458
 8369SOL     OW36565   2.737   3.224   4.285  0.3781  0.1000  0.4861
 8369SOL    HW136566   2.801   3.187   4.225 -0.7595 -2.5534  0.9126
 8369SOL    HW236567   2.757   3.170   4.361 -2.3749 -0.9447  0.4781
 8370SOL     OW36568   0.084   0.666   8.517  0.6469  0.1513 -0.1186
 8370SOL    HW136569   0.118   0.646   8.429  1.3484  1.1272 -0.0639
 8370SOL    HW236570   0.103   0.757   8.536 -0.0606  0.1531  0.5504
 8371SOL     OW36571   3.293   0.649  10.693 -0.0622  0.3496 -0.1618
 8371SOL    HW136572   3.295   0.738  10.729  1.8110  0.2481 -0.0057
 8371SOL    HW236573   3.361   0.602  10.742  1.3479  0.0578 -2.3838
 8372SOL     OW36574   3.242   3.044   6.990 -0.1895 -0.1070  0.2136
 8372SOL    HW136575   3.201   2.960   7.013  1.1293 -0.8459 -0.1491
 8372SOL    HW236576   3.322   3.016   6.945 -0.5915  0.6164 -0.9585
 8373SOL     OW36577   2.900   0.457  16.273 -0.6879  0.0639  0.3283
 8373SOL    HW136578   2.881   0.479  16.365  1.6819  0.8679  0.6115
 8373SOL    HW236579   2.979   0.407  16.293 -1.7124 -2.6628 -2.4641
 8374SOL     OW36580   3.898   4.190   1.383 -0.1092 -0.6483 -0.1383
 8374SOL    HW136581   3.893   4.282   1.358 -1.0723 -0.8385 -0.6518
 8374SOL    HW236582   3.930   4.148   1.303 -2.9153 -0.8379 -1.1504
 8375SOL     OW36583   0.024   3.178   4.829  0.5774  0.0036 -0.4331
 8375SOL    HW136584   0.085   3.141   4.765 -2.6194 -2.5221 -2.0257
 8375SOL    HW236585   4.664   3.137   4.807 -1.0491  2.9035  0.2846
 8376SOL     OW36586   3.005   1.861  16.586 -0.3422  0.0491 -0.2902
 8376SOL    HW136587   2.956   1.799  16.532  1.6979 -1.5930 -0.2148
 8376SOL    HW236588   2.964   1.862  16.673 -1.9178 -3.1386 -1.0145
 8377SOL     OW36589   2.973   2.591   8.918 -0.7660  0.0734 -0.0916
 8377SOL    HW136590   3.068   2.605   8.910 -0.9340  1.1417 -0.3173
 8377SOL    HW236591   2.959   2.526   8.849 -1.3109  1.3772 -1.2317
 8378SOL     OW36592   4.358   1.424   5.435 -0.1115 -0.2230 -0.2056
 8378SOL    HW136593   4.446   1.460   5.440  0.0252 -0.4489 -0.9583
 8378SOL    HW236594   4.370   1.382   5.350 -0.0029  0.1751 -0.3860
 8379SOL     OW36595   0.420   3.310   6.305 -0.3938 -0.1035  0.6096
 8379SOL    HW136596   0.458   3.376   6.362 -1.3682  0.2476  0.8522
 8379SOL    HW236597   0.435   3.228   6.352  0.2310 -0.9656 -1.1119
 8380SOL     OW36598   0.685   0.926   4.358 -0.0698  0.8776 -0.5407
 8380SOL    HW136599   0.778   0.904   4.358 -0.8808 -2.4908 -0.0070
 8380SOL    HW236600   0.681   1.022   4.360  2.2356  0.8936  2.4505
 8381SOL     OW36601   1.759   1.339   4.912 -0.7666  0.0251  0.2720
 8381SOL    HW136602   1.774   1.244   4.908  0.4614  0.0908  3.1907
 8381SOL    HW236603   1.845   1.377   4.896 -1.5884  1.4878 -0.6162
 8382SOL     OW36604   2.222   0.959   9.861 -0.4266 -0.3298  0.3328
 8382SOL    HW136605   2.213   0.945   9.955  0.3017  1.6752  0.6819
 8382SOL    HW236606   2.307   0.917   9.846 -0.3539 -0.2589  0.5482
 8383SOL     OW36607   3.095   1.286   3.889  0.0132  0.4635  0.1350
 8383SOL    HW136608   3.020   1.345   3.890 -0.9212 -0.7409  1.1695
 8383SOL    HW236609   3.112   1.280   3.795  2.9494 -1.2612  0.7842
 8384SOL     OW36610   3.473   4.026   8.353  0.1631  0.5473 -0.1252
 8384SOL    HW136611   3.420   3.967   8.299 -0.4127 -0.0217  1.0548
 8384SOL    HW236612   3.443   4.108   8.314 -0.4050  0.0919 -0.6494
 8385SOL     OW36613   4.515   2.973   4.150 -0.0259  0.2191 -0.0251
 8385SOL    HW136614   4.442   2.936   4.200  0.3696 -0.4379  0.0567
 8385SOL    HW236615   4.568   3.011   4.220  0.2315 -2.4161  1.1849
 8386SOL     OW36616   3.366   3.898  16.711  0.5707 -0.0554 -0.2446
 8386SOL    HW136617   3.439   3.836  16.701  1.1491  0.1252  2.9301
 8386SOL    HW236618   3.411   3.980  16.728 -0.2266  0.3003  0.1171
 8387SOL     OW36619   0.742   0.516   5.809 -0.3595  0.3089 -0.2614
 8387SOL    HW136620   0.826   0.504   5.854 -0.2884 -1.5821 -0.9071
 8387SOL    HW236621   0.697   0.474   5.882 -1.5070  0.5140 -0.8501
 8388SOL     OW36622   0.661   0.200  12.174  0.5971  0.0514  0.1488
 8388SOL    HW136623   0.699   0.140  12.239  1.2298  0.9484  0.5957
 8388SOL    HW236624   0.726   0.205  12.104  2.0339 -1.0206  1.3825
 8389SOL     OW36625   4.460   1.546   5.036  0.2096  0.1756 -0.1697
 8389SOL    HW136626   4.395   1.476   5.051  1.1971 -0.9401 -1.1400
 8389SOL    HW236627   4.532   1.509   4.986 -0.1080 -2.7896  1.4903
 8390SOL     OW36628   2.906   0.501  16.547 -0.0204 -0.0690 -0.0689
 8390SOL    HW136629   2.947   0.422  16.585 -0.1023  0.8696  1.9552
 8390SOL    HW236630   2.885   0.542  16.631  2.5890 -2.1498  1.6206
 8391SOL     OW36631   4.712   4.526  16.018 -0.2061 -0.8422 -0.1572
 8391SOL    HW136632   0.049   4.474  16.072 -1.6813  0.1926  2.5158
 8391SOL    HW236633   0.049   4.578  15.965 -0.0262  0.4342  1.2910
 8392SOL     OW36634   0.429   3.590  16.177  0.2030  0.4795 -0.0517
 8392SOL    HW136635   0.409   3.657  16.112 -4.0987  0.4779  1.2784
 8392SOL    HW236636   0.352   3.534  16.166 -0.7701  1.7472  0.2975
 8393SOL     OW36637   2.462   2.271   0.663 -0.2044  0.1251  0.3362
 8393SOL    HW136638   2.480   2.361   0.637 -1.7894  1.0546  2.5028
 8393SOL    HW236639   2.554   2.243   0.667  0.0992  0.7181 -2.7428
 8394SOL     OW36640   1.524   3.158   1.087  0.7646 -0.0924  0.2240
 8394SOL    HW136641   1.557   3.089   1.145 -0.9070 -1.4802 -0.4399
 8394SOL    HW236642   1.434   3.149   1.119  0.6925 -2.0283 -0.4853
 8395SOL     OW36643   1.682   0.842  13.017  0.4240  0.4670  0.2122
 8395SOL    HW136644   1.732   0.913  12.976 -0.4658  1.8755  1.5731
 8395SOL    HW236645   1.697   0.860  13.110  0.1770  1.0198  0.1480
 8396SOL     OW36646   0.531   1.623   4.006 -0.2008  0.1831  0.8757
 8396SOL    HW136647   0.564   1.541   4.043  1.5813  0.6321  0.2666
 8396SOL    HW236648   0.536   1.673   4.088  0.4547  0.8632  0.4270
 8397SOL     OW36649   2.377   3.868  11.100 -0.3244  0.3776  0.0463
 8397SOL    HW136650   2.424   3.878  11.017  1.6178  0.8805  1.1962
 8397SOL    HW236651   2.429   3.929  11.153  0.6207  0.1691 -0.6269
 8398SOL     OW36652   4.443   3.294   2.399  0.1727  0.0525 -0.2642
 8398SOL    HW136653   4.520   3.348   2.384  0.4408 -0.1242  0.4312
 8398SOL    HW236654   4.381   3.367   2.405 -0.0262 -0.0101 -1.6128
 8399SOL     OW36655   0.194   2.574   6.514 -0.1427 -0.5018 -0.1027
 8399SOL    HW136656   0.158   2.530   6.591  1.0806 -0.9182  0.2295
 8399SOL    HW236657   0.249   2.499   6.490  2.2910  1.3400 -0.2652
 8400SOL     OW36658   1.374   3.709   0.489 -0.1098  1.0833  0.3169
 8400SOL    HW136659   1.470   3.703   0.496 -0.1346  0.0401 -0.1624
 8400SOL    HW236660   1.372   3.738   0.398  0.0263 -0.8515 -0.3043
 8401SOL     OW36661   0.671   3.707   4.915 -0.2376 -0.0893 -0.2810
 8401SOL    HW136662   0.745   3.724   4.857  1.3256 -0.5224  1.5943
 8401SOL    HW236663   0.608   3.657   4.863 -0.2930 -0.2978 -0.0194
 8402SOL     OW36664   1.262   0.757   3.848 -0.1731  0.2081 -0.4336
 8402SOL    HW136665   1.251   0.662   3.851 -1.2221  0.2969 -1.5291
 8402SOL    HW236666   1.210   0.780   3.924  1.1845  0.9158  0.2829
 8403SOL     OW36667   1.189   0.059   1.106 -0.1966  0.0637  0.4597
 8403SOL    HW136668   1.187   4.692   1.074 -0.8088  0.0183  0.6325
 8403SOL    HW236669   1.223   0.120   1.041 -2.3568 -0.6170 -1.3228
 8404SOL     OW36670   3.287   0.647   3.757  0.3480  0.0732  0.4932
 8404SOL    HW136671   3.226   0.698   3.704  0.7296 -0.3083 -0.3037
 8404SOL    HW236672   3.239   0.566   3.774  1.5686 -1.4391 -3.2099
 8405SOL     OW36673   4.634   3.832   9.373 -0.7625 -0.0859 -0.1962
 8405SOL    HW136674   4.589   3.891   9.434  0.8580  0.5161  0.4126
 8405SOL    HW236675   4.650   3.754   9.425  1.3377  1.0633  0.8836
 8406SOL     OW36676   2.368   3.894   7.120  0.3899 -0.5818 -0.9336
 8406SOL    HW136677   2.334   3.935   7.041  2.1293  1.1291 -0.8135
 8406SOL    HW236678   2.288   3.914   7.169  0.7853 -1.8776  0.2581
 8407SOL     OW36679   0.453   1.577   5.223  0.6356 -0.1757 -0.2636
 8407SOL    HW136680   0.359   1.568   5.207  0.0872  4.5577  0.0394
 8407SOL    HW236681   0.495   1.507   5.173  1.7649  0.1781  0.1768
 8408SOL     OW36682   2.977   3.709   6.283  0.3476 -0.2432 -0.5078
 8408SOL    HW136683   2.898   3.698   6.336  2.0073  0.2809  2.1115
 8408SOL    HW236684   2.970   3.800   6.253  1.8144 -0.1299 -0.4983
 8409SOL     OW36685   0.550   0.069  13.663 -0.1190 -0.2690  0.1320
 8409SOL    HW136686   0.613   0.028  13.604 -0.8070 -1.6993  0.3948
 8409SOL    HW236687   0.480   0.004  13.667  1.1562 -1.7095 -0.6462
 8410SOL     OW36688   3.806   3.697   1.726 -0.2991 -0.3129 -0.0605
 8410SOL    HW136689   3.754   3.618   1.713  1.1411 -1.1169 -1.0340
 8410SOL    HW236690   3.845   3.720   1.641 -1.1801 -0.0902 -0.4094
 8411SOL     OW36691   1.978   0.045   8.207  0.2514 -0.4943 -0.4719
 8411SOL    HW136692   1.957   0.069   8.117 -0.6668  0.6519  0.0588
 8411SOL    HW236693   2.015   0.127   8.238  0.9565 -0.8276 -0.4139
 8412SOL     OW36694   0.272   0.935   7.038  0.1839 -0.1939  0.2415
 8412SOL    HW136695   0.267   0.852   6.990 -0.0128 -0.4142  0.6405
 8412SOL    HW236696   0.182   0.965   7.042  1.0176  2.2595  0.8939
 8413SOL     OW36697   0.392   0.477  17.439 -0.4282  0.0771  0.3631
 8413SOL    HW136698   0.306   0.457  17.402 -0.4845  0.3619  0.3350
 8413SOL    HW236699   0.438   0.522  17.368 -0.7570 -0.2090 -0.0322
 8414SOL     OW36700   1.854   1.763   9.298  0.4528 -0.3240  0.2628
 8414SOL    HW136701   1.817   1.710   9.228  0.8465  2.0472 -1.7133
 8414SOL    HW236702   1.780   1.806   9.342  0.0459 -0.2946 -0.4620
 8415SOL     OW36703   1.298   4.272   3.428 -0.0160  0.2983 -0.5085
 8415SOL    HW136704   1.299   4.318   3.344 -2.8077  1.3466  0.0044
 8415SOL    HW236705   1.221   4.317   3.464  0.1117  0.1865 -0.0996
 8416SOL     OW36706   2.432   1.215  11.318 -0.3685  0.2425  0.1764
 8416SOL    HW136707   2.380   1.139  11.292  0.6667 -0.5263  0.3238
 8416SOL    HW236708   2.518   1.187  11.286 -0.7720 -1.7851  0.8372
 8417SOL     OW36709   0.755   0.962   4.044  0.3041 -0.2730  0.2035
 8417SOL    HW136710   0.697   0.887   4.029 -0.4018  0.1378  0.8676
 8417SOL    HW236711   0.700   1.015   4.102 -1.3391 -0.6414 -1.0145
 8418SOL     OW36712   2.552   4.193   7.104  0.0398 -0.0931 -0.1184
 8418SOL    HW136713   2.534   4.102   7.127 -1.8186 -0.0161 -1.2226
 8418SOL    HW236714   2.642   4.200   7.136 -0.3226  1.5781  0.5115
 8419SOL     OW36715   2.930   1.693  15.311 -0.1035 -0.2383  0.7497
 8419SOL    HW136716   2.903   1.757  15.245 -0.3130 -1.5029 -0.3789
 8419SOL    HW236717   2.874   1.617  15.298  0.1508 -0.3398  0.2620
 8420SOL     OW36718   3.271   0.136  11.683 -0.0968 -0.0750 -0.2463
 8420SOL    HW136719   3.302   0.045  11.678 -0.3948 -0.1166 -1.3344
 8420SOL    HW236720   3.303   0.165  11.768  0.3001  1.4781 -0.9223
 8421SOL     OW36721   1.047   0.202   5.198  0.3802 -0.8198 -0.7654
 8421SOL    HW136722   1.084   0.118   5.225 -0.1211 -0.5645  0.7410
 8421SOL    HW236723   1.111   0.267   5.229 -1.6369 -0.5559  2.7987
 8422SOL     OW36724   3.253   0.308   8.143 -0.4298  0.3824 -0.8961
 8422SOL    HW136725   3.165   0.310   8.180 -0.0919  0.4482 -0.0958
 8422SOL    HW236726   3.297   0.350   8.216 -0.1716 -2.3823  0.5295
 8423SOL     OW36727   1.962   0.392  14.026  0.1031  0.0469 -0.3209
 8423SOL    HW136728   1.929   0.430  14.107 -0.0847  0.8398 -0.7705
 8423SOL    HW236729   1.892   0.382  13.962 -1.9534  2.1311  1.5993
 8424SOL     OW36730   2.414   2.798  16.513 -0.8641  0.0557 -0.8486
 8424SOL    HW136731   2.494   2.800  16.460 -1.1396  0.8015 -1.2353
 8424SOL    HW236732   2.419   2.709  16.547  2.7967  0.4664 -0.2950
 8425SOL     OW36733   1.682   4.017   8.365  0.3259  0.5102 -0.8464
 8425SOL    HW136734   1.643   4.095   8.403  1.3704  1.8828 -2.5827
 8425SOL    HW236735   1.747   3.988   8.429 -0.6496  1.0462  0.3815
 8426SOL     OW36736   0.751   2.293  10.809 -0.0981 -0.4691 -0.3653
 8426SOL    HW136737   0.667   2.327  10.778  0.1603  1.3778  0.9149
 8426SOL    HW236738   0.757   2.217  10.752 -1.0517 -1.9184  1.4559
 8427SOL     OW36739   2.964   0.063   0.263 -0.4386 -0.1048 -0.0413
 8427SOL    HW136740   2.935   0.002   0.194  1.0698  0.9501 -1.6204
 8427SOL    HW236741   2.884   0.070   0.315  0.0127 -0.1288  0.6452
 8428SOL     OW36742   3.070   3.742  10.097 -0.0439  0.2144  0.1400
 8428SOL    HW136743   3.069   3.667  10.157 -0.2014  1.4099  1.6357
 8428SOL    HW236744   2.976   3.747  10.081  0.1859 -0.5439 -1.3834
 8429SOL     OW36745   1.718   2.858   5.972 -0.0975  0.1481 -0.0190
 8429SOL    HW136746   1.660   2.808   6.030  0.1324 -1.8738 -1.5184
 8429SOL    HW236747   1.777   2.788   5.944 -0.5810  0.6640 -2.2640
 8430SOL     OW36748   2.231   3.440   6.337  0.5788  0.2289  0.1434
 8430SOL    HW136749   2.228   3.503   6.265 -1.4391  0.3776  0.3617
 8430SOL    HW236750   2.298   3.385   6.297 -0.7279 -0.5439 -0.9791
 8431SOL     OW36751   2.829   3.589   2.508  0.6693  0.1374  0.6802
 8431SOL    HW136752   2.799   3.512   2.461  2.0017 -0.7136  1.2315
 8431SOL    HW236753   2.818   3.656   2.441 -0.4778 -0.5479  0.1811
 8432SOL     OW36754   0.140   4.448   6.439 -0.2270 -0.6599  0.0337
 8432SOL    HW136755   0.116   4.484   6.524  1.4767 -0.5293  0.4669
 8432SOL    HW236756   0.233   4.474   6.438  0.2786 -2.4214  2.2729
 8433SOL     OW36757   4.283   1.453   8.170  0.0902  0.2453  0.1173
 8433SOL    HW136758   4.282   1.399   8.249  0.9883  0.5571  0.3374
 8433SOL    HW236759   4.294   1.383   8.107 -0.7368  0.6293 -0.4493
 8434SOL     OW36760   4.019   2.225   6.494 -0.2523 -0.3461  0.2001
 8434SOL    HW136761   3.964   2.169   6.440 -0.0271  2.0691 -2.5260
 8434SOL    HW236762   4.095   2.170   6.515 -1.0324 -0.7870  1.8470
 8435SOL     OW36763   1.985   1.789   8.297 -0.0209  0.5329 -0.1837
 8435SOL    HW136764   1.951   1.705   8.264 -0.2923  0.2609  0.8127
 8435SOL    HW236765   1.916   1.851   8.272 -0.8035 -0.6910 -1.0580
 8436SOL     OW36766   3.229   1.679   8.210 -0.3090  0.1433 -0.6433
 8436SOL    HW136767   3.177   1.622   8.153 -1.1423  1.0787 -0.8200
 8436SOL    HW236768   3.163   1.727   8.261  1.9737  2.5921 -0.0162
 8437SOL     OW36769   0.024   2.862  13.012  0.0465  0.5803  0.2130
 8437SOL    HW136770   0.067   2.947  13.020  0.6637  0.4661 -1.7616
 8437SOL    HW236771   4.657   2.887  13.031  0.4429  1.4648  0.8956
 8438SOL     OW36772   4.457   2.138   7.925  0.0560  0.3623 -0.6948
 8438SOL    HW136773   4.525   2.129   7.859  1.2511  0.7098  0.4748
 8438SOL    HW236774   4.507   2.162   8.004 -1.3214  1.2671 -0.1029
 8439SOL     OW36775   4.098   0.856  15.183  0.2978  0.3435 -0.2168
 8439SOL    HW136776   4.040   0.874  15.109 -0.5914  0.8166  0.5995
 8439SOL    HW236777   4.185   0.860  15.143 -0.7280 -1.8541 -2.6577
 8440SOL     OW36778   3.918   0.068  12.042  0.0597  0.5227  0.3158
 8440SOL    HW136779   3.884   0.023  11.965 -1.3925  2.1877 -0.0136
 8440SOL    HW236780   3.928   0.159  12.013  1.5084  1.1008  2.5711
 8441SOL     OW36781   1.617   0.604   3.926  0.6537  0.1104 -0.1556
 8441SOL    HW136782   1.557   0.663   3.973 -0.8410 -1.3106 -0.2627
 8441SOL    HW236783   1.655   0.672   3.872  0.1177  2.1981  2.0759
 8442SOL     OW36784   1.557   3.069  13.006  0.3531 -0.4940 -0.3665
 8442SOL    HW136785   1.581   3.001  13.069  0.3249 -1.0416 -0.9435
 8442SOL    HW236786   1.634   3.053  12.950  0.8943 -0.8356  0.4820
 8443SOL     OW36787   1.618   3.743   1.522 -0.0532 -0.3675 -0.0941
 8443SOL    HW136788   1.582   3.691   1.594  0.6957 -1.2204 -0.3267
 8443SOL    HW236789   1.690   3.688   1.489  0.5507  0.3994 -0.0475
 8444SOL     OW36790   2.155   2.835   4.990 -0.2901 -0.4376  0.1306
 8444SOL    HW136791   2.163   2.833   4.895 -0.8488 -2.4787  0.1214
 8444SOL    HW236792   2.208   2.758   5.014  0.6340  0.1235 -0.1165
 8445SOL     OW36793   3.635   3.655  11.202  0.0425  0.8175 -0.6658
 8445SOL    HW136794   3.609   3.623  11.115  0.0439 -1.7816  0.2776
 8445SOL    HW236795   3.691   3.589  11.242 -3.4053 -0.3493  2.2358
 8446SOL     OW36796   0.394   3.035  14.572 -0.2720 -0.5430 -0.4034
 8446SOL    HW136797   0.322   3.019  14.511  1.0151 -2.0200 -1.5223
 8446SOL    HW236798   0.470   2.993  14.532 -0.3604  0.2324 -1.3878
 8447SOL     OW36799   4.632   3.644   8.041  0.0706 -0.4385  0.9161
 8447SOL    HW136800   4.607   3.563   7.997 -1.0957 -0.1575  1.0571
 8447SOL    HW236801   4.604   3.631   8.132  1.2042 -0.0090  1.3296
 8448SOL     OW36802   3.758   3.045  13.183  0.1450 -0.1319  0.4405
 8448SOL    HW136803   3.721   3.005  13.262  0.6717 -1.1352  0.1819
 8448SOL    HW236804   3.756   3.136  13.213  1.0261 -0.3463  1.1477
 8449SOL     OW36805   0.689   1.204  13.100  0.6829  0.4404 -0.6652
 8449SOL    HW136806   0.665   1.292  13.130  0.1641 -0.2155  0.8485
 8449SOL    HW236807   0.698   1.149  13.178  0.3023  0.8246 -0.3528
 8450SOL     OW36808   0.908   4.623   7.181 -0.6892  0.2305  0.5157
 8450SOL    HW136809   0.881   4.630   7.272  0.2372 -0.9438  0.8861
 8450SOL    HW236810   0.993   4.578   7.188 -1.1389 -0.3599  2.1537
 8451SOL     OW36811   0.291   0.700   6.920 -0.4614 -0.0208 -0.4745
 8451SOL    HW136812   0.252   0.682   6.834 -0.3728 -0.4389 -0.4282
 8451SOL    HW236813   0.371   0.647   6.911 -1.2993 -1.7404  2.1991
 8452SOL     OW36814   0.266   0.055   2.099 -0.6077 -0.6857  0.8505
 8452SOL    HW136815   0.347   0.032   2.056  0.6597  1.6629  1.9430
 8452SOL    HW236816   0.204   0.003   2.048 -1.9268  0.9519  0.7840
 8453SOL     OW36817   1.982   2.836   5.214  0.3554  0.2027  0.4735
 8453SOL    HW136818   2.070   2.840   5.177 -0.0565 -0.6104 -0.5814
 8453SOL    HW236819   1.963   2.924   5.246 -1.7308 -0.7235  1.7811
 8454SOL     OW36820   2.015   2.615   0.252 -0.2487 -0.1005 -0.3021
 8454SOL    HW136821   2.056   2.529   0.242  1.1276  0.3707  1.1729
 8454SOL    HW236822   1.969   2.616   0.169 -0.5941 -1.5799 -0.1266
 8455SOL     OW36823   3.540   2.140   9.072 -0.7537  0.2475  0.3649
 8455SOL    HW136824   3.586   2.059   9.089  0.8595  1.2156  0.5584
 8455SOL    HW236825   3.569   2.185   9.151  1.1277 -1.0028  0.3868
 8456SOL     OW36826   2.060   4.467   4.017 -0.5692 -0.0808 -0.0849
 8456SOL    HW136827   1.985   4.451   3.960 -0.4950  1.1794 -0.5323
 8456SOL    HW236828   2.127   4.458   3.949  1.3205 -1.9264  2.0403
 8457SOL     OW36829   0.269   3.430   1.219  0.2968  0.3334 -0.0205
 8457SOL    HW136830   0.222   3.495   1.167 -1.3278 -0.2801  0.6766
 8457SOL    HW236831   0.268   3.481   1.299  0.7740 -0.8737  0.7503
 8458SOL     OW36832   3.418   0.133   4.822  0.0370 -0.2625  0.1473
 8458SOL    HW136833   3.329   0.165   4.804 -0.5959 -0.7186  2.3999
 8458SOL    HW236834   3.404   0.057   4.879 -1.5146  0.4052  0.6692
 8459SOL     OW36835   0.288   3.872  12.429  0.3068  0.3604  0.2404
 8459SOL    HW136836   0.298   3.938  12.360 -0.7042 -1.6765 -1.8803
 8459SOL    HW236837   0.331   3.906  12.507 -0.9673 -0.9160  1.5054
 8460SOL     OW36838   3.529   3.397   8.558 -0.3250 -0.5008  0.0573
 8460SOL    HW136839   3.469   3.468   8.581  0.0491  0.4345 -1.9004
 8460SOL    HW236840   3.520   3.402   8.463 -0.9111 -1.5987  0.0604
 8461SOL     OW36841   1.273   0.768   6.691  0.5717 -0.8673  0.2266
 8461SOL    HW136842   1.213   0.834   6.657  1.9072  0.1878 -0.0790
 8461SOL    HW236843   1.214   0.697   6.717 -0.1842  1.1063  4.0248
 8462SOL     OW36844   0.636   4.692  16.035  0.2579 -0.2820 -0.4161
 8462SOL    HW136845   0.714   0.022  16.017  1.2153 -1.2213  0.9720
 8462SOL    HW236846   0.673   4.613  16.074 -0.1494  1.2378  2.9842
 8463SOL     OW36847   0.878   2.560  16.108 -0.3159 -0.7061 -0.0774
 8463SOL    HW136848   0.853   2.651  16.124  1.9367  0.0949 -1.1718
 8463SOL    HW236849   0.838   2.562  16.021  1.9329 -1.4430 -1.1019
 8464SOL     OW36850   1.049   2.318   0.642 -0.2447 -0.1116  0.6898
 8464SOL    HW136851   1.100   2.252   0.688  1.6798 -0.1286 -1.4761
 8464SOL    HW236852   1.014   2.375   0.710  0.7140 -0.0242  1.1086
 8465SOL     OW36853   1.503   1.381   3.878  0.4744 -0.5716 -0.3191
 8465SOL    HW136854   1.445   1.419   3.944  1.5183  0.5486 -0.0375
 8465SOL    HW236855   1.449   1.375   3.800 -1.8988 -0.6496  1.3370
 8466SOL     OW36856   0.462   0.611   1.195 -0.0012 -0.4182 -0.3189
 8466SOL    HW136857   0.380   0.603   1.147  0.7747  1.2430 -1.9125
 8466SOL    HW236858   0.448   0.528   1.240 -0.5847 -0.1974 -0.0961
 8467SOL     OW36859   2.195   2.503  11.930 -0.0255 -0.2300  0.5127
 8467SOL    HW136860   2.151   2.420  11.945 -2.7673  1.4392  1.7231
 8467SOL    HW236861   2.121   2.563  11.919  0.4592  0.3806  0.5307
 8468SOL     OW36862   3.614   4.597   7.678 -0.0188  0.0806 -0.6447
 8468SOL    HW136863   3.560   4.674   7.659 -1.6691 -0.0672  3.3899
 8468SOL    HW236864   3.571   4.543   7.611 -2.4810  1.0869  0.1323
 8469SOL     OW36865   3.165   1.687  15.168  0.4630  0.1569 -0.2432
 8469SOL    HW136866   3.222   1.665  15.242  1.2175 -0.1633 -0.9211
 8469SOL    HW236867   3.082   1.676  15.215  0.5760  1.1330  0.1777
 8470SOL     OW36868   4.303   2.213   2.878 -0.2884 -0.4681  0.2243
 8470SOL    HW136869   4.340   2.301   2.875 -0.5318 -0.3459  0.9902
 8470SOL    HW236870   4.378   2.165   2.912  1.1384  1.3715 -0.2958
 8471SOL     OW36871   0.835   4.081   8.345 -0.4508  0.0832  0.0833
 8471SOL    HW136872   0.890   4.091   8.267 -1.0857 -1.6068 -0.5941
 8471SOL    HW236873   0.875   4.144   8.404 -2.1877  0.0858  1.2486
 8472SOL     OW36874   2.202   1.155   5.707  0.1911 -0.0426 -0.0956
 8472SOL    HW136875   2.285   1.190   5.674 -0.2044  1.3407  0.3610
 8472SOL    HW236876   2.152   1.237   5.711 -0.1790 -0.2740 -0.0474
 8473SOL     OW36877   0.284   2.804   8.385  0.1248  0.0386 -0.0151
 8473SOL    HW136878   0.245   2.753   8.455 -0.8889  0.1160 -0.5214
 8473SOL    HW236879   0.205   2.836   8.341 -0.1937  0.6192  0.9614
 8474SOL     OW36880   0.768   3.936   7.014  0.2732  0.2734 -0.2970
 8474SOL    HW136881   0.693   3.940   7.074  1.7666  1.4533  1.4980
 8474SOL    HW236882   0.839   3.902   7.068  0.1382  1.2113  0.4852
 8475SOL     OW36883   1.089   2.239   6.706  0.6634  0.2334 -0.2784
 8475SOL    HW136884   1.163   2.214   6.762  0.2836  0.0198  0.1365
 8475SOL    HW236885   1.117   2.183   6.634  1.8910  2.3797 -1.4519
 8476SOL     OW36886   3.530   1.332   6.626 -0.0420  0.6518 -0.1783
 8476SOL    HW136887   3.564   1.421   6.635  2.2033 -0.2234 -0.0136
 8476SOL    HW236888   3.440   1.337   6.659  1.3189  0.0918  3.6325
 8477SOL     OW36889   2.823   2.700  13.035  0.0113  0.0554 -0.3496
 8477SOL    HW136890   2.893   2.764  13.022  0.0019 -0.2682 -2.0112
 8477SOL    HW236891   2.759   2.722  12.967 -1.0670  0.5492  0.8127
 8478SOL     OW36892   2.374   4.458  14.904  0.0738  0.2463  0.0502
 8478SOL    HW136893   2.321   4.379  14.894  2.4039 -1.5444  1.9784
 8478SOL    HW236894   2.456   4.447  14.856  0.2994 -1.0064  0.7191
 8479SOL     OW36895   0.619   3.099  15.593 -0.0460 -0.3999 -0.4726
 8479SOL    HW136896   0.710   3.094  15.622  0.0023 -3.0283 -1.0807
 8479SOL    HW236897   0.624   3.174  15.534 -1.0563  0.0289 -0.0178
 8480SOL     OW36898   2.560   2.013   0.575  0.3673 -0.0547  0.3998
 8480SOL    HW136899   2.475   2.001   0.618  0.9233 -2.7885  0.7540
 8480SOL    HW236900   2.602   2.058   0.649  0.0885 -0.2307  0.6648
 8481SOL     OW36901   2.040   0.028  12.093 -0.6949 -0.3526 -0.2638
 8481SOL    HW136902   2.108   0.082  12.132 -0.4741  1.3688 -3.0288
 8481SOL    HW236903   1.978   0.003  12.161  0.7711 -1.3838  0.7049
 8482SOL     OW36904   4.010   2.217  12.084 -0.1512 -0.4128  0.0236
 8482SOL    HW136905   4.089   2.224  12.138 -0.5652 -0.9436  0.6990
 8482SOL    HW236906   4.006   2.309  12.058 -0.0370  0.4870  3.2292
 8483SOL     OW36907   3.850   4.052   0.022  0.1014 -0.1950 -0.2494
 8483SOL    HW136908   3.868   4.145   0.032  0.4339 -0.6001  2.8709
 8483SOL    HW236909   3.814   4.026   0.107  0.7953 -1.6062 -0.3916
 8484SOL     OW36910   2.562   1.808  17.436  0.0447  0.3938 -0.0706
 8484SOL    HW136911   2.616   1.876  17.476  0.1342 -0.9750  2.1312
 8484SOL    HW236912   2.476   1.836  17.469  0.3882  1.0577  0.2625
 8485SOL     OW36913   3.429   2.299  11.797 -0.5768 -0.5910 -0.2466
 8485SOL    HW136914   3.453   2.364  11.863 -0.6304  1.1518 -1.9354
 8485SOL    HW236915   3.374   2.253  11.861  0.7171 -1.7332  0.0346
 8486SOL     OW36916   4.287   4.158   2.438  0.0070  0.5491 -0.1153
 8486SOL    HW136917   4.289   4.180   2.531  0.7032  0.3441 -0.0795
 8486SOL    HW236918   4.369   4.200   2.413 -0.3031 -0.1625 -2.2823
 8487SOL     OW36919   0.599   4.526   1.627  0.3040 -0.0676  0.2087
 8487SOL    HW136920   0.611   4.440   1.588  0.6424 -0.7241  1.7508
 8487SOL    HW236921   0.668   4.584   1.595 -1.0928  0.7886 -1.2799
 8488SOL     OW36922   0.180   3.027   7.018  0.1573  0.2545 -0.4571
 8488SOL    HW136923   0.205   3.119   7.026  1.7679 -0.0667 -1.7514
 8488SOL    HW236924   0.250   2.993   6.962  1.4911 -0.9066  1.8966
 8489SOL     OW36925   3.871   2.647   9.449  0.1620 -0.3300  0.1957
 8489SOL    HW136926   3.845   2.704   9.377  2.9013  1.1983  0.4128
 8489SOL    HW236927   3.918   2.580   9.400 -0.8443 -2.0196  1.5306
 8490SOL     OW36928   1.248   4.331  10.861 -0.1386  0.0461 -0.3958
 8490SOL    HW136929   1.255   4.264  10.928  1.5837 -0.9147 -1.5580
 8490SOL    HW236930   1.323   4.389  10.875  0.0017 -0.6503  1.7408
 8491SOL     OW36931   0.869   1.063   5.469  0.2227 -0.1841 -0.0486
 8491SOL    HW136932   0.878   1.158   5.477 -2.0503  0.0921 -0.6541
 8491SOL    HW236933   0.963   1.050   5.459  0.1432 -0.9984  0.2535
 8492SOL     OW36934   3.175   3.976   4.087  0.4058 -0.7620  0.0868
 8492SOL    HW136935   3.151   3.901   4.142 -2.7966  0.9988  1.0852
 8492SOL    HW236936   3.090   4.002   4.052  0.5531  0.4010  0.5897
 8493SOL     OW36937   4.021   0.491   3.284 -0.7553  0.3923  0.2128
 8493SOL    HW136938   4.078   0.566   3.300  1.5617 -1.2612 -0.1639
 8493SOL    HW236939   3.989   0.504   3.195  1.2770  0.6133 -0.4971
 8494SOL     OW36940   0.353   2.112   6.255  0.2008 -0.1238 -0.1281
 8494SOL    HW136941   0.358   2.095   6.160  3.5792 -0.8313  0.1701
 8494SOL    HW236942   0.259   2.094   6.263  0.0683  0.0043 -1.3823
 8495SOL     OW36943   4.147   0.920  13.672 -0.4472 -0.0162 -0.2922
 8495SOL    HW136944   4.129   0.928  13.578  1.0931  0.9360 -0.5066
 8495SOL    HW236945   4.218   0.984  13.683 -1.2724  0.6427  1.1820
 8496SOL     OW36946   2.980   0.544   8.630  0.5177  0.2554 -0.7917
 8496SOL    HW136947   2.935   0.575   8.708  0.7440 -1.0169 -0.1471
 8496SOL    HW236948   2.921   0.472   8.607 -0.5308  0.7937  0.2595
 8497SOL     OW36949   1.960   2.023  15.391  0.1403  0.0088 -0.4974
 8497SOL    HW136950   1.883   2.061  15.433  0.6395  1.4439 -0.8987
 8497SOL    HW236951   1.939   2.035  15.298  0.0583 -0.3019 -0.5198
 8498SOL     OW36952   2.795   2.559   1.287 -0.3387  0.3612  0.0851
 8498SOL    HW136953   2.759   2.648   1.285  0.9142  0.9234  1.8748
 8498SOL    HW236954   2.798   2.544   1.193  0.9899  1.9788 -0.1320
 8499SOL     OW36955   0.684   0.125   4.878 -0.2258  0.2874  0.4132
 8499SOL    HW136956   0.743   0.110   4.952  0.1864  1.2088  0.2709
 8499SOL    HW236957   0.749   0.162   4.819  0.9091  0.0857  1.5282
 8500SOL     OW36958   0.279   0.848   9.450  0.1011  0.1370  0.3954
 8500SOL    HW136959   0.192   0.819   9.475  0.7097 -1.5188  0.5885
 8500SOL    HW236960   0.251   0.932   9.412  0.3973 -0.5891 -1.4566
 8501SOL     OW36961   3.049   4.569   3.231  0.3008 -0.6424  0.0696
 8501SOL    HW136962   3.090   4.505   3.173  1.8579  0.0251  0.4417
 8501SOL    HW236963   2.990   4.605   3.164 -0.1367  2.3052  2.0297
 8502SOL     OW36964   3.642   0.847   0.733  0.1277  0.1405 -0.1210
 8502SOL    HW136965   3.671   0.833   0.823 -0.7483  1.8670  0.4288
 8502SOL    HW236966   3.702   0.918   0.710 -0.5203  0.3117 -1.3446
 8503SOL     OW36967   1.343   3.691   3.872  0.1480 -0.0897  0.0750
 8503SOL    HW136968   1.343   3.598   3.849  0.3484  0.2286 -1.2410
 8503SOL    HW236969   1.427   3.688   3.918 -0.2408  0.2390  0.7996
 8504SOL     OW36970   3.843   4.031  17.106 -0.2048 -0.1347  0.4374
 8504SOL    HW136971   3.906   4.077  17.162  2.1158 -1.7617 -0.8090
 8504SOL    HW236972   3.891   3.950  17.090 -1.2446 -0.4842 -0.9332
 8505SOL     OW36973   2.278   1.280   2.728  0.3033  0.2049 -0.2846
 8505SOL    HW136974   2.246   1.242   2.810  1.8064 -0.1826  0.1196
 8505SOL    HW236975   2.261   1.374   2.733  1.5899  0.4922 -1.3647
 8506SOL     OW36976   1.152   4.647   5.278 -0.3406  0.0635  0.0597
 8506SOL    HW136977   1.212   4.648   5.353 -1.1596 -0.1733  0.7219
 8506SOL    HW236978   1.213   4.624   5.209  0.4290 -0.6754  0.9884
 8507SOL     OW36979   0.764   4.424   8.230 -0.2574  0.0474  0.1202
 8507SOL    HW136980   0.707   4.445   8.156  2.4419 -1.5969 -2.4153
 8507SOL    HW236981   0.745   4.498   8.287  2.1060  1.9919 -1.6124
 8508SOL     OW36982   2.681   2.083   2.685  0.0294  0.6455  0.5012
 8508SOL    HW136983   2.643   1.998   2.663 -0.3040  1.1047 -0.7053
 8508SOL    HW236984   2.723   2.115   2.605  0.1227 -0.5670  0.0567
 8509SOL     OW36985   4.577   4.249   8.246 -0.1530 -0.0600 -0.0851
 8509SOL    HW136986   4.665   4.230   8.213 -0.3628  0.9775 -1.2229
 8509SOL    HW236987   4.593   4.269   8.338  1.7646 -0.7494 -0.2720
 8510SOL     OW36988   0.582   0.777   0.133 -0.2731  0.0452  0.4630
 8510SOL    HW136989   0.536   0.716   0.075  0.3376 -0.4298  0.4857
 8510SOL    HW236990   0.672   0.756   0.108 -0.5600  0.8317 -1.2727
 8511SOL     OW36991   3.977   0.100  15.872 -0.1926 -0.0936 -0.1762
 8511SOL    HW136992   3.998   0.150  15.793  0.0966  0.0628  0.0006
 8511SOL    HW236993   3.881   0.103  15.868 -0.2428 -0.4928  0.8405
 8512SOL     OW36994   4.494   3.697   3.031  0.2034 -0.1046 -0.0093
 8512SOL    HW136995   4.523   3.624   3.087  0.1607  0.4392  0.7318
 8512SOL    HW236996   4.524   3.672   2.944  0.6714 -1.5380  0.5628
 8513SOL     OW36997   1.577   0.420   4.543 -0.5560  0.1755 -0.4198
 8513SOL    HW136998   1.572   0.378   4.457 -4.4324 -0.5099  0.1364
 8513SOL    HW236999   1.523   0.361   4.596 -1.3171 -2.1093 -3.7038
 8514SOL     OW37000   0.865   1.633  13.725 -0.0560 -0.0462  0.0412
 8514SOL    HW137001   0.912   1.598  13.800  1.1113  2.7725  0.6090
 8514SOL    HW237002   0.809   1.696  13.770  0.5817 -1.2616  2.4880
 8515SOL     OW37003   2.646   2.362   5.640  0.3342 -0.0422 -0.3696
 8515SOL    HW137004   2.727   2.406   5.665 -0.9493  2.9069 -1.4586
 8515SOL    HW237005   2.682   2.343   5.553  1.6006 -1.1212  0.3870
 8516SOL     OW37006   3.966   2.166   6.045  0.4498 -0.6122 -0.0295
 8516SOL    HW137007   3.962   2.110   6.123  0.7532  0.5319  0.8130
 8516SOL    HW237008   3.923   2.249   6.068  1.8711  0.4370 -1.1610
 8517SOL     OW37009   4.523   3.792   3.721 -0.0555 -0.1470 -0.5309
 8517SOL    HW137010   4.564   3.861   3.774 -1.4518  0.1570  0.1674
 8517SOL    HW237011   4.524   3.835   3.635 -5.2827  0.1833 -0.4265
 8518SOL     OW37012   4.007   1.107   6.695  0.6339 -0.0183  0.2419
 8518SOL    HW137013   4.081   1.116   6.635  0.8601  0.5170  0.6005
 8518SOL    HW237014   4.052   1.127   6.777 -0.6335  2.3198  0.3578
 8519SOL     OW37015   1.792   3.293   5.132  0.2595  0.5250 -0.1544
 8519SOL    HW137016   1.735   3.311   5.057 -0.4805 -0.2115  0.2292
 8519SOL    HW237017   1.733   3.309   5.207  0.1017 -1.0187  0.0493
 8520SOL     OW37018   0.941   1.560   8.693 -0.0124  0.4251 -0.0091
 8520SOL    HW137019   0.857   1.557   8.647 -1.4542 -0.9715  2.7123
 8520SOL    HW237020   0.935   1.475   8.737  0.4110  0.8146  0.7904
 8521SOL     OW37021   4.383   3.753   0.206 -0.1790 -0.3937 -0.1009
 8521SOL    HW137022   4.366   3.791   0.293 -3.4779 -0.0422 -0.9173
 8521SOL    HW237023   4.300   3.736   0.164  0.2958 -0.3122 -1.0710
 8522SOL     OW37024   1.323   4.244  15.428 -0.0565  0.4572  0.2632
 8522SOL    HW137025   1.308   4.325  15.380 -0.9343  0.5139  0.6440
 8522SOL    HW237026   1.231   4.228  15.451 -0.0530  2.6890  1.8461
 8523SOL     OW37027   0.393   0.231   6.428  0.4103 -0.4070  0.6238
 8523SOL    HW137028   0.474   0.278   6.449 -0.2106  1.1423 -0.4446
 8523SOL    HW237029   0.394   0.180   6.509  0.1942 -2.6154 -0.7772
 8524SOL     OW37030   3.612   2.077   6.998 -0.4158  0.6786  0.9898
 8524SOL    HW137031   3.564   2.115   7.071  0.8385 -1.6152  3.0010
 8524SOL    HW237032   3.539   2.038   6.949  0.6002 -0.1826  0.1425
 8525SOL     OW37033   0.425   3.617   7.652 -0.3058 -0.3769  0.0603
 8525SOL    HW137034   0.334   3.621   7.679 -0.2204  0.3599  0.2447
 8525SOL    HW237035   0.457   3.611   7.742 -1.8427  0.5805  0.6491
 8526SOL     OW37036   1.787   0.218   1.831 -0.0623  0.0795 -0.9776
 8526SOL    HW137037   1.844   0.295   1.829 -0.5694  0.4827  0.1039
 8526SOL    HW237038   1.699   0.253   1.828  0.5039  1.6665  1.5973
 8527SOL     OW37039   2.271   3.988   6.863 -0.1186 -0.2938 -0.1436
 8527SOL    HW137040   2.248   3.954   6.777  2.0606  0.1511 -0.8938
 8527SOL    HW237041   2.348   4.040   6.838  0.5710 -0.0694  2.4830
 8528SOL     OW37042   1.281   4.343  14.221 -0.8187  0.3768  0.1987
 8528SOL    HW137043   1.340   4.300  14.283 -2.8244 -0.4935  1.5153
 8528SOL    HW237044   1.253   4.262  14.178  1.6942 -0.4410  0.0825
 8529SOL     OW37045   0.474   0.936   4.570 -0.3556 -0.1515  0.1133
 8529SOL    HW137046   0.518   0.902   4.492  1.3746 -1.4849  1.7009
 8529SOL    HW237047   0.545   0.948   4.632 -0.6423 -0.9255  0.5821
 8530SOL     OW37048   4.051   3.963   3.698 -0.0882 -0.3317 -0.3174
 8530SOL    HW137049   4.022   3.983   3.787  1.4185  0.5171 -0.0185
 8530SOL    HW237050   4.025   4.041   3.650 -4.0457 -0.9370  0.8530
 8531SOL     OW37051   1.307   2.039   8.143 -0.0053  0.0819 -0.0855
 8531SOL    HW137052   1.241   2.033   8.074  0.5654  1.0800 -0.7189
 8531SOL    HW237053   1.345   2.124   8.122  0.4092 -0.4048 -1.2767
 8532SOL     OW37054   3.142   0.754   8.881 -0.4129 -0.1683 -0.6576
 8532SOL    HW137055   3.148   0.834   8.933 -3.0678 -1.7543  2.0578
 8532SOL    HW237056   3.052   0.725   8.895 -0.8675  1.3170 -0.5740
 8533SOL     OW37057   2.468   1.777   0.800  0.4547 -0.1180 -0.3422
 8533SOL    HW137058   2.495   1.839   0.868 -0.0485  1.1671 -1.3131
 8533SOL    HW237059   2.537   1.774   0.734 -2.0116  3.5140 -3.1234
 8534SOL     OW37060   4.338   3.343   3.021  0.2759 -0.1231  0.6584
 8534SOL    HW137061   4.378   3.379   3.100  2.3424  0.2079 -0.5371
 8534SOL    HW237062   4.246   3.339   3.049 -0.0257 -1.1739 -0.4828
 8535SOL     OW37063   3.249   2.089  10.434  0.2477  0.0608  0.0718
 8535SOL    HW137064   3.285   2.162  10.384 -0.7804  2.0915  2.2309
 8535SOL    HW237065   3.329   2.041  10.453 -0.4671 -1.4670 -0.8342
 8536SOL     OW37066   2.405   3.308   7.241  0.8754  0.0084 -0.1459
 8536SOL    HW137067   2.393   3.264   7.325  2.6802  4.2232  2.3322
 8536SOL    HW237068   2.466   3.250   7.197  1.7997  1.1115 -0.3309
 8537SOL     OW37069   4.276   3.228  16.311  0.5290 -0.4261 -0.0794
 8537SOL    HW137070   4.289   3.214  16.217 -1.1973 -1.0417 -0.2259
 8537SOL    HW237071   4.230   3.148  16.336  1.3299 -0.4195  1.4004
 8538SOL     OW37072   2.754   4.698   3.706 -0.3225  0.3100 -0.1830
 8538SOL    HW137073   2.693   0.038   3.744  0.3249  1.8048 -1.6145
 8538SOL    HW237074   2.720   4.616   3.740  1.4584 -0.8385 -1.1942
 8539SOL     OW37075   4.073   0.140  10.168 -0.2643  0.0094 -0.2264
 8539SOL    HW137076   4.036   0.139  10.080  1.0994  1.5912 -0.8145
 8539SOL    HW237077   4.067   0.054  10.210 -1.3985  0.1854 -0.0184
 8540SOL     OW37078   2.840   3.111   6.070  0.3194 -0.2820 -0.4573
 8540SOL    HW137079   2.802   3.031   6.108 -0.7252  0.5561  0.2753
 8540SOL    HW237080   2.796   3.115   5.986 -1.2804  0.5045  0.4244
 8541SOL     OW37081   1.442   0.346   3.781 -0.0103  0.3315  0.0799
 8541SOL    HW137082   1.480   0.347   3.869 -0.5305 -0.4643  0.3214
 8541SOL    HW237083   1.408   0.433   3.761  0.9427  0.7305  0.2064
 8542SOL     OW37084   4.223   1.482  17.459 -0.1990  0.0156 -0.3651
 8542SOL    HW137085   4.285   1.544  17.423 -1.0407 -0.0496 -1.9287
 8542SOL    HW237086   4.284   1.427  17.508  1.6328  2.9967  0.6995
 8543SOL     OW37087   1.880   4.322   0.030  0.0018 -0.2032  0.7495
 8543SOL    HW137088   1.811   4.267   0.067 -0.0974 -1.7066 -1.6611
 8543SOL    HW237089   1.845   4.411   0.024  3.5378  1.0105 -1.7024
 8544SOL     OW37090   1.798   0.228   3.973 -0.2294 -0.5868 -0.5843
 8544SOL    HW137091   1.865   0.290   4.001  0.2516 -1.0809 -0.6479
 8544SOL    HW237092   1.818   0.215   3.880 -0.5659 -0.8271 -0.6262
 8545SOL     OW37093   1.421   3.482  12.312  0.4093 -0.1887  0.0949
 8545SOL    HW137094   1.441   3.395  12.277  1.9468 -0.1510  0.8969
 8545SOL    HW237095   1.414   3.475  12.407  1.9552 -0.2530  0.2070
 8546SOL     OW37096   0.956   1.786   4.606 -0.3671 -0.1741 -0.1241
 8546SOL    HW137097   1.008   1.859   4.572  0.4276 -0.9939 -0.6585
 8546SOL    HW237098   1.024   1.724   4.631 -0.8808 -0.6625  0.0570
 8547SOL     OW37099   3.757   1.326   5.694 -0.3562  0.4044  0.0112
 8547SOL    HW137100   3.731   1.408   5.736  0.0679 -0.2711  1.5965
 8547SOL    HW237101   3.840   1.342   5.650  0.4175  2.7625  2.3184
 8548SOL     OW37102   3.903   3.736   8.477 -0.5609 -0.0945  0.1358
 8548SOL    HW137103   3.815   3.710   8.451  0.0723  0.0554 -2.0965
 8548SOL    HW237104   3.879   3.812   8.530 -0.6871  0.1193 -0.2321
 8549SOL     OW37105   2.014   2.500   4.925 -0.3057 -0.6370  0.5358
 8549SOL    HW137106   1.988   2.446   5.000  0.3915 -1.4831  0.1660
 8549SOL    HW237107   2.090   2.447   4.900 -1.1721 -3.1397  3.3068
 8550SOL     OW37108   2.039   0.067   4.536  0.0067  0.0639  0.1015
 8550SOL    HW137109   2.063   0.146   4.487  0.8605 -0.6528 -0.6388
 8550SOL    HW237110   2.076   0.002   4.476 -2.9849 -1.4298 -0.1253
 8551SOL     OW37111   0.124   2.633   4.797  0.5080 -0.7202  0.4539
 8551SOL    HW137112   0.180   2.711   4.796 -0.5155  0.0158 -0.0406
 8551SOL    HW237113   0.058   2.660   4.732  0.5473 -1.3919  0.1302
 8552SOL     OW37114   3.391   3.933  14.022 -0.1846  0.2353  0.4119
 8552SOL    HW137115   3.330   3.867  14.053 -2.1671  0.6272 -2.6129
 8552SOL    HW237116   3.356   4.019  14.047 -1.1325  0.6481 -2.2973
 8553SOL     OW37117   3.690   0.036  10.651 -0.2636 -0.3896  0.6109
 8553SOL    HW137118   3.663   4.673  10.617  2.0747  0.1295 -2.6169
 8553SOL    HW237119   3.778   0.010  10.677  0.1455  0.9508  0.5588
 8554SOL     OW37120   0.353   2.363   0.157 -0.0136 -0.2484  0.1176
 8554SOL    HW137121   0.301   2.283   0.144  1.0447 -0.8752 -0.2858
 8554SOL    HW237122   0.290   2.435   0.150  0.9853  0.7464  1.3579
 8555SOL     OW37123   0.918   3.589  16.205 -0.0330  0.0784  0.3816
 8555SOL    HW137124   0.846   3.527  16.202  0.8460 -0.8612 -1.2242
 8555SOL    HW237125   0.978   3.548  16.267  0.7630 -1.2592 -1.2657
 8556SOL     OW37126   0.960   0.438   3.983 -0.0441 -0.3672  0.1199
 8556SOL    HW137127   0.964   0.359   3.928 -0.0872 -0.6521  0.5278
 8556SOL    HW237128   0.900   0.404   4.049 -1.2501 -2.0830 -1.8499
 8557SOL     OW37129   3.402   4.412   4.620  0.1487 -0.2693 -0.1183
 8557SOL    HW137130   3.357   4.497   4.627 -0.6548 -0.7587  0.6284
 8557SOL    HW237131   3.440   4.427   4.533 -0.5245  1.3482 -0.1365
 8558SOL     OW37132   2.545   1.231   6.638  0.5549 -0.6187  0.2908
 8558SOL    HW137133   2.459   1.192   6.623  0.0491  1.3554 -1.9387
 8558SOL    HW237134   2.538   1.223   6.733  0.4914 -0.5592  0.2915
 8559SOL     OW37135   3.452   3.471   2.065 -0.1449  0.3937  0.8901
 8559SOL    HW137136   3.451   3.512   1.979 -2.1167 -1.0299  0.2383
 8559SOL    HW237137   3.487   3.547   2.112  2.4402  0.9938 -2.0024
 8560SOL     OW37138   0.595   0.181   4.573  0.3708  0.0661 -0.0205
 8560SOL    HW137139   0.689   0.183   4.590  0.9497 -3.0687 -2.6537
 8560SOL    HW237140   0.584   0.254   4.634  0.8362  0.1727 -0.0644
 8561SOL     OW37141   4.375   1.453   1.272 -0.1064 -0.0393  0.2731
 8561SOL    HW137142   4.403   1.362   1.263 -2.1716 -0.7533  0.9201
 8561SOL    HW237143   4.294   1.450   1.222  0.5033  0.8930 -0.7549
 8562SOL     OW37144   2.870   1.373   2.136  0.1393  0.5351 -0.2162
 8562SOL    HW137145   2.881   1.278   2.136  0.7761  0.6091 -1.8635
 8562SOL    HW237146   2.951   1.401   2.179 -0.3500 -0.2215  1.1850
 8563SOL     OW37147   2.644   0.812  15.816  0.3851 -0.1405 -0.0888
 8563SOL    HW137148   2.733   0.828  15.783  0.2468  1.1767  0.2095
 8563SOL    HW237149   2.675   0.758  15.890  0.7394 -1.4776 -1.2095
 8564SOL     OW37150   3.106   0.727   5.355 -0.8066 -0.5555 -0.1115
 8564SOL    HW137151   3.084   0.769   5.272 -0.4145  0.4361  0.2817
 8564SOL    HW237152   3.056   0.783   5.415 -0.8966 -2.1249  1.2690
 8565SOL     OW37153   3.581   0.393   0.913 -0.2750 -0.1705  0.4363
 8565SOL    HW137154   3.521   0.467   0.896  0.3324  0.5219  1.3451
 8565SOL    HW237155   3.646   0.443   0.962  0.1108  0.9247 -1.1975
 8566SOL     OW37156   2.207   0.357   8.655 -0.5820  0.0438 -0.1621
 8566SOL    HW137157   2.227   0.278   8.605  3.3542 -0.3900  2.1089
 8566SOL    HW237158   2.178   0.324   8.741 -1.0720 -1.1309 -0.7772
 8567SOL     OW37159   3.727   1.155   5.903  0.4175 -0.3332  0.0145
 8567SOL    HW137160   3.709   1.205   5.823 -0.3537  1.0720  1.0687
 8567SOL    HW237161   3.820   1.137   5.890  0.4111 -0.6491  0.3976
 8568SOL     OW37162   1.847   0.253   5.823 -0.4364 -0.2010  0.6970
 8568SOL    HW137163   1.811   0.181   5.875 -1.1114 -1.0785 -0.9625
 8568SOL    HW237164   1.911   0.206   5.769 -2.8883 -1.3182 -1.2367
 8569SOL     OW37165   3.715   3.358  14.600  0.3587 -0.3810  0.1406
 8569SOL    HW137166   3.626   3.342  14.630 -0.0696  1.8888  0.1074
 8569SOL    HW237167   3.765   3.346  14.681  1.4064  1.2320 -0.2542
 8570SOL     OW37168   3.927   0.144   2.634  0.4635  0.0588 -0.0247
 8570SOL    HW137169   3.970   0.090   2.700  1.1501  1.9825  1.1071
 8570SOL    HW237170   3.984   0.221   2.634  0.8053 -0.1985 -0.4673
 8571SOL     OW37171   3.759   1.823  10.326 -0.5817  0.2255 -0.4787
 8571SOL    HW137172   3.699   1.887  10.365  0.5907  0.7152  0.5041
 8571SOL    HW237173   3.764   1.851  10.234  1.8437 -0.4418 -0.5414
 8572SOL     OW37174   4.230   4.093   7.321 -0.3269 -0.0600  0.4222
 8572SOL    HW137175   4.246   4.173   7.371  2.4196  0.1481 -0.7831
 8572SOL    HW237176   4.263   4.128   7.238 -0.6690  1.0866  0.7697
 8573SOL     OW37177   0.536   1.678   4.296 -0.0687 -0.1835 -0.0852
 8573SOL    HW137178   0.538   1.694   4.391  1.9754  0.1469 -0.1831
 8573SOL    HW237179   0.534   1.770   4.268  0.1574 -0.3667 -0.6988
 8574SOL     OW37180   3.453   0.688   1.948  0.7578  0.2015 -0.4151
 8574SOL    HW137181   3.410   0.610   1.913  0.3636 -0.9140  2.5764
 8574SOL    HW237182   3.486   0.737   1.873  0.9133 -1.5168 -1.4460
 8575SOL     OW37183   3.628   1.529   9.299  0.3435 -0.0565  0.2524
 8575SOL    HW137184   3.584   1.613   9.294 -1.9672 -1.2931 -0.0158
 8575SOL    HW237185   3.665   1.521   9.211  1.0798 -1.6155  0.6972
 8576SOL     OW37186   3.803   2.273   9.507  0.7523 -0.1861  0.6012
 8576SOL    HW137187   3.807   2.347   9.567  1.2990  0.0379  0.2866
 8576SOL    HW237188   3.791   2.205   9.573  2.8484 -0.0633  1.1123
 8577SOL     OW37189   2.447   0.796   3.053  0.5214  0.1053  0.1394
 8577SOL    HW137190   2.357   0.802   3.021  0.7353  0.5381 -0.3936
 8577SOL    HW237191   2.491   0.815   2.969 -0.1106  0.3009 -0.1450
 8578SOL     OW37192   1.182   2.833   0.662  0.5614  0.5686 -0.1592
 8578SOL    HW137193   1.191   2.794   0.575 -4.0299  0.3059 -0.4754
 8578SOL    HW237194   1.270   2.869   0.674  0.5032  0.2925  1.1258
 8579SOL     OW37195   3.477   0.116  10.312 -0.1813  0.3513 -0.3876
 8579SOL    HW137196   3.448   0.152  10.396 -0.6916  0.9734 -0.8358
 8579SOL    HW237197   3.407   0.060  10.280  0.5041 -0.2584 -0.8343
 8580SOL     OW37198   0.268   4.578   6.746  0.7354  0.4926 -0.1168
 8580SOL    HW137199   0.208   4.562   6.674  0.2548 -1.7857  0.7963
 8580SOL    HW237200   0.213   4.605   6.820 -0.0170  1.7574 -1.1439
 8581SOL     OW37201   3.059   0.457   3.238 -0.1279  0.6983 -0.1847
 8581SOL    HW137202   3.036   0.548   3.258  2.2300  1.2840 -0.1908
 8581SOL    HW237203   3.154   0.452   3.231 -0.2893 -0.5944 -1.4749
 8582SOL     OW37204   1.189   3.061   4.642  0.3245 -0.0925 -0.1407
 8582SOL    HW137205   1.216   2.980   4.598  1.6102 -0.3686  1.1577
 8582SOL    HW237206   1.113   3.091   4.592  0.6505 -0.3184 -0.7679
 8583SOL     OW37207   1.585   4.410   5.543 -0.4681  0.2654  0.2689
 8583SOL    HW137208   1.636   4.341   5.585  0.4190 -0.5515 -2.1735
 8583SOL    HW237209   1.596   4.478   5.610  0.8549  0.9066 -0.5940
 8584SOL     OW37210   4.187   0.060  12.102  0.4726 -0.2180  0.0931
 8584SOL    HW137211   4.243   0.057  12.025  1.7777 -2.2716  1.1426
 8584SOL    HW237212   4.101   0.081  12.065  0.0639  0.5647  1.4846
 8585SOL     OW37213   1.892   0.733   9.853  0.5299 -0.6647  0.1174
 8585SOL    HW137214   1.951   0.749   9.926  0.4449 -0.2257  0.0886
 8585SOL    HW237215   1.949   0.740   9.776 -0.3774  2.9644 -0.1844
 8586SOL     OW37216   3.631   3.720   1.090 -0.5798  0.4637 -0.0561
 8586SOL    HW137217   3.548   3.678   1.070  0.4802 -1.3526 -0.6326
 8586SOL    HW237218   3.603   3.771   1.166 -0.7865 -1.0301  0.8623
 8587SOL     OW37219   4.547   0.099  14.270 -0.0904  0.3352  0.1910
 8587SOL    HW137220   4.452   0.112  14.274  0.2464  3.6460 -2.7309
 8587SOL    HW237221   4.541   0.015  14.224  1.0377  1.0606 -1.2586
 8588SOL     OW37222   3.945   0.228   8.495  0.2329 -0.8140 -0.1256
 8588SOL    HW137223   3.853   0.217   8.518  0.2192 -0.9767 -0.2551
 8588SOL    HW237224   3.955   0.156   8.433 -0.7017 -0.7392 -0.3608
 8589SOL     OW37225   0.471   4.322   7.610  0.5164 -0.2188  0.7761
 8589SOL    HW137226   0.437   4.412   7.613  0.1349 -0.3292 -0.2427
 8589SOL    HW237227   0.489   4.319   7.517 -1.2079  1.0407  0.3992
 8590SOL     OW37228   3.009   2.735  10.827 -0.2239 -0.3278 -0.1368
 8590SOL    HW137229   2.915   2.731  10.846 -0.4289  0.2305 -1.0385
 8590SOL    HW237230   3.035   2.791  10.901  1.6065 -1.4611  0.0666
 8591SOL     OW37231   2.248   0.226  12.105 -0.1965  0.4444 -0.5582
 8591SOL    HW137232   2.188   0.298  12.128 -0.6612 -0.2027  0.2418
 8591SOL    HW237233   2.335   0.263  12.090  0.2101 -1.2827 -2.4173
 8592SOL     OW37234   4.454   0.891   8.482  0.5953 -0.4684 -0.1406
 8592SOL    HW137235   4.378   0.949   8.488  0.1321 -1.4863  3.9207
 8592SOL    HW237236   4.446   0.852   8.569  0.0512 -0.2546 -0.0937
 8593SOL     OW37237   2.975   4.453   6.101 -0.2911  0.3216 -0.2102
 8593SOL    HW137238   3.036   4.476   6.171  0.0584  0.1384 -0.4518
 8593SOL    HW237239   3.033   4.484   6.031 -0.4116 -1.5599 -1.1347
 8594SOL     OW37240   2.733   2.872   1.715 -0.5802  0.2271  0.1957
 8594SOL    HW137241   2.698   2.795   1.759  1.9774 -0.3885  1.1655
 8594SOL    HW237242   2.798   2.898   1.780 -0.5184  1.9724 -0.5556
 8595SOL     OW37243   1.722   3.520   3.601 -0.0800 -0.5709 -0.3348
 8595SOL    HW137244   1.758   3.600   3.562 -2.3450  0.1057 -1.0163
 8595SOL    HW237245   1.761   3.524   3.688  1.3458  0.3821 -1.0082
 8596SOL     OW37246   1.791   4.139   6.932  0.0567  0.3778 -0.1062
 8596SOL    HW137247   1.884   4.133   6.955  0.2091  0.4562 -0.7102
 8596SOL    HW237248   1.761   4.090   7.009  0.2635  0.3042 -0.0708
 8597SOL     OW37249   1.300   0.386   6.931  0.0222  0.1950 -0.4357
 8597SOL    HW137250   1.353   0.458   6.896  3.2564 -1.8489  0.2020
 8597SOL    HW237251   1.211   0.417   6.916 -0.4042 -0.2721  1.1770
 8598SOL     OW37252   4.044   1.892   8.290 -0.1732 -0.0265 -0.0590
 8598SOL    HW137253   4.068   1.829   8.357 -2.1152 -0.4702  0.2035
 8598SOL    HW237254   4.093   1.969   8.320 -0.2817  0.1967 -0.4581
 8599SOL     OW37255   2.343   4.477   5.407 -0.0725  0.0890  0.3526
 8599SOL    HW137256   2.256   4.472   5.366  0.0078  1.3397  0.0209
 8599SOL    HW237257   2.378   4.393   5.379  1.4841  1.3797 -1.6007
 8600SOL     OW37258   0.517   3.232   4.450  0.3163 -0.0223 -0.1965
 8600SOL    HW137259   0.548   3.218   4.539  1.6443  1.5597 -0.4001
 8600SOL    HW237260   0.558   3.159   4.403  1.6754  1.0803 -0.7282
 8601SOL     OW37261   4.019   0.641  10.846 -0.2035 -0.8877 -0.5775
 8601SOL    HW137262   4.049   0.667  10.933 -0.6939 -1.0213 -0.3691
 8601SOL    HW237263   3.928   0.623  10.867 -0.8853  4.5768  1.1742
 8602SOL     OW37264   4.596   4.029   4.382  0.2519 -0.7953  0.6564
 8602SOL    HW137265   4.531   4.071   4.327  2.8255  0.8186 -1.1479
 8602SOL    HW237266   4.677   4.060   4.343 -0.5096 -1.5109 -1.4405
 8603SOL     OW37267   2.060   3.968  17.524 -0.4210  0.5994  0.5199
 8603SOL    HW137268   2.055   4.063  17.537  2.8263  0.4787  2.5673
 8603SOL    HW237269   1.981   3.945  17.475  0.0977 -0.1933  0.0492
 8604SOL     OW37270   3.397   0.201   6.467 -0.2486  0.0821 -0.2281
 8604SOL    HW137271   3.341   0.178   6.541  0.2855  0.3925  0.2759
 8604SOL    HW237272   3.324   0.223   6.410 -0.7065 -1.3210 -0.1794
 8605SOL     OW37273   3.901   3.390   7.681  0.0833 -0.1889  0.1457
 8605SOL    HW137274   3.933   3.303   7.705 -3.8738 -1.5189  0.5833
 8605SOL    HW237275   3.978   3.447   7.686  0.5107 -0.9000  1.6088
 8606SOL     OW37276   2.141   4.149   6.196 -0.1320 -0.3336  0.5795
 8606SOL    HW137277   2.085   4.180   6.267 -0.0616  2.1516 -0.4446
 8606SOL    HW237278   2.198   4.222   6.173 -2.2704  0.9514 -0.7178
 8607SOL     OW37279   2.698   2.027   8.241 -0.1579 -0.7239 -0.3609
 8607SOL    HW137280   2.666   1.959   8.301 -0.1822 -1.6865 -1.4621
 8607SOL    HW237281   2.788   2.041   8.269 -1.2395 -0.4211  2.9425
 8608SOL     OW37282   2.394   1.639   8.679  0.3085  0.3045 -0.4446
 8608SOL    HW137283   2.425   1.639   8.589 -1.7780  3.0026 -1.1744
 8608SOL    HW237284   2.427   1.557   8.714 -3.5098 -0.4248  1.4228
 8609SOL     OW37285   3.324   1.096  13.008 -1.1564  0.5399  0.0785
 8609SOL    HW137286   3.271   1.105  12.928 -0.8582  1.5908 -0.0003
 8609SOL    HW237287   3.370   1.180  13.010 -0.2200 -0.0345  1.6916
 8610SOL     OW37288   4.242   2.224   2.205 -0.3637  0.4567 -0.0503
 8610SOL    HW137289   4.308   2.283   2.243  0.0378  1.0396 -1.6158
 8610SOL    HW237290   4.234   2.160   2.275 -1.1188 -0.9094 -1.3867
 8611SOL     OW37291   2.483   0.227  14.342  0.2642  0.4065  0.2870
 8611SOL    HW137292   2.408   0.261  14.391  0.5505 -1.7892  2.2171
 8611SOL    HW237293   2.562   0.259  14.386  1.5173 -0.3032 -1.4175
 8612SOL     OW37294   2.885   1.328  10.158  0.3196  0.6702  0.2189
 8612SOL    HW137295   2.832   1.281  10.094  0.2443  0.1927  0.6352
 8612SOL    HW237296   2.949   1.259  10.171 -0.5270 -0.0210  0.7375
 8613SOL     OW37297   4.538   2.324   3.365 -0.1538 -0.2195  0.0849
 8613SOL    HW137298   4.575   2.264   3.301  0.9003  1.0675 -0.5175
 8613SOL    HW237299   4.605   2.318   3.433 -0.9041  1.3567  0.9766
 8614SOL     OW37300   0.029   3.352   0.947  0.3263 -0.0396  0.4816
 8614SOL    HW137301   0.041   3.429   1.004  1.4824 -0.2645  0.5351
 8614SOL    HW237302   4.674   3.311   0.983 -0.7129  0.1043 -1.6148
 8615SOL     OW37303   1.897   0.998   9.489  0.0273 -0.3634  0.2536
 8615SOL    HW137304   1.804   0.975   9.495 -0.1401  0.3601  0.4044
 8615SOL    HW237305   1.906   1.036   9.576 -1.0355 -1.6857  0.9397
 8616SOL     OW37306   4.149   2.704  13.715 -0.2627  0.3060  0.6802
 8616SOL    HW137307   4.189   2.625  13.753 -0.8645 -0.1906  0.2891
 8616SOL    HW237308   4.194   2.718  13.632  0.3413  0.7646  1.0867
 8617SOL     OW37309   4.354   1.636   2.869  0.0521 -0.1762 -0.0284
 8617SOL    HW137310   4.444   1.609   2.849 -0.1425 -0.8291 -0.0087
 8617SOL    HW237311   4.338   1.584   2.948 -1.2208 -0.4295 -0.4598
 8618SOL     OW37312   1.425   3.363   6.059  0.0607 -0.7486  0.0827
 8618SOL    HW137313   1.471   3.345   5.976 -0.6907  1.3807 -0.7978
 8618SOL    HW237314   1.494   3.323   6.111 -0.9945 -1.7154  0.7174
 8619SOL     OW37315   4.596   4.599  13.875  0.3433 -0.0651 -0.1303
 8619SOL    HW137316   4.580   4.634  13.788 -1.0377 -2.0399 -0.6667
 8619SOL    HW237317   4.690   4.584  13.888  0.0982 -0.4386  1.2461
 8620SOL     OW37318   0.794   2.557   8.893 -0.3517 -0.0007  0.2623
 8620SOL    HW137319   0.804   2.636   8.840 -0.8022  0.9736  1.6250
 8620SOL    HW237320   0.857   2.502   8.847 -0.5456 -0.8266  0.9915
 8621SOL     OW37321   0.223   3.291  10.046  0.3181  0.5961 -0.7310
 8621SOL    HW137322   0.221   3.196  10.037  0.8454  0.4214  1.0188
 8621SOL    HW237323   0.130   3.309  10.030  0.3521  2.3577  0.9853
 8622SOL     OW37324   2.345   0.988   3.278  0.2328 -0.2359 -0.0854
 8622SOL    HW137325   2.369   0.912   3.225 -1.1831 -0.3655 -0.5530
 8622SOL    HW237326   2.429   1.015   3.314 -1.0588  0.6779  2.2134
 8623SOL     OW37327   1.640   1.022   7.328  0.9032  0.1706  0.8062
 8623SOL    HW137328   1.674   0.933   7.332  2.4252  0.6812 -0.8925
 8623SOL    HW237329   1.610   1.017   7.419  0.3379  0.0896  0.6194
 8624SOL     OW37330   4.467   4.367   9.403 -0.5843  0.0877 -0.6965
 8624SOL    HW137331   4.410   4.402   9.471 -0.0564 -2.4880  1.0600
 8624SOL    HW237332   4.420   4.319   9.334  1.4190  0.0336 -2.0162
 8625SOL     OW37333   0.145   0.026  16.535 -0.0262  0.6332 -0.2616
 8625SOL    HW137334   0.051   0.015  16.520  0.1208  0.6112 -1.1671
 8625SOL    HW237335   0.170   0.057  16.448  1.0770 -0.4277 -0.3155
 8626SOL     OW37336   3.802   4.396   0.460  0.1740  0.4787  0.5663
 8626SOL    HW137337   3.876   4.441   0.418 -0.0454  1.2479  1.0093
 8626SOL    HW237338   3.735   4.464   0.460 -0.9513 -0.6410  1.3555
 8627SOL     OW37339   0.950   1.188   2.901  0.4553 -0.2281  0.2384
 8627SOL    HW137340   0.866   1.182   2.856  0.3325 -3.7297  0.9767
 8627SOL    HW237341   1.005   1.192   2.822 -0.0919  1.0658 -0.0869
 8628SOL     OW37342   1.680   3.178   7.170 -0.0528 -0.2263 -0.6543
 8628SOL    HW137343   1.723   3.101   7.131 -0.1658 -0.6056 -0.0227
 8628SOL    HW237344   1.757   3.226   7.200  0.9918 -1.7500 -0.8606
 8629SOL     OW37345   1.048   2.497  13.341 -0.0781 -0.0243  0.1773
 8629SOL    HW137346   1.032   2.418  13.291  1.1603  0.6906 -1.3256
 8629SOL    HW237347   0.977   2.560  13.329  0.8513  0.8766 -0.5636
 8630SOL     OW37348   0.214   2.596   1.720 -0.2714 -0.4428  0.1936
 8630SOL    HW137349   0.151   2.636   1.660  1.4918 -1.0556 -2.1049
 8630SOL    HW237350   0.233   2.673   1.774  1.3554 -0.4797 -0.3321
 8631SOL     OW37351   0.270   2.386  17.495 -0.3822 -0.2189  0.1772
 8631SOL    HW137352   0.252   2.392  17.401  0.3030 -0.6152  0.0183
 8631SOL    HW237353   0.192   2.431  17.527  0.6084  1.0808  0.7514
 8632SOL     OW37354   4.281   3.574  16.775 -0.0656 -0.0303  0.5436
 8632SOL    HW137355   4.332   3.554  16.853 -0.8800  0.7759  1.2887
 8632SOL    HW237356   4.304   3.496  16.724  1.4567 -0.9566  2.6593
 8633SOL     OW37357   1.940   1.557   9.464  0.3951  0.0687 -0.4617
 8633SOL    HW137358   1.918   1.595   9.549  0.9462  1.9241 -1.1637
 8633SOL    HW237359   1.921   1.633   9.410  1.2720  0.3357 -0.3823
 8634SOL     OW37360   3.024   2.392   7.255 -0.0442  0.0287 -0.1439
 8634SOL    HW137361   2.980   2.386   7.340  0.9328 -2.2147  0.2030
 8634SOL    HW237362   3.115   2.381   7.281  0.2623  0.1116 -1.1589
 8635SOL     OW37363   1.451   2.568   7.409  0.3858  0.2923 -0.6382
 8635SOL    HW137364   1.432   2.647   7.460 -1.6721  0.1225 -1.1597
 8635SOL    HW237365   1.377   2.510   7.426 -0.5913  1.4387 -1.0761
 8636SOL     OW37366   3.269   3.410   2.686  0.1355  0.0773  0.2679
 8636SOL    HW137367   3.334   3.440   2.749  0.4941 -0.7266  0.2831
 8636SOL    HW237368   3.264   3.480   2.622 -2.1658 -0.5559 -0.2486
 8637SOL     OW37369   0.936   2.402   5.929  0.2251  0.5937 -0.0723
 8637SOL    HW137370   0.948   2.315   5.966 -0.7956  0.4244 -0.1644
 8637SOL    HW237371   1.006   2.450   5.974  2.4326 -0.9663 -1.8286
 8638SOL     OW37372   0.266   4.494   6.177  0.4323  0.0830 -0.0143
 8638SOL    HW137373   0.237   4.422   6.121  1.3709 -2.0968  2.3202
 8638SOL    HW237374   0.218   4.471   6.256 -0.0290 -0.5745 -0.4912
 8639SOL     OW37375   0.040   3.284   8.443 -0.6447  0.0079 -0.1024
 8639SOL    HW137376   0.005   3.254   8.359  0.2866  1.6114 -1.0552
 8639SOL    HW237377   0.130   3.252   8.444 -1.2731 -1.7630  0.5597
 8640SOL     OW37378   0.334   4.301   6.831  0.4605 -0.3842  0.5572
 8640SOL    HW137379   0.311   4.390   6.807  1.3755  0.7243  3.7903
 8640SOL    HW237380   0.250   4.255   6.821 -0.7042  1.6458  0.9853
 8641SOL     OW37381   4.019   4.182  11.217  0.0065  0.1378 -0.5421
 8641SOL    HW137382   3.944   4.227  11.178 -1.2716 -1.2450  0.3216
 8641SOL    HW237383   4.052   4.251  11.276 -1.6627  0.6227 -0.1851
 8642SOL     OW37384   1.444   1.292   4.191  0.3998 -0.2047 -0.3734
 8642SOL    HW137385   1.396   1.328   4.266  1.5924 -0.4979  0.5152
 8642SOL    HW237386   1.466   1.376   4.151  1.6266 -0.6575 -0.6304
 8643SOL     OW37387   0.843   2.144   7.177 -0.0342  0.2117  0.2509
 8643SOL    HW137388   0.804   2.138   7.090  0.8029  1.8378 -0.2293
 8643SOL    HW237389   0.814   2.222   7.224  1.0089  1.9844 -2.0353
 8644SOL     OW37390   3.575   1.305  12.996  0.6326 -0.1614 -0.0309
 8644SOL    HW137391   3.643   1.262  13.047 -0.3564 -0.1682  1.2721
 8644SOL    HW237392   3.618   1.309  12.911  2.0616 -2.1896  0.6121
 8645SOL     OW37393   4.457   2.758   9.908  0.2328 -0.1147 -0.1727
 8645SOL    HW137394   4.445   2.721   9.995  0.2005  0.0864 -0.0906
 8645SOL    HW237395   4.412   2.695   9.852  0.5142 -0.9989  0.6117
 8646SOL     OW37396   0.645   1.074   0.397 -0.3788  0.3880  0.3126
 8646SOL    HW137397   0.664   1.168   0.403 -1.9898  0.7960 -1.1489
 8646SOL    HW237398   0.644   1.057   0.303  0.1595  1.1284  0.1704
 8647SOL     OW37399   3.982   2.482  12.537 -0.5969  0.2022 -0.4428
 8647SOL    HW137400   3.948   2.571  12.530 -1.5532 -0.1134  0.1602
 8647SOL    HW237401   3.929   2.442  12.605  0.7108 -1.8306 -0.6175
 8648SOL     OW37402   4.188   0.369   5.998 -0.1353 -0.7599 -0.0252
 8648SOL    HW137403   4.152   0.451   5.964  3.1368  0.5077 -0.4621
 8648SOL    HW237404   4.217   0.318   5.923  2.8903  0.8463  0.0512
 8649SOL     OW37405   1.505   4.055   5.535 -0.0811  0.5020  0.1052
 8649SOL    HW137406   1.423   4.011   5.512 -0.3480  1.7454 -1.3311
 8649SOL    HW237407   1.512   4.128   5.474 -0.4023 -1.4427 -2.2614
 8650SOL     OW37408   2.488   2.791   6.508 -0.1896  0.8512  0.4295
 8650SOL    HW137409   2.434   2.715   6.486 -0.5578  1.3721 -0.4148
 8650SOL    HW237410   2.440   2.874   6.506 -0.7949  0.6026  3.3313
 8651SOL     OW37411   4.388   2.985  10.920 -0.1657 -0.2926  0.0017
 8651SOL    HW137412   4.462   3.037  10.951 -1.9802  1.7410  0.8530
 8651SOL    HW237413   4.436   2.909  10.887 -0.2592 -0.3942  0.0985
 8652SOL     OW37414   4.073   4.236   8.421  0.3304 -0.2481  0.0105
 8652SOL    HW137415   4.162   4.219   8.388 -0.4946  1.5394 -3.1225
 8652SOL    HW237416   4.046   4.278   8.339  1.8302 -0.4663 -0.6087
 8653SOL     OW37417   2.661   0.806  10.477  0.2157 -0.8281  0.1253
 8653SOL    HW137418   2.699   0.875  10.422 -0.5635 -0.5836 -0.0983
 8653SOL    HW237419   2.633   0.748  10.407 -0.2439  1.1512 -1.3161
 8654SOL     OW37420   0.265   0.484   2.595 -0.1360  0.3967  0.3988
 8654SOL    HW137421   0.339   0.539   2.571  0.1659 -0.1723  0.0252
 8654SOL    HW237422   0.252   0.441   2.510 -1.9380  0.4799  0.6288
 8655SOL     OW37423   4.099   3.545  13.920  0.1443  0.2156  0.0395
 8655SOL    HW137424   4.112   3.541  13.826 -2.9847  0.4113 -0.4012
 8655SOL    HW237425   4.022   3.490  13.932  0.0636 -0.2777 -2.9154
 8656SOL     OW37426   3.859   0.811   9.018  0.4321  0.6458  0.2286
 8656SOL    HW137427   3.930   0.748   9.022 -0.3554 -0.3009 -0.7564
 8656SOL    HW237428   3.780   0.759   9.033  1.8203 -2.1685 -2.3276
 8657SOL     OW37429   1.019   0.909   7.720  0.0564  0.3585 -0.4585
 8657SOL    HW137430   0.927   0.922   7.699 -0.1555  0.3730  0.4959
 8657SOL    HW237431   1.068   0.943   7.645  0.9697 -1.5913 -0.7519
 8658SOL     OW37432   0.487   0.989   6.490  0.8106  0.0427 -0.6821
 8658SOL    HW137433   0.393   1.006   6.497  0.4455 -0.2834 -4.7752
 8658SOL    HW237434   0.520   1.058   6.547  0.6963  0.3003 -0.9264
 8659SOL     OW37435   1.791   3.583  13.646  0.1219 -0.2102  0.3621
 8659SOL    HW137436   1.864   3.571  13.585 -1.4355  2.3752 -1.9931
 8659SOL    HW237437   1.814   3.523  13.717  0.8706  1.1076  1.2129
 8660SOL     OW37438   0.534   3.574   0.667 -0.4795  0.0750 -0.1031
 8660SOL    HW137439   0.626   3.554   0.648 -0.8491 -3.2507  1.5150
 8660SOL    HW237440   0.540   3.590   0.761 -1.6298 -1.0420  0.1557
 8661SOL     OW37441   2.663   2.533   5.196  0.0886 -0.1212 -0.4850
 8661SOL    HW137442   2.618   2.476   5.134 -0.2783 -0.2197 -0.1285
 8661SOL    HW237443   2.655   2.618   5.153 -0.5127  0.7475  1.3620
 8662SOL     OW37444   1.235   1.815   9.157 -0.0568  0.1640 -0.5248
 8662SOL    HW137445   1.227   1.723   9.184  1.9408 -0.5822 -2.5362
 8662SOL    HW237446   1.311   1.832   9.102  0.3047  0.6608  0.1314
 8663SOL     OW37447   0.461   0.589  17.669 -0.0791 -1.4531 -0.1237
 8663SOL    HW137448   0.366   0.597  17.661 -0.0386 -0.9787 -0.1103
 8663SOL    HW237449   0.470   0.537  17.588 -1.3329 -0.6404 -0.7783
 8664SOL     OW37450   3.368   2.750   1.276 -0.7648  0.1490 -0.3223
 8664SOL    HW137451   3.401   2.829   1.318 -0.2616  0.3407 -1.0784
 8664SOL    HW237452   3.273   2.760   1.283 -0.8611 -0.4460 -0.7762
 8665SOL     OW37453   0.560   3.785   0.445  0.4957  0.0976 -0.5854
 8665SOL    HW137454   0.556   3.832   0.529  0.6292  0.3702 -0.7332
 8665SOL    HW237455   0.572   3.858   0.384 -0.2336 -1.3571 -2.4695
 8666SOL     OW37456   2.171   3.410   5.596  0.6191 -1.0491  0.0190
 8666SOL    HW137457   2.164   3.474   5.525  2.6764 -0.6599  0.1715
 8666SOL    HW237458   2.113   3.451   5.661 -2.4275 -2.9528 -1.5321
 8667SOL     OW37459   2.746   2.332   4.856 -0.5822  0.6211 -0.1285
 8667SOL    HW137460   2.802   2.406   4.880  2.7715 -2.0659  0.4324
 8667SOL    HW237461   2.809   2.263   4.832 -2.5782 -1.0728 -0.4639
 8668SOL     OW37462   0.252   3.285  12.659  0.1875 -0.2854 -0.2915
 8668SOL    HW137463   0.342   3.263  12.637 -0.5231 -3.4772  0.0288
 8668SOL    HW237464   0.262   3.378  12.638 -2.3170  0.7345  2.9376
 8669SOL     OW37465   0.916   3.266  12.977  0.0217 -0.1041 -0.0156
 8669SOL    HW137466   0.916   3.305  12.890  0.3874  0.2059  0.1210
 8669SOL    HW237467   0.834   3.298  13.015  2.0885  2.6009  2.2467
 8670SOL     OW37468   1.306   4.540   8.368 -0.2397  0.1450  0.6194
 8670SOL    HW137469   1.344   4.623   8.342  0.7268 -0.6812 -0.6128
 8670SOL    HW237470   1.377   4.480   8.346  1.1201  1.1714  2.2214
 8671SOL     OW37471   2.819   4.322   5.450 -0.1847  0.1669  0.1682
 8671SOL    HW137472   2.789   4.288   5.535  1.5814  0.5990  0.9612
 8671SOL    HW237473   2.767   4.272   5.387  1.0771 -0.8521 -0.0758
 8672SOL     OW37474   0.120   3.255   5.813 -0.0021 -0.0959  0.1361
 8672SOL    HW137475   0.072   3.184   5.857 -0.5663 -0.3406 -0.8635
 8672SOL    HW237476   0.143   3.309   5.888 -0.5935 -0.0605  0.2951
 8673SOL     OW37477   0.984   2.498   3.282  0.3337  0.1328 -0.1444
 8673SOL    HW137478   1.072   2.520   3.314  0.7355 -0.7383 -0.6573
 8673SOL    HW237479   1.005   2.423   3.227  0.2150  0.9728 -1.3462
 8674SOL     OW37480   1.924   3.545   6.961 -0.4767 -0.5831 -0.2318
 8674SOL    HW137481   1.957   3.479   6.900  4.3223  0.9623  0.7100
 8674SOL    HW237482   2.007   3.580   6.992 -0.3464  0.0178 -1.2898
 8675SOL     OW37483   0.409   2.163   6.711  0.0899  0.2111  0.2275
 8675SOL    HW137484   0.460   2.091   6.750  1.4948 -0.0030 -2.0250
 8675SOL    HW237485   0.393   2.228   6.780 -0.5965 -0.0012  0.2654
 8676SOL     OW37486   3.527   1.086   0.382  0.0009 -0.1152 -0.1542
 8676SOL    HW137487   3.460   1.149   0.358  0.1525  0.5613  1.1866
 8676SOL    HW237488   3.566   1.132   0.456  0.1717  0.9658 -0.9082
 8677SOL     OW37489   3.281   4.410  17.090 -0.3547 -0.4949  0.2818
 8677SOL    HW137490   3.216   4.349  17.058  0.4034 -0.6995 -0.8714
 8677SOL    HW237491   3.342   4.347  17.129  0.3826  0.5309  0.7806
 8678SOL     OW37492   2.123   2.663   9.760  0.6990 -0.1347  0.2192
 8678SOL    HW137493   2.036   2.630   9.780  0.8144 -1.1841 -0.9852
 8678SOL    HW237494   2.182   2.595   9.793  0.7476  0.1723  0.7749
 8679SOL     OW37495   4.373   0.618  15.093 -0.3658 -0.5113  0.2647
 8679SOL    HW137496   4.348   0.710  15.107 -3.7735 -1.2314 -1.0335
 8679SOL    HW237497   4.296   0.566  15.115  1.7799 -2.6688  2.6754
 8680SOL     OW37498   0.342   4.216  17.085  0.0280  0.2783 -0.9150
 8680SOL    HW137499   0.383   4.285  17.137  0.4174  0.1649 -1.0754
 8680SOL    HW237500   0.341   4.258  16.999 -0.7331 -1.5458 -1.8036
 8681SOL     OW37501   0.349   2.527   5.525 -0.0753 -0.6704 -0.1670
 8681SOL    HW137502   0.328   2.462   5.459  0.3381 -0.5306 -0.4388
 8681SOL    HW237503   0.338   2.480   5.608 -1.2760  0.8097  0.5138
 8682SOL     OW37504   2.464   4.525  11.032 -0.5355 -0.2854 -0.2518
 8682SOL    HW137505   2.520   4.450  11.053 -1.5362 -1.5328 -2.0180
 8682SOL    HW237506   2.498   4.550  10.946 -1.1541  0.1577 -0.3660
 8683SOL     OW37507   0.302   4.449   1.857  0.0975 -0.1378  0.1692
 8683SOL    HW137508   0.368   4.400   1.906 -0.1622 -0.0382  0.6184
 8683SOL    HW237509   0.289   4.399   1.776 -0.6919  1.9454 -0.9847
 8684SOL     OW37510   1.372   1.055   1.296  0.0885  0.3547 -0.6486
 8684SOL    HW137511   1.445   1.015   1.343  2.1982  1.4049 -3.0555
 8684SOL    HW237512   1.298   1.038   1.354  0.5651 -0.7045 -0.3499
 8685SOL     OW37513   3.765   2.617  17.095  0.3539  0.5129 -0.3149
 8685SOL    HW137514   3.769   2.526  17.063  0.8770  0.7158 -0.8317
 8685SOL    HW237515   3.712   2.608  17.174  1.5484 -2.4096  0.1709
 8686SOL     OW37516   3.756   4.715   7.413  0.3241  0.4793 -0.3892
 8686SOL    HW137517   3.766   0.051   7.338 -2.4043 -0.2911 -1.3299
 8686SOL    HW237518   3.673   0.015   7.453 -0.3973  1.0585 -2.2200
 8687SOL     OW37519   2.867   4.269   9.312  0.3560 -0.4422  0.0151
 8687SOL    HW137520   2.921   4.309   9.244  0.5847 -1.7758 -0.5887
 8687SOL    HW237521   2.909   4.183   9.310 -0.0912 -0.6825  1.4002
 8688SOL     OW37522   2.462   3.975  10.863 -0.3960  0.4071 -0.1606
 8688SOL    HW137523   2.481   3.919  10.789 -1.4594 -0.5956  0.3282
 8688SOL    HW237524   2.367   3.969  10.854 -0.3933 -0.1762  0.1843
 8689SOL     OW37525   3.915   2.596   0.277  0.0593  0.4103  0.0955
 8689SOL    HW137526   3.834   2.646   0.285 -1.6152 -1.8650 -2.6042
 8689SOL    HW237527   3.961   2.661   0.225 -0.9551 -0.3219 -1.6923
 8690SOL     OW37528   1.455   3.406   1.033 -0.0330  0.7662  0.8278
 8690SOL    HW137529   1.496   3.320   1.041 -0.8501  0.2267 -0.7334
 8690SOL    HW237530   1.534   3.451   1.062  1.5848  0.4463 -3.0879
 8691SOL     OW37531   2.100   2.431   3.708 -0.1999 -0.0620  1.0254
 8691SOL    HW137532   2.051   2.418   3.627  3.5510  1.6503 -1.5164
 8691SOL    HW237533   2.136   2.519   3.696  0.1436 -0.3454  0.0042
 8692SOL     OW37534   0.617   1.670  11.890  0.0586 -0.9595  0.8584
 8692SOL    HW137535   0.645   1.605  11.954  1.4120 -0.8952  0.3246
 8692SOL    HW237536   0.556   1.718  11.945 -1.1980 -3.1467  1.4039
 8693SOL     OW37537   0.948   1.493  12.529 -0.3130  0.0865 -0.2786
 8693SOL    HW137538   1.008   1.508  12.457  0.6022  0.4528  0.5579
 8693SOL    HW237539   1.001   1.465  12.603  0.4720  0.1431 -0.8280
 8694SOL     OW37540   2.084   0.923   4.001  0.2436 -0.2576  0.5996
 8694SOL    HW137541   1.996   0.943   4.032 -0.0448 -1.2092  0.4074
 8694SOL    HW237542   2.086   0.832   4.032 -0.0127 -1.2085 -2.1408
 8695SOL     OW37543   0.296   4.446   7.074  0.0043  0.2981 -0.2191
 8695SOL    HW137544   0.317   4.353   7.077 -2.3851 -0.1673  2.0044
 8695SOL    HW237545   0.384   4.482   7.060 -0.3586  0.9532 -0.8150
 8696SOL     OW37546   3.825   4.547  14.270  0.2255  0.3004 -0.1963
 8696SOL    HW137547   3.837   4.532  14.363  1.6864 -1.9873 -0.7654
 8696SOL    HW237548   3.730   4.553  14.258  0.0875 -1.1455  0.2729
 8697SOL     OW37549   3.360   0.317   7.429 -0.3503  0.1522 -0.1140
 8697SOL    HW137550   3.325   0.386   7.485  0.0923  0.1024  0.2282
 8697SOL    HW237551   3.288   0.318   7.366 -0.3541  0.0697 -0.1121
 8698SOL     OW37552   4.213   3.339   5.986  0.2360 -0.6282  0.2747
 8698SOL    HW137553   4.199   3.246   6.001 -3.4012 -0.1322 -0.0216
 8698SOL    HW237554   4.131   3.371   6.025  1.1067  1.0963  0.6522
 8699SOL     OW37555   0.594   2.454   7.064 -0.7165  0.2853 -0.4531
 8699SOL    HW137556   0.561   2.365   7.059 -2.4402  1.0240 -2.2644
 8699SOL    HW237557   0.547   2.494   6.991  1.6861  0.9225 -1.6539
 8700SOL     OW37558   1.029   1.577  11.455 -0.0318 -0.3076  0.2363
 8700SOL    HW137559   1.033   1.560  11.361 -1.0349  0.4059  0.0717
 8700SOL    HW237560   1.000   1.668  11.458 -1.6558 -0.8112 -0.1224
 8701SOL     OW37561   0.540   3.406   6.074 -0.2449  0.3918 -0.4508
 8701SOL    HW137562   0.520   3.341   6.141  0.0697  1.1636  0.3937
 8701SOL    HW237563   0.551   3.487   6.125 -3.1989  0.7637 -0.3804
 8702SOL     OW37564   4.602   4.390   3.459  0.9076  0.3136  0.2985
 8702SOL    HW137565   4.653   4.309   3.458  0.5710  0.0763  1.5008
 8702SOL    HW237566   4.657   4.452   3.412  1.4283 -1.8255 -1.9000
 8703SOL     OW37567   3.742   4.638   9.722  0.4833 -0.4302 -0.2009
 8703SOL    HW137568   3.684   4.562   9.723  0.0973 -0.1281  0.3444
 8703SOL    HW237569   3.779   4.639   9.811 -0.9686 -0.2742  0.3975
 8704SOL     OW37570   3.298   3.853   1.558 -0.5144 -0.1068 -0.1000
 8704SOL    HW137571   3.225   3.891   1.510 -0.0259 -0.0796 -0.8109
 8704SOL    HW237572   3.274   3.763   1.536  1.1333 -0.4849 -0.3388
 8705SOL     OW37573   0.347   2.107  14.721 -0.2335 -0.3485 -0.6541
 8705SOL    HW137574   0.303   2.036  14.768 -0.1033 -0.0415 -0.0718
 8705SOL    HW237575   0.352   2.070  14.633  0.8644  1.6185 -1.4251
 8706SOL     OW37576   3.468   1.576   8.295 -0.0823 -0.6307 -0.0536
 8706SOL    HW137577   3.388   1.621   8.269 -0.4308 -1.2821 -0.1317
 8706SOL    HW237578   3.515   1.641   8.346  0.0561  1.5378 -2.9801
 8707SOL     OW37579   1.685   3.652   5.009 -0.4121  0.1413  0.1088
 8707SOL    HW137580   1.769   3.607   5.015 -1.2570 -1.5995 -1.1191
 8707SOL    HW237581   1.678   3.685   5.099  1.1141  1.4717 -0.2553
 8708SOL     OW37582   4.015   4.071  10.821 -0.3081  0.2130  0.2422
 8708SOL    HW137583   4.040   4.008  10.889 -1.3860  0.1330  0.5551
 8708SOL    HW237584   4.035   4.006  10.753  1.0563 -0.5663  1.3823
 8709SOL     OW37585   4.435   0.971   9.079 -0.4166  0.0993  0.1307
 8709SOL    HW137586   4.440   0.913   9.156 -0.9635 -0.4542 -0.2554
 8709SOL    HW237587   4.344   0.986   9.056 -0.0743  1.4155 -0.3611
 8710SOL     OW37588   0.298   0.634   3.915  0.1183  0.0274  0.0684
 8710SOL    HW137589   0.362   0.568   3.942 -0.7624 -0.3181  1.3397
 8710SOL    HW237590   0.221   0.578   3.904  0.8437 -0.4125 -2.7456
 8711SOL     OW37591   3.738   1.499   0.693 -0.0723  0.4702 -0.3608
 8711SOL    HW137592   3.733   1.468   0.602 -0.2555 -1.4134  0.2888
 8711SOL    HW237593   3.831   1.518   0.707  0.0769 -0.5847  0.0444
 8712SOL     OW37594   0.655   3.387   6.512 -0.3615 -0.1566 -0.0434
 8712SOL    HW137595   0.729   3.396   6.453 -0.0327 -0.1250  0.3746
 8712SOL    HW237596   0.681   3.449   6.581  0.0681 -1.0902  0.6353
 8713SOL     OW37597   3.574   2.835  13.308 -0.7148 -0.0177  0.0051
 8713SOL    HW137598   3.563   2.746  13.276 -1.3293 -0.2687  0.9065
 8713SOL    HW237599   3.535   2.832  13.396 -2.1703  0.3293 -0.6267
 8714SOL     OW37600   2.051   0.260   9.834  0.0311  0.1261  0.0600
 8714SOL    HW137601   2.080   0.181   9.880  0.8338 -0.5604 -1.6171
 8714SOL    HW237602   2.072   0.329   9.897 -0.8191 -0.0177  0.4922
 8715SOL     OW37603   4.102   2.325   7.478  0.1348 -0.4773 -0.4602
 8715SOL    HW137604   4.074   2.244   7.522 -3.5066  0.7860 -0.4198
 8715SOL    HW237605   4.102   2.309   7.383  0.3969 -1.9058 -0.2207
 8716SOL     OW37606   0.437   2.295  10.257  0.4492  0.1768  0.0367
 8716SOL    HW137607   0.357   2.342  10.232 -0.3737 -2.9708 -3.2924
 8716SOL    HW237608   0.395   2.223  10.305  0.6301  0.6789  0.9403
 8717SOL     OW37609   0.808   3.781   6.105 -0.4212 -0.1233 -0.1424
 8717SOL    HW137610   0.886   3.767   6.159  0.6949  0.7572 -1.5074
 8717SOL    HW237611   0.822   3.717   6.035 -2.2638  0.4964 -1.0807
 8718SOL     OW37612   0.876   4.642   5.313  0.1914 -0.2265  0.3749
 8718SOL    HW137613   0.966   4.622   5.286  0.6479 -0.1558  1.8472
 8718SOL    HW237614   0.831   4.607   5.236 -0.1877  0.1627  0.4217
 8719SOL     OW37615   0.912   2.074  16.490 -0.1794  0.2043  0.3843
 8719SOL    HW137616   0.817   2.088  16.496 -0.2316  0.4310 -0.8474
 8719SOL    HW237617   0.913   1.978  16.479  0.9440  0.3006 -0.2919
 8720SOL     OW37618   4.074   1.991  10.583  0.7943  0.2412  0.2954
 8720SOL    HW137619   4.063   1.899  10.559 -0.3416  0.2080  0.9352
 8720SOL    HW237620   4.078   2.031  10.497 -0.1261  1.0038  0.6021
 8721SOL     OW37621   1.056   1.542  15.765 -0.1113  0.3933 -0.5808
 8721SOL    HW137622   1.022   1.495  15.689 -1.8459  0.2022  0.3221
 8721SOL    HW237623   0.995   1.615  15.768 -1.8635 -1.1414  0.9889
 8722SOL     OW37624   4.246   3.588   7.372  0.2717  0.0304  0.1115
 8722SOL    HW137625   4.334   3.620   7.393 -0.7986  0.8150  3.3316
 8722SOL    HW237626   4.237   3.612   7.280  0.8097  0.5446  0.1870
 8723SOL     OW37627   2.388   3.562   5.926  0.4733  0.3194 -0.0731
 8723SOL    HW137628   2.420   3.483   5.970  0.4655 -0.3944 -1.3343
 8723SOL    HW237629   2.341   3.604   5.998  0.2493 -0.5231  0.2693
 8724SOL     OW37630   3.013   1.913   6.871  0.2850 -0.1520 -0.0778
 8724SOL    HW137631   2.930   1.960   6.867  0.4799  0.2308  0.3479
 8724SOL    HW237632   3.005   1.837   6.814 -0.3596  1.6837 -2.4182
 8725SOL     OW37633   3.585   0.062   8.877  0.4290  0.1978 -0.3288
 8725SOL    HW137634   3.490   0.070   8.866  0.4522  3.1225  1.3277
 8725SOL    HW237635   3.607   0.151   8.907 -1.7878  0.4962  0.4022
 8726SOL     OW37636   0.905   1.534   7.696  0.1005  0.0215  0.1138
 8726SOL    HW137637   0.936   1.466   7.637  0.8463 -0.0209  0.5481
 8726SOL    HW237638   0.907   1.608   7.636  0.8754  0.3603  0.5518
 8727SOL     OW37639   0.733   2.255   4.659 -0.1041 -0.2684  0.3298
 8727SOL    HW137640   0.647   2.271   4.699 -1.2331 -0.7757 -1.8794
 8727SOL    HW237641   0.762   2.174   4.701 -2.9174 -0.5381  1.7415
 8728SOL     OW37642   0.883   4.573   6.013  0.5791  0.3292  0.0986
 8728SOL    HW137643   0.840   4.523   5.943 -1.1656  0.3552  1.1396
 8728SOL    HW237644   0.844   4.535   6.092  0.9741  0.3309  0.2910
 8729SOL     OW37645   4.562   0.539   3.300  0.3005 -0.0637 -0.2417
 8729SOL    HW137646   4.569   0.517   3.207  3.1324  0.3392 -0.1102
 8729SOL    HW237647   4.631   0.603   3.314  1.0966 -0.7996 -0.7582
 8730SOL     OW37648   3.102   1.872   8.389  0.0489  0.1935 -0.3783
 8730SOL    HW137649   3.028   1.884   8.448  1.8412  1.7059  1.6127
 8730SOL    HW237650   3.123   1.955   8.348  2.5444 -2.5645 -4.6728
 8731SOL     OW37651   2.697   4.635  11.968 -0.1456  0.1446  0.0189
 8731SOL    HW137652   2.690   4.705  11.904  1.6425 -0.6846 -1.0846
 8731SOL    HW237653   2.725   4.565  11.908  0.8305  1.1798 -0.7211
 8732SOL     OW37654   3.745   2.671  10.907  0.4451 -0.2323 -0.4200
 8732SOL    HW137655   3.663   2.661  10.955 -0.5567  1.8518 -1.7080
 8732SOL    HW237656   3.806   2.721  10.962 -0.4701  1.6036 -1.0785
 8733SOL     OW37657   0.924   4.477   2.883 -0.3754  0.5227 -0.1756
 8733SOL    HW137658   0.965   4.545   2.935 -0.3522  0.9955 -0.8136
 8733SOL    HW237659   0.938   4.509   2.794  0.3304  3.1581  0.8941
 8734SOL     OW37660   3.867   4.348   3.700  0.5200 -0.2041 -0.5743
 8734SOL    HW137661   3.952   4.388   3.679 -0.4795  1.2463 -1.8091
 8734SOL    HW237662   3.866   4.266   3.651  0.5310 -1.0976  0.9197
 8735SOL     OW37663   2.845   2.819   0.551  0.1787 -0.1253  0.3035
 8735SOL    HW137664   2.896   2.880   0.604 -0.2776 -0.4350  1.1100
 8735SOL    HW237665   2.820   2.871   0.474  0.1345  1.8072  1.6124
 8736SOL     OW37666   4.629   1.465   1.007  0.4290  0.1471  0.0701
 8736SOL    HW137667   4.568   1.536   1.028  0.4514  0.0502  0.4514
 8736SOL    HW237668   4.714   1.506   0.989  0.1790 -0.1992 -1.9082
 8737SOL     OW37669   1.992   4.318   8.666 -0.6138 -0.9167 -0.3964
 8737SOL    HW137670   1.927   4.257   8.701 -0.7167  0.0454  1.1057
 8737SOL    HW237671   2.068   4.279   8.708  0.8246  1.0325 -1.1730
 8738SOL     OW37672   1.702   4.307  10.563 -0.4805  0.5224 -0.1589
 8738SOL    HW137673   1.636   4.254  10.518 -2.0364  0.1225  2.5884
 8738SOL    HW237674   1.761   4.334  10.494 -2.6543 -0.1196 -2.2526
 8739SOL     OW37675   2.746   1.769   6.290  0.4404 -0.0027  0.1764
 8739SOL    HW137676   2.748   1.679   6.323  0.1141  0.3238  1.0993
 8739SOL    HW237677   2.831   1.759   6.246 -0.1492 -0.3316 -0.8853
 8740SOL     OW37678   4.463   1.725  13.462  0.1971  0.3799  0.7030
 8740SOL    HW137679   4.417   1.800  13.500 -2.7057 -0.4632 -1.1422
 8740SOL    HW237680   4.522   1.763  13.397  0.5481  0.8031  1.2709
 8741SOL     OW37681   2.831   3.748   3.621 -0.6421  0.1808  0.2645
 8741SOL    HW137682   2.752   3.758   3.567  1.0627  1.0750 -2.0452
 8741SOL    HW237683   2.802   3.761   3.712 -0.1837 -0.6422  0.5251
 8742SOL     OW37684   1.864   1.527   3.068 -0.0351  0.2198 -0.4005
 8742SOL    HW137685   1.787   1.570   3.106 -1.8073 -1.8047 -1.6492
 8742SOL    HW237686   1.863   1.437   3.102  1.3753  0.5035  0.3861
 8743SOL     OW37687   2.863   0.869   8.623  0.3811  0.2331  0.0902
 8743SOL    HW137688   2.805   0.869   8.699  1.3983  0.9174  0.8546
 8743SOL    HW237689   2.841   0.781   8.592  0.9144 -0.2047  0.9721
 8744SOL     OW37690   3.923   0.770   6.109  0.2447 -0.0754 -0.4951
 8744SOL    HW137691   4.005   0.721   6.119  0.8320  1.1812  0.8184
 8744SOL    HW237692   3.930   0.813   6.024 -2.4045  0.9557 -0.1920
 8745SOL     OW37693   1.045   1.060   8.920  0.1397  0.2398  0.4337
 8745SOL    HW137694   0.955   1.078   8.891  1.2007  1.4182 -2.1414
 8745SOL    HW237695   1.058   1.132   8.981  1.6570 -0.7775  1.2931
 8746SOL     OW37696   4.526   3.391   7.097 -0.1828 -0.0812  0.1375
 8746SOL    HW137697   4.448   3.412   7.045 -1.2361  0.1710  1.7737
 8746SOL    HW237698   4.585   3.465   7.081  1.9564 -1.2081  2.7535
 8747SOL     OW37699   4.123   2.680   4.770 -0.1838  0.6206 -0.4916
 8747SOL    HW137700   4.098   2.589   4.785 -1.5359  0.7252 -2.2049
 8747SOL    HW237701   4.189   2.690   4.839 -0.7715  1.4347 -0.0459
 8748SOL     OW37702   0.391   1.457  15.992  0.1464  0.3419  0.1157
 8748SOL    HW137703   0.332   1.443  16.065  0.8888 -2.2411  0.2322
 8748SOL    HW237704   0.465   1.403  16.020  0.7569  3.0439  3.6680
 8749SOL     OW37705   0.641   1.924   5.577  0.2660  0.4674  0.1152
 8749SOL    HW137706   0.698   1.934   5.653  1.9264 -0.7216 -0.9487
 8749SOL    HW237707   0.596   1.842   5.591  0.7975  0.3285  0.9761
 8750SOL     OW37708   0.010   3.636  11.230 -0.7187 -0.0111 -0.0288
 8750SOL    HW137709   0.046   3.676  11.151 -1.2007 -1.7098 -1.1060
 8750SOL    HW237710   4.678   3.572  11.185 -0.7203  0.6350 -0.9343
 8751SOL     OW37711   1.440   0.136   5.153 -0.4005 -0.0484 -0.1110
 8751SOL    HW137712   1.487   0.139   5.237  0.3641  2.4162 -0.6215
 8751SOL    HW237713   1.396   0.221   5.154  1.6827  1.0087  2.0211
 8752SOL     OW37714   0.845   2.500   5.074 -0.2129  0.7436 -0.4232
 8752SOL    HW137715   0.928   2.506   5.026  1.5591 -1.8827  2.3411
 8752SOL    HW237716   0.878   2.478   5.161 -0.6484  1.7716  0.0089
 8753SOL     OW37717   4.167   0.093   3.031  0.4793  0.7260  0.2548
 8753SOL    HW137718   4.164   0.184   3.005  1.9508  0.4351 -0.8776
 8753SOL    HW237719   4.119   0.094   3.114 -1.5276 -1.3469 -0.8693
 8754SOL     OW37720   4.098   3.169   5.165  0.1614 -0.5090  0.5191
 8754SOL    HW137721   4.170   3.231   5.156 -0.3596  0.0655  0.2890
 8754SOL    HW237722   4.058   3.180   5.078  0.3322 -0.6735  0.4191
 8755SOL     OW37723   1.753   0.779   7.355 -0.3368 -0.5940  0.0693
 8755SOL    HW137724   1.787   0.702   7.309 -2.2027 -3.4951  3.6864
 8755SOL    HW237725   1.767   0.739   7.441  2.5534  1.4748  0.5777
 8756SOL     OW37726   0.742   1.592   4.631  0.1850  0.6636 -0.0467
 8756SOL    HW137727   0.651   1.612   4.612 -0.3181 -1.2503  0.4217
 8756SOL    HW237728   0.774   1.680   4.650  2.3163  0.2655 -1.7346
 8757SOL     OW37729   2.959   1.152   8.765 -0.2158 -0.0548  0.4066
 8757SOL    HW137730   3.035   1.125   8.816  0.7638  1.7555 -0.1233
 8757SOL    HW237731   2.940   1.070   8.719  3.9252 -1.4318  1.1443
 8758SOL     OW37732   4.386   0.090   5.172  0.0396 -0.1664 -0.0575
 8758SOL    HW137733   4.308   0.141   5.150 -0.0718 -0.5690 -0.5776
 8758SOL    HW237734   4.373   0.011   5.120  0.6600  0.3786 -1.0518
 8759SOL     OW37735   0.254   4.261   5.740 -0.0953 -0.1744  0.2181
 8759SOL    HW137736   0.316   4.236   5.671  1.5668  0.0186  1.6563
 8759SOL    HW237737   0.178   4.244   5.684 -0.1337  1.3215 -0.1624
 8760SOL     OW37738   4.520   0.089   3.557  0.0195 -0.8362  0.3592
 8760SOL    HW137739   4.458   0.161   3.552 -1.1602 -1.7783  1.3599
 8760SOL    HW237740   4.547   0.087   3.465 -1.2247 -0.6283 -0.0089
 8761SOL     OW37741   0.126   1.275   5.748  0.0499  0.3594  0.2948
 8761SOL    HW137742   0.182   1.351   5.735 -0.8481  0.8778 -0.6449
 8761SOL    HW237743   0.040   1.319   5.748 -0.3518 -0.4352  1.5819
 8762SOL     OW37744   0.735   0.162   2.532  0.2625 -0.3173 -0.4073
 8762SOL    HW137745   0.722   0.087   2.474 -2.9541  0.0480 -0.1743
 8762SOL    HW237746   0.732   0.119   2.618  2.2544 -0.9225 -0.6388
 8763SOL     OW37747   1.219   0.672   7.627 -0.3784  0.0187 -0.1083
 8763SOL    HW137748   1.199   0.753   7.674  0.3126  0.3058 -0.3084
 8763SOL    HW237749   1.254   0.609   7.691 -2.9103  1.0928  2.3011
 8764SOL     OW37750   1.376   1.127   6.054  0.3856 -0.4362  0.2502
 8764SOL    HW137751   1.365   1.192   5.984 -0.7500 -0.4937  0.3757
 8764SOL    HW237752   1.403   1.166   6.137 -0.0981 -0.4818  0.4288
 8765SOL     OW37753   0.747   3.049   1.950 -0.6293  0.2746  0.0791
 8765SOL    HW137754   0.735   2.998   2.030 -0.7192  0.5618  0.2495
 8765SOL    HW237755   0.837   3.077   1.965  0.3390 -2.6001 -0.4304
 8766SOL     OW37756   3.970   0.063   9.111 -0.1542 -0.2286  0.3078
 8766SOL    HW137757   3.905   0.005   9.150  0.9220 -2.3866 -1.0845
 8766SOL    HW237758   3.927   0.143   9.142  1.6141  0.7081  0.4106
 8767SOL     OW37759   2.997   0.946  12.373  0.1692  0.1445 -0.6868
 8767SOL    HW137760   3.022   1.008  12.304  0.9271  1.7777  1.0841
 8767SOL    HW237761   2.929   0.892  12.332 -0.9360  0.4974  0.7176
 8768SOL     OW37762   1.098   0.481  13.814  0.3433 -0.4306 -0.2371
 8768SOL    HW137763   1.070   0.408  13.868 -0.8870  0.2458  0.0379
 8768SOL    HW237764   1.016   0.507  13.772  0.8521 -2.6367 -2.6362
 8769SOL     OW37765   4.321   0.320  13.276  0.0561 -0.2705 -0.4683
 8769SOL    HW137766   4.230   0.294  13.292 -1.1523  3.9072 -0.4119
 8769SOL    HW237767   4.366   0.239  13.252 -0.5314 -0.7492  0.0541
 8770SOL     OW37768   2.807   0.722   4.330 -0.6024 -0.9462  0.5358
 8770SOL    HW137769   2.815   0.627   4.322 -0.5790 -1.1183  2.4922
 8770SOL    HW237770   2.860   0.754   4.404 -1.0070 -0.6705  0.7110
 8771SOL     OW37771   3.514   3.589   7.423  0.5516  0.2399  0.2217
 8771SOL    HW137772   3.444   3.593   7.357 -0.7908  4.2698  1.9222
 8771SOL    HW237773   3.466   3.619   7.500 -2.2693 -0.5504 -1.2357
 8772SOL     OW37774   2.244   2.445   9.848 -0.5090  0.5939 -0.0642
 8772SOL    HW137775   2.242   2.422   9.941  0.3117 -0.9223 -0.4258
 8772SOL    HW237776   2.326   2.403   9.821 -2.1945 -1.3815 -2.1141
 8773SOL     OW37777   1.114   0.191   4.574  0.3893 -0.4183  0.1194
 8773SOL    HW137778   1.130   0.098   4.554 -1.3587 -1.2231  2.5256
 8773SOL    HW237779   1.121   0.229   4.486 -0.7921  0.1217  0.2631
 8774SOL     OW37780   1.899   3.293   3.536  0.6373 -0.5804  0.0172
 8774SOL    HW137781   1.881   3.338   3.453  0.9103  0.8053  0.7005
 8774SOL    HW237782   1.816   3.309   3.581  0.6528 -1.1708  0.2577
 8775SOL     OW37783   1.052   2.252  13.191 -0.4632 -0.2087  0.0597
 8775SOL    HW137784   1.025   2.173  13.238  1.2003 -0.1736  1.0610
 8775SOL    HW237785   1.141   2.258  13.226 -0.7847 -0.9119  1.0083
 8776SOL     OW37786   2.452   1.333   2.080 -0.1374 -0.2916 -0.2540
 8776SOL    HW137787   2.498   1.345   1.996  2.1587 -1.3694  0.8477
 8776SOL    HW237788   2.512   1.278   2.131 -0.6682 -0.3424  0.3119
 8777SOL     OW37789   4.214   3.239   1.251 -0.1596 -0.5507 -0.3453
 8777SOL    HW137790   4.307   3.219   1.238  0.1261  2.1746 -2.3852
 8777SOL    HW237791   4.173   3.195   1.177  0.5003  0.5132 -1.3302
 8778SOL     OW37792   4.310   1.897  16.596 -0.2621  0.7867 -0.1082
 8778SOL    HW137793   4.228   1.942  16.575 -1.1882 -1.0153 -0.4153
 8778SOL    HW237794   4.340   1.879  16.507  0.1768 -1.5389  0.5002
 8779SOL     OW37795   0.439   1.291   5.880  0.5422  0.1115  0.1300
 8779SOL    HW137796   0.474   1.333   5.801 -3.6068  0.3348 -1.5764
 8779SOL    HW237797   0.476   1.205   5.859 -1.7179 -0.4184 -1.6670
 8780SOL     OW37798   3.014   3.654   6.819 -0.3344 -0.1773 -0.2687
 8780SOL    HW137799   3.101   3.619   6.836 -0.7616 -0.5385  1.1585
 8780SOL    HW237800   2.978   3.586   6.762  1.1944 -0.9906 -0.2590
 8781SOL     OW37801   3.427   2.087   0.418  0.3681 -0.4403  0.1464
 8781SOL    HW137802   3.504   2.143   0.416  0.6505 -0.8898 -1.1369
 8781SOL    HW237803   3.368   2.122   0.351  0.4435 -1.8950 -0.6714
 8782SOL     OW37804   2.559   3.254  10.099  0.1364 -0.3964 -0.6625
 8782SOL    HW137805   2.532   3.264  10.190 -0.3718 -1.1153 -0.7335
 8782SOL    HW237806   2.638   3.308  10.095  0.9269 -1.2985  3.2109
 8783SOL     OW37807   0.597   2.236   8.749 -0.1606  0.1901 -0.1037
 8783SOL    HW137808   0.542   2.302   8.708  0.6893  1.1880  0.3520
 8783SOL    HW237809   0.587   2.166   8.685  2.1307  0.1137 -0.3878
 8784SOL     OW37810   2.090   2.890   4.071  0.5132  0.5636 -0.2950
 8784SOL    HW137811   2.163   2.939   4.031  0.5862  0.0165 -0.8332
 8784SOL    HW237812   2.139   2.813   4.098 -0.1395  0.5897  0.9723
 8785SOL     OW37813   3.333   0.729   3.231 -0.2307 -0.0888  0.2212
 8785SOL    HW137814   3.409   0.715   3.288 -0.0917  1.5770  0.4457
 8785SOL    HW237815   3.310   0.636   3.226  0.1905 -0.1154 -1.1544
 8786SOL     OW37816   2.887   1.348  15.702  0.1528 -0.0109  0.1031
 8786SOL    HW137817   2.947   1.390  15.764 -1.6879 -0.9878  2.5648
 8786SOL    HW237818   2.926   1.358  15.616 -0.8630 -0.9592 -0.4723
 8787SOL     OW37819   2.285   0.639   2.830  0.3846 -0.3620  0.0438
 8787SOL    HW137820   2.242   0.693   2.897 -1.3057  2.4296 -3.3080
 8787SOL    HW237821   2.224   0.649   2.758  0.8486 -1.9918 -0.5795
 8788SOL     OW37822   0.234   2.325   4.763  0.5100 -0.4557 -0.3383
 8788SOL    HW137823   0.153   2.349   4.810  0.7455 -0.6427  0.1585
 8788SOL    HW237824   0.279   2.407   4.743  0.7811 -0.4135  0.4411
 8789SOL     OW37825   0.936   2.246   9.051 -0.7051  0.2478  0.3434
 8789SOL    HW137826   0.972   2.301   8.981 -0.2450 -0.6133 -0.0991
 8789SOL    HW237827   0.958   2.166   9.004 -1.3370  0.9884 -1.1944
 8790SOL     OW37828   1.152   1.680   6.147 -1.1898 -0.0515 -0.6594
 8790SOL    HW137829   1.144   1.585   6.140  1.8142 -0.3179 -0.4120
 8790SOL    HW237830   1.191   1.712   6.066 -1.3304 -0.8292 -1.0322
 8791SOL     OW37831   4.520   1.093   2.659 -0.1144  0.4355 -0.7460
 8791SOL    HW137832   4.519   1.189   2.660 -2.4448  0.3977 -0.2007
 8791SOL    HW237833   4.572   1.082   2.580  1.2229 -1.5315  0.4000
 8792SOL     OW37834   1.155   0.327   2.549  0.3786  0.0282 -0.6216
 8792SOL    HW137835   1.122   0.416   2.539 -0.6103  0.2262  4.3174
 8792SOL    HW237836   1.234   0.333   2.495  0.7572  0.0678 -0.0561
 8793SOL     OW37837   4.038   0.168  16.970 -0.0372  0.1294 -0.6220
 8793SOL    HW137838   4.126   0.177  17.005  0.5143 -0.5614 -1.8685
 8793SOL    HW237839   4.000   0.085  16.997  0.7206 -0.4396 -1.3337
 8794SOL     OW37840   4.290   0.814   4.214  0.2192  0.0114 -0.2387
 8794SOL    HW137841   4.216   0.768   4.255  1.5206 -0.6801  1.3383
 8794SOL    HW237842   4.356   0.774   4.270 -2.2036 -0.2902  2.4102
 8795SOL     OW37843   2.546   4.407   3.226 -0.4124  0.2567  0.0445
 8795SOL    HW137844   2.547   4.488   3.175  0.6918  1.9315  2.7742
 8795SOL    HW237845   2.461   4.416   3.270  0.4226 -0.3936  1.7579
 8796SOL     OW37846   1.245   3.799   2.865 -0.2392 -0.3525 -0.2168
 8796SOL    HW137847   1.159   3.818   2.828  1.0082  2.1312 -1.7937
 8796SOL    HW237848   1.219   3.816   2.956 -0.3862  1.9325 -0.6877
 8797SOL     OW37849   2.347   0.576   9.396 -0.6854 -0.0759  0.3970
 8797SOL    HW137850   2.263   0.563   9.352 -0.0640 -2.6274 -0.0356
 8797SOL    HW237851   2.400   0.513   9.347 -0.9550 -0.7754  1.0001
 8798SOL     OW37852   0.413   0.275   2.735  0.5901 -0.0283 -0.4647
 8798SOL    HW137853   0.485   0.336   2.746  0.5696 -0.0556 -0.1838
 8798SOL    HW237854   0.369   0.319   2.663  2.4214  2.2189 -0.1796
 8799SOL     OW37855   3.765   3.216  14.387 -0.0448 -0.7507 -0.2947
 8799SOL    HW137856   3.848   3.260  14.370  0.2277 -1.2280 -0.1864
 8799SOL    HW237857   3.724   3.269  14.455  1.4232  0.6284 -0.4727
 8800SOL     OW37858   3.385   2.959   3.256  0.3654  0.5557  0.5737
 8800SOL    HW137859   3.473   2.976   3.222 -0.4007  0.3192 -1.5482
 8800SOL    HW237860   3.345   2.934   3.172  0.1541  0.7780  0.6076
 8801SOL     OW37861   0.858   2.865  17.413 -0.4737  0.0336 -0.3639
 8801SOL    HW137862   0.776   2.820  17.432 -1.2233  1.0386 -1.1586
 8801SOL    HW237863   0.877   2.835  17.324 -0.1934  1.7246 -0.8856
 8802SOL     OW37864   0.649   0.361   0.593 -0.1576  0.6711  0.1138
 8802SOL    HW137865   0.671   0.416   0.668  0.4311  1.5287 -0.6817
 8802SOL    HW237866   0.685   0.277   0.622 -0.4976  0.5974  0.3218
 8803SOL     OW37867   2.429   2.353   7.784  0.2636 -0.2116  0.2056
 8803SOL    HW137868   2.520   2.372   7.809 -0.3120  1.2754  1.1179
 8803SOL    HW237869   2.423   2.403   7.703  0.6519  0.8153  0.8151
 8804SOL     OW37870   3.324   1.682   5.410 -0.1242 -0.0254  0.4854
 8804SOL    HW137871   3.365   1.649   5.489 -0.4667 -0.7198  0.3705
 8804SOL    HW237872   3.387   1.647   5.348 -1.2641 -2.2540  0.6029
 8805SOL     OW37873   2.739   2.695   4.422  0.0258 -0.4645  0.1099
 8805SOL    HW137874   2.753   2.683   4.516  1.3362 -4.2434 -0.5620
 8805SOL    HW237875   2.824   2.673   4.384 -0.0404 -2.9681  1.4546
 8806SOL     OW37876   1.303   2.019  10.106  0.0293  0.2363  0.1841
 8806SOL    HW137877   1.396   2.001  10.091 -0.8820 -2.8135 -1.7241
 8806SOL    HW237878   1.280   1.946  10.164  1.4060  0.3960  0.9490
 8807SOL     OW37879   0.189   1.187   7.278  0.4575  0.6815 -0.3660
 8807SOL    HW137880   0.283   1.168   7.282  0.2470 -0.4912 -0.8847
 8807SOL    HW237881   0.174   1.217   7.368  2.6604  0.7370 -0.0009
 8808SOL     OW37882   0.524   3.881  13.585 -0.4630  0.4829 -0.0631
 8808SOL    HW137883   0.516   3.977  13.582 -0.2919  0.5185  0.4989
 8808SOL    HW237884   0.618   3.872  13.598 -0.5416 -0.2984 -0.0761
 8809SOL     OW37885   0.790   0.134   5.911  0.2305 -0.3786 -0.2700
 8809SOL    HW137886   0.745   0.109   5.830 -0.5537 -0.0830  0.0768
 8809SOL    HW237887   0.870   0.083   5.904 -0.2671 -1.1203 -0.5828
 8810SOL     OW37888   3.618   1.664  17.540  0.1008  0.0981 -0.1009
 8810SOL    HW137889   3.615   1.710  17.456  3.6124 -0.5860 -0.6115
 8810SOL    HW237890   3.693   1.605  17.533 -0.0536 -0.1164  0.0182
 8811SOL     OW37891   1.881   3.864   6.942 -0.9378  0.1942 -0.2150
 8811SOL    HW137892   1.924   3.861   6.857  1.8497 -0.2418  1.2154
 8811SOL    HW237893   1.794   3.825   6.928 -0.5506  0.3667 -3.1433
 8812SOL     OW37894   4.295   3.917  10.866  0.2695 -0.2252  0.0135
 8812SOL    HW137895   4.349   3.903  10.944  0.4156  0.1005 -0.0307
 8812SOL    HW237896   4.228   3.851  10.886 -1.8474  1.4796 -1.5015
 8813SOL     OW37897   1.220   2.799   3.630 -0.6311  0.1880 -0.8285
 8813SOL    HW137898   1.131   2.800   3.665 -1.0297 -0.1317 -1.8425
 8813SOL    HW237899   1.219   2.725   3.569  1.1769 -0.9439  0.4921
 8814SOL     OW37900   1.564   4.187   0.652 -0.3609 -0.2763 -0.2949
 8814SOL    HW137901   1.545   4.100   0.686 -0.3936  0.5161  1.6744
 8814SOL    HW237902   1.485   4.188   0.597  0.9565 -1.4114 -2.2303
 8815SOL     OW37903   2.166   4.025  15.956  0.4634 -0.0947  0.0741
 8815SOL    HW137904   2.100   4.041  16.023  1.0970  1.3513  0.3423
 8815SOL    HW237905   2.213   4.108  15.964 -1.4494  1.1530 -1.9275
 8816SOL     OW37906   2.543   4.715   2.602  0.2653  0.2727  0.1019
 8816SOL    HW137907   2.469   4.655   2.602  1.0971 -0.7431 -1.5222
 8816SOL    HW237908   2.536   0.031   2.515  0.2824  0.5782  0.2362
 8817SOL     OW37909   0.130   3.265   1.989 -0.3514 -0.2931 -0.0163
 8817SOL    HW137910   0.036   3.254   1.980 -0.4248 -1.0258  1.5446
 8817SOL    HW237911   0.156   3.293   1.902 -1.0540  0.9062  0.1552
 8818SOL     OW37912   2.065   1.560   6.234  0.3014  0.1896  0.0476
 8818SOL    HW137913   2.058   1.500   6.309 -1.5567  1.4218  0.8548
 8818SOL    HW237914   2.002   1.525   6.171 -1.1292 -1.0722  2.1958
 8819SOL     OW37915   3.501   1.350   7.714  0.0774 -0.2463 -0.1254
 8819SOL    HW137916   3.458   1.270   7.743  2.0716 -1.7400 -1.3028
 8819SOL    HW237917   3.592   1.324   7.727  0.5820  1.6963  0.2829
 8820SOL     OW37918   2.935   1.015   7.239  0.4138 -0.7299  0.3398
 8820SOL    HW137919   2.982   1.038   7.159 -1.3059 -2.8722 -1.2755
 8820SOL    HW237920   2.921   1.103   7.274  0.2253 -0.2323 -0.9948
 8821SOL     OW37921   1.895   4.709   3.548 -0.1665  0.3256 -1.1710
 8821SOL    HW137922   1.948   0.047   3.498 -0.8457  2.1213  0.2994
 8821SOL    HW237923   1.885   0.042   3.624  0.2619 -0.5856 -0.4466
 8822SOL     OW37924   2.418   1.883   4.423  0.2639  0.1874  0.0216
 8822SOL    HW137925   2.402   1.790   4.441 -0.6345  0.4668  0.6828
 8822SOL    HW237926   2.495   1.878   4.367  0.0479  0.8619 -0.3295
 8823SOL     OW37927   2.396   0.655   6.331 -0.0861 -0.0382  0.1534
 8823SOL    HW137928   2.453   0.654   6.407 -0.2041 -0.5933  0.2354
 8823SOL    HW237929   2.414   0.567   6.298  0.9675  0.7177 -1.2856
 8824SOL     OW37930   2.469   0.780   4.445  0.0718 -0.4337 -0.5878
 8824SOL    HW137931   2.525   0.714   4.404  1.6946  1.3245 -1.2035
 8824SOL    HW237932   2.385   0.766   4.401  0.1730 -0.4160 -0.7900
 8825SOL     OW37933   4.053   4.624   2.711 -0.0096 -1.1447  0.0259
 8825SOL    HW137934   4.147   4.639   2.721 -0.3492  1.0105 -0.0002
 8825SOL    HW237935   4.048   4.555   2.645  0.9862 -1.1402 -0.0591
 8826SOL     OW37936   1.332   1.218   0.085 -0.3847 -0.2256  0.2262
 8826SOL    HW137937   1.336   1.278   0.011 -1.8353 -1.0089 -0.4822
 8826SOL    HW237938   1.328   1.141   0.029  1.4417 -1.0196  1.2047
 8827SOL     OW37939   0.862   0.250   4.192  0.1231 -0.5471  0.4490
 8827SOL    HW137940   0.943   0.208   4.223  0.5568  0.4019  0.5848
 8827SOL    HW237941   0.825   0.173   4.149  1.2811 -0.1107 -1.2998
 8828SOL     OW37942   0.911   3.479   0.617 -0.1754 -0.3089 -0.5155
 8828SOL    HW137943   0.865   3.510   0.539 -0.2468 -0.4136 -0.5142
 8828SOL    HW237944   0.979   3.547   0.614  0.1104 -0.5132  1.0348
 8829SOL     OW37945   1.280   2.097   9.232  0.0716 -0.1892 -0.4154
 8829SOL    HW137946   1.305   2.005   9.238 -0.6458 -0.3525  0.0734
 8829SOL    HW237947   1.339   2.130   9.300 -1.6512  2.7484 -0.3727
 8830SOL     OW37948   3.898   1.738  17.426 -0.5188 -0.3034 -0.0224
 8830SOL    HW137949   3.814   1.780  17.407 -0.2548  0.9237  1.5600
 8830SOL    HW237950   3.865   1.664  17.478 -0.3759  1.0011  1.9482
 8831SOL     OW37951   3.595   0.816   7.508 -0.5883 -0.4999 -0.3408
 8831SOL    HW137952   3.680   0.773   7.500 -1.1233 -1.4324 -1.0294
 8831SOL    HW237953   3.610   0.909   7.493  0.3387 -0.4249  1.0191
 8832SOL     OW37954   3.374   3.825   0.758  0.2333  0.2320 -0.2948
 8832SOL    HW137955   3.377   3.917   0.732 -0.4467  0.4499  0.3977
 8832SOL    HW237956   3.380   3.826   0.854 -1.0701  2.9108 -0.2540
 8833SOL     OW37957   4.587   4.286  17.521 -0.7226 -0.1375 -0.1658
 8833SOL    HW137958   4.514   4.292  17.458 -1.2361 -0.1093  0.4300
 8833SOL    HW237959   4.532   4.275  17.599  2.2532 -0.3079  1.8833
 8834SOL     OW37960   0.202   0.649   8.204  0.0606 -0.1332  0.7668
 8834SOL    HW137961   0.114   0.678   8.181  1.5467  1.8593 -2.4332
 8834SOL    HW237962   0.256   0.728   8.197  0.1212 -0.1321  1.2446
 8835SOL     OW37963   0.964   4.164   7.524 -0.1066 -0.4185 -0.1857
 8835SOL    HW137964   0.946   4.241   7.577  0.6782 -1.1113  1.0886
 8835SOL    HW237965   1.048   4.130   7.556  0.7951  2.0689  0.0380
 8836SOL     OW37966   0.443   1.759   1.132  0.4456 -0.3462 -0.5333
 8836SOL    HW137967   0.533   1.739   1.160  0.7433  0.3163 -1.0162
 8836SOL    HW237968   0.433   1.713   1.048  0.3278 -1.3590  0.0361
 8837SOL     OW37969   4.375   3.421   7.655  0.3115 -0.1873 -0.2151
 8837SOL    HW137970   4.297   3.473   7.675  1.2544  1.2373 -0.1952
 8837SOL    HW237971   4.396   3.458   7.568 -1.7116  0.3359 -0.4748
 8838SOL     OW37972   0.651   2.279  12.831  0.3689 -0.9218 -0.6144
 8838SOL    HW137973   0.737   2.249  12.858  1.4653  1.6049 -1.3075
 8838SOL    HW237974   0.660   2.277  12.736  0.7320 -0.4056 -0.5929
 8839SOL     OW37975   4.114   3.258   8.219  0.3979  0.0751 -0.3537
 8839SOL    HW137976   4.036   3.309   8.244 -0.2369 -1.9607  1.8753
 8839SOL    HW237977   4.102   3.181   8.275  1.2570 -0.0449 -0.3359
 8840SOL     OW37978   4.167   3.976   3.319  0.8907 -0.0160 -0.3845
 8840SOL    HW137979   4.100   3.919   3.281  2.7296 -1.6175 -1.1652
 8840SOL    HW237980   4.107   4.028   3.373  0.9459 -1.3032  0.9142
 8841SOL     OW37981   1.066   3.354   4.300  0.0226  0.1144  0.0235
 8841SOL    HW137982   1.028   3.361   4.213  2.3775 -0.6185 -1.0726
 8841SOL    HW237983   1.136   3.290   4.287  0.0346  0.3352 -0.9894
 8842SOL     OW37984   3.296   4.237   2.607 -0.2407 -0.4908 -0.2084
 8842SOL    HW137985   3.271   4.296   2.536 -1.0713 -2.0185 -1.1907
 8842SOL    HW237986   3.213   4.194   2.626 -0.8566  0.6452 -0.3022
 8843SOL     OW37987   2.203   0.827   6.002  0.1894 -0.1427 -0.0289
 8843SOL    HW137988   2.251   0.905   5.974  2.6772 -0.8981  2.2653
 8843SOL    HW237989   2.214   0.830   6.097 -1.2263 -1.5749  0.1901
 8844SOL     OW37990   3.540   0.261  11.168 -0.5086  0.3408  0.1071
 8844SOL    HW137991   3.625   0.276  11.128 -0.6878 -1.4680 -0.9527
 8844SOL    HW237992   3.563   0.237  11.258  0.3329  2.6439  0.5041
 8845SOL     OW37993   2.497   0.012   4.602 -0.0154  0.0060 -0.3287
 8845SOL    HW137994   2.585   0.048   4.588  0.1912 -1.2130 -2.0177
 8845SOL    HW237995   2.514   4.642   4.592  1.1778 -0.1582  3.0175
 8846SOL     OW37996   4.314   4.188   7.082  0.0629  0.3865 -0.1816
 8846SOL    HW137997   4.257   4.264   7.067 -1.9075 -0.8386  0.9710
 8846SOL    HW237998   4.352   4.177   6.995  1.1387  0.9186  0.2301
 8847SOL     OW37999   2.046   1.433   5.314 -0.1126 -0.5479  0.6907
 8847SOL    HW138000   1.999   1.441   5.397  0.0976 -1.7191  0.9178
 8847SOL    HW238001   1.972   1.431   5.252  1.4746  1.6748 -1.2459
 8848SOL     OW38002   4.061   3.415  17.603  0.5559 -0.2765  0.1878
 8848SOL    HW138003   4.027   3.331  17.573 -0.5076  0.3803 -0.4182
 8848SOL    HW238004   4.019   3.429  17.688  0.1540  0.5818 -0.1512
 8849SOL     OW38005   0.471   4.659   1.840 -0.0738  0.0143  0.1424
 8849SOL    HW138006   0.537   4.618   1.783 -0.7518  1.1257 -1.4340
 8849SOL    HW238007   0.411   4.585   1.835  0.6096 -0.4842 -0.7049
 8850SOL     OW38008   2.370   0.731  12.883 -0.0397 -0.6180 -0.8154
 8850SOL    HW138009   2.406   0.795  12.821  1.1007  0.8270  1.3458
 8850SOL    HW238010   2.277   0.741  12.864 -0.0690  1.5788  0.4358
 8851SOL     OW38011   2.821   1.101  11.413  0.1516  0.6668  0.2017
 8851SOL    HW138012   2.887   1.072  11.350  0.8278  2.3450  0.1579
 8851SOL    HW238013   2.755   1.126  11.347  1.2735  2.7913 -0.1145
 8852SOL     OW38014   0.143   2.074   4.210 -0.4410  0.5174 -0.2016
 8852SOL    HW138015   0.147   2.166   4.185 -0.7015  0.0565 -1.8985
 8852SOL    HW238016   0.222   2.047   4.165  0.2464 -0.6889  1.7032
 8853SOL     OW38017   1.699   0.781  15.824 -0.0811  0.0134  0.3857
 8853SOL    HW138018   1.623   0.837  15.810  0.0478  0.2503  0.6471
 8853SOL    HW238019   1.764   0.829  15.772 -1.7342  0.6881 -1.0818
 8854SOL     OW38020   3.412   2.842  15.739 -0.2622 -0.5533 -0.3766
 8854SOL    HW138021   3.321   2.866  15.728  0.7275  3.4839  0.2574
 8854SOL    HW238022   3.448   2.908  15.798 -1.4050 -0.8956  0.6909
 8855SOL     OW38023   0.071   0.929   6.182  0.7262 -0.0566 -0.7019
 8855SOL    HW138024   0.010   1.003   6.178 -0.7174 -1.1791  0.7395
 8855SOL    HW238025   0.114   0.940   6.097  2.6736  0.3799  0.3366
 8856SOL     OW38026   4.662   3.259  12.497 -0.2672  0.0378 -0.3690
 8856SOL    HW138027   4.689   3.323  12.563  0.8740 -2.0321  1.1669
 8856SOL    HW238028   4.576   3.229  12.526 -0.5803  0.2213 -1.0904
 8857SOL     OW38029   3.355   2.898   6.619  0.7025  0.2851 -0.0347
 8857SOL    HW138030   3.410   2.823   6.596  1.1626  0.4921  0.3802
 8857SOL    HW238031   3.325   2.862   6.702  1.0800 -1.4280 -0.6486
 8858SOL     OW38032   3.060   4.506   1.774  0.0977  0.1830 -0.3037
 8858SOL    HW138033   3.001   4.518   1.700 -0.4713  0.2680  0.1634
 8858SOL    HW238034   3.065   4.598   1.798 -0.3104 -0.1756  1.1542
 8859SOL     OW38035   1.160   0.633   2.584  0.1473 -0.4819 -0.3304
 8859SOL    HW138036   1.106   0.702   2.623  1.0560 -0.3517  0.6767
 8859SOL    HW238037   1.220   0.686   2.531 -0.5725  1.1261  0.4650
 8860SOL     OW38038   3.058   0.985  14.922  0.2346  0.2272  0.1388
 8860SOL    HW138039   2.985   1.040  14.896  0.8455  0.6443 -0.6707
 8860SOL    HW238040   3.050   0.910  14.864  1.1685  0.9293 -0.8908
 8861SOL     OW38041   1.984   1.454   8.545  0.1106  0.0140  0.1606
 8861SOL    HW138042   1.980   1.370   8.592  0.4045 -0.6890 -1.0554
 8861SOL    HW238043   1.901   1.451   8.497 -0.4260  1.2363  1.0170
 8862SOL     OW38044   0.086   3.104  13.443 -0.1359 -0.0889  0.2812
 8862SOL    HW138045   0.157   3.051  13.407  1.3032 -0.5718  3.8471
 8862SOL    HW238046   0.088   3.079  13.535 -0.8364 -2.1954 -0.2772
 8863SOL     OW38047   3.730   1.950  15.725  0.1168  0.2875 -0.0253
 8863SOL    HW138048   3.731   2.003  15.805  1.0563 -1.4457  1.1062
 8863SOL    HW238049   3.761   1.866  15.758  0.0245  0.8967  1.6062
 8864SOL     OW38050   3.480   2.306   7.656 -0.2639  0.1086 -0.0670
 8864SOL    HW138051   3.457   2.295   7.748 -0.6748 -1.3846 -0.3416
 8864SOL    HW238052   3.393   2.333   7.626 -0.5823 -2.2118 -1.2115
 8865SOL     OW38053   1.160   1.660  17.212  0.4949  0.1078 -0.3006
 8865SOL    HW138054   1.103   1.594  17.252 -1.6240  1.5952 -0.8893
 8865SOL    HW238055   1.202   1.700  17.288  0.6678 -2.4333  0.9602
 8866SOL     OW38056   2.582   4.229  10.412  0.3145 -0.2376 -0.0824
 8866SOL    HW138057   2.617   4.170  10.345  2.6432 -2.8863  3.4953
 8866SOL    HW238058   2.624   4.308  10.378 -0.4375 -1.5672 -4.0965
 8867SOL     OW38059   3.839   3.059   7.281 -0.7727  0.0192 -0.4881
 8867SOL    HW138060   3.877   3.142   7.252 -2.1118 -0.0589 -2.4332
 8867SOL    HW238061   3.761   3.095   7.323  0.2771 -0.5931  2.0010
 8868SOL     OW38062   0.348   3.155   8.315 -0.0326  0.2264 -0.0284
 8868SOL    HW138063   0.425   3.185   8.266 -1.9132  2.0044 -1.9389
 8868SOL    HW238064   0.283   3.144   8.245  1.0371 -2.6908 -0.5186
 8869SOL     OW38065   0.127   3.983  12.745 -0.9185 -0.0781  0.4644
 8869SOL    HW138066   0.079   3.929  12.683  0.5608  0.2033 -0.9231
 8869SOL    HW238067   0.196   4.020  12.690  0.4134 -1.9598  0.8420
 8870SOL     OW38068   3.741   2.837  15.365 -0.4372 -0.0135  0.2981
 8870SOL    HW138069   3.761   2.791  15.284  2.1125  2.5409 -0.5195
 8870SOL    HW238070   3.816   2.817  15.421 -0.6909 -0.5945  0.4315
 8871SOL     OW38071   1.947   2.106   7.338 -0.1017 -0.1239  0.1453
 8871SOL    HW138072   1.934   2.082   7.246 -0.7109  0.0202  0.1917
 8871SOL    HW238073   1.993   2.026   7.362  0.7280  0.4033  0.3004
 8872SOL     OW38074   2.196   0.827   6.268 -0.4927 -0.1597 -0.8973
 8872SOL    HW138075   2.255   0.773   6.321  1.4277  3.5170  0.6740
 8872SOL    HW238076   2.222   0.912   6.302 -0.5811 -1.3808  2.2228
 8873SOL     OW38077   2.494   0.778  13.131 -0.1279  0.2314 -0.2201
 8873SOL    HW138078   2.472   0.753  13.041 -0.6466 -2.2345  0.6142
 8873SOL    HW238079   2.456   0.866  13.134 -0.1963  0.2371 -1.0514
 8874SOL     OW38080   1.416   0.823   2.768 -0.1950 -0.3888 -0.0331
 8874SOL    HW138081   1.392   0.812   2.675  3.1280  0.7469 -1.0242
 8874SOL    HW238082   1.502   0.782   2.760  0.7502  1.2509  1.7464
 8875SOL     OW38083   4.050   2.913   3.973  0.0291  0.4577  0.1285
 8875SOL    HW138084   4.048   2.987   4.033  1.7007  0.4557  0.1832
 8875SOL    HW238085   4.098   2.952   3.900 -1.8536  0.4654 -1.1177
 8876SOL     OW38086   4.005   4.455   3.394  0.3955  0.1223 -0.4717
 8876SOL    HW138087   3.946   4.398   3.345  3.0032 -2.5779 -0.4641
 8876SOL    HW238088   3.969   4.543   3.395 -0.4641 -0.2523  1.5828
 8877SOL     OW38089   0.410   2.688   5.165  0.4453 -0.4756 -0.3090
 8877SOL    HW138090   0.406   2.782   5.179  0.3950 -0.6235  0.6395
 8877SOL    HW238091   0.319   2.671   5.187  0.1658  0.3409 -0.8590
 8878SOL     OW38092   0.166   1.619   8.389 -0.1843  0.7322 -0.1179
 8878SOL    HW138093   0.106   1.565   8.337  0.4086 -1.4369  1.4178
 8878SOL    HW238094   0.220   1.662   8.323 -0.2334 -0.4018 -0.8980
 8879SOL     OW38095   3.925   2.993  14.133 -0.4168 -0.6249  0.0602
 8879SOL    HW138096   3.941   3.080  14.097  1.9771 -1.0681  0.0318
 8879SOL    HW238097   3.956   2.936  14.062  1.1363 -0.5755  0.6831
 8880SOL     OW38098   2.226   4.306   3.089 -0.2823  0.0712 -0.1342
 8880SOL    HW138099   2.260   4.216   3.079  0.4348  0.1862  1.1949
 8880SOL    HW238100   2.156   4.299   3.154  0.7111 -5.0818  0.4480
 8881SOL     OW38101   2.502   4.483   1.897 -0.3699  0.3390 -0.5038
 8881SOL    HW138102   2.484   4.528   1.815  0.5906  1.0520 -0.3239
 8881SOL    HW238103   2.591   4.510   1.920  0.1614 -0.9445 -1.0563
 8882SOL     OW38104   3.334   0.458   3.169 -0.7360  0.0901  0.8951
 8882SOL    HW138105   3.421   0.421   3.158 -1.0837 -0.5283  0.2782
 8882SOL    HW238106   3.327   0.476   3.076  1.0343 -0.8382  0.5812
 8883SOL     OW38107   0.514   3.266   7.014  0.5168  0.4181  0.4940
 8883SOL    HW138108   0.590   3.272   6.956 -0.0175 -0.0389 -0.2664
 8883SOL    HW238109   0.448   3.311   6.960  1.6670  0.4241 -0.9050
 8884SOL     OW38110   2.649   0.378   4.815 -0.3997  0.0416 -0.1055
 8884SOL    HW138111   2.732   0.423   4.802  0.0617  0.2624  3.6000
 8884SOL    HW238112   2.671   0.285   4.812  0.5415  0.2975 -1.3035
 8885SOL     OW38113   2.490   3.660   8.195  0.4332 -0.0688  0.3970
 8885SOL    HW138114   2.485   3.713   8.274 -0.1184  1.3560 -0.6017
 8885SOL    HW238115   2.581   3.630   8.203  0.2052 -0.4663  1.5240
 8886SOL     OW38116   0.135   2.124   4.491  0.7103 -0.4432 -0.0804
 8886SOL    HW138117   0.058   2.077   4.522 -1.5077  1.0474 -3.3401
 8886SOL    HW238118   0.132   2.102   4.398  0.1277  1.3564 -0.5078
 8887SOL     OW38119   2.612   2.190   3.055 -0.1946  0.0452 -0.4903
 8887SOL    HW138120   2.638   2.199   3.146 -0.3541  3.6816 -0.8273
 8887SOL    HW238121   2.517   2.183   3.053 -0.1535 -1.0469  1.4148
 8888SOL     OW38122   2.283   2.573  15.627 -0.2375 -0.0605 -0.2224
 8888SOL    HW138123   2.364   2.616  15.598 -0.5759  0.9957  0.3711
 8888SOL    HW238124   2.313   2.553  15.716 -1.8637 -2.0118 -0.1389
 8889SOL     OW38125   4.577   0.715   3.697  0.0172 -0.0855  0.5593
 8889SOL    HW138126   4.562   0.739   3.606 -0.6248  0.6545  0.8632
 8889SOL    HW238127   4.503   0.759   3.740  2.0397  1.1962  2.6750
 8890SOL     OW38128   3.898   1.270  15.937  0.4871 -0.0033 -0.0931
 8890SOL    HW138129   3.926   1.245  16.025  1.1097  1.9346  0.2622
 8890SOL    HW238130   3.840   1.196  15.920 -0.5618  0.2219  2.5229
 8891SOL     OW38131   4.501   4.645   4.645 -0.1879  0.4331 -0.0319
 8891SOL    HW138132   4.577   4.601   4.608  0.4132  3.5124 -2.4823
 8891SOL    HW238133   4.434   4.578   4.651 -1.4522  1.4380 -3.1214
 8892SOL     OW38134   2.923   1.327   4.189  0.0046 -0.4096  0.0908
 8892SOL    HW138135   2.964   1.284   4.265  2.1008 -0.4817 -1.0909
 8892SOL    HW238136   2.900   1.267   4.118 -1.1541 -1.5177  1.3998
 8893SOL     OW38137   2.152   4.507   4.486  0.0878  0.0751  0.1090
 8893SOL    HW138138   2.161   4.422   4.443  0.4028 -1.2420  2.7690
 8893SOL    HW238139   2.167   4.561   4.409 -0.7284  0.0868 -0.0452
 8894SOL     OW38140   1.974   4.249  16.988  0.3074 -0.4851 -0.8439
 8894SOL    HW138141   1.949   4.308  16.917 -0.7175 -0.2314 -0.2616
 8894SOL    HW238142   1.984   4.313  17.059  1.1848  0.7366 -2.0560
 8895SOL     OW38143   2.495   0.229   1.399  0.9003 -0.4125  0.1416
 8895SOL    HW138144   2.402   0.249   1.391  1.2388  0.1917 -2.5120
 8895SOL    HW238145   2.523   0.311   1.439 -1.3532  0.2734  0.2913
 8896SOL     OW38146   2.885   3.462   9.896 -0.9537 -0.0715  0.2877
 8896SOL    HW138147   2.906   3.370   9.878 -0.0304  0.3115 -0.5694
 8896SOL    HW238148   2.838   3.445   9.978 -0.0081 -3.6609  0.0748
 8897SOL     OW38149   2.841   2.639   6.078  0.0542 -0.4507  0.2779
 8897SOL    HW138150   2.750   2.630   6.051  0.4207  1.7912 -1.7172
 8897SOL    HW238151   2.889   2.587   6.013  2.6365  1.4636  0.6526
 8898SOL     OW38152   3.256   2.179   8.141 -0.0588  0.0076  0.6041
 8898SOL    HW138153   3.279   2.117   8.210 -0.2290 -0.2209  0.4539
 8898SOL    HW238154   3.198   2.242   8.185  2.0523  3.3890 -1.4350
 8899SOL     OW38155   3.628   0.471  13.041 -0.3218 -0.3518 -0.0999
 8899SOL    HW138156   3.669   0.549  13.002 -0.8084 -0.7906 -1.4631
 8899SOL    HW238157   3.659   0.399  12.986  1.2008 -0.5172  0.9682
 8900SOL     OW38158   2.743   3.507   0.079  0.2427  0.0641  0.7892
 8900SOL    HW138159   2.757   3.424   0.124 -0.6012 -0.7823 -0.5033
 8900SOL    HW238160   2.779   3.466   0.000 -0.3693  0.6007  0.2295
 8901SOL     OW38161   2.273   3.107  10.572  0.6108  0.1509  0.4608
 8901SOL    HW138162   2.341   3.156  10.618  0.3728  0.3420  0.6112
 8901SOL    HW238163   2.195   3.141  10.616  0.0528  2.7623 -2.6067
 8902SOL     OW38164   1.928   3.303   7.253 -1.1167 -0.3105  0.5969
 8902SOL    HW138165   1.965   3.293   7.341 -0.4054  0.5166  0.3857
 8902SOL    HW238166   2.003   3.316   7.196  1.0674 -3.1038  2.8348
 8903SOL     OW38167   1.234   2.389   7.389  0.2873 -0.2332 -0.3497
 8903SOL    HW138168   1.181   2.311   7.372 -0.1398  0.0579 -0.3332
 8903SOL    HW238169   1.171   2.455   7.362 -0.9633 -1.7763 -1.1926
 8904SOL     OW38170   0.401   4.302   7.349 -0.0853  0.4335 -0.1449
 8904SOL    HW138171   0.416   4.225   7.293  0.8631  1.4378 -1.2838
 8904SOL    HW238172   0.306   4.303   7.348 -0.0706 -1.5869 -3.8309
 8905SOL     OW38173   0.746   4.642  17.154 -0.1914 -0.1708  0.6217
 8905SOL    HW138174   0.777   0.005  17.127  0.0413 -0.8854 -1.3903
 8905SOL    HW238175   0.652   4.663  17.160 -0.4244 -0.9650 -0.2188
 8906SOL     OW38176   0.330   3.363   2.142 -0.0162  0.4209 -0.1665
 8906SOL    HW138177   0.265   3.324   2.084 -1.1117  3.4079 -0.9450
 8906SOL    HW238178   0.405   3.311   2.114 -0.5462 -0.4984  0.1025
 8907SOL     OW38179   3.651   1.587   2.865  0.1968  0.1628 -0.3211
 8907SOL    HW138180   3.693   1.673   2.854 -0.1251  0.2270 -1.0412
 8907SOL    HW238181   3.727   1.528   2.868 -0.7859 -0.9480  2.3581
 8908SOL     OW38182   3.005   3.273  15.099  0.5610  0.1908  0.0707
 8908SOL    HW138183   3.094   3.299  15.122  1.2995 -0.8012 -1.6501
 8908SOL    HW238184   3.033   3.196  15.049  1.6449  0.5333  0.1405
 8909SOL     OW38185   4.723   3.535  15.351 -0.1899  0.6098 -0.0852
 8909SOL    HW138186   4.702   3.457  15.403 -1.0605 -0.8410 -2.5972
 8909SOL    HW238187   4.684   3.607  15.400  2.1548  0.2409  2.2715
 8910SOL     OW38188   3.948   3.785   6.408  0.2461  0.2650 -0.4013
 8910SOL    HW138189   3.998   3.828   6.477 -1.2235  2.0225 -0.4382
 8910SOL    HW238190   3.927   3.864   6.358 -0.8077 -0.1016 -0.5387
 8911SOL     OW38191   3.585   2.018  14.160  0.3398  0.0530 -0.2798
 8911SOL    HW138192   3.607   1.979  14.075 -1.3982  1.7685 -1.4979
 8911SOL    HW238193   3.659   2.077  14.174  2.0421 -2.4531  1.4781
 8912SOL     OW38194   3.101   2.434   5.118  0.8525 -0.4187  0.5935
 8912SOL    HW138195   3.076   2.391   5.036 -1.3660 -0.0553  1.0692
 8912SOL    HW238196   3.197   2.428   5.117  0.9235  0.6238  0.7701
 8913SOL     OW38197   0.154   0.172  15.677 -0.5120 -0.0043  0.0542
 8913SOL    HW138198   0.230   0.148  15.624  0.1434  2.2134  0.0043
 8913SOL    HW238199   0.136   0.261  15.647 -0.5337  0.6473  2.0198
 8914SOL     OW38200   1.800   3.497  17.263  0.0974  0.0002 -0.5864
 8914SOL    HW138201   1.791   3.537  17.350  0.4818  1.0907 -1.0512
 8914SOL    HW238202   1.824   3.572  17.209  0.8530 -0.5875 -1.0792
 8915SOL     OW38203   3.554   1.294   8.527  0.5090  0.4165 -0.0324
 8915SOL    HW138204   3.617   1.326   8.592 -2.0770  0.1930  2.5934
 8915SOL    HW238205   3.588   1.205   8.535 -0.7851  0.1097  1.9037
 8916SOL     OW38206   3.320   0.545  15.432  0.0397  0.8517  0.3131
 8916SOL    HW138207   3.370   0.626  15.439  2.2806 -0.4883 -0.2691
 8916SOL    HW238208   3.311   0.527  15.526 -2.3520  0.9178  0.0957
 8917SOL     OW38209   1.414   1.108   3.779  0.3217  0.0439  0.5196
 8917SOL    HW138210   1.347   1.150   3.833 -1.7376 -0.2532 -1.7617
 8917SOL    HW238211   1.370   1.086   3.697 -0.3022  1.8454  0.3725
 8918SOL     OW38212   3.005   1.310   6.858 -0.6238 -0.0942  0.6306
 8918SOL    HW138213   2.961   1.287   6.776  1.7324 -0.2408 -0.5697
 8918SOL    HW238214   2.963   1.389   6.892 -2.4314 -0.5367 -0.5459
 8919SOL     OW38215   4.210   2.235  12.267  0.4411  0.4478 -0.5391
 8919SOL    HW138216   4.272   2.294  12.224  1.3418 -0.1706 -0.0956
 8919SOL    HW238217   4.275   2.198  12.327  0.2992  2.1274  0.6359
 8920SOL     OW38218   0.086   2.894   3.244 -0.3894 -0.3180  0.2703
 8920SOL    HW138219   0.049   2.815   3.204 -0.3282 -0.6343  0.8346
 8920SOL    HW238220   0.175   2.861   3.232 -0.7063 -1.3797  0.8000
 8921SOL     OW38221   0.438   1.272  15.405  0.1084  0.1861  0.1702
 8921SOL    HW138222   0.389   1.354  15.407  0.3948  0.3384  0.8692
 8921SOL    HW238223   0.508   1.282  15.341  0.8626  2.9179  1.4185
 8922SOL     OW38224   0.254   3.169   3.214  0.1147 -0.4334 -0.5402
 8922SOL    HW138225   0.264   3.249   3.265  3.6081 -1.1782 -0.0664
 8922SOL    HW238226   0.218   3.117   3.286  1.2079  0.1969  0.4702
 8923SOL     OW38227   3.998   1.161   5.961  0.2228 -0.1609  0.5116
 8923SOL    HW138228   3.999   1.162   6.057  0.8122  1.3655  0.4935
 8923SOL    HW238229   4.032   1.249   5.945 -2.8343  0.5141 -2.1483
 8924SOL     OW38230   1.285   2.334  13.547 -0.3292  0.5551  0.3722
 8924SOL    HW138231   1.376   2.327  13.519 -0.3846 -2.1697  0.9398
 8924SOL    HW238232   1.288   2.292  13.633 -0.0735  0.0558  0.1193
 8925SOL     OW38233   1.152   0.763   3.469 -0.0136  0.0637 -0.4141
 8925SOL    HW138234   1.168   0.832   3.405 -2.0071  1.9333  1.1216
 8925SOL    HW238235   1.235   0.765   3.517 -0.5719  2.1907  0.4625
 8926SOL     OW38236   3.440   3.712  10.872 -0.3598  0.3426 -0.4213
 8926SOL    HW138237   3.441   3.799  10.912 -0.2884  0.1369  0.0284
 8926SOL    HW238238   3.409   3.735  10.784  0.1973  1.0468 -0.4346
 8927SOL     OW38239   2.082   2.505  14.397 -0.1201 -0.0995 -0.2810
 8927SOL    HW138240   2.062   2.552  14.317  0.1715  0.0004 -0.2973
 8927SOL    HW238241   1.999   2.516  14.444  0.6117  2.5069  0.4187
 8928SOL     OW38242   3.043   0.871  16.299 -0.1025  0.0484  0.0459
 8928SOL    HW138243   3.031   0.794  16.354 -0.4308 -0.3497 -0.5792
 8928SOL    HW238244   3.045   0.821  16.217  1.0854  1.2279 -0.6373
 8929SOL     OW38245   1.211   2.361   7.836  0.1538 -1.2539  0.4458
 8929SOL    HW138246   1.164   2.303   7.777 -0.9179 -0.3301  0.4097
 8929SOL    HW238247   1.193   2.441   7.786 -2.2154 -1.9900  0.1404
 8930SOL     OW38248   1.987   0.821   6.657 -0.4039 -0.2171  0.3885
 8930SOL    HW138249   1.942   0.894   6.615 -3.6018 -1.7877  1.0768
 8930SOL    HW238250   1.917   0.757   6.643 -0.4609  0.0241 -0.4457
 8931SOL     OW38251   2.743   3.147  13.214  0.2530 -0.2244 -0.3360
 8931SOL    HW138252   2.674   3.107  13.268  2.2918 -0.1940  2.2898
 8931SOL    HW238253   2.706   3.233  13.196 -0.4093 -0.1864  1.2168
 8932SOL     OW38254   2.884   4.207   4.585 -0.5053  0.8138 -0.2534
 8932SOL    HW138255   2.939   4.284   4.584 -1.6221  1.5800 -2.5037
 8932SOL    HW238256   2.906   4.167   4.501  1.5369 -1.2111  1.2580
 8933SOL     OW38257   2.988   1.518   5.084 -0.8738  0.3153  0.1548
 8933SOL    HW138258   2.952   1.576   5.151 -2.1077 -0.4608  0.1468
 8933SOL    HW238259   2.989   1.567   5.002 -1.1072 -1.3715 -0.8595
 8934SOL     OW38260   0.245   3.413   9.123  0.1008  0.0001  0.0430
 8934SOL    HW138261   0.186   3.488   9.114  0.9618  0.8008  1.0360
 8934SOL    HW238262   0.189   3.353   9.171  0.1018 -0.3742 -0.4264
 8935SOL     OW38263   0.774   2.570   9.167  0.5586  0.4236 -0.5308
 8935SOL    HW138264   0.757   2.580   9.073  0.4963 -0.8808 -0.6672
 8935SOL    HW238265   0.778   2.661   9.197  1.7298  0.3923 -0.5846
 8936SOL     OW38266   4.204   1.644   8.002  0.4458 -0.5381 -0.0537
 8936SOL    HW138267   4.193   1.565   8.055  0.0620 -0.1946  0.3745
 8936SOL    HW238268   4.288   1.684   8.022 -0.3702  0.5890  1.1322
 8937SOL     OW38269   3.799   1.112  17.181 -0.2333 -0.0827 -0.1851
 8937SOL    HW138270   3.742   1.037  17.164  1.3896 -1.1483 -0.9469
 8937SOL    HW238271   3.744   1.163  17.240  0.6088 -0.5246  0.9859
 8938SOL     OW38272   0.352   3.968   6.327  0.0704  0.1203 -0.2975
 8938SOL    HW138273   0.445   3.966   6.307 -0.1872  0.9854 -1.5517
 8938SOL    HW238274   0.314   3.972   6.239 -1.5065  1.4120  0.4338
 8939SOL     OW38275   3.002   3.424   3.632 -0.5627 -0.1095 -0.7172
 8939SOL    HW138276   3.000   3.330   3.650 -0.8379  0.1391  0.5821
 8939SOL    HW238277   2.975   3.460   3.717 -0.0973  0.4355 -0.8030
 8940SOL     OW38278   4.281   1.593   4.454  0.2983  0.1730 -0.0794
 8940SOL    HW138279   4.369   1.632   4.449  1.2193 -1.5785  2.0802
 8940SOL    HW238280   4.301   1.552   4.539 -0.3930  0.2848  0.1311
 8941SOL     OW38281   3.827   4.681  10.260 -0.2755 -0.4071 -0.2302
 8941SOL    HW138282   3.917   4.648  10.251 -0.0319 -0.0105  0.7524
 8941SOL    HW238283   3.811   4.642  10.346  0.4431 -1.2184 -0.4591
 8942SOL     OW38284   0.871   1.487   7.295  0.4446 -0.2192 -0.0783
 8942SOL    HW138285   0.876   1.569   7.246  0.3426  0.9441  1.8600
 8942SOL    HW238286   0.801   1.511   7.356 -0.3146 -2.0901 -0.1946
 8943SOL     OW38287   0.223   3.236   5.115  0.4323 -0.5313  0.6679
 8943SOL    HW138288   0.248   3.144   5.107 -0.1243 -0.5538 -0.8471
 8943SOL    HW238289   0.150   3.244   5.054 -0.1880  0.3468  1.5353
 8944SOL     OW38290   0.702   3.572   0.002  0.1302  0.1007 -0.1500
 8944SOL    HW138291   0.661   3.603  17.616 -1.0845 -3.0858 -0.7538
 8944SOL    HW238292   0.740   3.492  17.661  2.3785  1.2218 -0.2604
 8945SOL     OW38293   2.955   0.844  15.823  0.3911  0.4154 -0.7607
 8945SOL    HW138294   3.018   0.878  15.759  1.3391  3.1588  1.6308
 8945SOL    HW238295   2.923   0.924  15.864 -0.9640 -0.5960  0.1622
 8946SOL     OW38296   4.635   3.460   2.314  0.2949  0.0205 -0.0355
 8946SOL    HW138297   4.704   3.514   2.352 -1.1280  1.2609  0.7875
 8946SOL    HW238298   4.588   3.534   2.276 -1.8844 -0.7034  1.2816
 8947SOL     OW38299   3.003   4.554  16.100 -0.1728  0.1801  0.0551
 8947SOL    HW138300   3.073   4.577  16.040  0.6415  1.4805  1.4994
 8947SOL    HW238301   2.939   4.513  16.042 -0.8091  1.0941  0.1129
 8948SOL     OW38302   2.472   3.632   4.928  0.0569  0.2473 -0.0341
 8948SOL    HW138303   2.427   3.697   4.874 -2.6396 -1.0642  0.6645
 8948SOL    HW238304   2.415   3.633   5.004 -0.3738  0.9094 -0.3652
 8949SOL     OW38305   2.021   1.516  16.249 -0.4668 -0.5183 -0.1490
 8949SOL    HW138306   1.997   1.607  16.264 -0.3714 -0.4486 -0.4209
 8949SOL    HW238307   2.061   1.518  16.162  1.5131 -1.5028  0.7457
 8950SOL     OW38308   2.286   2.378   2.774  0.5568  0.7300 -0.7283
 8950SOL    HW138309   2.226   2.391   2.701 -2.3823  0.6869  1.6794
 8950SOL    HW238310   2.281   2.282   2.775  2.4403  0.6299 -1.0080
 8951SOL     OW38311   3.711   3.476   2.622  0.3003 -0.1262 -0.2355
 8951SOL    HW138312   3.714   3.562   2.663  1.9598  0.4138 -1.5044
 8951SOL    HW238313   3.777   3.489   2.554 -0.4967  0.8316 -0.8159
 8952SOL     OW38314   2.470   3.506   0.372 -0.1879  0.3463 -0.5139
 8952SOL    HW138315   2.556   3.505   0.414 -0.5775  0.2451  0.2814
 8952SOL    HW238316   2.420   3.574   0.417 -0.3145 -0.2457  0.2253
 8953SOL     OW38317   0.138   0.299   0.505 -0.1470 -0.2444  0.2758
 8953SOL    HW138318   0.110   0.344   0.584 -0.8724 -3.2033  1.7339
 8953SOL    HW238319   0.224   0.277   0.543 -0.0285 -0.4627 -0.1146
 8954SOL     OW38320   2.988   0.651   6.647  0.5060 -0.3673 -0.0688
 8954SOL    HW138321   2.953   0.652   6.558  1.4114  1.1680 -0.4087
 8954SOL    HW238322   3.069   0.702   6.638  0.7421 -0.6148  0.6436
 8955SOL     OW38323   3.828   2.454   5.022  0.2353  0.2355  0.0064
 8955SOL    HW138324   3.868   2.409   4.948  0.2102  0.8289 -0.3622
 8955SOL    HW238325   3.743   2.482   4.989 -0.3415 -0.5590  0.8369
 8956SOL     OW38326   2.407   1.360   2.390 -0.1781  0.4023 -0.8156
 8956SOL    HW138327   2.332   1.417   2.407  1.8948  3.0791 -0.5872
 8956SOL    HW238328   2.361   1.278   2.376 -1.1512  0.7819  0.2068
 8957SOL     OW38329   1.460   0.174   1.256 -0.1465  0.2902  0.3654
 8957SOL    HW138330   1.554   0.159   1.260 -0.8497 -4.5723 -0.7535
 8957SOL    HW238331   1.457   0.269   1.249  1.5051  0.1735 -2.0288
 8958SOL     OW38332   2.706   4.552   2.978 -0.6835 -0.1736 -0.2881
 8958SOL    HW138333   2.629   4.604   3.002  1.4240  1.9434  1.8959
 8958SOL    HW238334   2.751   4.582   3.057 -1.1191  1.2731 -0.5775
 8959SOL     OW38335   0.597   4.398   6.639 -0.1078 -0.3900  0.9250
 8959SOL    HW138336   0.537   4.467   6.666 -1.1754 -1.5147  1.4301
 8959SOL    HW238337   0.648   4.385   6.719 -1.1789  1.3033  1.8900
 8960SOL     OW38338   1.620   0.172   4.771 -0.0908 -0.2586 -0.1567
 8960SOL    HW138339   1.534   0.203   4.743 -0.4105 -0.0002  1.0706
 8960SOL    HW238340   1.604   0.084   4.805 -1.2897 -0.2925 -0.8175
 8961SOL     OW38341   3.252   3.587  11.040  0.1493 -0.3982  0.5999
 8961SOL    HW138342   3.311   3.642  10.987  0.8648 -0.0709  1.7230
 8961SOL    HW238343   3.280   3.600  11.130  0.5443  0.5816  0.3365
 8962SOL     OW38344   4.154   2.692   4.129 -0.2840  0.5398 -0.1440
 8962SOL    HW138345   4.086   2.750   4.162 -0.6205  0.4235 -0.6320
 8962SOL    HW238346   4.167   2.747   4.052 -0.3252 -0.4973 -0.8981
 8963SOL     OW38347   3.253   0.521   7.593  0.3783 -0.2855 -0.0875
 8963SOL    HW138348   3.204   0.537   7.513 -1.3860  0.4579  1.1490
 8963SOL    HW238349   3.280   0.612   7.611 -1.5258  0.4461 -0.9863
 8964SOL     OW38350   1.464   0.765   4.074 -0.4549  0.3558 -0.5133
 8964SOL    HW138351   1.378   0.776   4.034 -0.4150  4.4441  0.4684
 8964SOL    HW238352   1.440   0.768   4.167 -0.7816 -1.9748 -0.5108
 8965SOL     OW38353   1.139   3.960   5.698 -0.0086  0.3077 -0.3463
 8965SOL    HW138354   1.123   4.054   5.687  0.9123  0.3165 -1.6469
 8965SOL    HW238355   1.111   3.947   5.788 -1.2582 -1.1445 -0.9512
 8966SOL     OW38356   1.136   4.513   0.975  0.2816  0.4044 -0.7250
 8966SOL    HW138357   1.138   4.493   1.068 -0.8987 -0.4282 -0.8741
 8966SOL    HW238358   1.227   4.506   0.947  1.7309  2.5546  3.4790
 8967SOL     OW38359   2.785   4.331   1.623 -0.3987 -0.0579 -0.4746
 8967SOL    HW138360   2.757   4.323   1.714 -2.3346  0.4758 -1.0276
 8967SOL    HW238361   2.818   4.421   1.612  0.0159 -0.2067 -0.4385
 8968SOL     OW38362   2.235   0.904   7.630 -0.3926 -0.1943 -0.4870
 8968SOL    HW138363   2.242   0.993   7.663 -0.0336 -1.1678  2.1186
 8968SOL    HW238364   2.319   0.867   7.661 -0.3004  0.8306  0.4809
 8969SOL     OW38365   2.019   0.909   7.141 -0.1522 -0.4065 -0.6911
 8969SOL    HW138366   1.986   0.994   7.170  3.6048  0.4473  1.0946
 8969SOL    HW238367   1.944   0.876   7.091 -0.9814  1.0529 -0.3875
 8970SOL     OW38368   2.969   0.600   2.829  0.7702  0.5167 -0.4083
 8970SOL    HW138369   3.011   0.686   2.832  2.8250 -0.5337  0.6176
 8970SOL    HW238370   2.905   0.614   2.759  0.2953  0.0336 -0.0678
 8971SOL     OW38371   1.704   4.502   6.640 -0.1027 -0.5526  0.5110
 8971SOL    HW138372   1.769   4.448   6.595 -1.9571 -1.2366 -1.3260
 8971SOL    HW238373   1.727   4.495   6.733 -0.6788  1.3421  0.7955
 8972SOL     OW38374   3.224   0.409   4.955  0.0728 -0.0266 -0.6040
 8972SOL    HW138375   3.142   0.401   5.005 -1.1833 -0.7522 -2.8063
 8972SOL    HW238376   3.186   0.432   4.871 -0.4416 -0.5289 -0.5086
 8973SOL     OW38377   2.723   0.578  12.752 -0.0588  0.4598 -0.5977
 8973SOL    HW138378   2.698   0.561  12.843  1.5896  0.2623 -0.1971
 8973SOL    HW238379   2.690   0.504  12.701  3.0246 -1.4388  0.1620
 8974SOL     OW38380   3.966   2.718   3.606  0.2155 -0.2968 -0.1119
 8974SOL    HW138381   4.053   2.686   3.581  0.1498 -1.2547  0.8802
 8974SOL    HW238382   3.957   2.805   3.567  2.7197  0.5961  1.3467
 8975SOL     OW38383   1.050   4.387   6.296 -0.0862 -0.3086  0.2899
 8975SOL    HW138384   1.121   4.447   6.318 -1.2030  1.2724 -0.3742
 8975SOL    HW238385   0.972   4.442   6.306 -1.5580 -2.1440 -1.1170
 8976SOL     OW38386   3.295   3.858   7.872  0.4861  0.3992  0.0534
 8976SOL    HW138387   3.234   3.801   7.825  0.2903  0.3425  0.3770
 8976SOL    HW238388   3.300   3.805   7.951 -0.3464 -1.2218 -0.9808
 8977SOL     OW38389   1.701   2.516  16.381  0.6077  0.5863 -0.1399
 8977SOL    HW138390   1.720   2.602  16.343 -1.4561  1.3912  0.6675
 8977SOL    HW238391   1.632   2.550  16.438  0.3930 -0.5571  0.2759
 8978SOL     OW38392   4.646   0.788  15.209 -0.1746 -0.7239  0.2838
 8978SOL    HW138393   0.008   0.761  15.173  0.4396 -0.7530  1.7437
 8978SOL    HW238394   4.579   0.755  15.149  0.5286  1.4684 -1.7394
 8979SOL     OW38395   1.740   3.373   8.471  0.2346  0.1044 -0.1342
 8979SOL    HW138396   1.740   3.303   8.535 -0.4806  0.2087 -0.0160
 8979SOL    HW238397   1.740   3.443   8.536 -2.3114 -1.9231  2.0213
 8980SOL     OW38398   0.465   4.105   0.195 -0.5084  0.4678 -0.0258
 8980SOL    HW138399   0.409   4.032   0.169  0.0956  0.0467 -0.1690
 8980SOL    HW238400   0.503   4.062   0.272 -0.9559  1.5874  0.8147
 8981SOL     OW38401   2.860   4.164   3.602 -0.4763  0.7792 -0.3420
 8981SOL    HW138402   2.773   4.133   3.630 -0.5524  1.0498 -0.2818
 8981SOL    HW238403   2.842   4.244   3.554 -1.6344  1.3165  0.9981
 8982SOL     OW38404   0.942   1.837  15.935  0.4003 -0.1468  0.1380
 8982SOL    HW138405   0.854   1.801  15.925  1.0098 -1.6349  0.1896
 8982SOL    HW238406   0.969   1.853  15.844  1.4999  1.2057  0.6945
 8983SOL     OW38407   1.513   3.059  15.579  0.3387  0.1902  0.5704
 8983SOL    HW138408   1.479   3.125  15.519 -0.0966 -0.9598 -0.4412
 8983SOL    HW238409   1.514   2.979  15.527  0.3003  0.7768 -0.3380
 8984SOL     OW38410   4.544   1.448   6.660  0.5459  0.1079  0.1418
 8984SOL    HW138411   4.610   1.456   6.591  0.2444  0.8859 -0.0616
 8984SOL    HW238412   4.548   1.532   6.706  1.2394  0.6507 -0.9073
 8985SOL     OW38413   4.223   0.050  13.337 -0.0025  0.0463  0.1205
 8985SOL    HW138414   4.277   0.027  13.413 -0.5834  0.5963  0.7016
 8985SOL    HW238415   4.293   0.055  13.272 -0.5260 -0.2814 -0.4673
 8986SOL     OW38416   3.313   3.069  10.996 -0.4968  0.4227  0.1044
 8986SOL    HW138417   3.296   3.056  11.089  0.8755 -0.0797  0.2845
 8986SOL    HW238418   3.290   3.161  10.982  0.6194  0.4768 -1.4450
 8987SOL     OW38419   4.645   1.633  15.087  0.1380  0.0364  0.3383
 8987SOL    HW138420   4.596   1.713  15.067 -2.0280 -2.2398 -3.4469
 8987SOL    HW238421   4.712   1.630  15.019 -0.2709 -2.7226  0.0595
 8988SOL     OW38422   2.503   1.058   9.181  0.2545  0.3874 -0.0048
 8988SOL    HW138423   2.518   1.070   9.275 -1.1563 -2.6230  0.6190
 8988SOL    HW238424   2.448   0.979   9.181  0.6498  0.1089  1.0994
 8989SOL     OW38425   3.013   4.272   1.156 -0.2019 -0.2659  0.3704
 8989SOL    HW138426   3.028   4.352   1.105 -1.2988 -1.1481 -1.3456
 8989SOL    HW238427   2.994   4.303   1.244 -1.8341  1.6015 -0.6444
 8990SOL     OW38428   1.241   3.628  14.908  0.2439 -0.4399  0.4788
 8990SOL    HW138429   1.296   3.706  14.894  0.0869 -0.5534 -0.7866
 8990SOL    HW238430   1.220   3.636  15.001 -1.1440  1.9929 -0.0370
 8991SOL     OW38431   3.386   4.008   5.885 -0.3859 -0.5671 -0.6066
 8991SOL    HW138432   3.466   3.974   5.925 -1.3161  1.0153  2.6307
 8991SOL    HW238433   3.426   4.032   5.802  1.0708  0.6994  0.4538
 8992SOL     OW38434   3.704   3.415   2.936 -0.1518 -0.5518 -0.0244
 8992SOL    HW138435   3.790   3.456   2.926 -0.1653 -0.6316 -0.4961
 8992SOL    HW238436   3.731   3.335   2.890  2.2109  0.3579 -0.2155
 8993SOL     OW38437   1.132   3.233   6.211 -0.1633 -0.2324 -0.1519
 8993SOL    HW138438   1.204   3.203   6.267  1.1808  1.7309 -0.8378
 8993SOL    HW238439   1.135   3.180   6.132  1.3365  1.1316 -1.0075
 8994SOL     OW38440   3.004   2.297   8.197  0.0116  0.0633  0.2724
 8994SOL    HW138441   3.013   2.269   8.288 -2.2905  1.0794  0.8247
 8994SOL    HW238442   2.909   2.302   8.188  0.0948  0.6236 -0.3128
 8995SOL     OW38443   1.664   3.702   9.026 -0.6047 -0.0220 -0.0516
 8995SOL    HW138444   1.573   3.690   9.053 -0.9722 -0.3167 -1.4635
 8995SOL    HW238445   1.657   3.711   8.931  0.6907  0.9730 -0.0686
 8996SOL     OW38446   3.026   0.115   4.511  0.1190 -0.1800 -0.6849
 8996SOL    HW138447   3.069   0.156   4.586 -1.0965  0.1515 -0.1674
 8996SOL    HW238448   3.092   0.110   4.442  1.3642 -1.9356  0.6419
 8997SOL     OW38449   2.334   1.076   5.933 -0.2101 -0.1725  0.2531
 8997SOL    HW138450   2.313   1.137   6.003 -0.9816 -1.2955  1.0184
 8997SOL    HW238451   2.286   1.116   5.860  0.1038  1.4746  0.9622
 8998SOL     OW38452   4.165   1.887   3.044  0.2599  0.1565  0.1443
 8998SOL    HW138453   4.112   1.866   2.967 -0.4086  0.8885  0.4076
 8998SOL    HW238454   4.184   1.803   3.085 -1.1695 -1.0812 -1.6835
 8999SOL     OW38455   4.675   0.242   4.418 -0.2047 -0.5403  0.2345
 8999SOL    HW138456   4.584   0.249   4.447 -1.0573  0.8464 -2.8184
 8999SOL    HW238457   0.010   0.303   4.463  1.3132 -0.4896 -1.7783
 9000SOL     OW38458   0.987   2.453   6.819  0.2962  0.2751 -0.6587
 9000SOL    HW138459   1.015   2.369   6.781 -1.5241 -0.6542  0.0394
 9000SOL    HW238460   0.997   2.507   6.740 -1.7580  0.7856 -0.5522
 9001SOL     OW38461   4.080   0.966  13.936 -0.2281  0.0957 -0.0647
 9001SOL    HW138462   4.101   0.940  13.846 -1.4930 -1.6752  0.1545
 9001SOL    HW238463   4.015   0.898  13.954 -0.6792 -0.2965 -3.0392
 9002SOL     OW38464   3.006   3.709   8.213 -0.0005  0.1812  0.0372
 9002SOL    HW138465   3.040   3.792   8.246  0.6014 -0.9843  2.4160
 9002SOL    HW238466   3.034   3.651   8.285 -0.4142 -0.1796 -0.0906
 9003SOL     OW38467   1.565   2.554   4.750  0.0165  0.3735  0.0324
 9003SOL    HW138468   1.629   2.493   4.787 -0.9574 -0.1388  0.8894
 9003SOL    HW238469   1.549   2.520   4.662 -1.4922  1.2707 -0.0558
 9004SOL     OW38470   3.483   1.024   4.428  0.2226  0.2841 -0.0829
 9004SOL    HW138471   3.559   1.030   4.485  0.1412 -1.8437  0.2400
 9004SOL    HW238472   3.526   1.007   4.344  2.9080  0.2914  1.3177
 9005SOL     OW38473   0.690   1.464  11.199 -0.3211 -0.1032 -0.3266
 9005SOL    HW138474   0.725   1.545  11.163  1.1353 -0.7026 -0.2715
 9005SOL    HW238475   0.637   1.495  11.272  0.6142 -1.7832  1.0830
 9006SOL     OW38476   4.555   0.889   2.844 -0.0081  0.4127  0.0910
 9006SOL    HW138477   4.566   0.813   2.786 -0.0835  0.4768 -0.0078
 9006SOL    HW238478   4.568   0.959   2.781 -2.3643 -0.1651 -1.0511
 9007SOL     OW38479   4.378   2.105   7.569 -0.3572  0.5492  0.7003
 9007SOL    HW138480   4.294   2.132   7.607 -1.2621 -0.5841 -0.5109
 9007SOL    HW238481   4.442   2.087   7.638  1.1333  0.2788 -0.7405
 9008SOL     OW38482   4.631   0.948   6.736  0.4319 -0.0450  0.7478
 9008SOL    HW138483   4.543   0.985   6.745  0.7042  0.8086 -0.0638
 9008SOL    HW238484   4.675   1.025   6.770 -1.9576  0.3337  2.9219
 9009SOL     OW38485   0.402   4.580  10.578  0.0800 -0.1671 -0.4687
 9009SOL    HW138486   0.425   4.620  10.662  0.7347 -2.1462  0.2865
 9009SOL    HW238487   0.307   4.578  10.588  0.0551 -0.4823 -0.7480
 9010SOL     OW38488   1.016   3.466   0.310 -0.8002 -0.3723  0.4353
 9010SOL    HW138489   0.950   3.397   0.301 -2.6728  1.2124  1.8731
 9010SOL    HW238490   0.979   3.544   0.268 -2.6045 -2.1973 -1.3954
 9011SOL     OW38491   2.501   1.213   7.170  0.3278  0.9230  0.0253
 9011SOL    HW138492   2.495   1.294   7.221 -1.6111  1.5172 -1.1526
 9011SOL    HW238493   2.550   1.159   7.232  2.0932  2.0215 -0.4331
 9012SOL     OW38494   1.376   2.795   8.995 -0.0504 -0.6284 -0.3182
 9012SOL    HW138495   1.339   2.724   8.943  0.7402 -0.5452 -0.9990
 9012SOL    HW238496   1.298   2.811   9.047  0.3387  0.4024 -0.0402
 9013SOL     OW38497   3.076   0.330  12.565  0.3612 -0.7216 -0.0715
 9013SOL    HW138498   3.014   0.308  12.496 -0.0124  0.1222  0.0009
 9013SOL    HW238499   3.095   0.245  12.605  0.1675 -0.4195  0.6542
 9014SOL     OW38500   0.288   2.808  15.826 -0.1752  0.0136  0.0263
 9014SOL    HW138501   0.369   2.842  15.788  0.3082 -1.8870 -0.6976
 9014SOL    HW238502   0.269   2.742  15.758 -0.3032 -0.8380  0.8939
 9015SOL     OW38503   2.514   0.577   4.957  0.2374  0.0984  0.0987
 9015SOL    HW138504   2.571   0.520   4.906  0.2915  0.1780  0.0696
 9015SOL    HW238505   2.441   0.517   4.964  0.8227 -0.4609  1.5375
 9016SOL     OW38506   1.376   4.716   7.157  0.2266  0.6934  0.8494
 9016SOL    HW138507   1.292   4.674   7.140 -0.2212  1.0570  2.2156
 9016SOL    HW238508   1.427   4.664   7.095  1.8948 -0.4814  3.2181
 9017SOL     OW38509   4.558   2.362  17.681  0.0067  0.2147  0.6433
 9017SOL    HW138510   4.645   2.399  17.665  0.1079 -0.8452 -1.2100
 9017SOL    HW238511   4.545   2.298  17.612  0.3357  0.4567  0.3536
 9018SOL     OW38512   2.483   2.482   2.138 -0.4466  0.0896  0.1150
 9018SOL    HW138513   2.437   2.563   2.161  1.4065  1.0879  0.2594
 9018SOL    HW238514   2.447   2.458   2.053  1.2594  1.8579 -1.1050
 9019SOL     OW38515   0.985   0.335   2.250  0.2401  0.7042 -0.0089
 9019SOL    HW138516   0.922   0.268   2.223  1.8163 -1.5260  1.8611
 9019SOL    HW238517   1.069   0.299   2.222 -0.3294  0.0296 -0.8481
 9020SOL     OW38518   1.265   0.198   7.916 -0.5262 -0.1707  0.0288
 9020SOL    HW138519   1.179   0.194   7.958 -0.5639 -1.0817 -0.1355
 9020SOL    HW238520   1.312   0.262   7.969 -0.0661 -0.4232 -0.0706
 9021SOL     OW38521   1.103   2.262  11.750 -0.7389 -0.6241 -0.4179
 9021SOL    HW138522   1.193   2.257  11.717 -0.9903  0.0403 -1.1999
 9021SOL    HW238523   1.050   2.321  11.696  2.1349  3.2949  1.0543
 9022SOL     OW38524   0.627   0.544  17.266  0.2700  0.0447  0.2525
 9022SOL    HW138525   0.593   0.456  17.249  1.2327  0.0202 -1.6267
 9022SOL    HW238526   0.682   0.529  17.343 -0.5384 -0.1715  0.7907
 9023SOL     OW38527   3.510   4.323   5.189  0.5695 -0.0905  0.3492
 9023SOL    HW138528   3.431   4.358   5.230  0.4756  3.6883 -3.0195
 9023SOL    HW238529   3.471   4.264   5.125  0.5571  1.6155 -1.2129
 9024SOL     OW38530   4.403   2.310   8.776  0.4579 -0.4548  0.1542
 9024SOL    HW138531   4.469   2.301   8.844  0.7931  0.4635 -0.0522
 9024SOL    HW238532   4.438   2.379   8.719 -1.0528 -0.0049 -0.2453
 9025SOL     OW38533   3.780   1.777   7.864  0.4626 -0.2211  0.4148
 9025SOL    HW138534   3.728   1.722   7.923 -0.3623  0.8293  0.6591
 9025SOL    HW238535   3.844   1.809   7.927  1.3337 -2.3472  0.6161
 9026SOL     OW38536   2.524   3.185   4.807 -0.9078 -0.3865 -0.2124
 9026SOL    HW138537   2.482   3.147   4.730 -1.3846  1.5195 -0.8833
 9026SOL    HW238538   2.573   3.109   4.840 -3.3376 -1.3043  1.2939
 9027SOL     OW38539   3.296   1.959   3.410  0.0841  0.5364  0.3674
 9027SOL    HW138540   3.269   2.038   3.456 -0.8738  0.9710 -0.9441
 9027SOL    HW238541   3.363   1.986   3.347  0.4210  0.8341  0.8540
 9028SOL     OW38542   0.607   1.432   9.314  0.2704 -0.3754 -0.1055
 9028SOL    HW138543   0.529   1.378   9.304 -1.2976  1.5598  1.5441
 9028SOL    HW238544   0.604   1.434   9.410  0.8962 -3.6971 -0.0037
 9029SOL     OW38545   3.330   3.830   8.202  0.2341  0.4120 -0.3401
 9029SOL    HW138546   3.411   3.791   8.170  0.0753 -0.1870 -0.0163
 9029SOL    HW238547   3.267   3.769   8.162  0.8299 -1.2351  1.2058
 9030SOL     OW38548   1.659   2.205  13.253 -0.2244 -0.0284  0.0200
 9030SOL    HW138549   1.730   2.144  13.232  0.2750  0.4397  0.3510
 9030SOL    HW238550   1.699   2.290  13.232  0.1359 -0.1931  0.0524
 9031SOL     OW38551   3.750   1.097   0.983 -0.4634 -0.3236  0.3200
 9031SOL    HW138552   3.781   1.007   0.992  1.1449  0.4453  2.5879
 9031SOL    HW238553   3.787   1.121   0.899  1.6472 -0.5194  1.2006
 9032SOL     OW38554   1.525   1.814   1.994 -0.4405 -0.0919  0.0534
 9032SOL    HW138555   1.527   1.863   2.076 -0.9881 -1.7241  1.0488
 9032SOL    HW238556   1.474   1.870   1.936 -0.5556 -1.6389 -1.3347
 9033SOL     OW38557   4.507   4.310   5.774  0.4983 -0.0981  0.1246
 9033SOL    HW138558   4.457   4.370   5.829  0.5339 -0.0731  0.1298
 9033SOL    HW238559   4.594   4.346   5.794  0.8879  0.6899 -2.9989
 9034SOL     OW38560   1.196   2.511   3.016 -0.3057 -0.7137  0.1201
 9034SOL    HW138561   1.272   2.453   3.015  1.6566  1.8985 -1.0037
 9034SOL    HW238562   1.129   2.457   2.974 -0.6823 -0.2924  0.1644
 9035SOL     OW38563   3.220   1.070   8.816 -0.6392  0.0298  0.3100
 9035SOL    HW138564   3.303   1.091   8.858 -0.7650  0.2312  0.4586
 9035SOL    HW238565   3.224   1.141   8.752  0.6250  0.1759  0.5537
 9036SOL     OW38566   0.744   2.340   9.356 -0.4156 -0.8239 -0.2061
 9036SOL    HW138567   0.728   2.406   9.288  0.3172 -1.3997 -0.9299
 9036SOL    HW238568   0.689   2.272   9.318  1.1201 -2.0713 -0.1857
 9037SOL     OW38569   2.089   2.786  12.783 -0.3996 -0.0982  0.1346
 9037SOL    HW138570   2.171   2.760  12.826 -1.0143  0.9890  1.9705
 9037SOL    HW238571   2.029   2.712  12.796 -1.2290  0.8766  1.8671
 9038SOL     OW38572   4.251   2.485   6.818  0.7437 -0.2428  0.1176
 9038SOL    HW138573   4.287   2.400   6.842  3.2900  1.2367  1.5246
 9038SOL    HW238574   4.170   2.485   6.869  0.6763 -1.5664  0.0124
 9039SOL     OW38575   0.501   1.930   6.071  0.4197  0.2054 -0.5704
 9039SOL    HW138576   0.566   1.979   6.021  1.0213 -0.2891 -0.2770
 9039SOL    HW238577   0.542   1.844   6.064  0.7565  0.3964 -0.9546
 9040SOL     OW38578   4.679   1.656  10.378 -0.0595  0.2657  0.3925
 9040SOL    HW138579   0.049   1.671  10.394  0.3997 -0.3545 -1.7188
 9040SOL    HW238580   4.644   1.697  10.457  0.9158  2.7824 -0.4651
 9041SOL     OW38581   0.978   4.343   5.052  0.1241  0.0988  0.0109
 9041SOL    HW138582   0.923   4.266   5.070  0.5966 -0.4903 -1.0680
 9041SOL    HW238583   1.028   4.346   5.133 -0.9089  1.5454  0.5932
 9042SOL     OW38584   2.782   4.174  12.593 -0.3461  0.1622 -0.7699
 9042SOL    HW138585   2.869   4.135  12.584 -0.9110 -1.3034  0.1880
 9042SOL    HW238586   2.749   4.142  12.677  1.8434 -2.0949 -0.7669
 9043SOL     OW38587   1.465   2.763  13.390  0.1260  0.0628 -0.1091
 9043SOL    HW138588   1.416   2.682  13.407  2.1767 -0.9985  0.6625
 9043SOL    HW238589   1.388   2.801  13.347  1.9796  1.3160 -2.3180
 9044SOL     OW38590   1.154   2.697  11.032  0.2770 -0.1038  0.3583
 9044SOL    HW138591   1.176   2.764  11.096 -0.6171  0.0670  0.4759
 9044SOL    HW238592   1.135   2.619  11.085 -0.3062 -0.0230  0.2612
 9045SOL     OW38593   4.145   3.210   0.233 -0.1443  0.2011  0.1637
 9045SOL    HW138594   4.093   3.287   0.208 -0.3662  0.1391  0.4363
 9045SOL    HW238595   4.189   3.242   0.312 -0.6186  0.7029  0.2284
 9046SOL     OW38596   4.478   2.277  14.881 -1.0652  0.1388  0.0035
 9046SOL    HW138597   4.486   2.273  14.786  1.2717  3.1949  0.0434
 9046SOL    HW238598   4.535   2.352  14.903  0.1651 -1.2758  1.6793
 9047SOL     OW38599   3.062   2.683   3.872 -0.0225 -0.0058 -1.0116
 9047SOL    HW138600   3.135   2.712   3.926 -1.0918  1.9589 -0.6481
 9047SOL    HW238601   3.041   2.601   3.918  0.9209  1.9230  2.8603
 9048SOL     OW38602   3.479   2.185   4.881  0.3974  0.1735  0.2486
 9048SOL    HW138603   3.529   2.169   4.801  1.6418 -2.6871  1.6003
 9048SOL    HW238604   3.394   2.143   4.871 -0.3537  0.9803  3.3918
 9049SOL     OW38605   3.625   3.066   8.989 -0.3435  0.2094 -0.0980
 9049SOL    HW138606   3.591   3.123   8.920  0.0513  0.3134 -0.2068
 9049SOL    HW238607   3.652   3.129   9.057  1.0963 -0.5273  0.0278
 9050SOL     OW38608   1.337   0.279   7.193 -0.0739 -0.7267 -0.0065
 9050SOL    HW138609   1.350   0.185   7.187  2.6787 -0.4616  1.4961
 9050SOL    HW238610   1.310   0.303   7.105  1.6420 -0.2611 -0.3977
 9051SOL     OW38611   1.246   3.323  15.381  0.3187 -0.5996  0.1472
 9051SOL    HW138612   1.284   3.363  15.304 -0.5568 -0.3247 -0.1471
 9051SOL    HW238613   1.156   3.311  15.351  0.4200  0.9458 -0.7146
 9052SOL     OW38614   3.775   1.987   0.689 -0.3845  0.6249  0.5691
 9052SOL    HW138615   3.850   1.972   0.747 -0.4689  0.1081  0.5475
 9052SOL    HW238616   3.721   1.907   0.690  2.7408 -1.4739  0.1153
 9053SOL     OW38617   3.321   4.207  14.371 -0.2724 -0.0005  0.3638
 9053SOL    HW138618   3.305   4.116  14.347  2.1735 -1.0104  2.5067
 9053SOL    HW238619   3.344   4.235  14.283 -0.9676 -1.1616 -0.1861
 9054SOL     OW38620   3.424   3.852  16.265 -0.0829  0.0293 -0.9198
 9054SOL    HW138621   3.442   3.930  16.318  1.4697 -1.3337  0.5462
 9054SOL    HW238622   3.353   3.803  16.306  0.2781  0.0581 -0.2557
 9055SOL     OW38623   4.494   0.519   5.916  0.0330 -0.1845  0.3050
 9055SOL    HW138624   4.490   0.591   5.853 -4.2995  0.5604  1.4359
 9055SOL    HW238625   4.442   0.546   5.991  0.6094  1.4657  0.1105
 9056SOL     OW38626   0.181   2.484   6.202  0.3956 -0.0852  0.8202
 9056SOL    HW138627   0.212   2.572   6.178 -0.2147 -0.6701 -2.1217
 9056SOL    HW238628   0.258   2.447   6.244  0.1071  0.2308  1.6373
 9057SOL     OW38629   1.944   0.479   7.646  0.1322 -0.3701 -0.7575
 9057SOL    HW138630   1.891   0.411   7.603 -0.8921  0.8966 -1.4939
 9057SOL    HW238631   2.029   0.449   7.612  0.5805  1.8471 -1.5566
 9058SOL     OW38632   2.592   3.723   3.429  0.1542 -0.1512 -0.0514
 9058SOL    HW138633   2.652   3.704   3.356 -1.8269 -0.2941 -1.6631
 9058SOL    HW238634   2.548   3.805   3.405  2.9506  0.8918 -1.5859
 9059SOL     OW38635   1.087   4.162   7.263  0.2438 -0.5152 -0.4998
 9059SOL    HW138636   1.059   4.238   7.212 -0.0544 -1.1081 -1.2166
 9059SOL    HW238637   1.030   4.168   7.340  1.0797  0.3714  0.0585
 9060SOL     OW38638   3.695   2.734   7.434  0.5556 -0.2682  0.3617
 9060SOL    HW138639   3.744   2.746   7.353 -0.8979  0.3803 -0.4171
 9060SOL    HW238640   3.726   2.645   7.450 -0.9929 -1.0661 -1.1106
 9061SOL     OW38641   3.361   4.542   6.291  0.5760  0.3905  0.0839
 9061SOL    HW138642   3.402   4.627   6.306  0.3922  0.1121  2.1551
 9061SOL    HW238643   3.415   4.507   6.220  1.8605 -0.4086  1.4413
 9062SOL     OW38644   3.915   0.881   5.291 -0.4903  0.0300 -0.2618
 9062SOL    HW138645   3.998   0.848   5.326 -0.8727 -1.5463 -0.8459
 9062SOL    HW238646   3.930   0.840   5.206  0.3486 -0.2282  0.0083
 9063SOL     OW38647   2.411   4.638   8.448  0.2875  0.6619  0.1787
 9063SOL    HW138648   2.452   4.569   8.500  1.2582  1.7986  0.9177
 9063SOL    HW238649   2.360   4.586   8.386  0.7040  1.5598 -0.9021
 9064SOL     OW38650   1.785   2.086   1.205  0.6012 -0.2500 -0.6251
 9064SOL    HW138651   1.720   2.109   1.138 -1.2926  2.1567  2.0682
 9064SOL    HW238652   1.833   2.168   1.212  1.1746 -0.6100 -0.4053
 9065SOL     OW38653   1.787   1.666  12.337  0.3766 -0.6464  0.2043
 9065SOL    HW138654   1.828   1.628  12.259  0.1254 -0.3472 -0.0719
 9065SOL    HW238655   1.708   1.697  12.294  0.9600 -0.9472 -1.0828
 9066SOL     OW38656   0.809   3.915  15.120  0.4324 -0.4408 -0.2559
 9066SOL    HW138657   0.782   4.005  15.103 -0.2086 -0.8086 -1.1697
 9066SOL    HW238658   0.897   3.932  15.154  0.5176  0.7426 -1.0704
 9067SOL     OW38659   1.903   1.584   8.793  0.5361 -0.0370  0.0392
 9067SOL    HW138660   1.991   1.617   8.811  0.6558  0.9169 -2.3948
 9067SOL    HW238661   1.914   1.515   8.729  0.0438  0.5227 -0.6501
 9068SOL     OW38662   0.636   0.061   4.310  0.2951  0.3967 -0.4231
 9068SOL    HW138663   0.633   0.149   4.274 -0.2439  0.9959  1.0760
 9068SOL    HW238664   0.609   0.069   4.402  1.4078  0.0419 -0.0648
 9069SOL     OW38665   0.011   2.847   7.170  0.5462  0.0184  0.2930
 9069SOL    HW138666   0.045   2.907   7.104 -1.3401 -1.4172 -2.0127
 9069SOL    HW238667   0.041   2.767   7.127 -1.3970  0.8052 -2.5916
 9070SOL     OW38668   0.862   3.218  14.827 -0.4957 -0.1534 -0.0523
 9070SOL    HW138669   0.890   3.273  14.900 -0.9096  0.4231 -0.3325
 9070SOL    HW238670   0.767   3.218  14.842 -0.4535 -2.5680  0.3189
 9071SOL     OW38671   1.093   2.284   9.280  0.1321 -0.3855 -0.7220
 9071SOL    HW138672   1.159   2.217   9.263  0.5904  0.6807 -3.0103
 9071SOL    HW238673   1.027   2.262   9.214 -2.6333 -0.2791  2.0070
 9072SOL     OW38674   2.369   2.738   9.894  0.2600 -0.3995  0.5694
 9072SOL    HW138675   2.417   2.727   9.811 -1.3111 -0.2271 -0.3490
 9072SOL    HW238676   2.281   2.730   9.858  0.5972 -2.9474  0.2699
 9073SOL     OW38677   1.202   1.541   6.847  0.1225  0.1809 -0.1244
 9073SOL    HW138678   1.257   1.590   6.908  0.6057  1.2424 -1.4264
 9073SOL    HW238679   1.198   1.451   6.880 -1.1503 -0.7033 -2.6654
 9074SOL     OW38680   4.662   3.624   7.120  0.0505 -0.4158  0.5434
 9074SOL    HW138681   4.669   3.695   7.183  0.3043 -0.8947  1.0579
 9074SOL    HW238682   0.005   3.644   7.054 -0.3050  0.7155  0.5300
 9075SOL     OW38683   3.012   3.032   0.658  0.0627 -0.4405  0.5398
 9075SOL    HW138684   2.990   3.072   0.742  2.2487  0.4758  0.6744
 9075SOL    HW238685   3.103   3.061   0.654 -0.1333 -0.1873 -1.9583
 9076SOL     OW38686   2.501   0.170   9.987 -0.5651  0.5595 -0.4007
 9076SOL    HW138687   2.434   0.114   9.951 -0.0761  0.3855 -1.0406
 9076SOL    HW238688   2.511   0.129  10.073 -2.9330  2.6937  0.8869
 9077SOL     OW38689   3.440   0.867   0.517 -0.0342 -0.6130  0.1736
 9077SOL    HW138690   3.474   0.927   0.450  1.0092 -0.9900  0.3732
 9077SOL    HW238691   3.508   0.863   0.584 -2.9018  0.3142  3.1287
 9078SOL     OW38692   2.501   2.441  10.754 -0.0904 -0.5595 -0.3176
 9078SOL    HW138693   2.428   2.424  10.695 -1.3333 -0.1523  1.1141
 9078SOL    HW238694   2.508   2.351  10.786  1.9808  0.1613  1.2246
 9079SOL     OW38695   1.914   1.298   2.814  0.6236  0.4097  0.0732
 9079SOL    HW138696   1.896   1.294   2.720  1.0264  1.1006 -0.0321
 9079SOL    HW238697   1.982   1.366   2.814  1.6071 -0.5674 -0.0997
 9080SOL     OW38698   0.979   2.997   4.192 -0.2879 -0.0215  1.1603
 9080SOL    HW138699   1.036   3.035   4.125  0.0870 -1.1687  0.8426
 9080SOL    HW238700   1.028   2.917   4.210  0.6832  0.2154 -0.4612
 9081SOL     OW38701   1.436   2.828   8.736  0.4974 -0.3399 -0.4905
 9081SOL    HW138702   1.495   2.903   8.723 -0.8649  0.9844  1.0101
 9081SOL    HW238703   1.469   2.777   8.809 -3.8052 -0.2738  1.5062
 9082SOL     OW38704   2.173   1.616  11.740 -0.0853 -0.3739  0.3544
 9082SOL    HW138705   2.168   1.589  11.649 -0.9909 -1.1419  0.6225
 9082SOL    HW238706   2.178   1.711  11.728  5.1550 -0.8465 -0.9541
 9083SOL     OW38707   3.652   0.252   2.224  0.4232  0.4987  0.1355
 9083SOL    HW138708   3.698   0.221   2.302  1.7458  1.5194 -0.2458
 9083SOL    HW238709   3.633   0.169   2.181 -1.7831  0.7186  0.6503
 9084SOL     OW38710   2.347   0.778   1.578  0.0255 -0.0496  0.3416
 9084SOL    HW138711   2.351   0.858   1.525  1.6988  0.0983  0.6970
 9084SOL    HW238712   2.252   0.777   1.591  0.1878 -0.7903  1.3953
 9085SOL     OW38713   4.583   4.577   4.982  0.6812 -0.3888 -0.0119
 9085SOL    HW138714   4.501   4.617   4.956  1.5992 -0.0822 -2.4120
 9085SOL    HW238715   4.619   4.542   4.901 -0.0327 -1.8142  0.2739
 9086SOL     OW38716   3.355   0.606   2.569 -0.4378  0.1746  0.3474
 9086SOL    HW138717   3.309   0.632   2.489 -0.5796 -2.0981 -0.3282
 9086SOL    HW238718   3.296   0.539   2.604 -1.2830  1.3603  1.1771
 9087SOL     OW38719   4.197   3.367   4.429 -0.3411  0.2724  0.6077
 9087SOL    HW138720   4.147   3.433   4.381  0.8396  1.5902  1.1802
 9087SOL    HW238721   4.259   3.329   4.366 -3.2337  1.0282 -2.6890
 9088SOL     OW38722   1.410   2.815   5.801  0.4724  0.0806  0.1368
 9088SOL    HW138723   1.427   2.721   5.787  0.0774 -0.0498  0.5377
 9088SOL    HW238724   1.335   2.805   5.859  1.5097  0.2429  1.5049
 9089SOL     OW38725   0.572   0.631   3.432 -0.0052  0.0758  0.6114
 9089SOL    HW138726   0.599   0.542   3.454 -0.1556 -0.9936 -3.4347
 9089SOL    HW238727   0.626   0.693   3.480 -0.8372  0.1492  1.4485
 9090SOL     OW38728   3.855   0.304   5.817  0.2246 -0.1496 -0.3289
 9090SOL    HW138729   3.813   0.384   5.848 -1.5046 -1.5994  1.0750
 9090SOL    HW238730   3.784   0.269   5.763  0.4223  1.5281 -1.6729
 9091SOL     OW38731   0.204   3.288   7.109 -0.6482 -0.6617 -0.3146
 9091SOL    HW138732   0.178   3.356   7.047 -0.1116 -0.3885 -0.2359
 9091SOL    HW238733   0.206   3.331   7.195  0.0628  0.1904 -0.7616
 9092SOL     OW38734   3.118   0.335  16.623 -0.2873 -0.2058  0.6081
 9092SOL    HW138735   3.130   0.288  16.706 -0.4273 -1.1486  0.0906
 9092SOL    HW238736   3.192   0.396  16.627  0.7422 -1.4952  1.6587
 9093SOL     OW38737   2.645   1.542   9.873  0.1068 -0.8766  0.0204
 9093SOL    HW138738   2.595   1.589   9.806 -0.8140 -0.0072  1.3096
 9093SOL    HW238739   2.675   1.460   9.835  1.4596  0.2972 -1.4296
 9094SOL     OW38740   0.488   2.400   1.266 -0.4894  0.2749 -0.2842
 9094SOL    HW138741   0.425   2.333   1.290  0.7182 -0.8493 -0.2271
 9094SOL    HW238742   0.445   2.479   1.298 -1.2324 -0.7565  1.2259
 9095SOL     OW38743   2.177   3.202   5.402 -0.3299  0.3255 -0.0450
 9095SOL    HW138744   2.180   3.117   5.447  2.2240 -0.0442 -0.9174
 9095SOL    HW238745   2.170   3.263   5.475  0.0330  2.5433 -1.8684
 9096SOL     OW38746   1.194   3.730   4.233  0.1306  0.0683  0.4913
 9096SOL    HW138747   1.127   3.693   4.290  0.6663 -0.7812  0.5774
 9096SOL    HW238748   1.194   3.660   4.167 -0.6903 -0.5996  1.2211
 9097SOL     OW38749   2.031   3.161   3.879 -0.3195  0.1483  0.4162
 9097SOL    HW138750   2.074   3.075   3.882  2.3838  1.4827 -0.1734
 9097SOL    HW238751   2.096   3.222   3.845  0.8044 -2.2015 -1.7210
 9098SOL     OW38752   1.524   2.841   8.190  0.1439 -0.7497  0.2520
 9098SOL    HW138753   1.505   2.747   8.193  1.3204 -0.9272  2.1088
 9098SOL    HW238754   1.550   2.865   8.102 -2.2150  0.6773 -0.0448
 9099SOL     OW38755   2.254   0.619  10.222  0.1718 -0.5394  0.0399
 9099SOL    HW138756   2.331   0.648  10.173  2.1652 -1.6467  2.5417
 9099SOL    HW238757   2.294   0.543  10.264  0.1016  1.0252  2.9478
 9100SOL     OW38758   0.621   1.225   5.413  0.2300 -0.2660 -0.0671
 9100SOL    HW138759   0.593   1.148   5.362 -1.2524 -1.1119  2.0224
 9100SOL    HW238760   0.686   1.272   5.361 -0.8644  1.0352 -0.2481
 9101SOL     OW38761   4.537   0.788   7.494 -0.0588 -0.3522 -0.5766
 9101SOL    HW138762   4.499   0.701   7.511 -0.9356  0.5643  2.1700
 9101SOL    HW238763   4.616   0.776   7.441  1.3812  1.8333  1.1032
 9102SOL     OW38764   1.240   0.212   9.019 -0.3133 -0.6813 -0.3751
 9102SOL    HW138765   1.240   0.298   9.060  1.7628 -1.2029  0.7022
 9102SOL    HW238766   1.289   0.153   9.076  0.3457 -0.5003 -0.7594
 9103SOL     OW38767   3.122   1.748  10.109 -0.1389  0.0035 -0.1148
 9103SOL    HW138768   3.052   1.804  10.074  1.0015  0.4529 -1.6658
 9103SOL    HW238769   3.166   1.820  10.154 -1.3017 -0.1393  1.2277
 9104SOL     OW38770   0.531   3.360   2.853  0.3194 -0.0408 -0.4448
 9104SOL    HW138771   0.442   3.375   2.885  0.2796 -1.9623  0.3559
 9104SOL    HW238772   0.517   3.316   2.769  0.3326 -1.4213  0.2649
 9105SOL     OW38773   2.410   4.198  15.702 -0.5088  0.4847 -0.4047
 9105SOL    HW138774   2.359   4.250  15.641 -0.0538 -0.9300 -1.9955
 9105SOL    HW238775   2.385   4.236  15.787  1.9041  0.8988  0.1090
 9106SOL     OW38776   1.705   1.822   5.933 -0.0023  0.0224  0.2377
 9106SOL    HW138777   1.665   1.907   5.914 -2.0387 -0.7342  1.1324
 9106SOL    HW238778   1.696   1.784   5.845  1.3399  2.1350 -0.8217
 9107SOL     OW38779   2.441   1.071   5.204  0.6476  0.6482  0.1547
 9107SOL    HW138780   2.383   1.013   5.254 -0.0318  0.0203 -1.3684
 9107SOL    HW238781   2.471   1.133   5.271 -2.6912  0.7894  1.5690
 9108SOL     OW38782   0.639   2.161   7.586  0.2348  0.0965 -0.5314
 9108SOL    HW138783   0.588   2.166   7.667 -0.5588  0.0801 -1.0298
 9108SOL    HW238784   0.601   2.242   7.551 -2.4443 -0.9966 -0.1910
 9109SOL     OW38785   1.216   3.005   7.551  0.5726 -0.2475 -0.1129
 9109SOL    HW138786   1.169   3.012   7.633  1.1037  1.3242  0.0488
 9109SOL    HW238787   1.144   2.980   7.493  1.6449 -3.2887 -0.1469
 9110SOL     OW38788   0.841   4.458   1.786  0.1435 -0.4702  0.0770
 9110SOL    HW138789   0.851   4.519   1.713  0.1003  1.6537  1.8428
 9110SOL    HW238790   0.824   4.528   1.849 -2.8124  1.7439 -3.2040
 9111SOL     OW38791   1.958   3.792   2.344 -0.2463  0.4604  0.2314
 9111SOL    HW138792   1.969   3.823   2.254  0.0791 -1.0148 -0.2472
 9111SOL    HW238793   1.868   3.820   2.358  0.0599  1.7148 -0.3173
 9112SOL     OW38794   1.384   1.817   4.248  0.5946 -0.3043 -0.0545
 9112SOL    HW138795   1.439   1.894   4.234 -1.8623  1.1058 -1.8780
 9112SOL    HW238796   1.412   1.762   4.174  2.0370  0.7907 -0.3214
 9113SOL     OW38797   4.649   3.444   3.027 -0.0500  0.1183 -0.2779
 9113SOL    HW138798   4.718   3.500   3.064 -0.2651  0.5267 -0.4902
 9113SOL    HW238799   4.589   3.433   3.101  0.3905  2.0266  0.3591
 9114SOL     OW38800   4.561   1.559   5.306  0.1492 -0.0301  0.3090
 9114SOL    HW138801   4.558   1.654   5.315  0.6619 -0.0484  0.6483
 9114SOL    HW238802   4.517   1.538   5.223  1.7761  0.3317 -0.6359
 9115SOL     OW38803   3.659   0.561   6.237  0.2616  0.2291 -0.5665
 9115SOL    HW138804   3.664   0.656   6.240 -3.8977  0.4766 -2.0806
 9115SOL    HW238805   3.747   0.544   6.270  0.3244 -2.7191 -2.2682
 9116SOL     OW38806   1.870   2.197   9.502 -0.2096  0.4108 -0.1255
 9116SOL    HW138807   1.860   2.149   9.420 -0.4139 -3.6712  2.2938
 9116SOL    HW238808   1.785   2.240   9.506 -0.3182  0.2865 -1.1024
 9117SOL     OW38809   3.154   1.407   8.906 -0.3532  0.0809  0.4776
 9117SOL    HW138810   3.182   1.363   8.826  1.0129  1.6906  0.0771
 9117SOL    HW238811   3.173   1.336   8.968 -1.5720 -0.1603  0.5766
 9118SOL     OW38812   4.597   0.212  15.776 -0.2061  0.7621  0.0747
 9118SOL    HW138813   4.644   0.255  15.848 -0.3774 -1.3833  1.4747
 9118SOL    HW238814   4.660   0.157  15.729 -2.5031 -2.9415  1.3233
 9119SOL     OW38815   2.593   2.535  12.930  0.5156  0.1630 -0.0690
 9119SOL    HW138816   2.603   2.624  12.899 -0.1841  0.2895  0.0563
 9119SOL    HW238817   2.546   2.496  12.857  0.5477  0.4707 -0.2524
 9120SOL     OW38818   4.441   0.084   3.030  0.5428 -0.1731 -0.4706
 9120SOL    HW138819   4.466   0.111   2.941  0.1010  0.2844 -0.4581
 9120SOL    HW238820   4.346   0.088   3.036  0.4900 -1.8879 -0.3194
 9121SOL     OW38821   4.362   4.046   8.742 -0.4434  0.0824  0.4845
 9121SOL    HW138822   4.282   4.098   8.753 -1.5459 -1.3894 -0.6091
 9121SOL    HW238823   4.416   4.090   8.808  1.5054 -1.2395 -0.2427
 9122SOL     OW38824   4.360   3.638  12.716  0.4733 -0.0395 -0.2292
 9122SOL    HW138825   4.435   3.586  12.743  0.3641 -0.3114 -0.4447
 9122SOL    HW238826   4.296   3.582  12.759 -0.3136  0.4808 -0.7082
 9123SOL     OW38827   0.552   2.881   4.514 -0.0633 -0.5838  0.1255
 9123SOL    HW138828   0.525   2.808   4.569 -1.0566  0.7577  1.4243
 9123SOL    HW238829   0.481   2.876   4.450  0.5677  2.3289 -0.7950
 9124SOL     OW38830   1.849   1.651   7.278 -0.1112  0.2101  0.3998
 9124SOL    HW138831   1.918   1.707   7.315 -0.0157  1.9495 -2.4071
 9124SOL    HW238832   1.898   1.572   7.256  0.3923  0.4711  0.5752
 9125SOL     OW38833   3.068   3.977   0.729  0.6517 -0.3161  0.0791
 9125SOL    HW138834   3.143   4.010   0.779 -0.7167  0.5584  1.5735
 9125SOL    HW238835   3.056   3.903   0.789  1.5989  0.4112  1.1603
 9126SOL     OW38836   4.074   2.508   7.978 -0.2248  0.6018 -0.3977
 9126SOL    HW138837   4.006   2.533   7.916 -0.0298 -0.5401 -1.0680
 9126SOL    HW238838   4.138   2.571   7.944 -0.0948 -0.1115 -1.4763
 9127SOL     OW38839   2.696   2.077  10.202 -0.3914  0.4004  0.0033
 9127SOL    HW138840   2.785   2.105  10.181 -0.7199  1.0343 -0.5477
 9127SOL    HW238841   2.690   1.991  10.160 -2.0202  0.8507 -0.6628
 9128SOL     OW38842   4.289   4.258  14.028  0.1256 -0.0768 -0.1943
 9128SOL    HW138843   4.272   4.172  13.991 -1.9917 -0.1630  0.9512
 9128SOL    HW238844   4.209   4.308  14.011  0.7890  1.2330  0.4938
 9129SOL     OW38845   2.340   0.382   2.660 -0.0144 -0.0894  0.0898
 9129SOL    HW138846   2.401   0.326   2.708 -0.1838  1.0816  1.6819
 9129SOL    HW238847   2.326   0.449   2.727  0.7092  1.0658 -0.9135
 9130SOL     OW38848   4.535   2.993   4.972 -0.7853 -0.0631  0.2193
 9130SOL    HW138849   4.469   2.924   4.963 -2.8982  1.8557  1.2323
 9130SOL    HW238850   4.591   2.955   5.040 -2.7280 -2.7088  0.3461
 9131SOL     OW38851   0.194   2.330  10.104 -0.2110  0.3193  0.6077
 9131SOL    HW138852   0.144   2.304  10.182 -0.9869  1.8127  0.5961
 9131SOL    HW238853   0.178   2.246  10.061  1.1537 -1.0233  2.6975
 9132SOL     OW38854   3.302   1.354  16.175 -0.2683  0.0830  0.1142
 9132SOL    HW138855   3.390   1.340  16.143 -0.8851 -1.2158 -0.9883
 9132SOL    HW238856   3.290   1.277  16.231 -2.9579 -1.5853 -2.7442
 9133SOL     OW38857   3.216   3.410  15.535 -0.3035  0.5393 -0.3864
 9133SOL    HW138858   3.151   3.361  15.484 -0.5506 -2.9202  3.2034
 9133SOL    HW238859   3.238   3.479  15.473 -1.3897 -0.7664 -2.2557
 9134SOL     OW38860   1.863   3.050  17.215  0.0227 -1.0576  0.0413
 9134SOL    HW138861   1.839   3.135  17.178 -1.8357 -1.9216 -0.7338
 9134SOL    HW238862   1.958   3.059  17.204  0.2713 -1.8408  1.4608
 9135SOL     OW38863   1.182   1.352   4.911 -0.1828  0.4795  0.4552
 9135SOL    HW138864   1.139   1.376   4.829  0.6146  0.3359 -0.0072
 9135SOL    HW238865   1.245   1.284   4.885  0.6664  1.4241  0.0354
 9136SOL     OW38866   2.934   3.830   0.989 -0.0315  0.0347 -0.0089
 9136SOL    HW138867   2.981   3.879   1.057 -0.4673  0.2439  0.1367
 9136SOL    HW238868   2.878   3.772   1.040  2.4072 -2.2025  0.0986
 9137SOL     OW38869   4.641   3.224   8.207  0.0952 -0.2150 -0.0598
 9137SOL    HW138870   4.656   3.254   8.118  4.5281  0.2481  0.8197
 9137SOL    HW238871   4.571   3.278   8.242  2.8036  1.3136  3.0644
 9138SOL     OW38872   1.552   2.364   1.482  0.2362  0.5972  0.0885
 9138SOL    HW138873   1.520   2.294   1.425  0.3810 -0.8287  1.7770
 9138SOL    HW238874   1.639   2.376   1.443  0.4743 -0.4286  0.2934
 9139SOL     OW38875   2.387   0.997   8.789  0.3359  0.0477  0.0600
 9139SOL    HW138876   2.440   0.936   8.738 -0.8678 -0.0055 -1.1148
 9139SOL    HW238877   2.349   1.055   8.723  0.6482  0.9552  0.6778
 9140SOL     OW38878   0.679   0.051  13.385  0.5060  0.2968  0.3823
 9140SOL    HW138879   0.747   4.710  13.404 -0.8282 -1.3069 -0.2335
 9140SOL    HW238880   0.730   0.120  13.343 -1.2493  0.5805 -1.2810
 9141SOL     OW38881   3.189   0.696   8.151 -0.0468 -0.6258 -0.5524
 9141SOL    HW138882   3.110   0.676   8.101 -0.3492  0.2748 -0.4484
 9141SOL    HW238883   3.157   0.672   8.238  0.5496  0.6219  0.0095
 9142SOL     OW38884   3.253   1.136  12.748  0.4225 -0.1287 -0.6716
 9142SOL    HW138885   3.328   1.098  12.702  0.7695  0.4886 -0.6131
 9142SOL    HW238886   3.183   1.102  12.693  0.4880 -0.1233 -0.7575
 9143SOL     OW38887   0.872   1.426  10.332  0.4568 -0.0873  0.0062
 9143SOL    HW138888   0.956   1.381  10.339 -0.9137 -2.3975  1.4584
 9143SOL    HW238889   0.858   1.444  10.425 -0.4316 -0.6127 -0.0222
 9144SOL     OW38890   3.292   1.206  16.391 -0.0177 -0.1463 -0.1087
 9144SOL    HW138891   3.260   1.184  16.479 -0.6704  0.3263 -0.2352
 9144SOL    HW238892   3.375   1.249  16.412  0.8649 -0.3990 -3.0572
 9145SOL     OW38893   3.865   3.785   3.032  0.5955  0.4746 -0.2608
 9145SOL    HW138894   3.771   3.777   3.048  0.2791 -1.4923 -3.0294
 9145SOL    HW238895   3.875   3.724   2.958 -1.5039  1.3305 -1.2444
 9146SOL     OW38896   3.932   3.041   4.648  0.1866  0.0148 -0.8234
 9146SOL    HW138897   3.878   3.085   4.715  1.0443 -1.4640  0.8392
 9146SOL    HW238898   4.009   3.097   4.641  0.1886 -0.0124 -1.0151
 9147SOL     OW38899   3.737   1.209   6.169  0.1477  0.3213  0.1090
 9147SOL    HW138900   3.803   1.278   6.166  1.4992 -1.0411 -1.3173
 9147SOL    HW238901   3.732   1.174   6.080  1.6466 -1.1448  0.6066
 9148SOL     OW38902   2.980   3.989  13.372  0.4135 -0.3953  0.3416
 9148SOL    HW138903   2.941   4.076  13.366  0.6854 -0.1002  2.7944
 9148SOL    HW238904   2.946   3.958  13.288  0.7306  0.3152 -0.0507
 9149SOL     OW38905   0.077   2.465   1.231  0.3058  0.6751 -0.6861
 9149SOL    HW138906   4.723   2.522   1.222 -1.0697 -0.9467  0.8316
 9149SOL    HW238907   0.071   2.442   1.324 -0.4282 -2.3940 -1.5138
 9150SOL     OW38908   2.581   0.265   2.163  0.0824 -0.3442 -0.2629
 9150SOL    HW138909   2.544   0.327   2.101  2.2869  2.8491  1.6365
 9150SOL    HW238910   2.524   0.276   2.239 -1.4433 -1.2752 -1.2669
 9151SOL     OW38911   1.518   3.326  16.318  0.1913  0.1927  0.1256
 9151SOL    HW138912   1.560   3.240  16.311 -2.0207 -1.1658  3.4204
 9151SOL    HW238913   1.539   3.367  16.234  1.2545 -1.4785 -0.4191
 9152SOL     OW38914   1.562   3.149   0.468 -0.0905  0.0791  0.3981
 9152SOL    HW138915   1.611   3.109   0.396 -0.8223 -0.3927  0.1641
 9152SOL    HW238916   1.557   3.244   0.453 -0.4617 -0.0981 -0.6298
 9153SOL     OW38917   0.592   1.710   6.688  0.7554  0.1290  0.0832
 9153SOL    HW138918   0.676   1.690   6.646  1.2944 -0.5749  1.5003
 9153SOL    HW238919   0.559   1.621   6.674 -1.5530  0.8818  0.8467
 9154SOL     OW38920   0.227   3.366   6.070 -0.2930  0.3964  0.0789
 9154SOL    HW138921   0.233   3.458   6.045 -2.3326  0.3158 -0.7367
 9154SOL    HW238922   0.297   3.364   6.135  1.4259 -0.0258 -1.7995
 9155SOL     OW38923   0.578   3.976  17.556 -0.0778  0.2780  0.4477
 9155SOL    HW138924   0.561   4.070  17.565 -1.0517  0.3894 -2.7536
 9155SOL    HW238925   0.550   3.965  17.465  0.3096  0.3041  0.3266
 9156SOL     OW38926   3.908   1.624  14.584  0.1336 -0.0650 -0.2514
 9156SOL    HW138927   4.000   1.619  14.559  0.4665  0.6545  0.8712
 9156SOL    HW238928   3.904   1.638  14.678  0.5848 -0.0752 -0.2310
 9157SOL     OW38929   2.793   1.902   9.114 -0.0165  0.3083  0.3580
 9157SOL    HW138930   2.724   1.965   9.135 -1.1968 -0.8707  0.0040
 9157SOL    HW238931   2.862   1.931   9.173 -0.2669  2.1353 -0.2502
 9158SOL     OW38932   0.202   0.078  13.799  0.3020 -0.1324  0.1828
 9158SOL    HW138933   0.259   0.038  13.733 -0.9975  0.1530 -1.1114
 9158SOL    HW238934   0.198   0.168  13.769 -2.5106 -0.1302  0.5456
 9159SOL     OW38935   2.790   4.495   1.850 -0.5584  0.2435 -0.2404
 9159SOL    HW138936   2.868   4.473   1.901 -0.5765  1.1753  0.1877
 9159SOL    HW238937   2.810   4.558   1.780  1.1423 -0.3157 -0.2573
 9160SOL     OW38938   2.982   2.356   3.270  0.4170  0.0786  0.2318
 9160SOL    HW138939   2.986   2.360   3.366  2.4316 -0.6962  0.1831
 9160SOL    HW238940   3.005   2.447   3.255  2.1580 -0.6450 -1.4260
 9161SOL     OW38941   0.500   3.534  16.615  0.4591  0.0006  0.0672
 9161SOL    HW138942   0.469   3.597  16.680 -4.2727 -0.5026 -1.7621
 9161SOL    HW238943   0.534   3.599  16.552  1.7195 -0.7171  0.0015
 9162SOL     OW38944   4.141   1.183   6.926 -0.1833  0.7510  0.3916
 9162SOL    HW138945   4.194   1.259   6.903  0.8734 -0.6222 -1.6456
 9162SOL    HW238946   4.143   1.191   7.021 -0.4255  0.0178  0.4616
 9163SOL     OW38947   2.028   2.290  11.656 -1.2117 -0.0063 -0.1961
 9163SOL    HW138948   2.043   2.380  11.629 -0.0252 -0.8842 -2.4797
 9163SOL    HW238949   2.072   2.245  11.584  1.6721  0.9888  0.9088
 9164SOL     OW38950   3.925   2.023   4.883  0.0925  0.5385 -0.2867
 9164SOL    HW138951   3.870   2.043   4.959  0.6254  0.4354  0.1250
 9164SOL    HW238952   3.891   2.085   4.819 -1.8718 -0.1936  0.0603
 9165SOL     OW38953   2.218   1.843   9.177 -0.2066 -0.1314  0.5143
 9165SOL    HW138954   2.270   1.912   9.216 -0.0794  0.3867 -0.5621
 9165SOL    HW238955   2.179   1.893   9.105 -0.3667  0.1903  0.8311
 9166SOL     OW38956   2.763   0.328   9.825  0.3490  0.1900 -0.2628
 9166SOL    HW138957   2.823   0.271   9.778  1.5423 -0.8746  2.6069
 9166SOL    HW238958   2.687   0.331   9.766  2.2303 -0.6100 -2.7066
 9167SOL     OW38959   2.890   1.476   7.961  0.1904  0.1513 -0.2162
 9167SOL    HW138960   2.814   1.448   7.909  0.5729  1.1897 -1.3133
 9167SOL    HW238961   2.845   1.494   8.044  0.7321 -0.5543  0.2391
 9168SOL     OW38962   1.151   4.568   2.025 -0.0871  0.1527  0.0916
 9168SOL    HW138963   1.110   4.590   2.109 -0.6290 -0.2473 -0.0744
 9168SOL    HW238964   1.232   4.614   2.045 -0.4459  0.3837  1.0008
 9169SOL     OW38965   3.636   3.413   7.799 -0.2387 -0.6661 -0.3207
 9169SOL    HW138966   3.710   3.432   7.741  0.3423  1.1629  1.0161
 9169SOL    HW238967   3.682   3.396   7.882 -0.6834 -1.1662 -0.1719
 9170SOL     OW38968   3.229   3.319   0.910 -0.6476  0.2575  0.2659
 9170SOL    HW138969   3.237   3.325   0.815  1.4181 -1.8694  0.3066
 9170SOL    HW238970   3.294   3.380   0.944  0.0477  0.5794 -1.6689
 9171SOL     OW38971   2.987   4.188   6.283 -0.2292  0.5216 -0.1921
 9171SOL    HW138972   3.006   4.254   6.215 -0.4079 -0.9735 -1.6871
 9171SOL    HW238973   3.072   4.182   6.325  0.0985  2.3619 -0.5698
 9172SOL     OW38974   4.111   0.140   4.284 -0.0772 -0.1406 -0.2656
 9172SOL    HW138975   4.114   0.235   4.272 -1.9133 -0.1066 -0.5274
 9172SOL    HW238976   4.143   0.132   4.374 -2.1082 -3.0431  0.2019
 9173SOL     OW38977   4.380   2.457  12.199 -0.4956  0.4006 -0.1716
 9173SOL    HW138978   4.452   2.467  12.137 -0.0079 -0.4443  0.2488
 9173SOL    HW238979   4.313   2.507  12.152 -1.5553 -0.5026  0.3625
 9174SOL     OW38980   3.282   2.222   3.552  0.0672  0.1182 -0.3663
 9174SOL    HW138981   3.310   2.302   3.507 -2.1350  1.6837  1.0505
 9174SOL    HW238982   3.202   2.246   3.597  0.1169  1.3330 -0.9338
 9175SOL     OW38983   0.953   3.127   2.170 -0.2098 -0.4960  0.3464
 9175SOL    HW138984   1.019   3.061   2.189  0.4427 -0.1453 -0.6828
 9175SOL    HW238985   0.906   3.134   2.253 -2.2458  0.5464 -0.8612
 9176SOL     OW38986   3.180   1.320   3.621  0.5367 -0.2846 -0.0431
 9176SOL    HW138987   3.102   1.355   3.577 -0.4000 -0.6324  1.3541
 9176SOL    HW238988   3.233   1.321   3.541 -0.2643  1.8504 -0.5572
 9177SOL     OW38989   2.615   3.760  10.355 -0.6556 -0.0626  0.2499
 9177SOL    HW138990   2.634   3.718  10.271 -0.6615  0.7680 -0.1681
 9177SOL    HW238991   2.671   3.838  10.348 -1.1659  0.3135  0.3374
 9178SOL     OW38992   0.095   4.483   9.145 -0.1020  0.2319  0.2055
 9178SOL    HW138993   0.004   4.508   9.164 -0.1484 -0.3106  0.7134
 9178SOL    HW238994   0.137   4.556   9.190  0.1538 -0.3553  0.9147
 9179SOL     OW38995   0.138   4.666  10.673  0.0907  0.2570 -0.2824
 9179SOL    HW138996   0.098   4.670  10.760 -2.7028  1.3674 -1.6300
 9179SOL    HW238997   0.066   4.636  10.618 -1.1060  2.3625  0.1373
 9180SOL     OW38998   4.257   3.724  11.352 -0.2981  0.0891 -0.6032
 9180SOL    HW138999   4.332   3.666  11.346 -1.4493 -1.3795 -0.9150
 9180SOL    HW239000   4.289   3.801  11.398  0.0944  0.4110 -1.4072
 9181SOL     OW39001   2.019   0.843   2.089  0.0208  0.2588  0.1319
 9181SOL    HW139002   2.106   0.835   2.052 -0.1267  0.0607 -0.1740
 9181SOL    HW239003   1.979   0.818   2.006  0.6042  0.5002 -0.2200
 9182SOL     OW39004   3.201   3.637   8.043 -0.2490 -0.3524  0.5065
 9182SOL    HW139005   3.183   3.544   8.032  1.3415 -0.9152  2.7254
 9182SOL    HW239006   3.122   3.659   8.094 -0.7389  0.2399 -0.5047
 9183SOL     OW39007   3.681   0.789   2.413  0.3021  0.3017 -0.7435
 9183SOL    HW139008   3.614   0.761   2.350  1.3575 -2.6787 -0.5537
 9183SOL    HW239009   3.756   0.730   2.407 -0.0017 -0.2824  1.2223
 9184SOL     OW39010   0.036   2.355   0.231 -0.5216 -0.6480 -0.4144
 9184SOL    HW139011   0.099   2.418   0.196  0.0025 -0.7988  0.2455
 9184SOL    HW239012   0.070   2.359   0.321 -1.5241 -0.6352 -0.0347
 9185SOL     OW39013   1.871   4.584   2.804  0.2377  0.2150 -0.0006
 9185SOL    HW139014   1.782   4.550   2.805 -0.4089  1.9372  0.4862
 9185SOL    HW239015   1.903   4.562   2.716 -0.7842  0.1244 -0.3448
 9186SOL     OW39016   1.041   0.459   0.907 -0.3446 -0.3729 -0.3574
 9186SOL    HW139017   1.053   0.466   1.001  0.5784 -0.4021 -0.4717
 9186SOL    HW239018   0.971   0.521   0.888  3.8851  4.4062 -0.1023
 9187SOL     OW39019   3.677   3.857   7.789 -0.3982  0.0752  0.0646
 9187SOL    HW139020   3.678   3.914   7.865  0.6711 -0.9905  0.8494
 9187SOL    HW239021   3.714   3.923   7.730  0.1065  1.2144  1.6574
 9188SOL     OW39022   1.043   1.778   5.051 -0.5049  0.0376  0.0608
 9188SOL    HW139023   1.000   1.716   5.109  0.9392 -0.6165  0.4382
 9188SOL    HW239024   1.054   1.859   5.101 -2.8736  0.8057 -0.6471
 9189SOL     OW39025   4.005   2.277   3.599 -0.3498  0.3101 -0.1043
 9189SOL    HW139026   3.996   2.185   3.625  1.6099  0.3120  0.5579
 9189SOL    HW239027   4.087   2.292   3.646  0.2280  1.0634 -1.3592
 9190SOL     OW39028   3.577   3.830   5.964  0.0840 -0.1301  0.2088
 9190SOL    HW139029   3.607   3.781   5.887  0.8454  0.2159  0.2816
 9190SOL    HW239030   3.659   3.868   5.997  0.0058  0.2446 -0.0277
 9191SOL     OW39031   3.821   2.595   1.334 -0.2074  0.0242 -0.7391
 9191SOL    HW139032   3.803   2.588   1.428 -1.0610 -0.5475 -0.9424
 9191SOL    HW239033   3.889   2.661   1.336 -0.4979  0.3213 -0.6516
 9192SOL     OW39034   2.669   4.132   7.643 -0.3552 -0.5387 -0.1067
 9192SOL    HW139035   2.628   4.045   7.648 -0.7057 -0.5179 -2.4248
 9192SOL    HW239036   2.703   4.137   7.732 -2.0381 -1.3875  0.5929
 9193SOL     OW39037   2.316   1.392  11.548 -0.0371  0.2468 -0.2974
 9193SOL    HW139038   2.376   1.343  11.492 -0.8733  0.2745 -1.2201
 9193SOL    HW239039   2.254   1.428  11.484  0.5732 -0.1755 -1.1250
 9194SOL     OW39040   4.296   4.115  10.399  0.5860 -0.0084  0.1631
 9194SOL    HW139041   4.263   4.065  10.474  0.0958 -1.1589 -0.8287
 9194SOL    HW239042   4.391   4.104  10.408  0.7355 -1.3778 -3.1151
 9195SOL     OW39043   0.704   3.915   0.940 -0.6211  0.0652  0.4068
 9195SOL    HW139044   0.768   3.927   1.011  2.7320 -1.3642 -2.3774
 9195SOL    HW239045   0.762   3.888   0.869  0.0811 -0.1134  1.0529
 9196SOL     OW39046   3.407   3.805   8.703 -0.0578  0.0272 -0.1807
 9196SOL    HW139047   3.393   3.754   8.623 -0.3342  0.4653 -0.4097
 9196SOL    HW239048   3.452   3.885   8.676  1.4082 -0.0090  2.1955
 9197SOL     OW39049   3.848   3.005   8.422 -0.5231 -0.0373 -0.1203
 9197SOL    HW139050   3.936   3.018   8.458 -0.0351 -0.7176 -1.0683
 9197SOL    HW239051   3.812   2.975   8.506 -1.0448  2.4569  0.5262
 9198SOL     OW39052   0.734   3.580   6.767  0.6436 -0.1434 -0.5300
 9198SOL    HW139053   0.730   3.676   6.774  2.0740 -0.2678  2.0531
 9198SOL    HW239054   0.818   3.569   6.812 -0.3398 -0.2313  1.2567
 9199SOL     OW39055   0.529   3.408   9.866 -0.3383  0.2020 -0.3228
 9199SOL    HW139056   0.476   3.333   9.838  1.2898 -0.0166 -2.7811
 9199SOL    HW239057   0.514   3.465   9.790  0.0506  0.0272 -0.5291
 9200SOL     OW39058   0.628   1.024   5.621 -0.5306  0.0439  0.5372
 9200SOL    HW139059   0.602   1.070   5.541 -1.4064  1.4058  1.5942
 9200SOL    HW239060   0.718   1.006   5.596 -0.8851 -2.1349  0.8488
 9201SOL     OW39061   3.855   2.451   6.557 -0.2617  0.3566 -0.2914
 9201SOL    HW139062   3.932   2.402   6.527  0.8079  1.5780  0.4450
 9201SOL    HW239063   3.778   2.406   6.521  0.1034  0.2105 -0.8931
 9202SOL     OW39064   3.400   2.017   2.196 -0.1484  0.2461  0.3587
 9202SOL    HW139065   3.432   2.041   2.283  2.4398 -0.6478 -0.3483
 9202SOL    HW239066   3.416   1.923   2.191  1.9320  0.6807 -1.3236
 9203SOL     OW39067   0.833   0.762   5.410  0.5903 -0.5704 -0.5826
 9203SOL    HW139068   0.927   0.765   5.425  0.1467  2.0044  1.6426
 9203SOL    HW239069   0.802   0.731   5.495 -0.2986  0.0037 -0.6974
 9204SOL     OW39070   0.720   3.573   7.806 -0.1532  0.5872  0.9275
 9204SOL    HW139071   0.761   3.578   7.893  0.4634  0.0258  0.6701
 9204SOL    HW239072   0.702   3.666   7.790  1.2321  0.3803 -1.8153
 9205SOL     OW39073   0.189   1.061   2.601  0.1622  0.3706  0.3183
 9205SOL    HW139074   0.154   1.107   2.525  2.7715  0.1644 -1.0013
 9205SOL    HW239075   0.115   1.004   2.619  0.9174 -0.8534 -0.4445
 9206SOL     OW39076   3.979   4.449   8.199 -0.8295  0.2413 -0.4605
 9206SOL    HW139077   4.027   4.470   8.119 -0.3904  0.4431 -0.1420
 9206SOL    HW239078   4.019   4.503   8.268 -0.5804 -1.2097  0.5396
 9207SOL     OW39079   1.249   1.315  17.464 -0.3841 -0.7408  0.0295
 9207SOL    HW139080   1.285   1.227  17.469 -3.0629 -1.9259 -1.3186
 9207SOL    HW239081   1.329   1.368  17.467 -0.7955 -0.2418  2.8623
 9208SOL     OW39082   3.156   3.328   3.150 -0.4607 -0.0159 -0.3614
 9208SOL    HW139083   3.073   3.339   3.197 -1.0578 -0.5129 -1.2935
 9208SOL    HW239084   3.126   3.282   3.071 -1.3020 -0.2711  0.0985
 9209SOL     OW39085   1.677   1.311  17.531  0.0120 -0.0772  0.3823
 9209SOL    HW139086   1.601   1.368  17.518 -1.4912 -1.9244  1.0835
 9209SOL    HW239087   1.677   1.310  17.627 -0.6857 -3.5995  0.3242
 9210SOL     OW39088   4.619   0.407   7.702 -0.6629 -0.0485  0.6417
 9210SOL    HW139089   4.686   0.428   7.767 -0.0067 -0.7778  0.2091
 9210SOL    HW239090   4.554   0.404   7.772 -0.0473  1.0258  1.2580
 9211SOL     OW39091   3.579   3.581   4.294  0.6242  0.1040 -0.5737
 9211SOL    HW139092   3.562   3.487   4.286  0.7813  0.1769 -1.8803
 9211SOL    HW239093   3.489   3.613   4.294 -0.2934 -2.5079 -1.6683
 9212SOL     OW39094   1.903   3.892  10.919 -0.1080 -0.7707 -0.5411
 9212SOL    HW139095   1.909   3.828  10.990  1.0322  1.0383  0.9919
 9212SOL    HW239096   1.834   3.943  10.961  0.3535 -1.2874  0.8218
 9213SOL     OW39097   2.942   3.357   3.334  0.2258  0.0146  0.2467
 9213SOL    HW139098   2.846   3.357   3.338  0.1631 -1.9291 -0.9548
 9213SOL    HW239099   2.956   3.446   3.365 -0.4233 -0.4103  1.7495
 9214SOL     OW39100   2.553   3.523   3.131 -0.4781  0.3939 -0.6235
 9214SOL    HW139101   2.561   3.580   3.054 -0.4385  0.3155 -0.6776
 9214SOL    HW239102   2.461   3.524   3.155 -0.4148 -0.2380 -0.3530
 9215SOL     OW39103   1.928   1.795   3.038 -0.0622 -0.1420 -0.5204
 9215SOL    HW139104   1.863   1.804   2.968  0.7152 -0.7848 -1.3255
 9215SOL    HW239105   1.913   1.705   3.066  1.1526  0.1553  1.0678
 9216SOL     OW39106   0.608   3.927   4.279  0.0478 -0.3680  0.4239
 9216SOL    HW139107   0.625   4.020   4.262  0.0289 -0.7031 -1.4192
 9216SOL    HW239108   0.694   3.887   4.292  0.3988 -0.0127 -0.7936
 9217SOL     OW39109   4.139   4.416   7.061  0.3961 -0.1020 -0.1638
 9217SOL    HW139110   4.060   4.468   7.073  1.1081  0.8483  0.4481
 9217SOL    HW239111   4.192   4.473   7.118 -0.5057  1.0445 -0.4698
 9218SOL     OW39112   3.932   2.031   5.773  0.3585  0.5858 -0.2679
 9218SOL    HW139113   3.957   1.959   5.830  2.2220  0.4489 -1.2466
 9218SOL    HW239114   3.923   2.101   5.837 -0.1789 -0.3798  0.7086
 9219SOL     OW39115   3.689   2.230   8.833  0.1159  0.0310  0.6770
 9219SOL    HW139116   3.745   2.152   8.832  1.6197  1.1072 -0.2997
 9219SOL    HW239117   3.634   2.205   8.907  0.2638 -0.3511  0.6589
 9220SOL     OW39118   3.455   4.454   1.436 -0.0930  0.5038 -0.5518
 9220SOL    HW139119   3.532   4.413   1.397  1.3481  1.8005  0.8974
 9220SOL    HW239120   3.416   4.376   1.476  1.1745  0.1670  0.0208
 9221SOL     OW39121   2.403   0.928   6.880  0.2022  0.7723 -0.0828
 9221SOL    HW139122   2.493   0.932   6.913  0.4944 -1.7878 -0.5810
 9221SOL    HW239123   2.351   0.897   6.954 -0.9983 -1.0837 -1.6779
 9222SOL     OW39124   4.177   3.668   8.050  1.2757  0.0749  0.5266
 9222SOL    HW139125   4.199   3.649   8.141  0.9330  0.0267  0.5986
 9222SOL    HW239126   4.193   3.587   8.001  5.1587 -0.2432  2.3465
 9223SOL     OW39127   0.222   0.903   9.772  0.3597 -0.2841 -0.4811
 9223SOL    HW139128   0.244   0.822   9.726 -0.0563 -0.4645 -0.3629
 9223SOL    HW239129   0.155   0.878   9.835 -0.5501  0.7780 -1.0206
 9224SOL     OW39130   1.577   3.586  11.123 -0.1436  0.4239 -0.3556
 9224SOL    HW139131   1.607   3.542  11.043  1.3623 -0.4716  0.7028
 9224SOL    HW239132   1.521   3.520  11.163  2.0466 -1.7564 -0.8863
 9225SOL     OW39133   2.760   1.018   2.678  0.7667 -0.0095 -0.1003
 9225SOL    HW139134   2.698   1.050   2.613 -0.0734 -1.1231  0.1473
 9225SOL    HW239135   2.805   1.103   2.682 -0.1755  0.4603  0.4480
 9226SOL     OW39136   4.671   1.726   5.996  0.2226  0.4776  0.3404
 9226SOL    HW139137   4.693   1.818   5.986  3.1532 -0.2721 -0.2214
 9226SOL    HW239138   4.683   1.687   5.909 -0.3809 -2.0439  1.3873
 9227SOL     OW39139   2.391   3.542  11.550  0.4225 -0.3096 -0.5760
 9227SOL    HW139140   2.446   3.576  11.620  1.5428  0.6038 -1.8821
 9227SOL    HW239141   2.448   3.570  11.478  1.7238 -0.5257  0.3766
 9228SOL     OW39142   3.956   1.854   5.982 -0.5947 -0.3103  0.5357
 9228SOL    HW139143   4.025   1.796   6.015 -0.6488  0.2896  1.7228
 9228SOL    HW239144   3.915   1.900   6.055  3.2490  2.0631  1.2218
 9229SOL     OW39145   0.183   1.787   6.569  0.1186  0.3716 -0.2332
 9229SOL    HW139146   0.262   1.762   6.522 -1.4338 -1.7236 -1.7126
 9229SOL    HW239147   0.182   1.712   6.629 -0.9283  1.7177  1.4279
 9230SOL     OW39148   0.643   3.872   5.392 -0.0500  0.3859  0.4665
 9230SOL    HW139149   0.708   3.826   5.339 -0.7414  0.1786 -0.1899
 9230SOL    HW239150   0.564   3.829   5.360  0.3320 -1.2390  1.6899
 9231SOL     OW39151   1.186   4.602  12.223 -0.3042 -0.0951  0.2363
 9231SOL    HW139152   1.238   4.556  12.157  0.9815  1.6441  0.0440
 9231SOL    HW239153   1.255   4.652  12.268  0.4615 -2.0450  1.2246
 9232SOL     OW39154   2.804   3.381  10.145 -0.0017  0.3003 -0.2756
 9232SOL    HW139155   2.849   3.311  10.098 -1.1979 -0.0094 -0.9541
 9232SOL    HW239156   2.807   3.342  10.232  0.8765 -0.8684 -0.8348
 9233SOL     OW39157   0.649   1.589   0.154 -0.2172  0.0456  0.7663
 9233SOL    HW139158   0.632   1.588   0.249  1.5704  2.5270  1.1043
 9233SOL    HW239159   0.576   1.532   0.130  0.6123 -1.5281  1.9413
 9234SOL     OW39160   2.425   0.847   7.963  0.1586 -0.2138 -0.2348
 9234SOL    HW139161   2.505   0.894   7.986  0.7466 -1.1602 -0.3527
 9234SOL    HW239162   2.428   0.850   7.867 -0.5111  0.3016 -0.2418
 9235SOL     OW39163   0.063   3.811  15.636  0.0473 -0.7364 -0.2250
 9235SOL    HW139164   0.027   3.889  15.594 -2.0888 -1.7412 -0.2586
 9235SOL    HW239165   0.015   3.811  15.719  0.0399 -0.3761 -0.2286
 9236SOL     OW39166   1.746   2.977   5.059 -0.2857 -0.0460 -0.0512
 9236SOL    HW139167   1.710   2.982   4.971 -2.1336  0.4877  0.7286
 9236SOL    HW239168   1.830   3.022   5.050 -1.6312  2.6647  0.9928
 9237SOL     OW39169   3.310   1.362   7.370 -0.1861 -0.2276  0.2266
 9237SOL    HW139170   3.348   1.364   7.458 -0.5430 -2.3608  0.4184
 9237SOL    HW239171   3.265   1.278   7.368  0.3370 -0.5688  2.0024
 9238SOL     OW39172   3.601   2.952  10.582  0.0769 -0.1120 -0.0133
 9238SOL    HW139173   3.560   2.980  10.665  2.1559 -1.6623  1.5281
 9238SOL    HW239174   3.598   2.858  10.601  1.3618 -0.1308  0.0804
 9239SOL     OW39175   1.918   1.452   5.545 -0.0879  0.4136  0.3569
 9239SOL    HW139176   1.880   1.378   5.593  0.5713 -0.5044 -0.5174
 9239SOL    HW239177   1.858   1.524   5.563 -2.8423 -1.3577 -1.4913
 9240SOL     OW39178   2.594   0.501   8.741 -0.3687  0.0864 -0.1275
 9240SOL    HW139179   2.677   0.548   8.732 -2.0391  2.6751 -2.0752
 9240SOL    HW239180   2.566   0.545   8.822 -0.4072  1.4888 -0.8988
 9241SOL     OW39181   1.425   2.399  17.046  0.2710  0.0763 -0.0569
 9241SOL    HW139182   1.369   2.459  16.996 -0.6979 -1.0823 -0.3454
 9241SOL    HW239183   1.427   2.316  16.999  0.1056  1.2810 -2.1771
 9242SOL     OW39184   0.889   1.608  14.576 -0.7115  0.2498 -0.0392
 9242SOL    HW139185   0.945   1.621  14.499  1.4057 -1.3652  1.2546
 9242SOL    HW239186   0.817   1.564  14.531 -1.6958  2.2014 -0.4059
 9243SOL     OW39187   0.715   0.273   8.384 -0.6177 -0.2412  0.0416
 9243SOL    HW139188   0.625   0.271   8.353 -0.2048  0.5385 -1.2040
 9243SOL    HW239189   0.743   0.185   8.360 -0.5920 -1.5819  4.9587
 9244SOL     OW39190   3.537   0.046   2.066  0.0281  0.0530  0.1804
 9244SOL    HW139191   3.443   0.042   2.084 -0.2586 -0.5738 -1.4345
 9244SOL    HW239192   3.543   0.076   1.975  1.9204 -1.6616 -0.2728
 9245SOL     OW39193   0.288   3.175   7.633  0.0287  0.1694  0.3612
 9245SOL    HW139194   0.303   3.236   7.561  0.0863  1.4387  1.4299
 9245SOL    HW239195   0.371   3.182   7.680 -0.9505 -2.4140  2.4442
 9246SOL     OW39196   2.895   2.907  11.947  0.3019 -0.2932 -0.0535
 9246SOL    HW139197   2.804   2.878  11.947  0.7644 -1.6954 -2.3646
 9246SOL    HW239198   2.912   2.899  12.041  0.9704  2.4172  0.0757
 9247SOL     OW39199   4.641   0.781   1.716 -0.0076  0.4931 -0.4988
 9247SOL    HW139200   4.648   0.856   1.775 -0.1893  1.0345 -1.1677
 9247SOL    HW239201   4.713   0.721   1.733 -0.6323 -1.3955 -4.6132
 9248SOL     OW39202   4.417   2.966   5.843  0.1524 -0.0306  0.2039
 9248SOL    HW139203   4.347   2.901   5.829  0.3265 -0.2943  0.5482
 9248SOL    HW239204   4.480   2.924   5.902  2.1911  2.8685  0.0650
 9249SOL     OW39205   2.010   3.792   4.872  0.3923  0.2981 -0.5049
 9249SOL    HW139206   1.962   3.747   4.802  1.3269 -0.9072 -0.3881
 9249SOL    HW239207   2.009   3.729   4.944 -0.2556  0.2207 -0.5776
 9250SOL     OW39208   2.858   4.024   4.297 -0.1869  0.1522  0.2218
 9250SOL    HW139209   2.850   3.950   4.237  3.1005 -0.6798  0.8070
 9250SOL    HW239210   2.919   4.082   4.252 -0.7619 -1.1717 -2.2777
 9251SOL     OW39211   3.761   0.137   9.567  0.1724  0.6114 -0.0050
 9251SOL    HW139212   3.778   0.110   9.476 -0.2131  0.0630  0.0849
 9251SOL    HW239213   3.765   0.050   9.608  2.7671  0.2191 -1.1027
 9252SOL     OW39214   2.780   4.612   6.025 -0.1624  0.4981  0.1192
 9252SOL    HW139215   2.826   4.645   6.102  0.0362 -3.9848  1.9224
 9252SOL    HW239216   2.827   4.529   6.018 -1.6506 -0.4125  0.8362
 9253SOL     OW39217   0.356   0.311   1.048 -0.1750 -0.0799  0.1707
 9253SOL    HW139218   0.312   0.397   1.048  0.4576  0.2380  1.2935
 9253SOL    HW239219   0.316   0.250   0.986 -1.3125  0.9642 -0.1357
 9254SOL     OW39220   1.547   2.978   1.561 -0.0887  0.0237  0.1361
 9254SOL    HW139221   1.600   3.020   1.493  0.7662  0.5109  1.1027
 9254SOL    HW239222   1.461   2.971   1.521 -0.0724  0.6766 -0.0089
 9255SOL     OW39223   3.794   2.911   1.798  0.2940 -0.3673  0.5040
 9255SOL    HW139224   3.709   2.867   1.789  0.7970 -0.5388 -3.3513
 9255SOL    HW239225   3.845   2.846   1.750 -0.2758  1.0633 -2.0480
 9256SOL     OW39226   4.253   4.636   5.801  0.3209  0.0262  0.0661
 9256SOL    HW139227   4.317   4.604   5.738 -0.6654  2.4357 -2.1630
 9256SOL    HW239228   4.288   4.721   5.828  0.2972 -0.4188  1.4698
 9257SOL     OW39229   2.047   2.383   3.421  0.1932  0.7259 -0.1839
 9257SOL    HW139230   2.015   2.347   3.339 -0.9935  1.5436 -0.0785
 9257SOL    HW239231   2.096   2.308   3.456 -1.6438 -0.0140  0.8202
 9258SOL     OW39232   4.206   0.395   6.414  0.1711  0.0128 -0.5861
 9258SOL    HW139233   4.191   0.489   6.405  1.6194  0.0939 -2.2320
 9258SOL    HW239234   4.179   0.392   6.505  1.9209  2.6651  0.0352
 9259SOL     OW39235   4.647   2.121   3.193  0.0155 -0.2343  0.1488
 9259SOL    HW139236   4.716   2.054   3.195  0.0900 -0.1589  0.0889
 9259SOL    HW239237   4.621   2.121   3.101 -1.9190 -0.7571  0.6996
 9260SOL     OW39238   1.227   1.061  17.573 -0.0622  0.4440 -0.1410
 9260SOL    HW139239   1.251   1.016  17.492  1.2890 -0.8764  1.0183
 9260SOL    HW239240   1.131   1.060  17.569 -0.0345  0.9997 -1.2639
 9261SOL     OW39241   1.260   3.114   5.465  0.9129  0.9214 -0.0803
 9261SOL    HW139242   1.206   3.193   5.471  1.8544  1.5289  0.4844
 9261SOL    HW239243   1.228   3.078   5.382  0.2587  2.4690 -0.5144
 9262SOL     OW39244   3.169   4.019   4.934  0.4109 -0.2359 -0.5157
 9262SOL    HW139245   3.130   3.952   4.990 -1.6859  0.3061 -1.3484
 9262SOL    HW239246   3.180   3.967   4.855  2.3705 -0.8088  0.1191
 9263SOL     OW39247   3.435   2.258   6.728 -0.5271 -0.1863 -0.7091
 9263SOL    HW139248   3.412   2.170   6.759 -0.1502  0.6612  1.9466
 9263SOL    HW239249   3.365   2.275   6.665  0.3603 -2.6424 -2.3741
 9264SOL     OW39250   0.591   4.635  14.164 -0.1126  0.1196 -0.4078
 9264SOL    HW139251   0.592   4.708  14.102 -0.5473  0.3421 -0.1501
 9264SOL    HW239252   0.663   4.655  14.225  0.4820  1.1513 -1.4402
 9265SOL     OW39253   1.622   3.060   6.677  0.2466  0.1411  0.0151
 9265SOL    HW139254   1.594   3.111   6.602 -0.1372 -3.8882 -2.5796
 9265SOL    HW239255   1.618   2.967   6.655  0.2332 -0.1100  1.0473
 9266SOL     OW39256   0.709   0.927  15.883 -0.2712  1.1250 -0.5043
 9266SOL    HW139257   0.752   0.868  15.821 -1.8073  1.8400 -2.2240
 9266SOL    HW239258   0.653   0.976  15.824  0.5993  2.9060  0.1402
 9267SOL     OW39259   1.511   0.994   8.037  0.1293  0.6879 -0.0672
 9267SOL    HW139260   1.587   0.945   8.069  0.9595 -0.2700 -3.5278
 9267SOL    HW239261   1.507   1.056   8.110 -2.0025  0.6637 -0.1542
 9268SOL     OW39262   3.445   3.595  12.790  0.0116 -0.6034  0.9752
 9268SOL    HW139263   3.351   3.609  12.803  0.1262  0.5681  0.5768
 9268SOL    HW239264   3.441   3.500  12.800  0.9282 -0.7956 -0.5023
 9269SOL     OW39265   0.877   2.637   9.686 -0.3733 -0.7648 -0.1404
 9269SOL    HW139266   0.805   2.589   9.727 -0.0371 -1.2933 -0.1699
 9269SOL    HW239267   0.923   2.578   9.625  0.9354  1.6061 -1.4495
 9270SOL     OW39268   3.973   3.216   0.787  0.6754 -0.0846 -0.2589
 9270SOL    HW139269   3.905   3.152   0.766 -1.0181  2.5675 -2.8564
 9270SOL    HW239270   3.922   3.296   0.790  1.4207  0.3210  1.6750
 9271SOL     OW39271   0.468   4.083   3.544 -0.3646  0.0662 -0.6887
 9271SOL    HW139272   0.440   3.993   3.526 -0.1568  0.3842 -2.6261
 9271SOL    HW239273   0.511   4.072   3.629 -0.5610  0.8007 -0.4934
 9272SOL     OW39274   1.657   3.143  15.814 -0.2237  0.2817 -0.0915
 9272SOL    HW139275   1.621   3.111  15.732  1.3481 -0.4570 -0.4846
 9272SOL    HW239276   1.602   3.107  15.883  0.2311  1.2035  0.7644
 9273SOL     OW39277   1.604   0.593  16.011 -0.8695 -0.4026  0.5612
 9273SOL    HW139278   1.523   0.573  15.963  0.2225  3.1446 -2.7613
 9273SOL    HW239279   1.638   0.666  15.958 -0.5360 -0.0564  1.2479
 9274SOL     OW39280   1.643   0.945   9.526 -0.2218 -0.9560  0.5493
 9274SOL    HW139281   1.612   0.964   9.615  1.7032 -2.1718  1.4654
 9274SOL    HW239282   1.563   0.964   9.477  0.8183 -0.9410 -1.1472
 9275SOL     OW39283   2.700   2.341   7.806 -0.4738 -0.4466  0.0708
 9275SOL    HW139284   2.729   2.338   7.897  1.2179 -0.3973 -0.4632
 9275SOL    HW239285   2.768   2.393   7.764 -0.8731 -0.0971 -0.1397
 9276SOL     OW39286   0.153   2.339  10.628  0.0670  0.3225 -0.0463
 9276SOL    HW139287   0.191   2.339  10.716  1.6757 -0.8961 -0.7381
 9276SOL    HW239288   0.153   2.432  10.605 -1.1740  0.2743 -0.2511
 9277SOL     OW39289   4.227   1.831   4.140 -0.7834 -0.0441 -0.3766
 9277SOL    HW139290   4.157   1.856   4.201 -1.2413  1.3077 -1.4524
 9277SOL    HW239291   4.227   1.899   4.073 -1.9613  1.3368  1.0559
 9278SOL     OW39292   1.973   1.713   7.655 -0.5208  0.1009  0.7177
 9278SOL    HW139293   2.017   1.788   7.695 -1.0773  0.4785  0.6306
 9278SOL    HW239294   2.029   1.683   7.583 -0.5821 -2.5845  1.8023
 9279SOL     OW39295   0.850   1.301   5.678 -0.3387 -0.5904  0.0797
 9279SOL    HW139296   0.880   1.385   5.714  1.2392 -0.9864 -0.2698
 9279SOL    HW239297   0.908   1.235   5.715 -2.2007 -1.9733  0.4980
 9280SOL     OW39298   1.478   4.654  17.029  0.3558  0.0526 -0.3061
 9280SOL    HW139299   1.496   4.707  17.107 -0.1344  1.7510 -1.3514
 9280SOL    HW239300   1.404   4.700  16.990  0.0065  0.3051  0.6455
 9281SOL     OW39301   4.266   4.507   4.661  0.3399  0.4219 -0.3999
 9281SOL    HW139302   4.193   4.459   4.701  1.3398 -0.0369  0.8686
 9281SOL    HW239303   4.239   4.499   4.570 -2.5751 -0.1054  0.5035
 9282SOL     OW39304   3.628   2.689  15.633  0.1006 -0.1814 -0.3040
 9282SOL    HW139305   3.624   2.709  15.540 -1.3186 -1.1155 -0.4395
 9282SOL    HW239306   3.575   2.752  15.682 -1.3925 -1.3147 -0.4377
 9283SOL     OW39307   4.341   3.412   5.734  0.1560 -0.5074  0.9040
 9283SOL    HW139308   4.370   3.344   5.673 -0.2433  1.2834 -1.2947
 9283SOL    HW239309   4.301   3.367   5.808  1.2619  0.4654  2.1068
 9284SOL     OW39310   0.206   3.981   3.915 -0.3374 -0.0327  0.1264
 9284SOL    HW139311   0.139   3.981   3.847  1.1322  1.0619 -1.2958
 9284SOL    HW239312   0.145   4.002   3.986 -0.1134 -1.3235  0.7173
 9285SOL     OW39313   3.943   0.205   7.221 -0.0979 -1.0737  0.4520
 9285SOL    HW139314   3.980   0.255   7.148 -3.1695 -0.1102 -0.4522
 9285SOL    HW239315   3.998   0.128   7.237  3.3638  1.4974  0.9944
 9286SOL     OW39316   4.701   1.004   9.023 -0.1268  0.0091  0.6289
 9286SOL    HW139317   4.608   0.985   9.039 -0.3491  0.4013 -0.2129
 9286SOL    HW239318   0.009   0.975   8.937  1.5932  0.9823  0.9293
 9287SOL     OW39319   1.602   0.493   7.412 -0.0687  0.2043 -0.3682
 9287SOL    HW139320   1.596   0.587   7.397 -1.7963  0.1645  0.0556
 9287SOL    HW239321   1.512   0.477   7.440 -0.8337 -0.2044 -2.9846
 9288SOL     OW39322   0.711   2.831   9.130  0.0434  0.2154  0.3213
 9288SOL    HW139323   0.628   2.862   9.167 -0.7120 -1.1145 -0.2785
 9288SOL    HW239324   0.761   2.912   9.121 -1.1516  1.0955  1.6332
 9289SOL     OW39325   3.576   2.974  15.917  0.2623 -0.7311 -0.2248
 9289SOL    HW139326   3.574   3.060  15.874 -1.6581 -0.6885 -0.0498
 9289SOL    HW239327   3.665   2.972  15.950 -0.1774 -2.0118  0.8320
 9290SOL     OW39328   2.412   2.243  13.209  0.5332 -0.1433 -0.3710
 9290SOL    HW139329   2.444   2.160  13.242 -2.4716 -0.9564  0.5320
 9290SOL    HW239330   2.489   2.297  13.189  0.4481 -0.8198 -2.5060
 9291SOL     OW39331   0.882   1.712   7.149  0.1864  0.7912 -0.2088
 9291SOL    HW139332   0.880   1.694   7.055 -1.9954  0.0946 -0.0252
 9291SOL    HW239333   0.814   1.777   7.164 -0.2773 -0.2275  2.1050
 9292SOL     OW39334   4.491   3.010  11.421 -0.4216 -0.1556 -0.5848
 9292SOL    HW139335   4.478   2.943  11.354  0.0306 -2.6358  1.8029
 9292SOL    HW239336   4.562   2.965  11.467  0.2456  0.8417 -0.6433
 9293SOL     OW39337   4.475   4.398  16.009 -0.2426 -0.1997 -0.8387
 9293SOL    HW139338   4.551   4.451  16.034 -1.3736  2.5471 -3.1962
 9293SOL    HW239339   4.456   4.433  15.922  0.5028  0.7723 -0.6098
 9294SOL     OW39340   3.466   0.460  13.279  0.0496  0.1783 -0.2334
 9294SOL    HW139341   3.532   0.519  13.315 -2.0928  0.4820  3.1528
 9294SOL    HW239342   3.524   0.423  13.212  0.5969  0.9783 -0.1942
 9295SOL     OW39343   3.390   1.562   2.946  0.0813  0.4361 -0.1776
 9295SOL    HW139344   3.486   1.566   2.940  0.3299 -3.1710  0.9833
 9295SOL    HW239345   3.376   1.503   3.021  0.8293  1.1346  0.5210
 9296SOL     OW39346   0.694   2.155   3.286 -0.6167 -0.0475  0.1120
 9296SOL    HW139347   0.689   2.242   3.247  1.5522 -1.5844 -3.5757
 9296SOL    HW239348   0.759   2.168   3.354  2.5589 -1.2061 -2.7190
 9297SOL     OW39349   4.256   4.439   6.447  0.1091  1.0866 -0.1256
 9297SOL    HW139350   4.330   4.445   6.387  0.4294 -1.5156  0.0048
 9297SOL    HW239351   4.177   4.444   6.393  0.4232  0.6739 -0.6219
 9298SOL     OW39352   1.058   1.595  10.968  0.1739 -0.2688  0.2496
 9298SOL    HW139353   1.129   1.616  11.029 -1.9519 -1.2792  3.0656
 9298SOL    HW239354   1.089   1.642  10.891 -1.0191  0.3573  0.1463
 9299SOL     OW39355   0.609   1.080   8.374 -0.2740  0.2783 -0.3635
 9299SOL    HW139356   0.554   1.062   8.451 -0.0446 -1.1827 -0.5490
 9299SOL    HW239357   0.693   1.088   8.418 -0.3908  0.0046 -0.0840
 9300SOL     OW39358   1.734   3.271  17.420  0.3743  0.1348  0.2941
 9300SOL    HW139359   1.657   3.286  17.366 -1.1716 -0.0136  2.4636
 9300SOL    HW239360   1.802   3.327  17.383  0.0490  1.5902  1.8831
 9301SOL     OW39361   1.970   0.522   0.919  0.3247 -0.1411  0.0829
 9301SOL    HW139362   2.019   0.566   0.850 -1.2751  0.8328 -0.4383
 9301SOL    HW239363   1.924   0.451   0.872 -0.4671 -1.2479  2.5233
 9302SOL     OW39364   3.547   4.305   7.140 -0.4576 -0.3136 -0.3883
 9302SOL    HW139365   3.560   4.248   7.064 -0.7520 -0.2227 -0.5052
 9302SOL    HW239366   3.481   4.262   7.193 -0.9324  0.9238  0.0173
 9303SOL     OW39367   1.010   4.270   8.510  0.0115 -0.2580 -0.7892
 9303SOL    HW139368   1.043   4.282   8.599 -0.3666 -0.4507 -0.6235
 9303SOL    HW239369   0.973   4.358   8.502 -2.2594 -1.1676 -0.3540
 9304SOL     OW39370   3.504   4.535   3.555 -0.0624 -0.4731  0.7263
 9304SOL    HW139371   3.497   4.464   3.618 -0.3018 -0.5584  0.6063
 9304SOL    HW239372   3.599   4.540   3.550 -0.0768 -0.6441  0.1716
 9305SOL     OW39373   1.643   2.377   6.283  0.0502 -0.0647  0.1942
 9305SOL    HW139374   1.677   2.443   6.344 -2.8093  1.8357 -0.2428
 9305SOL    HW239375   1.648   2.297   6.335 -0.3056 -0.8770 -1.0334
 9306SOL     OW39376   2.072   4.059   4.923 -0.1379 -0.2598  0.4007
 9306SOL    HW139377   2.041   3.969   4.912  1.2385 -0.7217  0.3852
 9306SOL    HW239378   2.152   4.047   4.872  0.1204 -0.7304  0.9220
 9307SOL     OW39379   4.178   0.416   4.450 -0.0642  0.0880  0.4141
 9307SOL    HW139380   4.250   0.372   4.404  0.3485  0.5753  0.6002
 9307SOL    HW239381   4.157   0.343   4.508 -0.0408  0.6103  1.0829
 9308SOL     OW39382   2.667   3.488  13.417 -0.4352 -0.0099 -0.4106
 9308SOL    HW139383   2.661   3.503  13.511 -1.4514 -1.6271 -0.2169
 9308SOL    HW239384   2.589   3.435  13.399  0.0364 -0.2440 -1.8116
 9309SOL     OW39385   1.159   0.763   1.245  0.8208  0.0080  0.1879
 9309SOL    HW139386   1.166   0.848   1.289  1.8512  0.2275 -0.3917
 9309SOL    HW239387   1.207   0.703   1.302 -0.5155 -2.4464 -1.3051
 9310SOL     OW39388   3.686   1.771   9.580  0.2694  0.1818 -0.1785
 9310SOL    HW139389   3.646   1.826   9.647  1.1565  0.3218  0.2449
 9310SOL    HW239390   3.665   1.685   9.616 -0.1059 -0.4715 -1.9485
 9311SOL     OW39391   1.257   4.224   4.163 -0.4192  0.3417  0.5938
 9311SOL    HW139392   1.231   4.269   4.082 -0.2681 -2.2475 -0.8891
 9311SOL    HW239393   1.231   4.288   4.230 -0.7671  0.7094  0.1100
 9312SOL     OW39394   4.543   3.483  14.493  0.0936 -0.1433  0.1977
 9312SOL    HW139395   4.601   3.410  14.471 -0.7869 -0.7810 -0.0233
 9312SOL    HW239396   4.476   3.462  14.428 -0.4763  1.7829  0.1619
 9313SOL     OW39397   0.112   4.171   6.553  0.0031  0.3206 -0.4049
 9313SOL    HW139398   0.079   4.110   6.487 -0.8927  0.3224  0.0398
 9313SOL    HW239399   0.135   4.241   6.493  0.3388  0.1601 -0.4614
 9314SOL     OW39400   0.152   0.204   7.879  0.1043  0.5981  0.0816
 9314SOL    HW139401   0.108   0.286   7.902  0.4516  0.8106 -0.0249
 9314SOL    HW239402   0.088   0.139   7.908  0.2058 -0.1206 -1.2848
 9315SOL     OW39403   0.056   0.257  10.828 -0.2893  0.3357 -0.2872
 9315SOL    HW139404   4.689   0.283  10.846 -0.8263 -2.5582  1.2479
 9315SOL    HW239405   0.051   0.168  10.863 -0.2909  0.2160 -0.5903
 9316SOL     OW39406   2.464   3.358   5.152  0.2584 -0.0844  0.7178
 9316SOL    HW139407   2.546   3.392   5.117  0.4747 -1.9318 -0.5068
 9316SOL    HW239408   2.411   3.435   5.130 -2.0370 -1.7544  0.4641
 9317SOL     OW39409   2.715   0.404   3.182 -0.1413  0.2963 -0.0687
 9317SOL    HW139410   2.728   0.355   3.101 -0.8296 -0.9635  0.5883
 9317SOL    HW239411   2.758   0.487   3.160 -2.3687  1.2701 -0.7720
 9318SOL     OW39412   1.716   3.597   8.676 -0.5774 -0.7495 -0.1993
 9318SOL    HW139413   1.682   3.540   8.744 -0.9970  0.5746  0.7135
 9318SOL    HW239414   1.655   3.668   8.696 -0.8708 -1.2179  0.5905
 9319SOL     OW39415   0.948   2.225   8.357 -0.9855 -0.3367  0.6630
 9319SOL    HW139416   1.016   2.273   8.309 -1.8201 -0.7653 -0.9346
 9319SOL    HW239417   0.959   2.137   8.320  0.1378  0.1675 -0.1871
 9320SOL     OW39418   3.040   3.320   2.374 -0.0308 -0.0828  0.2992
 9320SOL    HW139419   3.045   3.292   2.283  2.3228 -2.0810  1.0397
 9320SOL    HW239420   2.946   3.338   2.380 -0.3272 -1.5333 -0.1734
 9321SOL     OW39421   1.720   4.106   4.756  0.5720 -0.0414  0.3835
 9321SOL    HW139422   1.724   4.146   4.843 -0.0956 -0.4798  0.6161
 9321SOL    HW239423   1.691   4.016   4.770 -0.8108  0.2067 -0.7978
 9322SOL     OW39424   1.864   1.471   7.691 -0.6124 -0.4168  0.4174
 9322SOL    HW139425   1.885   1.560   7.662  1.4661 -0.5990  1.4307
 9322SOL    HW239426   1.863   1.429   7.605 -2.1475  1.2868 -0.3966
 9323SOL     OW39427   0.312   3.243  14.951 -0.2020  0.4040  0.3766
 9323SOL    HW139428   0.229   3.199  14.970 -0.5106  1.4139  1.3589
 9323SOL    HW239429   0.306   3.233  14.856 -0.1405  1.1290  0.2956
 9324SOL     OW39430   4.131   3.711   4.446 -0.4084 -0.4325  0.2135
 9324SOL    HW139431   4.164   3.784   4.393  0.4436 -3.4151 -3.3678
 9324SOL    HW239432   4.042   3.743   4.461 -0.2901 -0.3806  0.8417
 9325SOL     OW39433   0.502   1.720   4.559 -0.0509  0.3614 -0.2014
 9325SOL    HW139434   0.506   1.814   4.576  0.7873  0.3835 -0.5203
 9325SOL    HW239435   0.436   1.690   4.621  1.7544 -3.8573 -0.3829
 9326SOL     OW39436   0.364   0.243   3.355 -0.7344 -0.1202 -0.1560
 9326SOL    HW139437   0.347   0.330   3.389  0.1085  0.1052 -0.3013
 9326SOL    HW239438   0.376   0.198   3.438 -0.0449  0.5602  0.1096
 9327SOL     OW39439   4.591   4.046   2.603 -0.5647  0.1404  0.3348
 9327SOL    HW139440   4.599   3.954   2.578 -1.5809 -0.7518  3.3416
 9327SOL    HW239441   4.510   4.035   2.652 -0.1986 -0.0535  0.8878
 9328SOL     OW39442   0.627   3.623  14.071 -0.1414  0.1151  0.1487
 9328SOL    HW139443   0.550   3.612  14.127  0.3780 -0.4253  0.7588
 9328SOL    HW239444   0.576   3.628  13.990  1.8864  1.5579 -1.0199
 9329SOL     OW39445   1.998   0.033   7.647  0.1612 -0.1516 -0.0986
 9329SOL    HW139446   1.904   0.015   7.652 -0.0336  0.8251 -0.2953
 9329SOL    HW239447   1.995   0.121   7.685 -0.4545 -1.1724  2.1987
 9330SOL     OW39448   3.664   4.604   4.649  0.1282 -0.0348  0.1168
 9330SOL    HW139449   3.704   4.553   4.579  2.3244  1.8775 -0.0535
 9330SOL    HW239450   3.621   4.543   4.708  0.3959 -0.0906  0.2577
 9331SOL     OW39451   0.618   2.524   3.943 -0.1221 -0.1399  0.7191
 9331SOL    HW139452   0.711   2.504   3.927  0.0097  1.0442 -0.0396
 9331SOL    HW239453   0.615   2.613   3.979  0.0057  0.0409  0.2903
 9332SOL     OW39454   0.479   2.417   8.613 -0.7020  0.4234  0.5127
 9332SOL    HW139455   0.423   2.367   8.553  0.4005 -2.6364  2.0263
 9332SOL    HW239456   0.558   2.431   8.560 -1.1431  1.0469  0.0175
 9333SOL     OW39457   0.987   0.031   2.736  0.2256 -0.0966 -0.6414
 9333SOL    HW139458   0.995   0.126   2.735 -0.0763 -0.0727 -0.8184
 9333SOL    HW239459   0.892   0.018   2.739  0.4057 -0.8959  1.5323
 9334SOL     OW39460   1.351   3.052   6.067 -0.9542 -0.1630  0.1281
 9334SOL    HW139461   1.402   3.105   6.128 -0.7434 -0.7591  0.4673
 9334SOL    HW239462   1.393   3.063   5.982 -2.7002  0.0949 -0.7151
 9335SOL     OW39463   3.078   3.762   4.235 -0.6550  0.1403  0.5949
 9335SOL    HW139464   2.992   3.744   4.198  0.4656 -0.2699 -1.8534
 9335SOL    HW239465   3.067   3.732   4.325 -0.0229  2.2831  1.3862
 9336SOL     OW39466   2.253   0.621  11.140 -0.5023  0.2526  0.0027
 9336SOL    HW139467   2.248   0.603  11.234 -1.7115 -0.6944 -0.2275
 9336SOL    HW239468   2.182   0.685  11.135 -0.6354  0.2023  1.1232
 9337SOL     OW39469   0.642   4.633   9.311 -0.0719  0.2243 -0.1723
 9337SOL    HW139470   0.605   4.633   9.223 -0.7049  3.5826  0.0669
 9337SOL    HW239471   0.600   4.714   9.342  1.4397  1.1632 -0.5488
 9338SOL     OW39472   0.015   2.653  16.680 -0.1288  0.4975  0.3742
 9338SOL    HW139473   0.062   2.730  16.647  0.2922  1.1708  2.4749
 9338SOL    HW239474   4.647   2.675  16.697  0.9980  4.3416  1.5487
 9339SOL     OW39475   3.823   0.607  12.726  0.1494  0.0562 -0.0833
 9339SOL    HW139476   3.747   0.644  12.770 -0.1353 -2.4123  1.4492
 9339SOL    HW239477   3.807   0.516  12.751 -3.3713  0.1933 -1.8918
 9340SOL     OW39478   2.062   1.074  11.484  0.0431  0.1573  0.3585
 9340SOL    HW139479   2.008   0.996  11.471  0.0459 -0.0736  1.7299
 9340SOL    HW239480   2.045   1.139  11.415 -2.3396 -0.6534  0.1909
 9341SOL     OW39481   1.807   0.589   6.878 -0.1822  0.0429 -0.1874
 9341SOL    HW139482   1.868   0.662   6.889 -1.7063  1.2837  0.0275
 9341SOL    HW239483   1.772   0.598   6.790  1.8619  1.3115 -0.8798
 9342SOL     OW39484   1.357   0.540  13.732 -0.7803  0.6311  0.1209
 9342SOL    HW139485   1.333   0.616  13.678  2.0626  3.0980  2.3443
 9342SOL    HW239486   1.268   0.510  13.751 -1.2065  1.5788 -0.3834
 9343SOL     OW39487   3.892   1.817   9.391  0.4263  0.1685 -0.4228
 9343SOL    HW139488   3.822   1.798   9.454  0.6398  0.4736 -0.0949
 9343SOL    HW239489   3.941   1.737   9.405 -2.2972 -0.9408  2.7940
 9344SOL     OW39490   2.589   4.591  10.795  0.6794 -0.1256  0.1978
 9344SOL    HW139491   2.611   4.675  10.835  1.0391  0.1253 -0.5327
 9344SOL    HW239492   2.668   4.536  10.797  0.6443 -0.1593  0.8061
 9345SOL     OW39493   2.677   4.253   4.257  0.1572  0.3715 -0.0604
 9345SOL    HW139494   2.635   4.197   4.192  0.2104  0.3361 -0.0642
 9345SOL    HW239495   2.744   4.194   4.290  1.5125  0.9138 -1.8456
 9346SOL     OW39496   4.699   4.664   4.280 -0.5752 -0.0025 -0.2070
 9346SOL    HW139497   4.699   4.656   4.185  1.9030  0.4113 -0.2341
 9346SOL    HW239498   4.607   4.688   4.289 -0.1934  0.6262  1.9504
 9347SOL     OW39499   2.622   3.599   5.484  0.3735 -0.2613  0.2104
 9347SOL    HW139500   2.630   3.581   5.577 -0.9483 -1.3295  0.1244
 9347SOL    HW239501   2.710   3.623   5.456 -0.2760  0.3940 -1.2812
 9348SOL     OW39502   4.620   0.340  12.407 -0.3689  0.0748  0.0827
 9348SOL    HW139503   4.644   0.418  12.356 -1.7917 -1.0403 -2.2788
 9348SOL    HW239504   4.582   0.285  12.338  2.4821 -0.5220 -1.0232
 9349SOL     OW39505   2.628   2.346  11.355 -0.4177 -0.4968  0.4227
 9349SOL    HW139506   2.694   2.280  11.335  2.4411  2.0309  1.6066
 9349SOL    HW239507   2.616   2.340  11.450 -1.1176 -0.4449  0.3403
 9350SOL     OW39508   4.442   2.447  11.126  0.1030  0.0215  0.4811
 9350SOL    HW139509   4.395   2.444  11.043 -0.7213 -0.6689  0.9854
 9350SOL    HW239510   4.467   2.539  11.114  1.0850  0.1351  3.3907
 9351SOL     OW39511   0.505   3.640   6.210 -0.0918 -0.6303  1.0119
 9351SOL    HW139512   0.499   3.615   6.302 -1.2814 -0.8304  0.8826
 9351SOL    HW239513   0.584   3.695   6.213 -0.5361 -0.0055  1.1445
 9352SOL     OW39514   4.538   4.480   2.597 -0.3304 -0.2202 -0.1206
 9352SOL    HW139515   4.529   4.397   2.552  2.4807 -0.7219  0.2608
 9352SOL    HW239516   4.628   4.504   2.574 -0.4182  0.0565 -0.1823
 9353SOL     OW39517   0.117   0.323  14.616  0.4048  0.3376  0.2850
 9353SOL    HW139518   0.080   0.299  14.531  0.9263 -1.0760  0.4498
 9353SOL    HW239519   0.100   0.242  14.664  0.5092 -0.5007 -1.0808
 9354SOL     OW39520   0.399   2.028  14.139  0.1901 -0.3100 -0.9443
 9354SOL    HW139521   0.344   2.105  14.129  1.1152  0.1505 -2.5652
 9354SOL    HW239522   0.360   1.987  14.216 -1.8346  0.0866 -1.7640
 9355SOL     OW39523   3.625   2.073   2.919  0.5175  0.0913  0.2568
 9355SOL    HW139524   3.586   2.040   3.000 -4.3919  2.2208 -1.2384
 9355SOL    HW239525   3.575   2.153   2.901 -0.3994 -0.2002  1.4607
 9356SOL     OW39526   2.123   0.704  14.487  0.1048 -0.2916  0.0754
 9356SOL    HW139527   2.109   0.778  14.428 -2.7333 -1.9728 -1.3541
 9356SOL    HW239528   2.167   0.645  14.426  0.7740 -1.3203  1.5472
 9357SOL     OW39529   4.366   0.288   4.306 -0.1025 -0.2898 -0.8724
 9357SOL    HW139530   4.447   0.331   4.278  0.8110 -2.3390 -1.4227
 9357SOL    HW239531   4.398   0.202   4.278  0.7271 -0.4864  0.6713
 9358SOL     OW39532   3.658   2.878   4.812  0.1709  0.3449 -0.4438
 9358SOL    HW139533   3.740   2.886   4.861  0.7492  0.7181 -1.4831
 9358SOL    HW239534   3.612   2.827   4.878  3.3574 -0.2808  1.3281
 9359SOL     OW39535   0.203   4.177  11.786  0.2114  0.3412  0.1760
 9359SOL    HW139536   0.221   4.184  11.879  1.0247  0.3252  0.0220
 9359SOL    HW239537   0.132   4.241  11.777 -1.2004 -1.1316  0.9797
 9360SOL     OW39538   1.900   2.470   0.011 -0.0739  0.3298 -0.1657
 9360SOL    HW139539   1.876   2.531  17.636 -3.0431 -0.5633  0.1035
 9360SOL    HW239540   1.815   2.455   0.053  0.2238 -1.3742 -0.1694
 9361SOL     OW39541   3.838   1.063   3.945 -0.1419 -0.2134  0.0936
 9361SOL    HW139542   3.793   1.020   3.872 -1.3544 -1.5810  1.6439
 9361SOL    HW239543   3.862   0.993   4.005 -1.0317  0.4956  1.2691
 9362SOL     OW39544   0.156   1.257   9.101 -0.3929  0.1661 -0.6048
 9362SOL    HW139545   0.089   1.188   9.091  2.3413 -2.4677 -0.7098
 9362SOL    HW239546   0.111   1.339   9.121  0.8245  1.3755 -2.8046
 9363SOL     OW39547   2.889   3.515   6.627  0.5913 -0.2778 -0.3909
 9363SOL    HW139548   2.822   3.447   6.633  0.1430  0.0278 -2.0190
 9363SOL    HW239549   2.836   3.575   6.574  0.1877  1.2065  1.6494
 9364SOL     OW39550   3.662   0.167   5.084 -0.4448  0.5303 -0.3265
 9364SOL    HW139551   3.659   0.245   5.028  2.6742  2.4413  2.1934
 9364SOL    HW239552   3.621   0.194   5.166  0.0594  1.5446 -0.4060
 9365SOL     OW39553   1.644   2.923  13.210  0.2708 -0.0834  0.2536
 9365SOL    HW139554   1.672   2.967  13.291 -1.5098  0.7525  0.4065
 9365SOL    HW239555   1.585   2.856  13.243  0.3243  0.0751  0.6766
 9366SOL     OW39556   3.765   2.456   0.798  0.1958  0.2567 -0.2956
 9366SOL    HW139557   3.779   2.470   0.891 -1.5968 -0.5674  0.0960
 9366SOL    HW239558   3.708   2.529   0.773 -1.5622 -1.1715 -0.4323
 9367SOL     OW39559   0.646   3.307   5.552 -0.5272  0.1010  0.2239
 9367SOL    HW139560   0.644   3.403   5.558  2.2680  0.1909 -0.6507
 9367SOL    HW239561   0.613   3.290   5.641 -1.3081 -0.2527 -0.1284
 9368SOL     OW39562   3.023   0.873  11.996  0.1864  0.3783  0.6157
 9368SOL    HW139563   3.046   0.914  11.912 -0.2620  1.0725  0.8285
 9368SOL    HW239564   3.012   0.783  11.966  1.0925 -0.3531  2.5177
 9369SOL     OW39565   0.025   0.295   3.371 -0.1980 -0.3196  0.3672
 9369SOL    HW139566   0.032   0.296   3.467 -0.1931  0.7319  0.3553
 9369SOL    HW239567   4.664   0.336   3.352 -0.5418 -0.1205  2.3559
 9370SOL     OW39568   4.171   2.466  12.849  0.0527  0.4154  0.6647
 9370SOL    HW139569   4.195   2.558  12.837  0.2903  0.4301  1.2722
 9370SOL    HW239570   4.229   2.430  12.781  2.1573  1.2886  1.9742
 9371SOL     OW39571   0.338   0.707  16.561  0.0702  0.7934 -0.3073
 9371SOL    HW139572   0.298   0.629  16.599  0.7358 -1.3640 -3.9655
 9371SOL    HW239573   0.375   0.665  16.483  0.0041  1.2142 -0.5661
 9372SOL     OW39574   1.286   3.783   7.377  0.0108  0.5411  0.0344
 9372SOL    HW139575   1.324   3.728   7.309 -2.3955  2.8272 -3.1675
 9372SOL    HW239576   1.200   3.741   7.387  1.4001 -1.6772  2.6435
 9373SOL     OW39577   2.430   2.938  10.088 -0.1565 -0.4015  0.2458
 9373SOL    HW139578   2.409   2.848  10.063 -1.0335 -0.4612  1.1606
 9373SOL    HW239579   2.379   2.984  10.021 -0.2967 -0.1045  0.5539
 9374SOL     OW39580   2.397   2.260  16.386  0.2179  0.2340 -0.2526
 9374SOL    HW139581   2.342   2.241  16.461 -2.3026  2.2880 -1.5630
 9374SOL    HW239582   2.398   2.356  16.384 -1.4253  0.2839  1.8400
 9375SOL     OW39583   1.662   3.847   2.351  0.1850  0.1613  0.1737
 9375SOL    HW139584   1.648   3.897   2.271 -1.5133  1.2080  1.1314
 9375SOL    HW239585   1.573   3.812   2.359 -0.6783  1.4973 -3.4074
 9376SOL     OW39586   4.524   3.190   3.273  0.6023 -0.2773  0.5811
 9376SOL    HW139587   4.468   3.121   3.308  0.3970 -1.8811 -2.9905
 9376SOL    HW239588   4.567   3.130   3.212 -0.2726  1.1795 -1.4519
 9377SOL     OW39589   1.593   3.731   1.158  0.1352  0.0604 -0.2489
 9377SOL    HW139590   1.682   3.760   1.177  0.7040 -2.9315  1.6725
 9377SOL    HW239591   1.609   3.642   1.188 -0.2486  0.1445  0.2089
 9378SOL     OW39592   1.077   0.923   7.140  0.5794  0.6883 -0.3903
 9378SOL    HW139593   1.056   0.909   7.048  0.6441  1.0560 -0.4622
 9378SOL    HW239594   1.008   0.868   7.177  2.2459 -0.9503  0.2560
 9379SOL     OW39595   1.150   0.448  11.014  0.7383 -0.0583  0.4601
 9379SOL    HW139596   1.089   0.403  10.957  0.0340 -0.2038  1.3243
 9379SOL    HW239597   1.102   0.451  11.097  1.0180  2.1087  0.5543
 9380SOL     OW39598   2.521   0.608   7.349 -0.0874  0.5005 -0.1707
 9380SOL    HW139599   2.608   0.596   7.312  0.0168 -4.6091  1.7354
 9380SOL    HW239600   2.471   0.585   7.270 -0.3134 -0.7688  0.3392
 9381SOL     OW39601   3.408   0.369  14.794  0.2189  0.4227 -0.8829
 9381SOL    HW139602   3.461   0.435  14.838  0.6906 -0.6405  0.1722
 9381SOL    HW239603   3.315   0.390  14.794  0.3458  1.0111  1.3440
 9382SOL     OW39604   0.378   4.653  15.748 -0.0535 -0.5741  0.1079
 9382SOL    HW139605   0.365   4.572  15.698 -0.6058 -1.4890  1.7633
 9382SOL    HW239606   0.417   4.713  15.683  0.1513 -1.9039 -0.9941
 9383SOL     OW39607   3.883   1.165   1.262  0.0406  0.5449 -0.2119
 9383SOL    HW139608   3.815   1.149   1.197 -0.1107 -1.0689  0.3348
 9383SOL    HW239609   3.833   1.132   1.336 -0.6215 -1.6865 -1.6551
 9384SOL     OW39610   0.751   2.360   6.342 -0.5458 -0.1720 -0.4246
 9384SOL    HW139611   0.822   2.359   6.406 -0.6443 -1.2154 -0.3285
 9384SOL    HW239612   0.783   2.364   6.252  2.2655  0.9350  0.6349
 9385SOL     OW39613   0.975   2.635  15.031  0.5094  0.2508  0.1821
 9385SOL    HW139614   0.971   2.722  15.071 -0.7475 -1.2778  3.4412
 9385SOL    HW239615   0.890   2.645  14.988  2.2139 -1.0696 -3.4575
 9386SOL     OW39616   4.721   1.516  15.347  0.1877 -0.3677 -0.1419
 9386SOL    HW139617   0.002   1.543  15.439  0.7087 -0.2231 -0.2119
 9386SOL    HW239618   4.670   1.592  15.319 -0.2258  0.7032  3.5945
 9387SOL     OW39619   1.067   4.489   6.847 -0.0935 -0.2509  0.5071
 9387SOL    HW139620   1.162   4.487   6.861 -0.0564 -0.5970  0.2298
 9387SOL    HW239621   1.050   4.579   6.819  1.8532  0.5481  1.9529
 9388SOL     OW39622   0.137   3.721   5.006 -0.3210 -0.0738  0.4765
 9388SOL    HW139623   0.075   3.667   5.054 -0.5643  0.9152  1.2826
 9388SOL    HW239624   0.103   3.809   5.022  0.0691 -0.2018  2.0236
 9389SOL     OW39625   0.079   1.908   8.419 -0.0303 -0.6756  0.5239
 9389SOL    HW139626   0.168   1.919   8.452 -0.2361 -0.2311  0.9175
 9389SOL    HW239627   0.025   1.979   8.454 -0.6348 -0.5938 -0.5668
 9390SOL     OW39628   3.043   0.154   6.032 -0.2206  0.5066  0.0893
 9390SOL    HW139629   3.089   0.070   6.027  1.2169  1.2582  0.6754
 9390SOL    HW239630   3.119   0.202   5.998  0.1181  0.1861  0.3895
 9391SOL     OW39631   4.375   4.619   0.934  0.4776  0.3702 -0.3745
 9391SOL    HW139632   4.304   4.555   0.936 -0.8305  1.7845 -2.0879
 9391SOL    HW239633   4.440   4.572   0.986 -1.3768 -1.8180 -0.0543
 9392SOL     OW39634   2.733   2.268   8.079 -0.1103 -0.3437 -0.1690
 9392SOL    HW139635   2.664   2.332   8.096 -0.6228 -0.5634 -1.3844
 9392SOL    HW239636   2.684   2.187   8.093  0.7579 -0.4387  2.2246
 9393SOL     OW39637   1.086   4.147   3.746  0.4912  0.1853  0.4345
 9393SOL    HW139638   1.075   4.115   3.836 -1.4242  2.1376  0.8781
 9393SOL    HW239639   1.014   4.103   3.701  1.8152 -0.4601 -1.0452
 9394SOL     OW39640   4.593   2.062   8.493  0.3452 -0.0717  0.0155
 9394SOL    HW139641   4.497   2.058   8.494  0.2862  1.4725  1.0312
 9394SOL    HW239642   4.611   2.010   8.572 -0.9331 -1.6199 -0.7053
 9395SOL     OW39643   1.368   2.255  11.652 -0.0340  0.4173 -0.8144
 9395SOL    HW139644   1.435   2.321  11.672  1.6059 -1.2883 -0.6746
 9395SOL    HW239645   1.408   2.179  11.693 -0.3840  1.6794  1.8546
 9396SOL     OW39646   1.192   0.753   2.890 -0.0568 -0.2590  0.7144
 9396SOL    HW139647   1.231   0.692   2.952  2.3229 -1.3766 -1.8807
 9396SOL    HW239648   1.269   0.789   2.847  0.0746  0.9437  1.9798
 9397SOL     OW39649   0.456   2.001   8.977  0.2025 -0.5803  0.2376
 9397SOL    HW139650   0.489   2.075   9.027 -0.1663  0.0520 -0.4500
 9397SOL    HW239651   0.519   1.933   9.003 -1.7765 -2.1122  1.0586
 9398SOL     OW39652   0.476   4.050   6.823  0.1382 -0.0328  0.6922
 9398SOL    HW139653   0.437   4.130   6.857  0.2495  0.3740 -0.1446
 9398SOL    HW239654   0.462   4.058   6.729  1.1693  1.7988  0.6950
 9399SOL     OW39655   0.527   2.286   4.829  0.0077  0.2811 -0.5404
 9399SOL    HW139656   0.463   2.347   4.867 -0.1574  0.3966 -1.0065
 9399SOL    HW239657   0.551   2.244   4.912 -2.4265  1.1182  0.5883
 9400SOL     OW39658   4.549   2.262   2.649  0.9007  0.0570  0.5494
 9400SOL    HW139659   4.501   2.329   2.696  2.3524  2.0721 -0.8550
 9400SOL    HW239660   4.497   2.182   2.659  0.4423  0.5042  1.6878
 9401SOL     OW39661   4.503   4.664  10.755  0.1508  0.3022  0.4374
 9401SOL    HW139662   4.411   4.686  10.741  0.1522 -0.1841 -0.3363
 9401SOL    HW239663   4.539   4.658  10.666 -0.5414 -1.1133  0.2444
 9402SOL     OW39664   3.854   3.533   3.858  0.1615 -0.1712  0.7140
 9402SOL    HW139665   3.887   3.582   3.783 -0.3664  1.5198  1.5844
 9402SOL    HW239666   3.829   3.456   3.808 -1.4289  0.1234  1.0345
 9403SOL     OW39667   0.108   0.737   0.209 -0.2717 -0.5275  0.3815
 9403SOL    HW139668   0.117   0.678   0.284  1.6645 -1.3202 -0.4746
 9403SOL    HW239669   0.127   0.672   0.141 -0.2788 -1.4517  1.2539
 9404SOL     OW39670   3.446   2.655   7.651 -0.0684  0.4640 -0.5203
 9404SOL    HW139671   3.539   2.634   7.644  0.0632  0.1943  2.2661
 9404SOL    HW239672   3.423   2.596   7.723  1.9657 -1.1135 -1.1590
 9405SOL     OW39673   0.826   3.235   6.004 -0.2513  0.5276  0.6129
 9405SOL    HW139674   0.737   3.262   5.980  0.1727  1.3828 -0.0239
 9405SOL    HW239675   0.841   3.169   5.937  0.7820  3.1886 -1.7939
 9406SOL     OW39676   4.028   2.392  11.465 -0.3061  0.0324 -0.0420
 9406SOL    HW139677   4.033   2.323  11.399  0.2828 -0.2473  0.2945
 9406SOL    HW239678   3.994   2.462  11.409  1.5570  0.3474 -0.7963
 9407SOL     OW39679   2.322   2.511  16.430  0.4935  0.0532  0.0283
 9407SOL    HW139680   2.233   2.508  16.395  0.0508 -2.3501  1.3344
 9407SOL    HW239681   2.368   2.550  16.356  0.2447 -1.1439 -0.7622
 9408SOL     OW39682   3.269   4.340  12.714  0.0421 -0.2018  0.0165
 9408SOL    HW139683   3.289   4.275  12.781  0.3024  0.1296  0.2589
 9408SOL    HW239684   3.179   4.324  12.685 -0.2928  1.3939  0.1807
 9409SOL     OW39685   0.085   1.200   4.443 -0.1957 -0.3649  0.2854
 9409SOL    HW139686   0.120   1.111   4.455 -0.6134 -0.5911 -0.1609
 9409SOL    HW239687   0.167   1.243   4.420  0.6464 -0.2210  3.5478
 9410SOL     OW39688   2.294   0.841   7.134 -0.0761 -0.0548  0.5935
 9410SOL    HW139689   2.199   0.851   7.143 -0.1194 -0.1710  0.2775
 9410SOL    HW239690   2.324   0.880   7.216  0.7031  0.9300 -0.1478
 9411SOL     OW39691   3.811   4.325   0.016  0.3093 -0.0190 -0.3104
 9411SOL    HW139692   3.896   4.369   0.024  0.1995  0.3247 -0.9964
 9411SOL    HW239693   3.745   4.393  17.692 -0.5305 -0.4583  1.0269
 9412SOL     OW39694   0.602   3.668  12.665  0.2616  0.5956 -0.4683
 9412SOL    HW139695   0.622   3.730  12.595  0.7758  1.7399  0.7036
 9412SOL    HW239696   0.621   3.724  12.740 -1.8717 -0.4513  0.8474
 9413SOL     OW39697   1.013   0.473  11.888  0.1242  0.1753 -0.1542
 9413SOL    HW139698   1.031   0.490  11.795  0.5226 -0.3309 -0.1707
 9413SOL    HW239699   0.980   0.559  11.915  1.5141  1.1281 -1.4623
 9414SOL     OW39700   0.718   4.230   4.726 -0.6937  0.1064 -0.1373
 9414SOL    HW139701   0.708   4.247   4.819 -0.6031 -0.8679  0.0536
 9414SOL    HW239702   0.803   4.187   4.729 -1.0388 -0.4168  2.4561
 9415SOL     OW39703   1.261   0.874   4.538  0.1267 -0.5260 -0.1763
 9415SOL    HW139704   1.235   0.896   4.627 -2.8218  1.6197 -1.5789
 9415SOL    HW239705   1.305   0.957   4.520  2.1917 -1.5519  0.2301
 9416SOL     OW39706   2.101   2.077   3.614  0.5236 -0.5001  0.5690
 9416SOL    HW139707   2.148   2.069   3.531 -0.7942 -1.3181 -0.1056
 9416SOL    HW239708   2.059   1.991   3.608 -2.7451  1.0813  0.4728
 9417SOL     OW39709   4.386   0.353  16.747  0.0909 -0.1886  0.4833
 9417SOL    HW139710   4.290   0.346  16.747  0.1503 -0.9645  0.8553
 9417SOL    HW239711   4.393   0.428  16.806  1.2275  0.5191 -0.5679
 9418SOL     OW39712   2.977   0.391   7.597 -0.7530 -0.0325  0.1738
 9418SOL    HW139713   2.928   0.411   7.677  0.4479 -0.2561  0.9590
 9418SOL    HW239714   3.070   0.404   7.616 -0.6717  1.6737 -1.3957
 9419SOL     OW39715   2.467   2.841   0.946 -0.4347  0.0657  0.4093
 9419SOL    HW139716   2.531   2.907   0.919  1.8234 -2.2373  0.0455
 9419SOL    HW239717   2.413   2.849   0.868 -0.9055  0.0211  0.7311
 9420SOL     OW39718   1.197   3.878  16.949 -0.5070 -0.7376 -0.1065
 9420SOL    HW139719   1.241   3.922  16.875 -1.4019 -1.5269 -1.1013
 9420SOL    HW239720   1.190   3.950  17.012  0.4209 -1.3243  0.6664
 9421SOL     OW39721   3.836   3.751   4.008  0.3325  0.0609  0.3388
 9421SOL    HW139722   3.760   3.788   3.962  1.9233  0.1537 -2.2073
 9421SOL    HW239723   3.830   3.664   3.969 -1.8299 -0.8056  2.5845
 9422SOL     OW39724   0.199   3.942   6.102  0.3561 -0.3869 -0.0584
 9422SOL    HW139725   0.181   3.976   6.014  0.2943 -3.5474 -1.2610
 9422SOL    HW239726   0.115   3.900   6.120  0.5685 -1.6670 -2.0776
 9423SOL     OW39727   4.190   1.029   2.804  0.6058 -0.2228  0.1129
 9423SOL    HW139728   4.194   1.103   2.865 -2.0201  1.9408 -2.3620
 9423SOL    HW239729   4.137   1.059   2.731 -1.5079 -1.4709  1.1266
 9424SOL     OW39730   3.507   0.243  12.171  0.0720  0.0327  0.4886
 9424SOL    HW139731   3.516   0.320  12.227  0.3376 -0.5220  1.2063
 9424SOL    HW239732   3.538   0.177  12.233  0.7548 -1.4507 -1.4383
 9425SOL     OW39733   1.146   2.368   8.209 -0.4045 -0.2259  0.4404
 9425SOL    HW139734   1.206   2.379   8.283  0.1482  3.1006 -0.4670
 9425SOL    HW239735   1.198   2.402   8.136 -0.5591  1.1677  0.9798
 9426SOL     OW39736   2.985   4.230   8.657  0.4161 -0.0458  0.0690
 9426SOL    HW139737   3.035   4.148   8.649  1.6284  0.6185  0.7505
 9426SOL    HW239738   2.936   4.209   8.737  1.0234  0.0917  0.4788
 9427SOL     OW39739   3.374   3.538   8.828  0.7705  0.5011  0.4184
 9427SOL    HW139740   3.405   3.600   8.894 -0.0375  1.4055 -0.0501
 9427SOL    HW239741   3.327   3.602   8.775 -2.4082 -1.5469  0.7511
 9428SOL     OW39742   4.356   0.887  15.091 -0.1804 -0.5704  0.2714
 9428SOL    HW139743   4.393   0.938  15.164  0.7587 -2.2841  0.9861
 9428SOL    HW239744   4.375   0.943  15.016 -0.1433  0.3379  0.9512
 9429SOL     OW39745   0.215   0.902  10.793 -0.5650  0.1717  0.1401
 9429SOL    HW139746   0.126   0.937  10.786 -1.4700 -2.3365 -0.8267
 9429SOL    HW239747   0.258   0.987  10.804 -1.4959  0.5656  0.7276
 9430SOL     OW39748   1.979   3.114   5.249 -0.6181  0.4996 -0.3705
 9430SOL    HW139749   1.956   3.176   5.180  1.1497  2.5332  0.9067
 9430SOL    HW239750   2.029   3.163   5.314  1.3167  1.1323 -2.3553
 9431SOL     OW39751   0.026   4.692   6.306 -0.7568 -0.5489  0.1926
 9431SOL    HW139752   4.699   0.013   6.375  0.5038  0.9586  0.1547
 9431SOL    HW239753   0.063   4.620   6.358  3.8043  1.7363  0.1320
 9432SOL     OW39754   4.115   3.173   6.359  0.2688  0.1056  0.5038
 9432SOL    HW139755   4.193   3.119   6.373 -0.9196 -1.7046  0.1525
 9432SOL    HW239756   4.120   3.186   6.265 -1.8853 -0.5223  0.2975
 9433SOL     OW39757   4.592   0.152   5.531 -0.3542 -0.1541  0.3148
 9433SOL    HW139758   4.682   0.174   5.507 -0.0050 -0.3130  1.4980
 9433SOL    HW239759   4.593   0.180   5.622  2.6994 -1.3393  0.6571
 9434SOL     OW39760   1.438   2.362   4.994  0.2525 -0.1860  0.1026
 9434SOL    HW139761   1.419   2.455   5.007  0.8003 -0.2180  1.1501
 9434SOL    HW239762   1.533   2.365   4.989  0.2481  2.5322  1.7865
 9435SOL     OW39763   0.266   0.400   2.342 -0.6947 -0.0030 -0.3270
 9435SOL    HW139764   0.317   0.467   2.296 -0.1068  0.8873  1.6396
 9435SOL    HW239765   0.340   0.345   2.365 -1.1889 -0.7848 -0.5906
 9436SOL     OW39766   4.426   0.779   4.544  0.4170 -0.2839  0.3249
 9436SOL    HW139767   4.499   0.717   4.557  0.3731 -0.5307 -0.5832
 9436SOL    HW239768   4.480   0.848   4.504 -1.4033  0.3575 -1.0035
 9437SOL     OW39769   0.240   3.981   6.939  0.0728  0.1976  0.6836
 9437SOL    HW139770   0.314   3.973   6.879  0.4769  1.8758  0.9375
 9437SOL    HW239771   0.187   4.044   6.890  0.2830 -0.0499  0.1478
 9438SOL     OW39772   0.417   2.777   7.478  0.0793 -0.3367  0.3828
 9438SOL    HW139773   0.475   2.849   7.453 -0.8542  0.9237  1.8196
 9438SOL    HW239774   0.452   2.705   7.426  0.4280  0.3846 -0.3782
 9439SOL     OW39775   0.225   0.649  11.704  0.2569  0.3273 -0.5721
 9439SOL    HW139776   0.147   0.704  11.701 -0.4707 -0.6341  0.9313
 9439SOL    HW239777   0.280   0.704  11.647 -1.0741  2.2333 -0.0407
 9440SOL     OW39778   4.663   2.759  15.924  0.3433  0.2874  0.1166
 9440SOL    HW139779   4.668   2.671  15.887  2.4681  0.1860  0.6390
 9440SOL    HW239780   4.572   2.765  15.953 -0.0488  1.1479 -1.2672
 9441SOL     OW39781   0.851   2.978  16.003 -0.3806 -0.2579  0.3737
 9441SOL    HW139782   0.941   2.954  16.025 -0.4635  1.4388  2.5178
 9441SOL    HW239783   0.857   2.987  15.907 -0.9585 -1.4013  0.2298
 9442SOL     OW39784   0.738   0.074   6.446  0.0011  0.1792  0.2205
 9442SOL    HW139785   0.668   0.019   6.482 -0.1091  1.1405  1.4681
 9442SOL    HW239786   0.723   0.068   6.351 -0.3374  2.1561  0.1378
 9443SOL     OW39787   2.302   4.693  14.442 -0.1876 -0.0774  0.2897
 9443SOL    HW139788   2.286   0.044  14.501  1.6494 -1.1589  2.1555
 9443SOL    HW239789   2.392   4.669  14.466  0.0398  1.0993  0.6369
 9444SOL     OW39790   1.533   2.618   7.158 -0.2451  0.3104 -0.0514
 9444SOL    HW139791   1.455   2.648   7.112  0.4557  1.4146 -0.5097
 9444SOL    HW239792   1.503   2.583   7.242  1.2975  2.1196  1.2578
 9445SOL     OW39793   2.540   3.317   0.927  0.4228 -0.4703  0.7457
 9445SOL    HW139794   2.529   3.386   0.862  0.8703  0.1450  1.3241
 9445SOL    HW239795   2.460   3.264   0.923 -0.7920  1.4180  0.2747
 9446SOL     OW39796   2.050   0.606   7.051 -0.1478 -0.4075 -0.0268
 9446SOL    HW139797   2.104   0.634   7.125  0.2711 -1.3013  0.0041
 9446SOL    HW239798   2.117   0.585   6.986  2.5272  1.6097  2.0664
 9447SOL     OW39799   0.779   4.179   4.446 -0.1604  0.2549 -0.2796
 9447SOL    HW139800   0.771   4.192   4.541 -2.2778 -2.6878 -0.0548
 9447SOL    HW239801   0.716   4.243   4.411  0.2077  0.7486 -0.0377
 9448SOL     OW39802   3.697   2.934   7.641  0.5851  0.3152 -0.4062
 9448SOL    HW139803   3.787   2.951   7.669 -0.0631  0.9256  1.3527
 9448SOL    HW239804   3.710   2.870   7.572 -0.1866  0.8014 -1.0007
 9449SOL     OW39805   0.953   4.099   6.908 -0.6572 -0.2639 -0.5468
 9449SOL    HW139806   0.871   4.058   6.935 -0.3086 -1.8053 -1.7793
 9449SOL    HW239807   0.975   4.156   6.982 -1.8464 -2.5289  1.5495
 9450SOL     OW39808   4.177   2.616   3.458  0.2889 -0.1985  0.1549
 9450SOL    HW139809   4.223   2.534   3.477  0.4240 -0.5274 -1.5774
 9450SOL    HW239810   4.140   2.589   3.374  1.2290  1.8458 -0.8979
 9451SOL     OW39811   4.226   1.439   6.101  0.1085 -0.0332 -0.7311
 9451SOL    HW139812   4.279   1.370   6.060  2.4437  0.1605  1.9233
 9451SOL    HW239813   4.167   1.474   6.034 -1.7036  1.7871  1.8123
 9452SOL     OW39814   3.217   4.530   2.831 -0.7661  0.0851  0.1677
 9452SOL    HW139815   3.266   4.607   2.861  1.9325 -1.8319  0.7611
 9452SOL    HW239816   3.260   4.453   2.869 -1.3235 -0.5947 -0.5862
 9453SOL     OW39817   1.849   2.720   8.016 -0.1874  0.1843 -0.4841
 9453SOL    HW139818   1.937   2.715   7.980  0.3872 -0.6780  1.0388
 9453SOL    HW239819   1.817   2.788   7.957  1.4439 -1.0106 -2.7203
 9454SOL     OW39820   4.614   0.298   5.202 -0.5044  0.4304 -0.1413
 9454SOL    HW139821   4.544   0.234   5.194 -0.6190  0.6310 -0.7323
 9454SOL    HW239822   4.679   0.253   5.257 -0.2320 -1.6955 -2.2187
 9455SOL     OW39823   3.112   0.321   7.323  0.2374  0.3720 -0.3236
 9455SOL    HW139824   3.105   0.416   7.311  1.1373  0.2362 -2.0302
 9455SOL    HW239825   3.061   0.295   7.399 -0.9695  1.6467 -0.6930
 9456SOL     OW39826   0.169   3.768  15.323  0.4818 -0.4726 -0.3617
 9456SOL    HW139827   0.074   3.762  15.312  0.4019  0.1056  0.0147
 9456SOL    HW239828   0.176   3.847  15.377 -1.0885 -2.3710  2.5417
 9457SOL     OW39829   1.002   4.404   3.646 -0.1147  0.1832 -0.2896
 9457SOL    HW139830   1.022   4.321   3.689 -1.5031  0.8173  1.5653
 9457SOL    HW239831   0.912   4.383   3.620 -1.0795  2.0067  1.6600
 9458SOL     OW39832   4.438   3.327   8.882 -0.7406  0.4852  0.4614
 9458SOL    HW139833   4.475   3.325   8.794 -2.7063  1.5975 -0.3923
 9458SOL    HW239834   4.351   3.363   8.868 -0.9245  0.2244  0.9386
 9459SOL     OW39835   1.767   3.794   2.599 -0.9172 -0.4222  0.2306
 9459SOL    HW139836   1.736   3.879   2.632  1.3289  1.4541 -2.4708
 9459SOL    HW239837   1.754   3.796   2.504 -0.2507  1.7012  0.1819
 9460SOL     OW39838   2.356   4.389   7.054  0.3521  0.0307 -0.2181
 9460SOL    HW139839   2.416   4.317   7.075  1.4712  0.7292 -1.0488
 9460SOL    HW239840   2.294   4.379   7.126  2.3613 -0.5973  1.4214
 9461SOL     OW39841   4.624   4.079  16.271  0.6305  0.1921  0.2204
 9461SOL    HW139842   4.537   4.047  16.295  0.5860  0.4743  0.4286
 9461SOL    HW239843   4.611   4.077  16.176  1.4875  0.5076  0.0994
 9462SOL     OW39844   4.597   1.560  17.580  0.0218 -0.1508  0.5369
 9462SOL    HW139845   4.551   1.585  17.500  0.7816 -0.0075  0.1417
 9462SOL    HW239846   4.536   1.565  17.654  1.3443 -1.4215  1.7176
 9463SOL     OW39847   2.832   3.018   3.076  0.4622  0.2597  0.8042
 9463SOL    HW139848   2.843   2.954   3.006  0.8298  1.0784  0.1128
 9463SOL    HW239849   2.833   2.952   3.145  0.9930  0.9377  1.4493
 9464SOL     OW39850   4.615   0.234  16.904 -0.0545 -0.2478  0.3894
 9464SOL    HW139851   4.611   0.171  16.833 -2.0048 -1.9283  2.0137
 9464SOL    HW239852   4.526   0.263  16.886 -1.0262 -2.1625  2.1279
 9465SOL     OW39853   2.721   1.511   7.029  0.4630 -0.1685 -0.4110
 9465SOL    HW139854   2.806   1.519   7.072 -0.0504  2.0651  0.2136
 9465SOL    HW239855   2.667   1.557   7.093  1.3688 -1.5992  1.3598
 9466SOL     OW39856   2.153   0.349   3.881 -0.0381  0.1578  0.2112
 9466SOL    HW139857   2.088   0.396   3.934 -1.5230 -2.2601  0.5283
 9466SOL    HW239858   2.192   0.422   3.833 -0.6895 -0.3598 -1.0912
 9467SOL     OW39859   2.909   3.683  14.070  0.1401  0.4940 -0.4309
 9467SOL    HW139860   2.886   3.590  14.073  0.8040  0.3471  0.0210
 9467SOL    HW239861   2.850   3.719  14.137  0.2197  0.5419 -0.3866
 9468SOL     OW39862   0.965   2.515   6.550 -0.3496  0.4144  0.6153
 9468SOL    HW139863   0.958   2.606   6.521  0.5547  0.0042 -0.8908
 9468SOL    HW239864   1.053   2.491   6.520 -2.1342 -4.2771 -0.8870
 9469SOL     OW39865   3.011   2.171   6.513 -0.0628  0.3067 -0.5442
 9469SOL    HW139866   3.023   2.079   6.537 -2.1960  0.2351  0.2642
 9469SOL    HW239867   2.972   2.159   6.427  1.8792  0.9492 -1.5310
 9470SOL     OW39868   2.979   1.611   4.831  0.2049  0.4442  0.2775
 9470SOL    HW139869   2.956   1.657   4.751  1.0076  0.9193  0.3215
 9470SOL    HW239870   3.055   1.571   4.789 -0.4700 -0.1442 -0.4102
 9471SOL     OW39871   2.532   1.877   2.060 -0.2435 -0.3551  0.0083
 9471SOL    HW139872   2.534   1.828   1.977 -2.3893  0.1230 -0.3380
 9471SOL    HW239873   2.451   1.929   2.058 -0.0955 -0.1329 -0.1859
 9472SOL     OW39874   4.115   3.551   7.656 -0.1177  0.6289 -0.1031
 9472SOL    HW139875   4.101   3.588   7.568  0.0676 -1.7358 -1.1341
 9472SOL    HW239876   4.084   3.624   7.710  2.6553  1.7045  0.0420
 9473SOL     OW39877   0.587   2.218   5.832 -0.2440 -0.5478 -0.0254
 9473SOL    HW139878   0.495   2.195   5.821 -0.6152  0.8478  0.1821
 9473SOL    HW239879   0.597   2.206   5.927  0.4769  0.1365 -0.0088
 9474SOL     OW39880   1.768   2.310   4.370  0.0839  0.4369 -0.0775
 9474SOL    HW139881   1.711   2.238   4.396  2.0969 -0.6341  1.3455
 9474SOL    HW239882   1.834   2.272   4.312  0.9550 -1.3360  2.0587
 9475SOL     OW39883   1.869   1.070   8.201 -0.7034  0.0750 -0.1499
 9475SOL    HW139884   1.953   1.070   8.247 -0.6933  0.7071 -0.1724
 9475SOL    HW239885   1.846   1.161   8.184  0.0486 -0.2179 -2.6176
 9476SOL     OW39886   2.501   4.477   4.584 -0.3755 -0.0137  0.3690
 9476SOL    HW139887   2.449   4.406   4.546 -1.5867  1.6453 -1.1278
 9476SOL    HW239888   2.539   4.446   4.666 -0.3266 -1.5343 -0.2331
 9477SOL     OW39889   1.324   0.901   7.871  0.5030  0.4838 -1.0564
 9477SOL    HW139890   1.397   0.874   7.815  0.7459 -1.3029  0.1252
 9477SOL    HW239891   1.371   0.952   7.936  1.2266 -0.6581 -0.6747
 9478SOL     OW39892   3.530   3.599  15.465 -0.4025 -0.5461 -0.0621
 9478SOL    HW139893   3.562   3.670  15.519  0.4533 -0.8694 -0.1484
 9478SOL    HW239894   3.469   3.649  15.410  2.0234  2.5593  0.1026
 9479SOL     OW39895   0.895   3.979  17.046 -0.3928  0.8902 -0.4108
 9479SOL    HW139896   0.880   3.978  16.951 -2.5348  0.5360 -0.0766
 9479SOL    HW239897   0.834   4.051  17.063 -0.5796  0.3168  1.2953
 9480SOL     OW39898   1.125   2.058   3.443  0.1486  0.5306  0.3761
 9480SOL    HW139899   1.152   1.971   3.413 -1.0673 -0.2580  1.6403
 9480SOL    HW239900   1.073   2.046   3.522  0.4151 -2.3295  0.1232
 9481SOL     OW39901   0.371   4.026  12.617  0.1627 -0.4960 -0.2233
 9481SOL    HW139902   0.437   4.042  12.684  0.8268 -0.3242 -0.9153
 9481SOL    HW239903   0.384   4.107  12.567  0.7880  0.6677  1.8508
 9482SOL     OW39904   0.261   2.600   3.649  0.2387 -0.0930  0.1871
 9482SOL    HW139905   0.312   2.651   3.587  0.6172 -0.1151  0.4863
 9482SOL    HW239906   0.309   2.518   3.661  2.8851  1.1990 -1.7721
 9483SOL     OW39907   4.687   1.143   9.840  0.0313 -0.6560  0.3786
 9483SOL    HW139908   4.711   1.051   9.850 -0.2544 -0.5708  1.9020
 9483SOL    HW239909   4.608   1.137   9.786 -0.4735  3.5257  0.6581
 9484SOL     OW39910   2.332   1.837   1.512 -0.0046 -0.1387 -0.7390
 9484SOL    HW139911   2.285   1.808   1.591 -0.5602  1.1529 -0.5912
 9484SOL    HW239912   2.303   1.772   1.448 -0.4676 -0.4227 -0.2486
 9485SOL     OW39913   3.001   4.539   2.692  0.1331  0.3020 -0.3696
 9485SOL    HW139914   2.943   4.471   2.727 -0.8490  0.7566 -1.1051
 9485SOL    HW239915   3.071   4.538   2.757 -1.4679  1.8260  1.3806
 9486SOL     OW39916   3.432   0.189   7.958  0.1044 -0.2631  0.0960
 9486SOL    HW139917   3.363   0.218   8.018  0.8233 -0.3295  0.9592
 9486SOL    HW239918   3.440   0.258   7.893  0.8472  1.0934  1.6048
 9487SOL     OW39919   0.059   4.547   9.920 -0.1573  0.2834  0.3490
 9487SOL    HW139920   0.092   4.508   9.839 -2.7330 -1.1317 -0.0046
 9487SOL    HW239921   0.047   4.640   9.899  0.9758  0.4183  0.2755
 9488SOL     OW39922   4.370   0.175   8.090 -0.4436 -0.2779  0.0851
 9488SOL    HW139923   4.301   0.237   8.113 -2.3357 -1.1665 -3.2485
 9488SOL    HW239924   4.340   0.100   8.142  1.0581 -1.6863 -1.1041
 9489SOL     OW39925   4.190   3.108  10.165  0.3738  0.2759 -0.2684
 9489SOL    HW139926   4.280   3.075  10.160  1.6614  3.6593  0.3528
 9489SOL    HW239927   4.203   3.198  10.196 -3.6540  0.9866 -0.7376
 9490SOL     OW39928   2.083   4.302   7.696  0.2132 -0.2871 -0.0080
 9490SOL    HW139929   2.091   4.379   7.751  1.1766 -0.5721  0.2445
 9490SOL    HW239930   1.988   4.287   7.700  0.2981 -0.6013  0.8080
 9491SOL     OW39931   2.673   0.259  17.061  0.2194 -0.1269  0.8912
 9491SOL    HW139932   2.660   0.299  17.147  3.9629  0.4377  1.2187
 9491SOL    HW239933   2.690   0.337  17.007  1.7377 -0.5727  0.7249
 9492SOL     OW39934   3.053   4.558  12.883  0.4036 -0.3579 -0.2061
 9492SOL    HW139935   2.994   4.537  12.955  0.6321 -2.1698 -0.5677
 9492SOL    HW239936   3.016   4.515  12.807 -0.2633 -0.1996  0.0319
 9493SOL     OW39937   4.194   2.041   7.390 -0.4012 -0.2417 -0.0570
 9493SOL    HW139938   4.270   2.047   7.448 -0.0297  0.6870 -0.6298
 9493SOL    HW239939   4.208   2.118   7.335  0.9981 -0.4108  0.0583
 9494SOL     OW39940   4.191   0.986  14.403 -0.3316  0.1689  0.4831
 9494SOL    HW139941   4.239   0.908  14.428 -0.8686 -0.6150 -0.9515
 9494SOL    HW239942   4.264   1.031  14.360 -0.3894  0.2205  0.4387
 9495SOL     OW39943   1.231   0.046   2.614 -0.3993  0.8381 -0.2856
 9495SOL    HW139944   1.224   0.134   2.577 -2.3914  0.7627 -0.0829
 9495SOL    HW239945   1.146   0.018   2.649 -0.0785  2.9495  2.1741
 9496SOL     OW39946   3.351   3.116   7.946 -0.3137  0.3902  0.3188
 9496SOL    HW139947   3.388   3.074   7.868 -0.8175 -1.0964  0.8788
 9496SOL    HW239948   3.278   3.058   7.967 -0.7209  0.7100 -0.2174
 9497SOL     OW39949   1.278   2.063   3.197  0.1124 -0.4206  0.4396
 9497SOL    HW139950   1.227   1.987   3.226 -0.0363  0.1045  1.5769
 9497SOL    HW239951   1.250   2.065   3.106  0.7835 -0.4279  0.2340
 9498SOL     OW39952   0.367   2.384   8.168 -0.2803  0.6617  0.4364
 9498SOL    HW139953   0.420   2.459   8.197  0.3013  0.4090  0.0309
 9498SOL    HW239954   0.314   2.424   8.099 -1.0783  1.6143  1.6112
 9499SOL     OW39955   0.481   4.634   4.602 -0.1993  0.0008  0.1332
 9499SOL    HW139956   0.571   4.613   4.628 -0.1463  1.0768  0.8041
 9499SOL    HW239957   0.469   4.707   4.662 -0.4853 -0.2694  0.4045
 9500SOL     OW39958   3.807   2.805   7.183  0.3569 -0.4817 -0.0956
 9500SOL    HW139959   3.847   2.802   7.097  2.3544 -0.1784  0.8089
 9500SOL    HW239960   3.828   2.895   7.208 -2.7928 -0.3946  2.2469
 9501SOL     OW39961   1.926   4.693   1.900 -0.1682  0.2717  0.3410
 9501SOL    HW139962   1.996   4.667   1.840  0.8661 -0.9226  2.0874
 9501SOL    HW239963   1.890   0.048   1.857 -0.2706  0.7249  1.2557
 9502SOL     OW39964   0.098   4.290   3.668  0.2806 -0.1033 -0.6255
 9502SOL    HW139965   0.181   4.255   3.701 -0.3470 -1.3589 -0.3898
 9502SOL    HW239966   0.093   4.233   3.591 -1.2568  0.9715 -1.3179
 9503SOL     OW39967   3.031   3.803   5.029 -0.2835 -0.8291 -0.2104
 9503SOL    HW139968   2.953   3.858   5.019  0.4317  0.5682  1.9259
 9503SOL    HW239969   3.037   3.783   5.122  0.7828  0.5637  0.0157
 9504SOL     OW39970   1.126   3.917   3.464 -0.1397  0.1452  0.1059
 9504SOL    HW139971   1.062   3.912   3.535 -1.5544 -0.8623 -1.2206
 9504SOL    HW239972   1.090   3.861   3.395  1.0744 -0.4877 -0.0264
 9505SOL     OW39973   1.052   4.105   6.269  0.0701  0.2152  0.0951
 9505SOL    HW139974   1.094   4.183   6.305 -0.7177  1.3208 -1.4042
 9505SOL    HW239975   0.959   4.123   6.282 -0.2032 -1.9447  1.2471
 9506SOL     OW39976   0.920   1.755   1.214  0.1330  0.0342 -0.3908
 9506SOL    HW139977   0.971   1.702   1.276  0.1239  0.8041  0.2837
 9506SOL    HW239978   0.830   1.732   1.234 -0.7822  1.0910 -3.3114
 9507SOL     OW39979   0.418   3.456   2.397 -0.2284 -0.2707  0.0326
 9507SOL    HW139980   0.395   3.442   2.306  0.7903 -1.0054 -0.1065
 9507SOL    HW239981   0.417   3.552   2.403  2.2244 -0.4034  2.9852
 9508SOL     OW39982   2.965   0.087   9.212 -0.0864 -0.4791 -0.5059
 9508SOL    HW139983   3.033   0.124   9.156 -1.0138  0.9966 -0.6341
 9508SOL    HW239984   3.015   0.027   9.268 -0.2914 -0.2311 -0.0580
 9509SOL     OW39985   3.243   1.364   1.367  0.0209  0.2680  0.1040
 9509SOL    HW139986   3.337   1.347   1.377 -0.0993  0.3112  1.2313
 9509SOL    HW239987   3.247   1.364   1.271  0.4088  0.0715  0.1212
 9510SOL     OW39988   1.372   2.690   8.495  0.2502 -0.3326  0.2792
 9510SOL    HW139989   1.371   2.715   8.587  2.3963 -0.4603  0.3336
 9510SOL    HW239990   1.463   2.704   8.467  0.5288 -1.9870  0.3883
 9511SOL     OW39991   2.800   0.838   3.587 -0.2137 -0.0275  0.0287
 9511SOL    HW139992   2.741   0.763   3.597  0.6498 -0.7794 -0.4859
 9511SOL    HW239993   2.735   0.906   3.570  0.5592 -0.0084 -2.9225
 9512SOL     OW39994   2.393   3.520  17.129 -0.1278  0.6294 -0.3380
 9512SOL    HW139995   2.466   3.463  17.150 -0.6134 -0.3958 -1.4428
 9512SOL    HW239996   2.369   3.550  17.216  0.7584  2.2475 -0.6519
 9513SOL     OW39997   2.830   2.419   3.011  0.1477 -0.3475 -0.9782
 9513SOL    HW139998   2.881   2.491   2.973 -0.1970 -0.1439 -1.0543
 9513SOL    HW239999   2.890   2.369   3.067  0.1479  0.9269  0.1467
 9514SOL     OW40000   2.507   0.005   1.141  0.4251 -0.0906 -0.2022
 9514SOL    HW140001   2.439   0.026   1.204  1.4696 -1.6655  1.4675
 9514SOL    HW240002   2.531   4.640   1.170  0.7420  0.4286  1.1212
 9515SOL     OW40003   2.765   4.320   5.030  0.0231  0.3881  0.3487
 9515SOL    HW140004   2.823   4.365   5.092  0.0010  0.2982  0.4347
 9515SOL    HW240005   2.821   4.338   4.955  0.3446 -1.1699  0.2181
 9516SOL     OW40006   4.681   0.524  16.273  0.3527 -0.0430  0.1258
 9516SOL    HW140007   4.603   0.521  16.328  0.3641 -0.5294  0.1153
 9516SOL    HW240008   4.652   0.512  16.183 -1.4581  2.5377  0.3936
 9517SOL     OW40009   1.300   3.164  13.966  0.4323 -0.0511 -0.3102
 9517SOL    HW140010   1.253   3.248  13.960 -0.5824 -0.6071 -0.2337
 9517SOL    HW240011   1.303   3.156  14.061 -1.2321  0.9754 -0.1712
 9518SOL     OW40012   1.015   3.596   8.417 -0.6967  0.2153  0.5316
 9518SOL    HW140013   1.085   3.634   8.469  0.2778  0.1946 -0.7577
 9518SOL    HW240014   0.954   3.563   8.483 -0.3943  0.5461  0.9788
 9519SOL     OW40015   3.215   1.980  10.198 -0.4041 -0.4492 -0.0535
 9519SOL    HW140016   3.237   2.020  10.282 -1.5629  2.5440 -1.1853
 9519SOL    HW240017   3.258   2.037  10.135  0.9195  0.5922  1.7767
 9520SOL     OW40018   4.597   3.488   4.650 -0.0960 -0.8916  0.0601
 9520SOL    HW140019   4.512   3.510   4.611 -0.0465 -0.7331  0.0382
 9520SOL    HW240020   4.591   3.544   4.728 -2.1738 -1.8725  0.6153
 9521SOL     OW40021   0.523   2.243   9.618 -0.3646 -0.1728 -0.3078
 9521SOL    HW140022   0.587   2.196   9.565 -0.7663  0.0121 -0.9563
 9521SOL    HW240023   0.484   2.291   9.546 -0.8651 -0.7243 -0.4017
 9522SOL     OW40024   4.433   0.785  14.386 -0.3351  1.4194  0.2559
 9522SOL    HW140025   4.525   0.779  14.410 -0.1535 -1.8918 -1.2439
 9522SOL    HW240026   4.434   0.729  14.308 -0.9699  0.6518  0.7903
 9523SOL     OW40027   2.285   1.206   3.956 -0.3404 -0.1921 -0.5297
 9523SOL    HW140028   2.239   1.133   3.996 -0.2846 -1.3283 -2.5591
 9523SOL    HW240029   2.357   1.171   3.903 -1.0756 -1.6954 -0.5123
 9524SOL     OW40030   2.021   0.231   2.575  0.1987  0.4396  0.0838
 9524SOL    HW140031   2.070   0.286   2.513 -1.7439  3.1399  0.9288
 9524SOL    HW240032   2.081   0.157   2.579 -1.0817 -0.7484 -2.4702
 9525SOL     OW40033   3.892   1.800   8.691  0.6009 -0.1814 -0.0164
 9525SOL    HW140034   3.861   1.838   8.773  0.4462  0.0955 -0.2033
 9525SOL    HW240035   3.893   1.887   8.652  3.5004 -0.9936 -1.7665
 9526SOL     OW40036   2.495   2.267   5.841 -0.0678 -0.1206  0.2352
 9526SOL    HW140037   2.430   2.335   5.860 -1.1166 -1.1697  0.4577
 9526SOL    HW240038   2.530   2.303   5.759 -0.3047 -2.1625 -0.7883
 9527SOL     OW40039   3.244   3.474  17.257 -0.6030 -0.3019  0.0944
 9527SOL    HW140040   3.202   3.514  17.181  0.3294 -0.6616 -0.6101
 9527SOL    HW240041   3.262   3.545  17.318  1.8891  1.3624 -2.5484
 9528SOL     OW40042   2.930   2.974   5.629 -0.4682  0.0569 -0.3551
 9528SOL    HW140043   2.857   2.981   5.567 -0.5130  0.7530 -0.2201
 9528SOL    HW240044   2.895   3.018   5.706 -0.0884  0.5597 -0.4684
 9529SOL     OW40045   1.937   0.714   4.955  0.0056  0.0548  0.3732
 9529SOL    HW140046   1.964   0.767   4.880 -1.0903  1.4516  0.9658
 9529SOL    HW240047   2.022   0.698   4.996 -0.4904  1.7450  2.0550
 9530SOL     OW40048   3.606   0.896   3.159 -0.2749  0.1731 -0.0175
 9530SOL    HW140049   3.565   0.817   3.124  0.3541  0.3415 -1.1250
 9530SOL    HW240050   3.569   0.894   3.248  0.0211 -0.5314  0.0855
 9531SOL     OW40051   2.231   3.443   4.151 -0.1738  0.1378  0.1414
 9531SOL    HW140052   2.171   3.380   4.190  2.6039 -2.8215 -0.3758
 9531SOL    HW240053   2.320   3.409   4.144 -0.1785  0.1092  0.2266
 9532SOL     OW40054   1.006   0.004  11.565 -0.1395 -0.1626 -0.1239
 9532SOL    HW140055   1.041   0.076  11.618 -3.8856  0.9629  0.8474
 9532SOL    HW240056   1.022   4.649  11.616  0.4955 -0.4071 -0.7024
 9533SOL     OW40057   4.714   4.218   9.479  0.3003 -0.2547 -0.1294
 9533SOL    HW140058   0.018   4.203   9.389  0.9491  1.4357 -0.2143
 9533SOL    HW240059   4.636   4.273   9.470  0.6957 -0.2472 -3.2915
 9534SOL     OW40060   3.471   0.569   1.177 -0.2834  0.2118  0.1012
 9534SOL    HW140061   3.511   0.650   1.209  1.1907 -0.3693 -0.2923
 9534SOL    HW240062   3.440   0.598   1.091  2.4026 -0.9270 -1.2518
 9535SOL     OW40063   0.013   3.144   1.676  0.4506 -0.2399  0.2003
 9535SOL    HW140064   0.059   3.062   1.659  0.4260 -0.2402  0.1341
 9535SOL    HW240065   4.699   3.133   1.764 -0.0252  1.7449  0.2424
 9536SOL     OW40066   4.386   1.379   7.428 -0.7740 -0.1457  0.2084
 9536SOL    HW140067   4.464   1.432   7.443 -0.6572 -0.6056  1.2822
 9536SOL    HW240068   4.416   1.294   7.395  0.4895  1.0998 -1.8134
 9537SOL     OW40069   4.529   1.377   3.103 -0.1868  0.6933  0.5576
 9537SOL    HW140070   4.439   1.393   3.078 -0.9694 -2.5722  1.2335
 9537SOL    HW240071   4.535   1.286   3.072  0.3644  1.2803 -1.0636
 9538SOL     OW40072   3.175   3.244   4.817  0.0202 -0.2538  0.2490
 9538SOL    HW140073   3.240   3.234   4.887  2.0924 -1.0426 -1.7731
 9538SOL    HW240074   3.244   3.284   4.763  1.4832 -2.6178  0.3616
 9539SOL     OW40075   0.365   2.006  14.481  0.5788  0.3084 -0.6803
 9539SOL    HW140076   0.285   1.956  14.465  1.0963 -0.9852  0.7370
 9539SOL    HW240077   0.430   1.950  14.438 -0.1935 -2.6786  2.0517
 9540SOL     OW40078   3.641   3.537   7.033 -0.1140 -0.1701  0.1777
 9540SOL    HW140079   3.555   3.580   7.027  0.0055  0.0612  0.1420
 9540SOL    HW240080   3.619   3.463   7.089 -0.9037  1.1082  1.5764
 9541SOL     OW40081   1.912   1.042   3.404 -0.2189  0.1865 -0.7282
 9541SOL    HW140082   1.974   0.984   3.449 -1.4022 -0.1464  0.4887
 9541SOL    HW240083   1.844   1.020   3.468  1.2382 -2.2810 -0.0350
 9542SOL     OW40084   0.192   0.787   1.987  0.2651  0.0206  0.4056
 9542SOL    HW140085   0.198   0.774   1.892 -0.4458  1.2588  0.1869
 9542SOL    HW240086   0.101   0.765   2.004 -0.0043  1.1124  0.3835
 9543SOL     OW40087   3.641   1.292   2.899  0.2316  0.1990  0.2839
 9543SOL    HW140088   3.657   1.205   2.935 -0.0712  0.5017  1.1679
 9543SOL    HW240089   3.698   1.340   2.960  0.0322  2.7358 -1.4964
 9544SOL     OW40090   0.297   2.724   9.042  0.6355 -0.2741 -0.6237
 9544SOL    HW140091   0.363   2.789   9.064  0.7184 -0.1221 -1.3013
 9544SOL    HW240092   0.347   2.672   8.979 -1.0921 -2.0923 -0.4937
 9545SOL     OW40093   2.580   1.536   6.535 -0.4492 -0.5249 -0.5645
 9545SOL    HW140094   2.515   1.553   6.603 -1.2166  1.1355 -1.7304
 9545SOL    HW240095   2.658   1.550   6.589 -0.7825 -4.2568  0.8717
 9546SOL     OW40096   0.208   4.416   2.310 -0.0093 -0.1859  0.3257
 9546SOL    HW140097   0.175   4.328   2.288 -0.8263  0.1485  0.2253
 9546SOL    HW240098   0.172   4.420   2.398  2.0847  2.4966  1.0322
 9547SOL     OW40099   2.603   3.385   2.635  0.4569  0.3840 -0.4376
 9547SOL    HW140100   2.683   3.382   2.687 -0.8809  0.3959  1.6232
 9547SOL    HW240101   2.621   3.321   2.566 -0.2801  0.5718 -0.8079
 9548SOL     OW40102   3.363   1.779   6.381  0.1842  0.1719 -0.0128
 9548SOL    HW140103   3.288   1.736   6.422  0.7953  0.5844  1.5604
 9548SOL    HW240104   3.363   1.867   6.420 -0.1595  0.5971 -0.9618
 9549SOL     OW40105   3.212   0.831  15.397  0.2638  0.2490 -0.2141
 9549SOL    HW140106   3.164   0.810  15.317 -1.8654 -0.8697  1.3657
 9549SOL    HW240107   3.293   0.875  15.369  1.2732 -0.2342  1.9081
 9550SOL     OW40108   2.484   0.802   7.702 -0.3683 -0.0721  0.4370
 9550SOL    HW140109   2.444   0.727   7.657  1.2546 -1.6412  1.5835
 9550SOL    HW240110   2.569   0.808   7.658 -0.9761 -1.9804 -1.0075
 9551SOL     OW40111   1.230   2.581   7.998  0.1259  0.1366  0.2970
 9551SOL    HW140112   1.149   2.623   8.028  0.6758  2.6981 -1.7872
 9551SOL    HW240113   1.190   2.506   7.954  1.0757 -0.2545  0.0876
 9552SOL     OW40114   0.719   0.664   2.752 -0.1733  0.5237 -0.1495
 9552SOL    HW140115   0.676   0.581   2.730  1.5403 -0.8206  1.5037
 9552SOL    HW240116   0.731   0.679   2.658  0.0552  0.4994 -0.1241
 9553SOL     OW40117   3.068   1.613   4.071 -0.3312 -0.1499  0.7352
 9553SOL    HW140118   3.070   1.554   4.146  0.8205 -0.4013  0.5114
 9553SOL    HW240119   2.995   1.579   4.020 -0.8248 -2.5177  3.0327
 9554SOL     OW40120   1.243   1.049   2.150 -0.0636  0.4516  0.3623
 9554SOL    HW140121   1.312   1.045   2.084 -0.5107  0.0939 -0.0884
 9554SOL    HW240122   1.295   1.022   2.226  2.3581 -1.3369 -1.9112
 9555SOL     OW40123   4.706   2.656   6.286 -0.2129 -0.2172  0.2030
 9555SOL    HW140124   4.644   2.622   6.351  0.3831 -0.6139  0.5556
 9555SOL    HW240125   0.032   2.575   6.277 -4.0771 -2.3911 -1.6142
 9556SOL     OW40126   3.935   1.274   9.116 -0.5135 -0.9081  0.2372
 9556SOL    HW140127   3.949   1.244   9.026  1.6547  1.8147 -0.3188
 9556SOL    HW240128   3.929   1.197   9.172 -0.3221  0.1115  1.6678
 9557SOL     OW40129   3.296   1.759   9.388 -0.4400  0.1522 -0.3998
 9557SOL    HW140130   3.286   1.750   9.483 -0.5107  0.4858 -0.3770
 9557SOL    HW240131   3.269   1.670   9.362 -0.7123  0.3475 -0.7844
 9558SOL     OW40132   4.075   2.849   1.086 -0.5090 -0.1877 -0.0890
 9558SOL    HW140133   4.140   2.788   1.052  0.0704  0.8457 -0.8388
 9558SOL    HW240134   3.994   2.807   1.056 -1.3216  0.3268  1.3871
 9559SOL     OW40135   3.112   0.792   4.069  0.4423  0.2044 -0.1924
 9559SOL    HW140136   3.183   0.728   4.081  2.1519  2.2952  0.7099
 9559SOL    HW240137   3.168   0.865   4.042  0.6297 -0.8825 -2.7448
 9560SOL     OW40138   3.470   0.922  13.326  0.8340 -0.1455  1.0701
 9560SOL    HW140139   3.460   0.863  13.400 -1.3000 -0.0350  0.8623
 9560SOL    HW240140   3.412   0.876  13.265 -1.4632  1.6281  1.9015
 9561SOL     OW40141   0.875   0.657  17.039  0.0536  0.6066 -0.5040
 9561SOL    HW140142   0.795   0.689  17.080 -0.7127 -1.7154 -0.1878
 9561SOL    HW240143   0.906   0.731  16.987 -4.6685  1.7507 -1.6796
 9562SOL     OW40144   3.045   3.909   8.542  0.0538  0.0772  0.2149
 9562SOL    HW140145   3.105   3.882   8.612  1.5402  0.4538 -0.9122
 9562SOL    HW240146   2.987   3.833   8.543  2.1808 -1.5888 -1.2623
 9563SOL     OW40147   0.189   0.957   5.626  0.1774 -0.5405  0.3462
 9563SOL    HW140148   0.228   0.895   5.688  0.0827 -1.4391 -0.4870
 9563SOL    HW240149   0.248   1.032   5.630 -2.3674  1.4319  0.5134
 9564SOL     OW40150   1.725   4.397   1.818 -0.1104  0.0538 -1.0059
 9564SOL    HW140151   1.691   4.310   1.798 -1.0441 -0.1851  1.6158
 9564SOL    HW240152   1.713   4.398   1.913  2.4969 -0.5556 -0.6703
 9565SOL     OW40153   2.333   0.230   6.774  0.0664 -0.0420 -0.0896
 9565SOL    HW140154   2.425   0.202   6.777  0.2169  0.3313 -1.0345
 9565SOL    HW240155   2.330   0.282   6.694  1.2080 -0.8370 -0.6587
   4.72325   4.72325  17.69486
