Membrane in water
40155
    1TCq1    O1    1   0.521   3.428  10.635 -0.9013 -0.3777 -0.4473
    1TCq1    C1    2   0.451   3.329  10.578 -0.0980  0.5241  0.0133
    1TCq1    O2    3   0.470   3.291  10.463  0.0824 -0.0164  0.2291
    1TCq1    C2    4   0.323   3.340  10.644  0.4868 -0.0696 -0.4850
    1TCq1    C3    5   0.223   3.392  10.569  0.5969  0.4101  0.4031
    1TCq1    C4    6   0.121   3.448  10.639  0.3547 -0.7613 -0.0725
    1TCq1    C5    7   0.125   3.460  10.778 -1.0097 -0.7607 -0.0314
    1TCq1    C6    8   0.228   3.398  10.849  0.4307  0.4946 -0.1861
    1TCq1    C7    9   0.333   3.342  10.783 -0.7444  0.4216  0.4462
    1TCq1    C8   10   0.203   3.358  10.986 -0.2630  0.3069  1.2939
    1TCq1    O4   11   0.129   3.434  11.047 -0.1529  0.1280 -0.0703
    1TCq1    C9   12   0.003   3.488  10.572  0.1889 -0.3432 -0.2095
    1TCq1    O5   13   4.626   3.509  10.643  0.1329 -0.0362  0.0969
    1TCq1    O6   14   4.721   3.454  10.448 -0.2686  0.0934  0.0447
    1TCq1    H1   15   0.492   3.444  10.727  0.1592 -0.2712 -0.1294
    1TCq1    H2   16   0.218   3.387  10.461  0.3140 -1.1084  0.4897
    1TCq1    H3   17   0.040   3.497  10.834  0.2407  1.4212  0.4518
    1TCq1    H4   18   0.416   3.301  10.839 -1.2204  1.5137  1.9449
    2MPD2     C   19   0.312   3.090  11.416  0.4145 -0.0365  0.1738
    2MPD2    C1   20   0.197   3.173  11.386  0.2928  1.0468  0.5055
    2MPD2    C2   21   0.187   3.235  11.264  0.1111  0.1900 -1.0975
    2MPD2    C3   22   0.287   3.213  11.170 -0.3127 -0.0834  0.2255
    2MPD2    C4   23   0.389   3.121  11.194 -0.4157 -0.4275 -0.2710
    2MPD2    C5   24   0.399   3.062  11.315  0.5397 -0.3201 -0.0213
    2MPD2     H   25   0.104   3.299  11.235  0.5471  1.2073 -0.1024
    2MPD2    H1   26   0.456   3.095  11.113  1.8993 -2.2487  2.2593
    2MPD2    H2   27   0.330   3.046  11.513  0.2024 -0.5125 -0.0054
    2MPD2    H3   28   0.474   2.984  11.325 -0.4485 -1.0984  1.4689
    2MPD2     N   29   0.285   3.262  11.037 -0.2015 -0.1531  0.3979
    2MPD2    H5   30   0.341   3.220  10.964  0.2600 -1.2432  1.3956
    2MPD2    N1   31   0.097   3.188  11.483 -0.1755 -0.1813 -0.4038
    2MPD2    H7   32   0.021   3.245  11.448  1.7931  1.1747 -2.4933
    3TCq1    O1   33   4.089   3.589  10.564  0.3959  0.0633 -0.4084
    3TCq1    C1   34   4.219   3.614  10.576  0.2729 -0.4446 -0.9288
    3TCq1    O2   35   4.304   3.537  10.539 -0.7694  0.5444 -0.6766
    3TCq1    C2   36   4.233   3.751  10.564  0.2523  0.1978  0.2236
    3TCq1    C3   37   4.290   3.805  10.452 -0.6077  0.1234 -0.6879
    3TCq1    C4   38   4.278   3.943  10.434 -0.5234 -0.1999 -0.1149
    3TCq1    C5   39   4.210   4.016  10.531 -0.7962 -0.5080 -0.1092
    3TCq1    C6   40   4.142   3.957  10.631 -0.8754  0.7519 -0.3158
    3TCq1    C7   41   4.155   3.819  10.651  0.2209 -0.1066  0.4988
    3TCq1    C8   42   4.045   4.030  10.716 -0.3483  0.5077  1.1834
    3TCq1    O4   43   3.966   3.947  10.764 -0.0343 -0.2198 -0.0803
    3TCq1    C9   44   4.355   4.006  10.335 -0.0990 -0.6880 -0.3446
    3TCq1    O5   45   4.438   3.937  10.277  0.5132 -0.2935 -0.2826
    3TCq1    O6   46   4.357   4.134  10.334  0.0373 -0.6330  0.3153
    3TCq1    H1   47   4.032   3.667  10.581 -0.5860 -0.4788 -1.1650
    3TCq1    H2   48   4.352   3.740  10.391 -0.7216 -0.3738 -0.2714
    3TCq1    H3   49   4.194   4.123  10.518  0.1638 -0.5464 -1.5774
    3TCq1    H4   50   4.118   3.772  10.741  0.6931  0.6331  1.0778
    4MPD2     C   51   3.814   4.403  10.956  0.5843  0.6799  0.1988
    4MPD2    C1   52   3.893   4.466  10.864 -0.5521  0.3928  0.1714
    4MPD2    C2   53   3.971   4.382  10.785 -0.6011 -0.1802  0.5050
    4MPD2    C3   54   3.963   4.242  10.792 -0.3408 -0.0272 -0.2462
    4MPD2    C4   55   3.888   4.189  10.888  0.3220  0.5022  0.4281
    4MPD2    C5   56   3.816   4.268  10.974  0.8153  0.2111  0.7012
    4MPD2     H   57   4.035   4.423  10.708  0.2854 -0.7279  0.9438
    4MPD2    H1   58   3.872   4.082  10.896  3.0019 -0.1045 -2.2578
    4MPD2    H2   59   3.754   4.457  11.028  1.3300  1.6738  0.0908
    4MPD2    H3   60   3.764   4.215  11.053 -0.3751  0.1349 -0.1223
    4MPD2     N   61   4.046   4.164  10.711 -0.1420 -0.8462  0.2846
    4MPD2    H5   62   4.121   4.206  10.658 -1.3663 -1.0686 -1.6193
    4MPD2    N1   63   3.906   4.609  10.847 -0.1120 -0.1297 -0.2882
    4MPD2    H7   64   3.977   4.637  10.780 -1.3504 -0.4524 -1.7301
    5TCq1    O1   65   1.159   1.246  11.765  0.0750  0.1814 -0.0488
    5TCq1    C1   66   1.059   1.220  11.683 -0.5475 -0.0836  0.1425
    5TCq1    O2   67   1.075   1.180  11.571  0.7058  0.0123 -0.0853
    5TCq1    C2   68   0.957   1.317  11.708  0.3151  0.0356 -0.6375
    5TCq1    C3   69   0.914   1.353  11.835 -1.4414  0.6550 -0.3706
    5TCq1    C4   70   0.813   1.449  11.851  0.7364 -0.4473  0.5403
    5TCq1    C5   71   0.747   1.499  11.748  0.5645  0.9190  0.1534
    5TCq1    C6   72   0.778   1.449  11.621 -0.0808  0.0966  0.4867
    5TCq1    C7   73   0.885   1.365  11.597  0.5212 -0.6994  0.0312
    5TCq1    C8   74   0.703   1.497  11.504 -0.4287  0.2633 -0.0989
    5TCq1    O4   75   0.729   1.446  11.399  0.6130  0.0876 -0.3815
    5TCq1    C9   76   0.782   1.491  11.986  0.3695  0.0263  0.6002
    5TCq1    O5   77   0.695   1.582  11.987 -0.0881  0.4319  0.0701
    5TCq1    O6   78   0.867   1.473  12.075  0.2782  0.4467  0.0841
    5TCq1    H1   79   1.140   1.304  11.842 -2.0537 -0.7936  0.1419
    5TCq1    H2   80   0.953   1.315  11.929  1.1924  1.7292 -1.0141
    5TCq1    H3   81   0.659   1.558  11.767  0.4452  0.9870 -0.6349
    5TCq1    H4   82   0.919   1.347  11.496 -0.9489 -0.6401 -0.4724
    6MPD2     C   83   0.422   1.737  11.490 -0.0418  0.4438  0.0749
    6MPD2    C1   84   0.515   1.647  11.449  0.1506  0.3065  0.2067
    6MPD2    C2   85   0.508   1.619  11.308 -0.0508  0.4569  0.2210
    6MPD2    C3   86   0.404   1.677  11.227 -0.1743  0.0937 -0.4520
    6MPD2    C4   87   0.307   1.760  11.275 -0.1754  0.4916 -0.2308
    6MPD2    C5   88   0.324   1.787  11.409 -0.5466 -0.3548  0.9629
    6MPD2     H   89   0.582   1.551  11.266  0.0487  0.1605  0.8854
    6MPD2    H1   90   0.221   1.801  11.223 -0.5072  1.8042  1.3378
    6MPD2    H2   91   0.421   1.774  11.592  0.3731  2.0120 -0.4810
    6MPD2    H3   92   0.260   1.859  11.459  1.5483  1.5699  0.9028
    6MPD2     N   93   0.419   1.634  11.094  0.3191  0.0531  0.0769
    6MPD2    H5   94   0.505   1.584  11.076 -1.2913 -1.8715 -2.3383
    6MPD2    N1   95   0.605   1.592  11.540  0.6721  0.1049  0.3829
    6MPD2    H7   96   0.613   1.636  11.631  1.1984 -1.1121  0.9130
    7TCq1    O1   97   1.133   0.695  13.085 -0.0271 -0.1583 -0.5634
    7TCq1    C1   98   1.156   0.814  13.024 -0.0539  0.0517 -0.5983
    7TCq1    O2   99   1.068   0.885  12.974 -0.5017  0.8095 -0.0999
    7TCq1    C2  100   1.296   0.828  13.022  0.3470  0.5520  0.3987
    7TCq1    C3  101   1.337   0.955  13.006 -0.2604 -0.6514 -0.4155
    7TCq1    C4  102   1.471   0.986  12.986 -0.0159  0.5773 -0.5046
    7TCq1    C5  103   1.563   0.887  12.971 -0.7973 -0.0126  0.4360
    7TCq1    C6  104   1.519   0.758  12.989 -0.5035 -0.2885 -0.0172
    7TCq1    C7  105   1.387   0.727  13.017  0.0869  0.6656 -0.1627
    7TCq1    C8  106   1.607   0.644  13.001 -1.2571  0.3793 -0.2004
    7TCq1    O4  107   1.563   0.535  13.040  0.1600  0.0624  0.4310
    7TCq1    C9  108   1.517   1.116  12.970 -0.4192  0.1238  0.1670
    7TCq1    O5  109   1.633   1.132  12.932  0.4111 -0.6203 -0.4590
    7TCq1    O6  110   1.442   1.209  13.010  0.8013 -0.7336  0.1717
    7TCq1    H1  111   1.216   0.661  13.125 -0.0186  2.6335  1.7480
    7TCq1    H2  112   1.273   1.040  13.023 -2.1787 -2.0824 -0.4109
    7TCq1    H3  113   1.664   0.923  12.963 -0.5096 -1.1322 -1.1109
    7TCq1    H4  114   1.349   0.625  13.017  1.0781  0.2925 -2.3172
    8MPD2     C  115   2.069   0.454  12.963  0.1942  0.1352 -0.1860
    8MPD2    C1  116   1.951   0.386  12.947  0.1289 -0.3775 -0.1792
    8MPD2    C2  117   1.833   0.461  12.943  0.0796 -0.2146 -0.5978
    8MPD2    C3  118   1.846   0.596  12.974 -0.1026  0.2282 -0.5564
    8MPD2    C4  119   1.966   0.656  12.996 -0.2398  0.6416  0.6870
    8MPD2    C5  120   2.078   0.587  12.985  0.5662 -0.6188  0.6570
    8MPD2     H  121   1.733   0.420  12.941 -0.1712  0.4600 -2.5146
    8MPD2    H1  122   1.979   0.763  12.990 -0.2197  0.5858 -0.1623
    8MPD2    H2  123   2.162   0.399  12.964  0.2598  0.2275 -1.0338
    8MPD2    H3  124   2.173   0.632  13.010 -0.3680  1.4609  0.4800
    8MPD2     N  125   1.735   0.682  12.979 -0.5155  0.6849  0.1387
    8MPD2    H5  126   1.744   0.782  12.968  0.7296  0.9300  3.3541
    8MPD2    N1  127   1.946   0.249  12.929  0.2866 -0.0517  0.4069
    8MPD2    H7  128   2.029   0.194  12.951  0.4242 -0.4450 -1.1173
    9TCq1    O1  129   0.342   4.381  10.597 -0.2795  0.1160 -0.6739
    9TCq1    C1  130   0.253   4.288  10.574 -0.4179  0.1116 -0.2596
    9TCq1    O2  131   0.264   4.198  10.490 -0.7861 -0.9000 -0.0444
    9TCq1    C2  132   0.122   4.355  10.587 -0.3175 -0.9643 -0.3553
    9TCq1    C3  133   0.021   4.350  10.499 -0.1818  0.0032 -0.3391
    9TCq1    C4  134   4.625   4.404  10.533 -0.1511 -0.0379  0.6860
    9TCq1    C5  135   4.605   4.462  10.654 -0.0785  0.0654  0.0213
    9TCq1    C6  136   4.711   4.465  10.741 -0.1919  0.0652 -0.5782
    9TCq1    C7  137   0.104   4.408  10.716 -0.2930  0.0987 -0.6654
    9TCq1    C8  138   4.699   4.550  10.861  0.1253 -0.0696  0.7276
    9TCq1    O4  139   0.076   4.610  10.883 -0.1176 -0.1369 -0.0942
    9TCq1    C9  140   4.527   4.412  10.428  0.0396 -0.5938 -0.2981
    9TCq1    O5  141   4.544   4.338  10.333 -0.1878 -0.2885 -0.5042
    9TCq1    O6  142   4.419   4.473  10.440 -0.2832  0.1338  0.4562
    9TCq1    H1  143   0.305   4.467  10.627 -0.9723 -0.2875 -0.3839
    9TCq1    H2  144   0.039   4.320  10.396  1.2689 -0.7768  0.1355
    9TCq1    H3  145   4.514   4.520  10.665 -0.6898 -1.1526  1.4397
    9TCq1    H4  146   0.183   4.393  10.790 -2.7459  0.1059  1.9628
   10MPD2     C  147   4.609   4.704  11.086  0.9002 -0.2568 -0.2215
   10MPD2    C1  148   4.562   4.577  11.064  0.0453 -0.2854  0.2549
   10MPD2    C2  149   4.501   4.504  11.167 -0.8564  0.3454  0.5576
   10MPD2    C3  150   4.498   4.556  11.295 -0.4393  0.3177  0.7744
   10MPD2    C4  151   4.554   4.682  11.322  0.1356  0.9464  0.1196
   10MPD2    C5  152   4.611   0.028  11.215  0.0060 -0.6721  0.5738
   10MPD2     H  153   4.467   4.403  11.147 -1.4947  0.9762 -1.5485
   10MPD2    H1  154   4.562   4.714  11.425  2.2256  0.7712  0.0137
   10MPD2    H2  155   4.648   0.043  11.006  0.3247 -0.1185 -0.3895
   10MPD2    H3  156   4.648   0.127  11.237  0.2435 -0.2172 -1.9097
   10MPD2     N  157   4.462   4.473  11.409  0.2221  0.6246  0.0962
   10MPD2    H5  158   4.469   4.518  11.500 -1.1017  0.2305  0.3887
   10MPD2    N1  159   4.587   4.519  10.938 -0.1615 -0.7874 -0.2777
   10MPD2    H7  160   4.534   4.439  10.905 -0.3276 -1.5267  1.7721
   11TCq1    O1  161   1.375   3.854  13.768 -0.8514  0.0701  0.2877
   11TCq1    C1  162   1.255   3.826  13.822  0.4548  0.1030 -0.2415
   11TCq1    O2  163   1.178   3.736  13.781  0.0778 -0.2957 -0.0299
   11TCq1    C2  164   1.241   3.901  13.951  0.5611  0.7487 -0.4719
   11TCq1    C3  165   1.348   3.964  14.013  0.0548 -0.6613 -0.1004
   11TCq1    C4  166   1.329   4.022  14.137  0.2678 -0.6858  0.7692
   11TCq1    C5  167   1.214   4.014  14.206  0.2310  0.1245  0.2816
   11TCq1    C6  168   1.116   3.939  14.147  0.6457 -0.1296 -0.4984
   11TCq1    C7  169   1.129   3.876  14.024  0.3952 -0.0379  0.1879
   11TCq1    C8  170   0.989   3.931  14.219 -0.5470 -0.4789  0.0496
   11TCq1    O4  171   0.989   3.993  14.326  0.1468 -0.1974 -0.2937
   11TCq1    C9  172   1.441   4.098  14.198  0.5509  0.2602 -0.3623
   11TCq1    O5  173   1.423   4.156  14.307 -0.2253 -0.5684  0.3452
   11TCq1    O6  174   1.546   4.121  14.132 -0.0190  0.0252  0.0285
   11TCq1    H1  175   1.403   3.947  13.780 -2.6446  0.6054  0.3182
   11TCq1    H2  176   1.448   3.965  13.972 -0.3805  0.8632 -1.1205
   11TCq1    H3  177   1.208   4.046  14.309 -1.5606 -1.7121  0.7429
   11TCq1    H4  178   1.056   3.810  13.979  1.1929  0.4201 -1.7827
   12MPD2     C  179   0.709   3.943  14.314 -0.5760  0.7757  0.1847
   12MPD2    C1  180   0.745   3.884  14.197 -0.5459  0.0676 -0.4200
   12MPD2    C2  181   0.637   3.847  14.113 -0.6861  0.4503 -0.0251
   12MPD2    C3  182   0.506   3.850  14.152 -0.1240  0.4328  0.2620
   12MPD2    C4  183   0.473   3.902  14.275  0.4944 -0.0937 -0.1822
   12MPD2    C5  184   0.575   3.948  14.353 -0.6849  0.3850 -0.3818
   12MPD2     H  185   0.664   3.813  14.013 -1.3457  0.6410 -0.2675
   12MPD2    H1  186   0.370   3.907  14.308  0.3627  1.3202 -0.7721
   12MPD2    H2  187   0.780   3.968  14.392  0.0406 -1.6592  0.4146
   12MPD2    H3  188   0.556   3.965  14.458  1.6253  0.2382  0.0651
   12MPD2     N  189   0.400   3.793  14.075  0.0199  0.3568 -0.0944
   12MPD2    H5  190   0.310   3.786  14.122 -1.1377  2.0430 -2.0864
   12MPD2    N1  191   0.880   3.881  14.145  0.0606  0.0601  0.0899
   12MPD2    H7  192   0.884   3.832  14.057 -1.8652  0.8248 -0.4245
   13TCq1    O1  193   4.502   3.100  11.222  0.0386 -0.5843  0.2300
   13TCq1    C1  194   4.521   3.233  11.225  0.1285 -0.1926 -0.5755
   13TCq1    O2  195   4.566   3.302  11.315  0.0422  0.8978 -0.1245
   13TCq1    C2  196   4.497   3.288  11.092  0.1546  0.9479  0.6626
   13TCq1    C3  197   4.395   3.236  11.019 -0.4048  0.4162  0.9366
   13TCq1    C4  198   4.347   3.304  10.915  0.4311  0.0415  0.2643
   13TCq1    C5  199   4.391   3.434  10.891 -0.1454  0.0345 -0.8305
   13TCq1    C6  200   4.501   3.484  10.956 -0.2125  0.6219  0.7393
   13TCq1    C7  201   4.546   3.416  11.068  0.1699  0.1015 -0.2395
   13TCq1    C8  202   4.503   3.623  10.967  0.3165  0.3216  0.4301
   13TCq1    O4  203   4.512   3.677  11.077  1.1799 -0.2793  0.3517
   13TCq1    C9  204   4.219   3.270  10.865  0.8260 -0.0440  0.0200
   13TCq1    O5  205   4.176   3.339  10.768 -0.5340 -0.0059 -0.1479
   13TCq1    O6  206   4.152   3.193  10.935 -0.7062 -0.2739 -0.0696
   13TCq1    H1  207   4.482   3.052  11.138 -0.3578 -0.7199  0.3985
   13TCq1    H2  208   4.340   3.152  11.062 -1.4036  1.7818  2.3184
   13TCq1    H3  209   4.335   3.487  10.816 -1.9681 -1.4563 -0.5064
   13TCq1    H4  210   4.619   3.454  11.138 -3.0761  0.4815  2.9606
   14MPD2     C  211   4.572   3.856  10.696  0.8642  0.6845 -0.0306
   14MPD2    C1  212   4.510   3.813  10.812 -0.0665  0.1142 -1.4135
   14MPD2    C2  213   4.435   3.905  10.891  0.1940 -0.3616 -0.1134
   14MPD2    C3  214   4.406   4.031  10.843  0.1625  0.0821  0.1796
   14MPD2    C4  215   4.478   4.079  10.730 -0.0768  0.1353  0.0293
   14MPD2    C5  216   4.565   3.993  10.663 -0.6264  1.0461  0.5270
   14MPD2     H  217   4.387   3.867  10.980  1.9798 -1.0077  0.5802
   14MPD2    H1  218   4.460   4.180  10.695  1.9323  0.1317 -0.9703
   14MPD2    H2  219   4.643   3.798  10.639  0.6519 -1.6358  2.0754
   14MPD2    H3  220   4.620   4.026  10.576 -2.2580  0.0602 -0.8833
   14MPD2     N  221   4.320   4.105  10.921  0.2428 -0.4885  0.0214
   14MPD2    H5  222   4.252   4.050  10.972  1.0334 -1.5244 -0.0525
   14MPD2    N1  223   4.514   3.676  10.840  0.2790  0.0118  0.0098
   14MPD2    H7  224   4.548   3.610  10.771 -1.9723 -0.2787 -0.8131
   15TCq1    O1  225   0.703   2.160   2.110 -0.2757  0.0433 -0.0297
   15TCq1    C1  226   0.580   2.104   2.109  0.6046 -1.2903 -0.1927
   15TCq1    O2  227   0.494   2.108   2.205  0.0756  0.1405  0.1761
   15TCq1    C2  228   0.536   2.092   1.970 -0.2384 -0.3853 -0.2786
   15TCq1    C3  229   0.414   2.143   1.933  0.0393  0.3660 -0.9054
   15TCq1    C4  230   0.383   2.165   1.803 -0.3320  0.3751  0.0374
   15TCq1    C5  231   0.476   2.137   1.703 -0.2987 -0.3559  0.2570
   15TCq1    C6  232   0.593   2.081   1.742  0.2261 -0.4859 -0.5561
   15TCq1    C7  233   0.630   2.062   1.875 -0.1879 -0.5366 -0.8825
   15TCq1    C8  234   0.708   2.060   1.650 -0.3484  0.4628 -0.2439
   15TCq1    O4  235   0.802   1.999   1.697  0.0586 -0.2289 -0.2005
   15TCq1    C9  236   0.253   2.219   1.772 -0.3997 -0.6105  0.3340
   15TCq1    O5  237   0.249   2.257   1.649 -0.2360 -0.0302  0.3431
   15TCq1    O6  238   0.173   2.234   1.867 -0.0192  0.7574 -0.6166
   15TCq1    H1  239   0.736   2.176   2.019  0.6831 -0.0936  0.2939
   15TCq1    H2  240   0.339   2.157   2.011 -0.5608 -1.6064 -1.1425
   15TCq1    H3  241   0.440   2.133   1.601  0.5449 -1.6283  0.0001
   15TCq1    H4  242   0.723   2.009   1.895  0.4621  1.5865  1.7736
   16MPD2     C  243   0.758   2.219   1.332  0.0486  0.3940 -0.2927
   16MPD2    C1  244   0.788   2.133   1.431  0.2150  0.2565  0.1981
   16MPD2    C2  245   0.893   2.041   1.416 -0.7710 -0.2884 -0.0439
   16MPD2    C3  246   0.973   2.041   1.300  0.3817 -0.1833  0.7312
   16MPD2    C4  247   0.940   2.134   1.201 -1.0560 -0.6490 -0.1231
   16MPD2    C5  248   0.837   2.214   1.216 -0.0882 -0.3652  0.1419
   16MPD2     H  249   0.907   1.973   1.499 -1.6017 -0.4436 -0.0267
   16MPD2    H1  250   1.006   2.156   1.119 -0.9275  0.2637  0.2248
   16MPD2    H2  251   0.677   2.291   1.339 -0.5746 -0.2750 -0.6247
   16MPD2    H3  252   0.810   2.277   1.133 -1.2563 -2.4655 -1.0766
   16MPD2     N  253   1.081   1.949   1.282 -0.1174 -0.3631 -0.0565
   16MPD2    H5  254   1.109   1.901   1.367 -1.3343  4.4637  3.0957
   16MPD2    N1  255   0.697   2.134   1.537  0.3474  0.3579  0.2931
   16MPD2    H7  256   0.627   2.205   1.518 -0.4079 -0.4636  0.0488
   17TCq1    O1  257   4.288   2.785  10.926  0.4721 -0.6915 -0.6043
   17TCq1    C1  258   4.389   2.877  10.955  0.0848 -0.9510 -0.9999
   17TCq1    O2  259   4.424   2.903  11.070 -0.0739 -0.0509  0.1544
   17TCq1    C2  260   4.449   2.929  10.835  0.0868  0.6442 -0.8579
   17TCq1    C3  261   4.373   2.989  10.742 -0.3159  0.3068 -0.2743
   17TCq1    C4  262   4.427   3.077  10.654  0.5391  0.1865  0.4511
   17TCq1    C5  263   4.559   3.104  10.663  0.2711 -0.2327  0.7488
   17TCq1    C6  264   4.629   3.054  10.769  0.3771 -0.5596 -0.3905
   17TCq1    C7  265   4.580   2.962  10.854  1.0189  0.4222  0.0765
   17TCq1    C8  266   0.048   3.064  10.782  0.0997 -0.3671 -0.0667
   17TCq1    O4  267   0.091   3.063  10.896  0.3713  0.4132  0.1473
   17TCq1    C9  268   4.352   3.156  10.558  0.0318 -0.3637 -1.0938
   17TCq1    O5  269   4.415   3.251  10.504  0.4143  0.9346 -0.6786
   17TCq1    O6  270   4.233   3.137  10.546  0.0491  0.0119  0.3947
   17TCq1    H1  271   4.303   2.760  10.832  0.6759  0.4981 -0.8987
   17TCq1    H2  272   4.268   2.966  10.725 -0.4615  0.6927  0.0889
   17TCq1    H3  273   4.606   3.181  10.603 -0.2222 -0.1028  0.5316
   17TCq1    H4  274   4.627   2.910  10.937 -2.2701 -0.5232  1.3244
   18MPD2     C  275   0.325   3.008  10.742 -0.3834 -0.2573 -0.1477
   18MPD2    C1  276   0.240   3.023  10.634  0.0576  0.2013  0.5362
   18MPD2    C2  277   0.299   3.017  10.506  0.3480  0.3226 -0.4594
   18MPD2    C3  278   0.425   2.972  10.483 -0.1392 -0.1999 -0.4646
   18MPD2    C4  279   0.509   2.964  10.597  0.1728  0.5617 -0.1021
   18MPD2    C5  280   0.456   2.979  10.719  0.4437  1.1987  0.8016
   18MPD2     H  281   0.234   3.024  10.420 -0.2017  4.2134  0.2507
   18MPD2    H1  282   0.614   2.938  10.592  0.5120  1.9714 -0.2236
   18MPD2    H2  283   0.302   3.026  10.847  0.1651  0.8552 -0.2142
   18MPD2    H3  284   0.521   2.954  10.801 -0.7424 -1.9856  0.7569
   18MPD2     N  285   0.496   2.983  10.361  0.5789  1.2738 -0.5096
   18MPD2    H5  286   0.598   2.990  10.360  0.5847  1.0482 -1.4448
   18MPD2    N1  287   0.101   3.052  10.656 -0.3857  0.1784 -0.1773
   18MPD2    H7  288   0.042   3.073  10.575  0.1648  0.0487 -0.6096
   19TMC2    C1  289   1.432   3.338  13.623  0.0866  0.7320 -0.2175
   19TMC2    C2  290   1.465   3.343  13.490 -0.0401  1.1684  0.1739
   19TMC2    C3  291   1.408   3.247  13.406 -0.0704  0.3476  0.0721
   19TMC2    C4  292   1.359   3.234  13.675  0.8585  0.2615 -0.8269
   19TMC2    C5  293   1.297   3.154  13.589 -0.3648 -0.2519  0.4530
   19TMC2    C6  294   1.317   3.157  13.454 -0.2488 -0.1126 -0.0007
   19TMC2     C  295   1.487   3.439  13.715 -0.6353  0.5634 -0.3896
   19TMC2     O  296   1.564   3.520  13.662  0.2484 -0.3546 -0.0494
   19TMC2     H  297   1.549   3.400  13.453  2.1656 -2.7599 -0.8425
   19TMC2    H1  298   1.342   3.227  13.782 -1.5041  1.0149 -1.1396
   19TMC2    H2  299   1.260   3.087  13.393 -2.4445  2.0859 -0.4856
   19TMC2    C7  300   1.201   3.058  13.637  0.2231 -0.2648  0.1631
   19TMC2    C8  301   1.431   3.268  13.263 -0.0750 -0.8943  0.7419
   19TMC2    O1  302   1.115   3.030  13.554  0.7365  0.8529 -0.6210
   19TMC2    O2  303   1.408   3.180  13.187  0.1469 -0.4943  0.0842
   19TMC2    O5  304   1.456   3.400  13.237 -0.0285 -0.4560  0.1320
   19TMC2    H5  305   1.424   3.462  13.306 -2.0200 -0.3556 -0.8691
   20MPD2     C  306   1.585   3.610  13.940 -0.2603 -0.2325  0.2692
   20MPD2    C1  307   1.509   3.495  13.951  0.3275 -0.9595 -0.2477
   20MPD2    C2  308   1.482   3.454  14.079  0.3830 -0.3572  0.1427
   20MPD2    C3  309   1.531   3.521  14.194  0.6807  0.2304  0.0406
   20MPD2    C4  310   1.602   3.640  14.173 -0.6241  0.8124  0.3402
   20MPD2    C5  311   1.638   3.675  14.048  0.1022 -0.3067  0.1075
   20MPD2     H  312   1.435   3.356  14.082 -0.0653 -0.1434  0.1821
   20MPD2    H1  313   1.636   3.705  14.253  0.7501 -0.9482  1.1780
   20MPD2    H2  314   1.599   3.662  13.845  2.4428 -0.9189  0.3093
   20MPD2    H3  315   1.695   3.766  14.036 -3.1241  1.7554  0.5050
   20MPD2     N  316   1.499   3.476  14.320  0.4815  0.4581  0.4527
   20MPD2    H5  317   1.544   3.534  14.390  0.9424  0.3794  0.2253
   20MPD2    N1  318   1.445   3.430  13.849 -0.9367  0.8635  0.3222
   20MPD2    H7  319   1.379   3.358  13.877 -1.6379  1.4202  0.1199
   21MPD2     C  320   3.589   3.862  14.081  0.1817 -0.3897 -0.9715
   21MPD2    C1  321   3.582   3.746  14.150  0.3034  0.0848  0.0401
   21MPD2    C2  322   3.485   3.747  14.249 -0.1053 -0.2258 -0.1963
   21MPD2    C3  323   3.396   3.851  14.278 -0.3198  0.0734 -0.5682
   21MPD2    C4  324   3.417   3.969  14.204  0.6148  0.2387 -0.2430
   21MPD2    C5  325   3.509   3.968  14.106 -0.0009  0.5052 -0.3411
   21MPD2     H  326   3.471   3.659  14.311  1.6576  0.5094  1.2387
   21MPD2    H1  327   3.367   4.060  14.234 -0.4124 -0.0710 -1.0119
   21MPD2    H2  328   3.665   3.874  14.004  0.9649  1.2058  0.0461
   21MPD2    H3  329   3.534   4.055  14.046 -0.3110 -0.5718 -2.0309
   21MPD2     N  330   3.303   3.849  14.389 -0.5482  0.5638 -0.6292
   21MPD2    H5  331   3.230   3.919  14.391 -0.1738  0.9269  0.2934
   21MPD2    N1  332   3.659   3.634  14.129  0.1660 -0.2506  0.0942
   21MPD2    H7  333   3.642   3.549  14.182  0.4917 -0.1358  0.3799
   22TCq2    C1  334   3.315   3.752  14.488 -0.4284  0.2696  0.3039
   22TCq2    O2  335   3.396   3.662  14.508  0.5444 -0.8729 -0.6004
   22TCq2    C2  336   3.228   3.759  14.607  0.1164  0.1437  0.6242
   22TCq2    C3  337   3.230   3.649  14.691  0.6206 -0.4540 -0.4411
   22TCq2    C4  338   3.164   3.665  14.812  0.1725  0.8928 -0.0373
   22TCq2    C5  339   3.112   3.788  14.852 -0.0499  0.3542  0.4157
   22TCq2    C6  340   3.112   3.896  14.761  0.5604  0.5240  0.7918
   22TCq2    C7  341   3.176   3.880  14.643 -0.2879 -0.0651 -0.3110
   22TCq2    C8  342   3.071   4.026  14.800  0.5098 -0.0216  0.2869
   22TCq2    O4  343   3.073   4.065  14.917 -0.4612  0.5347  0.0257
   22TCq2    C9  344   3.174   3.564  14.915  0.3658  0.4231 -0.3177
   22TCq2    O5  345   3.263   3.478  14.911  0.2023  0.2043  0.2190
   22TCq2    O6  346   3.089   3.584  15.014  0.0764  0.4556  0.3233
   22TCq2    H2  347   3.264   3.550  14.661 -3.0922 -1.6059 -0.8556
   22TCq2    H3  348   3.061   3.794  14.947  0.1770  0.6489  0.5184
   22TCq2    H4  349   3.183   3.968  14.580  1.7407 -0.5217 -0.7090
   23MPD2     C  350   0.632   4.645  14.424  0.4955  0.2767 -0.0015
   23MPD2    C1  351   0.529   4.638  14.515 -0.3173  0.0363 -0.0516
   23MPD2    C2  352   0.407   4.683  14.478  0.4996  0.4922 -0.3416
   23MPD2    C3  353   0.394   0.026  14.354 -0.1553 -0.1032 -0.1069
   23MPD2    C4  354   0.503   0.035  14.275  0.2803 -0.3826 -0.1328
   23MPD2    C5  355   0.623   4.699  14.300 -0.6453 -0.3626 -0.2383
   23MPD2     H  356   0.324   4.656  14.543  0.0680  1.5067 -0.4779
   23MPD2    H1  357   0.499   0.091  14.182 -0.9476 -0.4834 -0.1325
   23MPD2    H2  358   0.732   4.611  14.449  0.4465 -1.4095 -2.1337
   23MPD2    H3  359   0.702   4.691  14.227 -0.5080  1.7112 -0.3305
   23MPD2     N  360   0.275   0.073  14.297 -0.1431  0.2533  0.3784
   23MPD2    H5  361   0.288   0.129  14.213 -0.2405 -2.7031 -1.6104
   23MPD2    N1  362   0.541   4.592  14.651  0.0073  0.0446 -0.7021
   23MPD2    H7  363   0.455   4.606  14.703 -0.1815 -0.0931 -0.9778
   24TCq2    C1  364   0.151   0.027  14.330 -0.3613 -0.3739  0.1717
   24TCq2    O2  365   0.121   4.672  14.419  0.0051 -0.2782  0.0823
   24TCq2    C2  366   0.058   0.048  14.223  0.2402  0.3577  0.0505
   24TCq2    C3  367   0.085   0.124  14.113  0.3929 -1.2892  0.6101
   24TCq2    C4  368   4.701   0.148  14.030 -0.2376 -0.2829 -0.2649
   24TCq2    C5  369   4.570   0.117  14.061  0.1485 -0.2101  0.0641
   24TCq2    C6  370   4.544   0.041  14.171  0.2892 -0.4213  0.8102
   24TCq2    C7  371   4.651   0.005  14.248  0.5256  0.4135 -0.5251
   24TCq2    C8  372   4.428   4.673  14.177  0.0722  0.0739 -0.0729
   24TCq2    O4  373   4.441   4.571  14.243 -0.7489  0.1765 -0.3417
   24TCq2    C9  374   0.001   0.218  13.910  0.0348  0.8971 -0.3247
   24TCq2    O5  375   0.118   0.263  13.894  0.5409 -0.0998  0.4718
   24TCq2    O6  376   4.624   0.261  13.851 -0.0474 -0.3974  0.1726
   24TCq2    H2  377   0.183   0.160  14.084 -1.5567  3.0191 -0.4541
   24TCq2    H3  378   4.488   0.137  13.994 -0.4295 -1.8789  0.2648
   24TCq2    H4  379   4.645   4.649  14.321 -1.6338  0.6131 -0.5031
   25TMC2    C1  380   0.033   2.757  11.271 -0.2516  0.5355  0.1905
   25TMC2    C2  381   0.149   2.741  11.342  0.0184  0.0721 -0.0454
   25TMC2    C3  382   0.147   2.754  11.481 -0.0224 -0.1303  0.1124
   25TMC2    C4  383   4.646   2.802  11.333  0.1185  0.8164  0.3580
   25TMC2    C5  384   4.655   2.831  11.470 -0.7019  0.2291  0.0248
   25TMC2    C6  385   0.037   2.805  11.550 -0.0024  0.1775  0.1138
   25TMC2     C  386   0.016   2.662  11.165  0.1679  0.3193  0.2135
   25TMC2     O  387   0.110   2.644  11.093 -0.0240 -0.2314 -0.9511
   25TMC2     H  388   0.240   2.700  11.299  1.0788  0.7995  1.4997
   25TMC2    H1  389   4.552   2.794  11.280 -1.0010 -0.4292  2.4998
   25TMC2    H2  390   0.041   2.841  11.652  1.6766 -0.6672  0.3497
   25TMC2    C7  391   4.533   2.875  11.537 -0.0494 -0.2584 -0.1874
   25TMC2    C8  392   0.278   2.765  11.537  0.7685 -0.1794  0.1348
   25TMC2    O1  393   4.518   2.867  11.656 -0.1364  0.2513  0.3717
   25TMC2    O2  394   0.377   2.795  11.467 -0.1555 -0.4675  0.5411
   25TMC2    O5  395   0.276   2.743  11.672  0.5064  0.2553 -0.0309
   25TMC2    H5  396   0.188   2.706  11.694  0.2481  1.7866  1.4791
   26MPD2     C  397   4.498   2.302  10.899  0.3393 -0.7710 -0.1663
   26MPD2    C1  398   4.399   2.369  10.969 -0.0120  0.1702 -0.3595
   26MPD2    C2  399   4.436   2.478  11.046  0.3479  0.6077  0.6753
   26MPD2    C3  400   4.570   2.517  11.047  0.8075  0.7109 -0.4017
   26MPD2    C4  401   4.659   2.452  10.975 -0.2251  0.6041 -1.2104
   26MPD2    C5  402   4.630   2.335  10.914  0.1139 -0.1633 -0.9724
   26MPD2     H  403   4.359   2.524  11.107  0.1648  0.0822  0.8383
   26MPD2    H1  404   0.043   2.468  10.981 -0.3327  1.0790 -0.5766
   26MPD2    H2  405   4.472   2.216  10.838  1.6864 -0.7305 -0.7929
   26MPD2    H3  406   4.707   2.265  10.881  0.4870 -0.6182  0.8866
   26MPD2     N  407   4.610   2.624  11.136 -0.0414 -0.2765  0.7426
   26MPD2    H5  408   4.541   2.649  11.207  0.5950 -1.1652  1.6567
   26MPD2    N1  409   4.267   2.331  10.935  0.0991 -0.1233  0.0972
   26MPD2    H7  410   4.245   2.260  10.866  1.6541 -1.1437  0.6587
   27TMC2    C1  411   3.170   0.123  11.759  0.0837  0.2224  0.1097
   27TMC2    C2  412   3.161   0.186  11.637 -0.2678 -1.3539 -0.0325
   27TMC2    C3  413   3.160   0.322  11.627  0.3778  0.1643 -0.2827
   27TMC2    C4  414   3.171   0.188  11.874 -0.8089 -0.2007  0.3403
   27TMC2    C5  415   3.158   0.325  11.866  0.5267 -0.3446 -0.0538
   27TMC2    C6  416   3.149   0.394  11.742  0.5493 -0.4420  0.6872
   27TMC2     C  417   3.138   4.704  11.768  0.0114 -0.1086 -0.3235
   27TMC2     O  418   3.175   4.629  11.676 -0.5383 -0.3185 -0.2640
   27TMC2     H  419   3.173   0.120  11.552 -2.3600  0.8814 -2.0869
   27TMC2    H1  420   3.199   0.140  11.968  0.8932  1.9435  0.9082
   27TMC2    H2  421   3.131   0.501  11.741 -2.2359 -0.9285 -2.5713
   27TMC2    C7  422   3.056   0.361  11.967  0.1023  0.3923  0.4026
   27TMC2    C8  423   3.184   0.384  11.499  0.0766 -0.8107 -0.2982
   27TMC2    O1  424   3.005   0.270  12.030  0.3362 -0.3709  0.2532
   27TMC2    O2  425   3.136   0.328  11.400 -0.1313 -0.1239 -0.0551
   27TMC2    O5  426   3.192   0.515  11.508 -0.3162 -0.2463 -0.2722
   27TMC2    H5  427   3.227   0.530  11.599 -0.9576 -1.1495  0.1189
   28MPD2     C  428   2.849   4.366  12.052  0.0115 -0.2618  0.3061
   28MPD2    C1  429   2.816   4.494  12.076 -0.0929 -0.4941 -0.5069
   28MPD2    C2  430   2.891   4.601  12.018 -0.1252 -0.0488  0.8753
   28MPD2    C3  431   2.985   4.576  11.924  0.2040 -0.0712 -0.0464
   28MPD2    C4  432   3.017   4.447  11.896  0.0482  1.0489  0.2821
   28MPD2    C5  433   2.947   4.344  11.958  0.1817  0.1125 -0.4141
   28MPD2     H  434   2.870   4.704  12.046  1.6822  1.0238 -1.7701
   28MPD2    H1  435   3.090   4.427  11.819 -1.2097 -4.6544  0.5578
   28MPD2    H2  436   2.799   4.280  12.095 -2.0790  0.3040 -1.0181
   28MPD2    H3  437   2.981   4.245  11.931 -2.5428 -1.3513  1.4528
   28MPD2     N  438   3.056   4.693  11.878  0.2775  0.1734  0.1816
   28MPD2    H5  439   3.037   0.059  11.922 -1.8963 -0.6892  1.0032
   28MPD2    N1  440   2.705   4.520  12.157  0.2531  0.2493  0.0459
   28MPD2    H7  441   2.659   4.441  12.201  1.4348 -1.4397 -1.7448
   29MPD2     C  442   2.106   2.066  13.389  0.0538 -0.0302  0.0819
   29MPD2    C1  443   2.234   2.059  13.443  0.6061  0.4897 -0.2214
   29MPD2    C2  444   2.293   2.171  13.500  0.0755  0.1163  0.4066
   29MPD2    C3  445   2.232   2.287  13.493  0.4914  0.2298  0.0977
   29MPD2    C4  446   2.103   2.291  13.442 -0.9307 -0.4795 -0.5678
   29MPD2    C5  447   2.039   2.184  13.383  0.5435 -0.1262 -0.1791
   29MPD2     H  448   2.389   2.151  13.547  1.5709  0.4397 -2.5401
   29MPD2    H1  449   2.042   2.381  13.451  0.1240  0.5303 -3.4661
   29MPD2    H2  450   2.057   1.974  13.360  2.4477 -0.7307 -1.7509
   29MPD2    H3  451   1.937   2.205  13.352 -0.5202 -2.1762  1.9250
   29MPD2     N  452   2.290   2.397  13.557  0.4617  0.0027 -0.1271
   29MPD2    H5  453   2.235   2.481  13.571 -2.4889 -1.3569 -3.8471
   29MPD2    N1  454   2.308   1.937  13.454  0.4538  0.1460  0.4551
   29MPD2    H7  455   2.398   1.948  13.500  0.6719  0.7193 -0.1146
   30TCq2    C1  456   2.417   2.399  13.615 -0.1820  0.5920  0.0010
   30TCq2    O2  457   2.519   2.335  13.592  0.2989 -0.0168  0.1121
   30TCq2    C2  458   2.439   2.511  13.706  0.3343 -0.0028  0.3145
   30TCq2    C3  459   2.337   2.540  13.791  0.1294  0.6333  0.2328
   30TCq2    C4  460   2.356   2.624  13.896 -0.1425 -0.7514 -0.1402
   30TCq2    C5  461   2.482   2.677  13.916  0.5610  0.5615 -0.0266
   30TCq2    C6  462   2.579   2.652  13.823 -0.1873  0.0678 -0.0187
   30TCq2    C7  463   2.554   2.570  13.714  0.9490  0.3668  0.0210
   30TCq2    C8  464   2.700   2.738  13.824  0.3724  0.5483 -0.6744
   30TCq2    O4  465   2.776   2.733  13.726 -0.3235  0.0153 -0.0845
   30TCq2    C9  466   2.260   2.644  13.998 -0.2311 -0.1815  0.0299
   30TCq2    O5  467   2.155   2.578  13.979  0.1861 -0.2602 -0.4831
   30TCq2    O6  468   2.291   2.703  14.103  0.7249  0.1983  0.3259
   30TCq2    H2  469   2.251   2.477  13.773  1.7252 -1.7949  1.1277
   30TCq2    H3  470   2.478   2.760  13.985  1.3691 -0.2066  0.9535
   30TCq2    H4  471   2.629   2.571  13.636  0.5477 -0.1813 -0.3668
   31MPD2     C  472   4.584   1.432  14.674  0.0467  1.0303  0.1009
   31MPD2    C1  473   4.719   1.442  14.645  0.3398  0.0326 -0.0911
   31MPD2    C2  474   0.086   1.361  14.711 -0.0768 -0.4742  0.4478
   31MPD2    C3  475   0.041   1.261  14.802  0.3524  0.3831  0.3653
   31MPD2    C4  476   4.629   1.234  14.809 -0.2820 -0.4992  0.3536
   31MPD2    C5  477   4.539   1.329  14.748  0.8405 -0.2868  0.2929
   31MPD2     H  478   0.192   1.374  14.690  0.1082 -0.6196  1.3013
   31MPD2    H1  479   4.577   1.171  14.880  0.9386 -0.3735  1.3515
   31MPD2    H2  480   4.506   1.492  14.627  0.1796  1.6174  0.6296
   31MPD2    H3  481   4.434   1.327  14.774  0.9719  0.8145  0.8670
   31MPD2     N  482   0.136   1.194  14.888 -0.5374  0.1690  0.0109
   31MPD2    H5  483   0.104   1.113  14.941 -2.1359  0.2126 -0.8774
   31MPD2    N1  484   0.033   1.545  14.554  0.2962  0.5360  0.3324
   31MPD2    H7  485   4.681   1.598  14.511  0.3566 -0.9143 -1.5793
   32TCq2    C1  486   0.264   1.240  14.907 -0.2816  0.1270 -0.1352
   32TCq2    O2  487   0.304   1.353  14.896  0.4020  0.6399 -0.6681
   32TCq2    C2  488   0.348   1.140  14.974 -0.7772  0.1108 -0.4924
   32TCq2    C3  489   0.481   1.136  14.942 -0.1357  0.2479  0.0272
   32TCq2    C4  490   0.565   1.032  14.981  0.0685  0.2215 -0.2251
   32TCq2    C5  491   0.515   0.943  15.063 -0.1947  0.1000 -0.4662
   32TCq2    C6  492   0.380   0.943  15.085  0.1370  1.1694  0.0744
   32TCq2    C7  493   0.295   1.041  15.045  0.1105  0.2650 -0.2951
   32TCq2    C8  494   0.330   0.832  15.175  0.3467  0.2190 -0.2165
   32TCq2    O4  495   0.412   0.767  15.236  0.2291  0.3103  0.3040
   32TCq2    C9  496   0.692   1.011  14.922  0.6739  0.3421  0.0795
   32TCq2    O5  497   0.731   1.097  14.838  1.0561  0.1077 -0.2029
   32TCq2    O6  498   0.754   0.911  14.969 -0.6332 -0.3739  0.1315
   32TCq2    H2  499   0.521   1.217  14.882 -0.0124 -0.6724 -1.1278
   32TCq2    H3  500   0.568   0.849  15.077 -1.6441 -1.0903 -2.9497
   32TCq2    H4  501   0.197   1.047  15.092  0.1968  0.1232 -0.0958
   33MPD2     C  502   0.278   3.337   9.686  0.2064 -0.1429 -0.4742
   33MPD2    C1  503   0.359   3.378   9.794  0.8774  0.9831 -0.0473
   33MPD2    C2  504   0.363   3.517   9.819  0.1502 -0.8389 -0.0747
   33MPD2    C3  505   0.267   3.602   9.755 -0.5068 -0.4044  0.6993
   33MPD2    C4  506   0.179   3.552   9.664  0.0499  0.6120 -0.1906
   33MPD2    C5  507   0.196   3.425   9.623  0.2393 -1.1667 -0.0953
   33MPD2     H  508   0.417   3.553   9.906  0.9487 -0.1575 -0.8595
   33MPD2    H1  509   0.115   3.622   9.612  0.3602  2.0363  1.3318
   33MPD2    H2  510   0.282   3.233   9.656  0.2852  0.2573 -1.8341
   33MPD2    H3  511   0.124   3.381   9.555  0.4941  0.3871 -1.3685
   33MPD2     N  512   0.236   3.739   9.792 -0.2538 -0.8895  0.6802
   33MPD2    H5  513   0.146   3.776   9.764  1.6258  2.0906 -1.3935
   33MPD2    N1  514   0.441   3.286   9.866 -0.1201 -0.3481  0.6674
   33MPD2    H7  515   0.429   3.187   9.846  0.8582  0.0173 -1.7207
   34TCq2    C1  516   0.327   3.816   9.856  0.7243  0.5645  0.1378
   34TCq2    O2  517   0.445   3.795   9.862  0.1874 -0.1184  0.3217
   34TCq2    C2  518   0.284   3.945   9.889  1.2128  0.0380  0.4923
   34TCq2    C3  519   0.166   3.960   9.955  0.1198 -0.3055 -0.1126
   34TCq2    C4  520   0.133   4.087   9.990  0.2076 -0.7221  0.1367
   34TCq2    C5  521   0.204   4.200   9.950 -0.1593  0.6723  0.3389
   34TCq2    C6  522   0.322   4.180   9.879  0.0371 -0.9774 -0.1953
   34TCq2    C7  523   0.362   4.051   9.860  0.1141  0.2218  0.4033
   34TCq2    C8  524   0.398   4.289   9.821  0.0258  0.0983 -0.4380
   34TCq2    O4  525   0.482   4.267   9.735 -0.1381  0.6390 -0.7256
   34TCq2    C9  526   0.002   4.107  10.041  0.7620 -0.0571  0.0123
   34TCq2    O5  527   4.698   4.226  10.074  0.2578  0.1015 -0.3672
   34TCq2    O6  528   4.654   4.015  10.085  0.1422  0.0746  0.4890
   34TCq2    H2  529   0.098   3.879   9.981 -1.6304  2.1357  2.9234
   34TCq2    H3  530   0.166   4.295   9.986 -0.4603  0.8407 -0.4268
   34TCq2    H4  531   0.447   4.029   9.796 -0.0334 -2.8302  1.2675
   35MPD2     C  532   2.393   0.523  11.446  0.0388 -0.2961 -0.8524
   35MPD2    C1  533   2.326   0.413  11.504 -0.7866  0.1043 -0.1534
   35MPD2    C2  534   2.210   0.374  11.454 -0.1218  0.0002 -0.5053
   35MPD2    C3  535   2.165   0.428  11.335  0.7527 -0.0364 -0.4174
   35MPD2    C4  536   2.234   0.514  11.264 -0.1326  0.7295 -0.1132
   35MPD2    C5  537   2.352   0.565  11.324  1.2357  0.4925  0.1669
   35MPD2     H  538   2.153   0.296  11.504  0.7167 -0.6017 -0.4988
   35MPD2    H1  539   2.190   0.555  11.174 -1.5945 -1.3612 -0.3452
   35MPD2    H2  540   2.487   0.565  11.481 -0.2677  1.1895 -1.8191
   35MPD2    H3  541   2.404   0.652  11.286  2.2392  0.7668  2.2196
   35MPD2     N  542   2.055   0.355  11.289 -0.2440  0.2921  0.2145
   35MPD2    H5  543   2.015   0.298  11.363  0.8379  1.7063  1.8735
   35MPD2    N1  544   2.359   0.347  11.621  0.5358 -0.4349 -0.0014
   35MPD2    H7  545   2.320   0.254  11.634 -1.1797  0.0934 -1.3877
   36TCq2    C1  546   1.996   0.369  11.166  0.2977  0.2578 -0.3902
   36TCq2    O2  547   2.008   0.454  11.078  0.3800 -0.2216 -0.2158
   36TCq2    C2  548   1.895   0.270  11.151 -0.3082  0.2980  0.6299
   36TCq2    C3  549   1.780   0.289  11.077 -0.7243  0.3012  0.1968
   36TCq2    C4  550   1.676   0.206  11.100 -0.2784 -0.3597 -0.4176
   36TCq2    C5  551   1.693   0.089  11.172 -0.6282  0.3084 -0.2833
   36TCq2    C6  552   1.814   0.065  11.236 -0.2693  0.5169 -0.0183
   36TCq2    C7  553   1.913   0.159  11.231 -0.2302  0.0869 -0.1659
   36TCq2    C8  554   1.831   4.665  11.314 -0.7876  0.3224 -0.2300
   36TCq2    O4  555   1.726   4.607  11.341 -0.5512 -0.3676 -0.0454
   36TCq2    C9  556   1.549   0.237  11.029  1.1877  0.1510  0.3632
   36TCq2    O5  557   1.453   0.156  11.050  0.2419  1.0797  0.2221
   36TCq2    O6  558   1.541   0.345  10.974  0.1102  0.0134 -0.2868
   36TCq2    H2  559   1.779   0.373  11.008 -0.0632 -1.0726 -1.4876
   36TCq2    H3  560   1.611   0.019  11.181 -1.6974  1.4674 -0.8386
   36TCq2    H4  561   2.008   0.132  11.277 -0.9102 -0.8306  0.7107
   37TMC2    C1  562   4.069   0.793  11.664  0.3520  0.2494 -0.2377
   37TMC2    C2  563   4.055   0.818  11.532 -0.2535  1.2201 -0.1920
   37TMC2    C3  564   4.161   0.819  11.447 -0.0702  0.0468 -0.1528
   37TMC2    C4  565   4.199   0.788  11.716  0.3220 -0.4796 -0.4243
   37TMC2    C5  566   4.300   0.784  11.632 -0.1764 -0.3059  0.7410
   37TMC2    C6  567   4.289   0.806  11.498 -0.4390  0.1528 -0.1011
   37TMC2     C  568   3.967   0.830  11.751  0.0796 -0.6312  0.0657
   37TMC2     O  569   3.868   0.887  11.709 -0.0032  0.0288 -0.1179
   37TMC2     H  570   3.954   0.820  11.491  0.0741 -1.6267 -1.1124
   37TMC2    H1  571   4.227   0.790  11.821 -1.6768  0.6216  0.0839
   37TMC2    H2  572   4.378   0.811  11.437  0.6010 -0.5573  1.3752
   37TMC2    C7  573   4.428   0.761  11.688  0.0089 -0.2277  0.1213
   37TMC2    C8  574   4.140   0.858  11.311  0.0201 -0.9904  0.4618
   37TMC2    O1  575   4.427   0.673  11.776 -0.6096  0.1555 -0.7973
   37TMC2    O2  576   4.028   0.890  11.272 -0.2603  0.0602 -0.0315
   37TMC2    O5  577   4.241   0.808  11.240 -0.0382 -0.8357 -0.1058
   37TMC2    H5  578   4.311   0.748  11.273  1.8026  1.0113 -0.6515
   38MPD2     C  579   3.702   0.660  12.159  0.2594 -0.4691  0.6545
   38MPD2    C1  580   3.819   0.592  12.157  0.8856  0.3411  0.2342
   38MPD2    C2  581   3.906   0.613  12.047 -0.0480 -0.6346  0.0042
   38MPD2    C3  582   3.889   0.723  11.963 -0.2714 -0.0890 -0.8072
   38MPD2    C4  583   3.782   0.803  11.979  0.2533  0.1852 -0.1054
   38MPD2    C5  584   3.683   0.765  12.069  0.0040 -0.2573  0.4159
   38MPD2     H  585   3.996   0.556  12.027 -0.5313 -0.9033 -1.3951
   38MPD2    H1  586   3.767   0.899  11.931 -0.8652  0.0452 -0.0439
   38MPD2    H2  587   3.632   0.652  12.241 -1.0260  0.7193 -0.3429
   38MPD2    H3  588   3.599   0.833  12.080 -1.2079 -1.4979 -1.1250
   38MPD2     N  589   3.985   0.756  11.864  0.0442 -0.5047 -0.2755
   38MPD2    H5  590   4.066   0.694  11.860  0.3554 -0.0858 -0.5232
   38MPD2    N1  591   3.839   0.489  12.252 -0.5507  0.0033  0.2168
   38MPD2    H7  592   3.929   0.444  12.249  0.2821  1.5476  1.7753
   39MPD2     C  593   2.553   1.168   1.417  0.1555  0.7717  0.5667
   39MPD2    C1  594   2.475   1.249   1.498 -0.1659 -0.3427  0.3028
   39MPD2    C2  595   2.349   1.283   1.457  0.0431 -0.2495 -0.1058
   39MPD2    C3  596   2.296   1.235   1.340  0.2829 -0.4980  0.5541
   39MPD2    C4  597   2.367   1.141   1.271  0.1164 -0.2529  0.4381
   39MPD2    C5  598   2.501   1.120   1.303 -0.3393 -0.0550 -0.1761
   39MPD2     H  599   2.295   1.356   1.517 -0.6289 -2.4010  1.8706
   39MPD2    H1  600   2.338   1.117   1.169 -0.7313  1.0447  0.3700
   39MPD2    H2  601   2.656   1.146   1.442  0.9729  0.4800 -3.1320
   39MPD2    H3  602   2.574   1.063   1.246 -1.3105 -0.4583 -1.0332
   39MPD2     N  603   2.164   1.261   1.303 -0.4735 -0.1147 -0.2542
   39MPD2    H5  604   2.126   1.198   1.233  1.6429 -1.0676 -0.5448
   39MPD2    N1  605   2.535   1.308   1.608  0.6750  0.9951  0.2520
   39MPD2    H7  606   2.633   1.287   1.619 -0.1755 -0.9700  3.9373
   40TCq2    C1  607   2.481   1.397   1.694  0.5685  0.3065  0.1050
   40TCq2    O2  608   2.361   1.422   1.714 -0.7916 -0.6027 -0.2365
   40TCq2    C2  609   2.584   1.451   1.778 -0.3323 -0.2161 -0.8823
   40TCq2    C3  610   2.518   1.535   1.869 -0.2021 -0.4299  0.3429
   40TCq2    C4  611   2.558   1.660   1.886  0.0432  0.3160  0.1968
   40TCq2    C5  612   2.670   1.713   1.822 -0.3003  0.0145  0.6179
   40TCq2    C6  613   2.733   1.629   1.730  0.0708 -0.4716  0.1464
   40TCq2    C7  614   2.686   1.504   1.703 -0.1602  0.2054 -0.6767
   40TCq2    C8  615   2.841   1.682   1.652  0.2482  0.3655  0.0144
   40TCq2    O4  616   2.889   1.596   1.577 -0.1968 -0.5631 -0.2868
   40TCq2    C9  617   2.497   1.742   1.980 -0.1986  0.4297  0.4006
   40TCq2    O5  618   2.528   1.861   1.978 -0.0736  0.1502 -0.0948
   40TCq2    O6  619   2.416   1.691   2.066  0.2974  0.2298 -0.0272
   40TCq2    H2  620   2.439   1.501   1.934 -1.9888 -0.8134 -2.0404
   40TCq2    H3  621   2.708   1.812   1.844 -0.9512 -0.0462  2.0904
   40TCq2    H4  622   2.738   1.439   1.633  1.7485  1.0304 -0.0360
   41TMC2    C1  623   1.073   3.959  13.476 -0.2475  0.1819  0.6694
   41TMC2    C2  624   1.107   3.832  13.494  0.4403 -0.0246  0.1699
   41TMC2    C3  625   1.218   3.784  13.430  0.0523  0.2744 -0.2432
   41TMC2    C4  626   1.140   4.043  13.390  0.2884  0.4045  0.4163
   41TMC2    C5  627   1.244   3.990  13.317 -0.3147 -0.6135  0.8018
   41TMC2    C6  628   1.290   3.860  13.338  0.7603  0.0053 -0.6643
   41TMC2     C  629   1.000   4.019  13.586 -0.6135  0.2259 -0.5469
   41TMC2     O  630   0.904   3.957  13.633 -0.7530  0.5928  0.4375
   41TMC2     H  631   1.056   3.778  13.573 -3.8945  3.2773 -0.3694
   41TMC2    H1  632   1.124   4.150  13.396  1.7390  0.8305 -3.3431
   41TMC2    H2  633   1.378   3.821  13.288  1.2332  0.4202 -0.1569
   41TMC2    C7  634   1.253   4.028  13.178  0.0162 -0.0313 -0.1505
   41TMC2    C8  635   1.254   3.643  13.448 -0.1094  0.6292  0.0973
   41TMC2    O1  636   1.272   3.935  13.101 -0.2461 -0.5827 -0.1576
   41TMC2    O2  637   1.335   3.587  13.377  0.4482 -0.1145 -0.2010
   41TMC2    O5  638   1.200   3.589  13.565  0.5604  0.0870 -0.5926
   41TMC2    H5  639   1.186   3.667  13.622  0.3507  0.7247 -1.5005
   42MPD2     C  640   0.940   4.141  13.859  0.1368  0.1123  0.3344
   42MPD2    C1  641   1.058   4.158  13.786  0.4068  0.0327 -0.0824
   42MPD2    C2  642   1.161   4.224  13.838  0.0400  0.0753 -0.1684
   42MPD2    C3  643   1.155   4.282  13.965 -0.5404 -0.1441 -0.9015
   42MPD2    C4  644   1.040   4.259  14.038  0.3042  0.1845  0.8241
   42MPD2    C5  645   0.933   4.191  13.989  0.3639  0.1983 -0.1497
   42MPD2     H  646   1.258   4.223  13.790  0.0928  1.2096 -0.0803
   42MPD2    H1  647   1.032   4.309  14.134  1.0499 -1.3466  1.6646
   42MPD2    H2  648   0.858   4.082  13.819  0.9265 -0.7685  0.0129
   42MPD2    H3  649   0.848   4.170  14.053 -0.2749 -0.2394 -1.1490
   42MPD2     N  650   1.265   4.358  14.012  0.6183  0.1643 -0.3158
   42MPD2    H5  651   1.267   4.404  14.102 -1.4603  0.3892 -0.3977
   42MPD2    N1  652   1.083   4.103  13.653  0.5151 -0.1892  0.3411
   42MPD2    H7  653   1.176   4.125  13.618  0.3967 -0.4870 -0.1521
   43MPD2     C  654   2.606   3.170   1.473  0.4700  0.0404 -0.6932
   43MPD2    C1  655   2.668   3.060   1.536  0.6118  0.0472  0.0607
   43MPD2    C2  656   2.725   3.082   1.669  0.1106 -0.5375 -0.2945
   43MPD2    C3  657   2.720   3.213   1.724  0.4386  0.4488 -0.1913
   43MPD2    C4  658   2.644   3.310   1.660 -0.0576  0.8160 -0.9956
   43MPD2    C5  659   2.586   3.287   1.536  0.5902  0.2426 -0.4065
   43MPD2     H  660   2.777   3.000   1.716 -1.0529 -0.7958  0.5376
   43MPD2    H1  661   2.620   3.402   1.712 -2.7385  0.2464 -1.2383
   43MPD2    H2  662   2.553   3.151   1.380  2.3063 -2.3385 -1.2742
   43MPD2    H3  663   2.525   3.361   1.486 -1.5826 -0.0200  1.8483
   43MPD2     N  664   2.774   3.250   1.850  0.5729 -0.3200 -0.4525
   43MPD2    H5  665   2.761   3.346   1.878 -0.1190 -0.6744  0.4414
   43MPD2    N1  666   2.682   2.929   1.484  0.3043  0.3103  0.2960
   43MPD2    H7  667   2.707   2.853   1.547 -0.6855 -1.0037 -0.8982
   44TCq2    C1  668   2.783   3.492   2.302 -0.8696  0.4031 -0.5247
   44TCq2    O2  669   2.855   3.585   2.338  0.0463 -0.4415 -0.1962
   44TCq2    C2  670   2.849   3.377   2.239  0.7347 -0.1557 -0.2003
   44TCq2    C3  671   2.964   3.337   2.305 -0.6392  0.1256 -0.5255
   44TCq2    C4  672   3.030   3.227   2.256  0.5754 -0.4476 -0.0266
   44TCq2    C5  673   2.987   3.170   2.138  0.6613 -1.0640  0.3991
   44TCq2    C6  674   2.883   3.219   2.065  0.6233 -0.5052 -0.0328
   44TCq2    C7  675   2.804   3.321   2.118 -0.1871  0.1526 -0.0401
   44TCq2    C8  676   2.852   3.168   1.925 -0.6784  0.1417  0.6244
   44TCq2    O4  677   2.908   3.066   1.890 -0.6237  0.7660 -0.3702
   44TCq2    C9  678   3.148   3.183   2.331  0.3789 -0.2081  0.4950
   44TCq2    O5  679   3.215   3.089   2.285  0.1063  0.1775  0.2009
   44TCq2    O6  680   3.199   3.270   2.411  0.2068 -0.0041  0.8262
   44TCq2    H2  681   2.990   3.377   2.402 -1.4675 -1.9558  0.5705
   44TCq2    H3  682   3.051   3.091   2.100  0.9154 -0.4670 -0.4212
   44TCq2    H4  683   2.727   3.373   2.063 -1.4172 -1.6510 -0.0454
   45TMC2    C1  684   3.546   0.270   9.635  1.0956 -0.5606  0.2911
   45TMC2    C2  685   3.569   0.258   9.766  1.0631  0.6812 -1.0649
   45TMC2    C3  686   3.607   0.370   9.833  0.4601 -0.1284  0.8551
   45TMC2    C4  687   3.562   0.395   9.570  0.3297 -0.4905 -0.7826
   45TMC2    C5  688   3.588   0.506   9.642  0.7899 -0.5647 -0.2442
   45TMC2    C6  689   3.614   0.499   9.777 -0.7096  0.1125 -0.3015
   45TMC2     C  690   3.465   0.174   9.576 -0.0014 -1.1676 -0.1422
   45TMC2     O  691   3.469   0.062   9.628  0.6673 -0.2277  0.0605
   45TMC2     H  692   3.565   0.158   9.809  1.4427  0.6911 -1.0032
   45TMC2    H1  693   3.584   0.406   9.465 -1.8295  1.1753 -1.0742
   45TMC2    H2  694   3.608   0.589   9.837 -0.2658 -0.6106  0.8182
   45TMC2    C7  695   3.611   0.631   9.563 -0.3695  0.0024  0.1831
   45TMC2    C8  696   3.648   0.367   9.964  1.3442  0.1228  0.1741
   45TMC2    O1  697   3.589   0.626   9.443 -0.1123 -0.6048  0.5281
   45TMC2    O2  698   3.730   0.449  10.006 -0.2026  0.1348 -0.5760
   45TMC2    O5  699   3.559   0.297  10.030 -0.2953  0.2701  0.3129
   45TMC2    H5  700   3.493   0.254   9.971 -0.6875 -0.1616  1.0602
   46MPD2     C  701   3.274   0.021   9.402 -0.0224 -0.2914 -0.6467
   46MPD2    C1  702   3.305   0.153   9.390  0.1039 -0.4544 -0.1397
   46MPD2    C2  703   3.217   0.233   9.323 -0.3048  0.4939 -0.2107
   46MPD2    C3  704   3.106   0.175   9.250  1.9070  0.0089  0.4039
   46MPD2    C4  705   3.084   0.035   9.253  0.0713  0.8161 -0.6108
   46MPD2    C5  706   3.164   4.690   9.343  0.1770 -0.2014 -0.5140
   46MPD2     H  707   3.222   0.340   9.339 -0.0084  0.2841  1.0824
   46MPD2    H1  708   3.010   4.705   9.192  0.1711  0.3598 -0.3329
   46MPD2    H2  709   3.334   4.670   9.453  0.6285  0.4921 -0.2639
   46MPD2    H3  710   3.148   4.584   9.355 -0.0653 -0.0079  0.8089
   46MPD2     N  711   3.017   0.269   9.186  0.2053 -0.1491  0.6094
   46MPD2    H5  712   3.030   0.368   9.202  0.0919  0.2270 -1.5478
   46MPD2    N1  713   3.397   0.226   9.467 -0.0806 -0.1340  0.5893
   46MPD2    H7  714   3.413   0.324   9.444  2.5243 -1.3360 -2.5948
   47TMC2    C1  715   1.618   1.720   8.803  0.4609 -0.4681 -0.0307
   47TMC2    C2  716   1.646   1.847   8.773 -0.1697  0.1514 -0.2844
   47TMC2    C3  717   1.553   1.945   8.791  1.1788  0.1058  0.2205
   47TMC2    C4  718   1.498   1.691   8.860  0.0659 -0.1657 -0.1523
   47TMC2    C5  719   1.401   1.785   8.865  0.0572  0.0229  0.7512
   47TMC2    C6  720   1.423   1.917   8.831  0.3778  0.1743 -0.4656
   47TMC2     C  721   1.733   1.636   8.832 -0.4993  0.8817  0.7777
   47TMC2     O  722   1.832   1.685   8.882 -0.1952 -0.1986  0.0668
   47TMC2     H  723   1.749   1.870   8.748 -0.6616  1.3850 -1.1424
   47TMC2    H1  724   1.489   1.592   8.903  1.8671 -0.0526  0.4936
   47TMC2    H2  725   1.347   1.993   8.843 -0.2927 -0.2906 -1.8554
   47TMC2    C7  726   1.273   1.742   8.906  0.3687  0.0103  0.0021
   47TMC2    C8  727   1.598   2.084   8.787  0.0534  0.1535  0.1027
   47TMC2    O1  728   1.261   1.626   8.950  0.3811  0.7376  0.2764
   47TMC2    O2  729   1.717   2.119   8.789  0.6806 -0.6598 -0.2435
   47TMC2    O5  730   1.495   2.161   8.817  0.6053  0.0586 -0.2230
   47TMC2    H5  731   1.411   2.137   8.772  1.2631 -0.4005 -1.2048
   48MPD2     C  732   1.940   1.415   8.883 -0.5856 -0.2863 -0.1282
   48MPD2    C1  733   1.808   1.390   8.858 -0.3434 -0.1038 -0.1180
   48MPD2    C2  734   1.764   1.256   8.865  0.2854  0.6005  0.2616
   48MPD2    C3  735   1.853   1.151   8.886  0.0857 -0.8997 -0.1463
   48MPD2    C4  736   1.985   1.179   8.899  0.3037 -1.0121  0.0345
   48MPD2    C5  737   2.026   1.309   8.900 -0.1626  0.0858 -0.1004
   48MPD2     H  738   1.660   1.228   8.880  0.0917  1.7545  1.1128
   48MPD2    H1  739   2.062   1.104   8.906  2.2228  1.0294  0.8890
   48MPD2    H2  740   1.987   1.512   8.873 -0.8973 -0.3339 -2.0122
   48MPD2    H3  741   2.129   1.338   8.913  0.4625 -1.3891 -1.7139
   48MPD2     N  742   1.799   1.023   8.891  0.0469  0.0455 -0.0676
   48MPD2    H5  743   1.698   1.014   8.888  0.0864 -0.8974  1.4794
   48MPD2    N1  744   1.709   1.496   8.837  0.1522 -0.0792 -0.1057
   48MPD2    H7  745   1.612   1.468   8.832  0.3259 -1.0045  1.7038
   49MPD2     C  746   4.224   3.788   9.355  0.4536  0.0088  0.1814
   49MPD2    C1  747   4.110   3.736   9.406 -0.0031  0.0868  0.4461
   49MPD2    C2  748   4.112   3.694   9.535 -0.1269 -0.1498  0.0940
   49MPD2    C3  749   4.232   3.703   9.613  0.7271  0.4810 -0.1963
   49MPD2    C4  750   4.340   3.774   9.562  0.5460  0.0983 -0.1680
   49MPD2    C5  751   4.334   3.813   9.426  0.0785  0.6362  0.4738
   49MPD2     H  752   4.027   3.643   9.579 -0.1412 -0.2263 -0.0211
   49MPD2    H1  753   4.431   3.791   9.619  1.4582  1.0930 -1.9149
   49MPD2    H2  754   4.219   3.825   9.253 -0.5326 -1.2421 -0.2263
   49MPD2    H3  755   4.421   3.864   9.386  0.0236  1.2089  1.0713
   49MPD2     N  756   4.236   3.651   9.749 -0.1439 -0.2146  0.4654
   49MPD2    H5  757   4.308   3.679   9.814  0.1745 -0.8266  0.3803
   49MPD2    N1  758   3.984   3.723   9.337  0.0135 -0.2183  0.8289
   49MPD2    H7  759   3.906   3.692   9.394 -1.7031  2.1689 -0.2533
   50TCq2    C1  760   3.966   3.776   9.216  0.3410 -0.4764 -0.3528
   50TCq2    O2  761   4.040   3.837   9.139  0.4278  0.4245  0.2881
   50TCq2    C2  762   3.827   3.753   9.162 -0.7287  0.1532 -0.3365
   50TCq2    C3  763   3.799   3.823   9.048 -0.4193  0.0635 -0.4291
   50TCq2    C4  764   3.693   3.779   8.976 -0.5488  0.1202  0.4424
   50TCq2    C5  765   3.614   3.670   9.006 -0.1649  0.7933  0.0106
   50TCq2    C6  766   3.648   3.610   9.124  0.7193 -0.1652  0.2055
   50TCq2    C7  767   3.752   3.644   9.207  0.4614 -0.3387 -1.0025
   50TCq2    C8  768   3.596   3.472   9.147  0.4441 -0.8614 -0.3205
   50TCq2    O4  769   3.600   3.430   9.260  0.5595 -0.4228  0.4601
   50TCq2    C9  770   3.657   3.852   8.852  0.5207  0.5293  0.2290
   50TCq2    O5  771   3.736   3.944   8.815  0.0256 -0.2864 -0.8663
   50TCq2    O6  772   3.557   3.809   8.791  0.0456 -0.2773  0.0360
   50TCq2    H2  773   3.858   3.908   9.016 -0.2740  0.2745  0.3983
   50TCq2    H3  774   3.525   3.653   8.946  0.8931  0.3579 -1.4402
   50TCq2    H4  775   3.792   3.573   9.279 -0.4165  0.1272 -0.0606
   51MPD2     C  776   4.068   0.500   1.676  0.9514  0.2309 -0.3955
   51MPD2    C1  777   4.009   0.610   1.618 -0.3124  0.4720 -0.0428
   51MPD2    C2  778   4.008   0.728   1.692 -0.2846 -0.3517 -0.4173
   51MPD2    C3  779   4.069   0.733   1.817 -0.2802  0.1607 -0.0207
   51MPD2    C4  780   4.129   0.623   1.866  0.4295  0.0806  0.8502
   51MPD2    C5  781   4.113   0.502   1.802 -0.1426  0.3716  0.2566
   51MPD2     H  782   3.959   0.819   1.659 -0.2275  0.4510  1.6636
   51MPD2    H1  783   4.194   0.631   1.952 -0.9537 -1.0766  1.9987
   51MPD2    H2  784   4.070   0.401   1.633  0.3770  0.0601 -0.0293
   51MPD2    H3  785   4.150   0.408   1.841  0.7873  1.2948  1.6165
   51MPD2     N  786   4.077   0.851   1.886  0.1972  0.6455 -0.3006
   51MPD2    H5  787   4.124   0.844   1.976  0.4952 -2.0359 -0.6631
   51MPD2    N1  788   3.950   0.600   1.481  0.0796 -0.3911 -0.0705
   51MPD2    H7  789   3.919   0.686   1.436  1.5791 -0.0806 -0.5015
   52TCq2    C1  790   4.012   0.969   1.861 -0.1427 -0.4959 -0.1987
   52TCq2    O2  791   3.957   1.012   1.763  0.3597  1.0816 -0.1587
   52TCq2    C2  792   4.013   1.057   1.974  0.6604 -0.0312  0.2817
   52TCq2    C3  793   4.041   1.021   2.099 -0.3094  0.1064  0.2459
   52TCq2    C4  794   4.083   1.120   2.184  0.1104  0.0303 -0.2201
   52TCq2    C5  795   4.079   1.250   2.154  0.3568 -0.4041  0.3394
   52TCq2    C6  796   4.051   1.280   2.028 -0.0423  0.3573 -0.3680
   52TCq2    C7  797   4.018   1.190   1.936  0.2602  0.3777 -0.5422
   52TCq2    C8  798   4.061   1.426   1.995 -0.6361  0.1129 -0.1656
   52TCq2    O4  799   4.138   1.495   2.063 -0.1219 -0.1911 -0.6701
   52TCq2    C9  800   4.145   1.085   2.309 -0.1112  0.2479  0.1780
   52TCq2    O5  801   4.200   1.175   2.372  0.2461 -0.3919  0.2206
   52TCq2    O6  802   4.151   0.965   2.343 -0.4155 -0.0713 -0.2942
   52TCq2    H2  803   4.055   0.918   2.130 -1.9526 -0.3576 -0.5826
   52TCq2    H3  804   4.113   1.326   2.223 -0.3163  1.4532 -1.3658
   52TCq2    H4  805   3.994   1.230   1.839  0.4050  0.5770 -0.4943
   53TMC2    C1  806   0.264   0.519  12.049  0.6661  0.2069 -0.3160
   53TMC2    C2  807   0.371   0.453  12.100 -0.0178  0.2485  0.5982
   53TMC2    C3  808   0.353   0.377  12.207 -0.0888 -0.2238  0.4808
   53TMC2    C4  809   0.138   0.506  12.110  0.3777  0.0198 -0.4088
   53TMC2    C5  810   0.128   0.425  12.223  0.6664  0.1826 -0.1590
   53TMC2    C6  811   0.237   0.366  12.279  0.1963  0.3560  0.2118
   53TMC2     C  812   0.280   0.596  11.926 -0.0051 -0.8787 -0.0532
   53TMC2     O  813   0.380   0.572  11.857 -0.0939 -0.4848 -0.3754
   53TMC2     H  814   0.469   0.465  12.055 -0.4364 -1.5507 -0.8052
   53TMC2    H1  815   0.046   0.545  12.066  0.8525  1.0344 -0.4980
   53TMC2    H2  816   0.223   0.307  12.368 -1.5387  0.5840  0.0900
   53TMC2    C7  817   4.721   0.423  12.283 -0.2638 -0.6467 -0.3134
   53TMC2    C8  818   0.450   0.282  12.234 -0.2617 -0.8550 -0.7657
   53TMC2    O1  819   4.629   0.460  12.210  0.0001 -0.1301 -0.0470
   53TMC2    O2  820   0.484   0.254  12.349  0.5873 -0.7600  0.2865
   53TMC2    O5  821   0.489   0.234  12.111 -0.1624  0.2489 -0.4823
   53TMC2    H5  822   0.431   0.266  12.039 -1.1336 -1.0441 -0.2749
   54MPD2     C  823   0.214   0.756  11.675  0.0472  0.9235 -0.3170
   54MPD2    C1  824   0.133   0.720  11.772  0.1774 -0.0164  0.1095
   54MPD2    C2  825   4.717   0.737  11.754  0.6891  0.0081 -0.0858
   54MPD2    C3  826   4.668   0.820  11.655  0.2552  0.3746 -0.1851
   54MPD2    C4  827   0.045   0.874  11.569 -0.1946 -0.2175 -0.7883
   54MPD2    C5  828   0.174   0.840  11.578  0.4161 -0.6164  0.4318
   54MPD2     H  829   4.651   0.685  11.823 -1.8872  0.5857 -2.1316
   54MPD2    H1  830   0.017   0.948  11.495 -1.5334  0.7968  0.7326
   54MPD2    H2  831   0.320   0.733  11.669  0.0621  0.0228  3.3705
   54MPD2    H3  832   0.240   0.887  11.505 -0.6971 -2.4945 -1.7920
   54MPD2     N  833   4.531   0.835  11.631 -0.2837  0.0765 -0.5385
   54MPD2    H5  834   4.508   0.906  11.562 -1.0141 -1.1131 -1.5329
   54MPD2    N1  835   0.159   0.655  11.893  0.1073 -0.8932 -0.0320
   54MPD2    H7  836   0.079   0.635  11.951 -0.6489  1.1459 -0.3883
   55MPD2     C  837   0.163   1.521   0.902  0.8175  0.2969 -0.5989
   55MPD2    C1  838   0.041   1.561   0.944  0.1237  0.2019  0.3942
   55MPD2    C2  839   0.000   1.695   0.905 -0.0093 -0.1227 -0.5072
   55MPD2    C3  840   0.072   1.760   0.809  0.1580  0.8335 -0.5444
   55MPD2    C4  841   0.193   1.704   0.764  0.4796  1.0588 -0.9583
   55MPD2    C5  842   0.234   1.585   0.806 -0.0247 -0.5778  0.0458
   55MPD2     H  843   4.634   1.742   0.943  0.8139  0.3885  0.8079
   55MPD2    H1  844   0.257   1.759   0.696  2.4960  1.7447  1.5005
   55MPD2    H2  845   0.194   1.427   0.947  0.3077  1.3750  1.9900
   55MPD2    H3  846   0.318   1.533   0.762  1.5855  1.2858  0.8925
   55MPD2     N  847   0.024   1.889   0.767  0.3744  0.2007  0.2501
   55MPD2    H5  848   4.672   1.932   0.819  0.3552 -0.3678  0.6944
   55MPD2    N1  849   4.698   1.490   1.046  0.4479  0.5492  0.0243
   55MPD2    H7  850   0.022   1.405   1.075 -1.3089 -0.2264  0.6184
   56TCq2    C1  851   4.568   1.519   1.089 -0.1658  1.0111  0.1496
   56TCq2    O2  852   4.473   1.582   1.033  0.8275 -0.0905  0.3621
   56TCq2    C2  853   4.523   1.435   1.197  0.0329 -0.1582 -0.1251
   56TCq2    C3  854   4.626   1.392   1.283 -0.1390  0.0242 -0.1683
   56TCq2    C4  855   4.580   1.334   1.401 -0.5630  0.4595 -0.0975
   56TCq2    C5  856   4.449   1.330   1.440 -0.2288  0.3715 -0.4476
   56TCq2    C6  857   4.357   1.394   1.359  0.5251 -0.1500  0.4216
   56TCq2    C7  858   4.393   1.441   1.233 -0.0221  0.1690  0.1852
   56TCq2    C8  859   4.217   1.390   1.399  0.5362 -0.2187  0.2747
   56TCq2    O4  860   4.180   1.307   1.483  0.0507 -0.1535 -0.5192
   56TCq2    C9  861   4.667   1.256   1.486  0.4394 -0.8334  0.5150
   56TCq2    O5  862   4.625   1.228   1.605  0.1825  0.4148 -0.2060
   56TCq2    O6  863   0.044   1.197   1.432  0.2190  0.0249 -0.9259
   56TCq2    H2  864   0.009   1.393   1.259 -0.8381  0.9894 -3.1421
   56TCq2    H3  865   4.409   1.278   1.527  1.5647  0.5807  0.5138
   56TCq2    H4  866   4.318   1.464   1.159  1.0775 -0.3944 -1.1082
   57TMC2    C1  867   4.629   4.325  13.245  0.2808 -0.2005 -0.2442
   57TMC2    C2  868   4.700   4.313  13.356  0.0828  0.0207  0.6227
   57TMC2    C3  869   0.098   4.237  13.344 -0.1960  0.5012  0.3917
   57TMC2    C4  870   4.675   4.277  13.128  0.1349  0.0932 -0.6421
   57TMC2    C5  871   0.073   4.214  13.125  0.5482  0.1594  0.0134
   57TMC2    C6  872   0.147   4.182  13.231 -0.0001 -0.0990  0.5030
   57TMC2     C  873   4.485   4.308  13.281  0.1926  0.0763  0.4607
   57TMC2     O  874   4.451   4.386  13.371  0.0908 -0.0926 -0.2064
   57TMC2     H  875   4.656   4.338  13.452  0.6651  1.8495  0.4151
   57TMC2    H1  876   4.611   4.286  13.041  0.5361  3.3310 -0.5818
   57TMC2    H2  877   0.239   4.123  13.231  1.3314  2.0005  2.8754
   57TMC2    C7  878   0.118   4.183  12.989 -0.6205 -0.3715 -1.0085
   57TMC2    C8  879   0.187   4.230  13.456 -0.3108 -0.1642 -0.2024
   57TMC2    O1  880   0.093   4.264  12.904  0.1420  0.3082  0.3141
   57TMC2    O2  881   0.196   4.129  13.525  0.4239 -0.4322  0.2831
   57TMC2    O5  882   0.169   4.361  13.497  0.6683  1.3151 -0.4451
   57TMC2    H5  883   0.151   4.413  13.416  0.7189 -2.4257 -2.8605
   58MPD2     C  884   4.055   4.050  13.380 -0.2577  0.6641  0.1551
   58MPD2    C1  885   4.109   4.161  13.437 -0.1993  0.3794  0.2956
   58MPD2    C2  886   4.215   4.219  13.380 -0.1682 -1.0371 -0.0035
   58MPD2    C3  887   4.294   4.154  13.283 -0.5576  0.3985 -0.4862
   58MPD2    C4  888   4.232   4.042  13.223  0.0557  0.2629  0.0900
   58MPD2    C5  889   4.114   3.988  13.270  0.0026 -0.4119  0.4415
   58MPD2     H  890   4.260   4.306  13.426 -0.5440 -0.6374 -0.3938
   58MPD2    H1  891   4.281   4.003  13.135  0.0052 -0.7636  0.5156
   58MPD2    H2  892   3.964   4.006  13.420 -0.1759 -1.3401 -1.8313
   58MPD2    H3  893   4.066   3.907  13.218 -0.1087 -0.1415  0.1218
   58MPD2     N  894   4.415   4.201  13.228  1.0627  0.4380  0.5638
   58MPD2    H5  895   4.449   4.133  13.161 -0.0171 -0.6844  1.1444
   58MPD2    N1  896   4.044   4.225  13.549  0.2728  0.1769  0.3872
   58MPD2    H7  897   4.064   4.321  13.576  0.5066  1.0759 -3.0807
   59MPD2     C  898   2.227   4.178  12.701 -0.7221  0.2621 -0.3381
   59MPD2    C1  899   2.341   4.157  12.632  0.0563  0.0702  0.1337
   59MPD2    C2  900   2.457   4.204  12.692  0.7365  0.0519  0.9759
   59MPD2    C3  901   2.465   4.257  12.820  0.1681  0.1029 -0.3778
   59MPD2    C4  902   2.350   4.288  12.882  1.1174 -0.2007 -0.3676
   59MPD2    C5  903   2.231   4.246  12.825  0.1402  0.2300 -0.1254
   59MPD2     H  904   2.541   4.199  12.623 -0.4054 -2.0987 -0.2683
   59MPD2    H1  905   2.349   4.345  12.974  1.5656  0.4596 -0.7718
   59MPD2    H2  906   2.128   4.144  12.673 -0.7097 -0.3903  0.3970
   59MPD2    H3  907   2.136   4.257  12.876  0.5825  2.1059  0.3129
   59MPD2     N  908   2.584   4.277  12.895 -0.1454  0.1819  0.3294
   59MPD2    H5  909   2.574   4.326  12.984 -0.0566  1.4342 -0.3582
   59MPD2    N1  910   2.346   4.112  12.502  0.7535 -0.7789  0.3182
   59MPD2    H7  911   2.436   4.116  12.456  0.3652  0.0727 -0.3598
   60TCq2    C1  912   2.245   4.053  12.428 -0.6472  0.5766 -0.3644
   60TCq2    O2  913   2.154   3.988  12.478 -0.0303 -0.3676 -0.1371
   60TCq2    C2  914   2.306   4.005  12.307  0.1366 -0.8050 -0.1194
   60TCq2    C3  915   2.235   3.906  12.253 -0.1237  0.2961 -0.2021
   60TCq2    C4  916   2.264   3.853  12.131 -0.5404 -0.2067 -0.2408
   60TCq2    C5  917   2.376   3.894  12.063 -0.2599 -1.1891 -0.2416
   60TCq2    C6  918   2.452   4.001  12.118  0.1076 -0.0648  0.3661
   60TCq2    C7  919   2.410   4.063  12.235 -0.2137 -0.2597  0.0375
   60TCq2    C8  920   2.535   4.079  12.026  0.6321 -0.4291  0.1137
   60TCq2    O4  921   2.630   4.021  11.971 -0.2318  0.1323 -0.7833
   60TCq2    C9  922   2.173   3.757  12.069  0.1795 -0.3386  0.4931
   60TCq2    O5  923   2.077   3.704  12.133  0.3752  0.1975 -0.1273
   60TCq2    O6  924   2.190   3.744  11.945 -0.2587 -0.2216  0.2920
   60TCq2    H2  925   2.157   3.853  12.307 -0.3454  2.0756  1.2347
   60TCq2    H3  926   2.405   3.865  11.962  0.5123  0.4666 -0.4957
   60TCq2    H4  927   2.462   4.148  12.277 -0.2346  0.4487 -1.3844
   61MPD2     C  928   1.286   0.698  14.736  0.6449  0.6589  0.1638
   61MPD2    C1  929   1.384   0.764  14.808  0.4745  0.1789  0.1246
   61MPD2    C2  930   1.506   0.787  14.747 -0.5306  0.1051 -0.1938
   61MPD2    C3  931   1.532   0.741  14.618  0.0686 -0.0862 -0.2346
   61MPD2    C4  932   1.437   0.665  14.552 -0.7151 -0.5132  0.3704
   61MPD2    C5  933   1.312   0.652  14.608 -0.9491 -0.9859  0.0714
   61MPD2     H  934   1.586   0.831  14.806 -1.2424  0.9489  0.1216
   61MPD2    H1  935   1.443   0.621  14.453 -1.4035 -0.2791  0.2230
   61MPD2    H2  936   1.182   0.697  14.769  0.0590  0.3009 -1.6888
   61MPD2    H3  937   1.228   0.620  14.547 -0.6340 -0.1964 -0.7839
   61MPD2     N  938   1.650   0.751  14.552  0.0087  0.0157  0.1263
   61MPD2    H5  939   1.658   0.700  14.465  2.7375  1.0684 -0.2256
   61MPD2    N1  940   1.350   0.814  14.941 -0.4232  0.4457 -0.7229
   61MPD2    H7  941   1.426   0.863  14.986  0.3493 -1.7405  0.3770
   62TCq2    C1  942   1.249   0.770  15.019  0.1078 -0.1227 -0.2214
   62TCq2    O2  943   1.167   0.683  14.995  0.1147  1.0613  0.1065
   62TCq2    C2  944   1.242   0.810  15.156  0.6648  0.1409 -0.3168
   62TCq2    C3  945   1.187   0.724  15.257 -0.6821  1.0328 -0.4971
   62TCq2    C4  946   1.200   0.764  15.385  0.9202 -0.5580  0.2507
   62TCq2    C5  947   1.263   0.879  15.426 -0.2187  0.7804  0.0165
   62TCq2    C6  948   1.298   0.964  15.328 -0.0417 -0.7142  0.1820
   62TCq2    C7  949   1.293   0.934  15.191 -0.1948  0.0230  0.1445
   62TCq2    C8  950   1.349   1.089  15.368 -0.4799 -0.1553  0.4510
   62TCq2    O4  951   1.427   1.140  15.290 -0.5853  0.3927 -0.1392
   62TCq2    C9  952   1.152   0.680  15.494 -0.0201  0.5356  0.0011
   62TCq2    O5  953   1.127   0.737  15.604 -0.6946 -0.2191 -0.0295
   62TCq2    O6  954   1.085   0.581  15.451  0.2718 -0.4542 -0.2723
   62TCq2    H2  955   1.146   0.627  15.232  0.6801  0.8169 -1.8785
   62TCq2    H3  956   1.289   0.886  15.531  0.1646 -1.2185  0.0534
   62TCq2    H4  957   1.322   1.005  15.114  1.2352 -1.1809 -0.4338
   63TMC2    C1  958   1.774   1.061  10.746  0.1051  0.5039  0.4559
   63TMC2    C2  959   1.798   1.169  10.827  0.2324 -0.2252 -0.2425
   63TMC2    C3  960   1.827   1.288  10.768  0.6615  0.1720  0.7379
   63TMC2    C4  961   1.786   1.074  10.606 -0.6515 -0.3677 -0.1891
   63TMC2    C5  962   1.811   1.201  10.546 -0.5999 -0.2244  0.1555
   63TMC2    C6  963   1.820   1.308  10.634  0.3991  0.3109  0.4311
   63TMC2     C  964   1.656   0.994  10.793 -0.2579 -0.3439  0.8982
   63TMC2     O  965   1.633   0.989  10.912 -1.0126  0.5857 -0.0595
   63TMC2     H  966   1.776   1.173  10.933  0.9911 -2.1274 -0.0217
   63TMC2    H1  967   1.785   0.982  10.548 -0.8319 -0.2180 -0.4255
   63TMC2    H2  968   1.845   1.406  10.596  0.9659  0.5518  1.4250
   63TMC2    C7  969   1.746   1.227  10.416 -0.0218  0.2968  0.2280
   63TMC2    C8  970   1.865   1.401  10.840 -0.3403  0.2558 -0.1932
   63TMC2    O1  971   1.675   1.136  10.375 -0.4727 -0.3575 -0.0576
   63TMC2    O2  972   1.797   1.500  10.830 -0.3849 -0.4122 -0.0563
   63TMC2    O5  973   1.916   1.349  10.954  0.4443 -0.4697 -0.1219
   63TMC2    H5  974   1.961   1.262  10.943 -1.0714 -1.0344 -1.7736
   64MPD2     C  975   1.207   0.766  10.708 -0.2791  0.4549 -0.1983
   64MPD2    C1  976   1.280   0.769  10.590 -0.1848  0.5974  0.8917
   64MPD2    C2  977   1.387   0.850  10.586  0.3219  0.3832  0.2726
   64MPD2    C3  978   1.442   0.903  10.700  0.5599  1.0805 -0.1128
   64MPD2    C4  979   1.382   0.884  10.825  0.0273  0.7275  0.1199
   64MPD2    C5  980   1.265   0.812  10.825 -0.3887 -0.3411  0.4666
   64MPD2     H  981   1.442   0.859  10.494 -0.1820  2.0910  0.1489
   64MPD2    H1  982   1.422   0.924  10.918  0.8785 -1.9214  0.8840
   64MPD2    H2  983   1.108   0.722  10.711 -1.5495  3.2783 -1.1340
   64MPD2    H3  984   1.204   0.795  10.914  0.0306  0.7259  0.9536
   64MPD2     N  985   1.576   0.954  10.689 -0.7839 -0.8119  0.2195
   64MPD2    H5  986   1.617   0.947  10.597  0.3425 -1.2735  0.7524
   64MPD2    N1  987   1.232   0.711  10.473  0.0028  0.0599  0.1683
   64MPD2    H7  988   1.292   0.702  10.392  0.3808 -2.3609  0.7220
   65MPD2     C  989   1.746   0.292  14.955 -0.1739  0.9607  0.2263
   65MPD2    C1  990   1.728   0.280  15.090 -0.6048 -0.3522 -0.0061
   65MPD2    C2  991   1.778   0.175  15.165 -1.0523 -0.1180 -0.1117
   65MPD2    C3  992   1.862   0.080  15.103  0.4119 -0.1583 -0.6216
   65MPD2    C4  993   1.877   0.090  14.964 -0.5623 -0.3747 -0.6797
   65MPD2    C5  994   1.820   0.194  14.894 -0.0037 -0.0240  1.0524
   65MPD2     H  995   1.760   0.183  15.271 -0.7328  2.3205 -0.2315
   65MPD2    H1  996   1.932   0.017  14.905 -1.0029 -2.8508  2.0001
   65MPD2    H2  997   1.701   0.374  14.901 -0.1967  0.2858 -0.7850
   65MPD2    H3  998   1.831   0.193  14.786  1.3541  0.5891  1.1863
   65MPD2     N  999   1.921   4.693  15.166 -0.3695 -0.2560  0.7284
   65MPD2    H5 1000   1.985   4.640  15.108 -1.6125 -2.3939  1.3266
   65MPD2    N1 1001   1.667   0.386  15.169  0.1643 -0.4665  0.2874
   65MPD2    H7 1002   1.658   0.367  15.268  0.8443 -2.5925 -0.0564
   66TCq2    C1 1003   1.630   0.510  15.129 -0.4983 -0.0272  0.5800
   66TCq2    O2 1004   1.652   0.561  15.020  0.1231 -0.7520 -0.1870
   66TCq2    C2 1005   1.586   0.593  15.244  0.5767  1.1130  0.0054
   66TCq2    C3 1006   1.539   0.531  15.356  0.1593  0.0709  0.7206
   66TCq2    C4 1007   1.527   0.600  15.475 -0.3283  0.2676  0.2052
   66TCq2    C5 1008   1.558   0.735  15.471 -0.6961 -0.3985 -0.2278
   66TCq2    C6 1009   1.625   0.787  15.360  0.1372 -0.5468  0.2488
   66TCq2    C7 1010   1.627   0.719  15.243 -0.8324  1.0566 -0.4225
   66TCq2    C8 1011   1.698   0.917  15.362 -0.0108  0.0250  0.0236
   66TCq2    O4 1012   1.759   0.958  15.262  0.0665  0.7066  0.1379
   66TCq2    C9 1013   1.451   0.546  15.578 -0.7907 -0.1336  0.1668
   66TCq2    O5 1014   1.415   0.625  15.673 -0.0198  0.4130  0.3600
   66TCq2    O6 1015   1.399   0.434  15.556 -0.2106 -0.4013  0.5563
   66TCq2    H2 1016   1.506   0.428  15.352 -0.9690  0.5233 -1.5468
   66TCq2    H3 1017   1.535   0.798  15.557 -1.5617  1.1355 -1.5890
   66TCq2    H4 1018   1.678   0.753  15.153  0.2957  0.1908 -0.1080
   67MPD2     C 1019   2.404   4.126  13.639  0.7656 -0.6297 -0.8461
   67MPD2    C1 1020   2.310   4.201  13.700 -0.1070 -0.5756 -0.7686
   67MPD2    C2 1021   2.178   4.203  13.647  0.5354 -0.1575  0.7366
   67MPD2    C3 1022   2.148   4.137  13.532  0.9670  0.5053 -0.1132
   67MPD2    C4 1023   2.249   4.061  13.474 -0.1726  0.4419 -0.2303
   67MPD2    C5 1024   2.371   4.050  13.532 -0.8612 -0.0068 -0.1055
   67MPD2     H 1025   2.097   4.251  13.701 -0.1483 -0.2948 -0.1621
   67MPD2    H1 1026   2.221   3.998  13.390  1.0279  0.7948 -0.8878
   67MPD2    H2 1027   2.507   4.115  13.669  0.3168 -2.1954  0.1059
   67MPD2    H3 1028   2.453   3.995  13.486 -0.6214 -1.4705  2.0980
   67MPD2     N 1029   2.014   4.121  13.492  0.3933 -0.7057  0.0843
   67MPD2    H5 1030   2.004   4.072  13.404 -1.2858  1.5817 -1.0232
   67MPD2    N1 1031   2.338   4.267  13.821 -0.2394  0.4431 -0.0648
   67MPD2    H7 1032   2.269   4.333  13.857 -2.3721 -1.2513 -0.9936
   68TCq2    C1 1033   2.444   4.230  13.900  0.3853 -0.0738 -0.5901
   68TCq2    O2 1034   2.505   4.122  13.898 -0.1562  0.1780 -0.3672
   68TCq2    C2 1035   2.442   4.295  14.031  0.1261 -0.3624 -0.8023
   68TCq2    C3 1036   2.423   4.432  14.056 -0.0136  0.8212 -0.0066
   68TCq2    C4 1037   2.440   4.480  14.183 -0.2113  0.0687 -0.3955
   68TCq2    C5 1038   2.465   4.398  14.289 -0.3152  0.0793  0.6087
   68TCq2    C6 1039   2.481   4.263  14.261  0.6696 -0.1531  0.2748
   68TCq2    C7 1040   2.477   4.209  14.135 -0.0746  0.3935  0.1992
   68TCq2    C8 1041   2.485   4.167  14.368 -0.6088  0.9571  0.1367
   68TCq2    O4 1042   2.495   4.049  14.345 -0.1937  0.5292 -0.4759
   68TCq2    C9 1043   2.401   4.618  14.220 -0.2633  0.4626 -0.2805
   68TCq2    O5 1044   2.375   4.695  14.121  0.3107 -0.0050 -0.3377
   68TCq2    O6 1045   2.375   4.645  14.341 -0.3102 -0.0672  0.2032
   68TCq2    H2 1046   2.407   4.496  13.970  0.0349 -0.0596 -0.6690
   68TCq2    H3 1047   2.472   4.437  14.390  1.8132 -0.5959  0.7224
   68TCq2    H4 1048   2.493   4.102  14.129 -1.5733  0.1681  0.2570
   69TMC2    C1 1049   4.086   1.200  12.509 -0.4574 -0.0731 -0.2869
   69TMC2    C2 1050   3.956   1.184  12.460 -0.1133 -0.2843  0.0645
   69TMC2    C3 1051   3.920   1.251  12.346  0.1544 -0.1179 -0.5496
   69TMC2    C4 1052   4.173   1.282  12.436  0.0588 -0.5393  0.4320
   69TMC2    C5 1053   4.139   1.323  12.309  0.7312 -0.3871 -0.1210
   69TMC2    C6 1054   4.013   1.315  12.267 -0.4762 -0.6545  0.5642
   69TMC2     C 1055   4.147   1.085  12.574  0.3576 -0.0353 -0.5433
   69TMC2     O 1056   4.061   1.009  12.619  0.2886 -0.1335  0.0103
   69TMC2     H 1057   3.888   1.129  12.524 -0.1980  0.5294  0.6639
   69TMC2    H1 1058   4.275   1.291  12.474  0.5639 -1.9684 -0.5946
   69TMC2    H2 1059   3.979   1.360  12.174  0.9215 -0.8856 -0.0510
   69TMC2    C7 1060   4.258   1.335  12.222  0.5863 -0.0958  0.0599
   69TMC2    C8 1061   3.779   1.240  12.305  0.5878  0.1972 -0.2152
   69TMC2    O1 1062   4.362   1.294  12.271 -0.5756 -0.2951 -0.5673
   69TMC2    O2 1063   3.688   1.219  12.387  0.1228 -0.8103  0.3620
   69TMC2    O5 1064   3.790   1.173  12.186 -0.4252  0.2285  0.0527
   69TMC2    H5 1065   3.866   1.205  12.134 -0.8085 -1.9862 -1.8130
   70MPD2     C 1066   4.463   0.910  12.492 -0.1668 -0.1473  0.4246
   70MPD2    C1 1067   4.358   0.952  12.576 -0.5620  0.1489 -0.8390
   70MPD2    C2 1068   4.317   0.880  12.687  0.0387  0.4388 -0.2516
   70MPD2    C3 1069   4.385   0.760  12.706  0.5379 -0.5594  0.0261
   70MPD2    C4 1070   4.488   0.721  12.625 -0.4417  0.1376  0.0264
   70MPD2    C5 1071   4.521   0.792  12.515 -0.2902  0.4484 -0.3159
   70MPD2     H 1072   4.230   0.907  12.747  0.5008 -1.3253  1.2028
   70MPD2    H1 1073   4.531   0.623  12.641  1.5027  0.5585 -2.7148
   70MPD2    H2 1074   4.479   0.960  12.397  0.8252  1.4174  1.4291
   70MPD2    H3 1075   4.588   0.761  12.435 -0.7349  2.1151 -1.3337
   70MPD2     N 1076   4.341   0.667  12.807  0.0244  0.2832 -0.2621
   70MPD2    H5 1077   4.384   0.575  12.811 -2.7770 -0.9465  1.1828
   70MPD2    N1 1078   4.278   1.068  12.534  0.3166 -1.1979 -0.7983
   70MPD2    H7 1079   4.325   1.127  12.466  1.2463 -2.4919 -1.2763
   71TMC2    C1 1080   2.101   0.870   1.404 -0.3316  0.1906 -0.5582
   71TMC2    C2 1081   2.226   0.853   1.458 -0.3234  0.7799  0.0564
   71TMC2    C3 1082   2.230   0.866   1.592 -0.3625 -0.2893 -0.3770
   71TMC2    C4 1083   1.991   0.925   1.473 -0.5900 -0.0977  0.1566
   71TMC2    C5 1084   2.009   0.931   1.609 -0.2553  0.0999  0.0855
   71TMC2    C6 1085   2.130   0.909   1.670  0.1712  0.5585  0.1762
   71TMC2     C 1086   2.103   0.909   1.261 -0.4449 -0.4324  0.8776
   71TMC2     O 1087   2.024   0.997   1.225 -0.1912  0.0800  0.0312
   71TMC2     H 1088   2.317   0.842   1.401 -1.3962 -2.2544 -1.0688
   71TMC2    H1 1089   1.900   0.952   1.421 -0.0784  1.9819  0.3336
   71TMC2    H2 1090   2.138   0.907   1.778  0.1241  1.3185  0.1917
   71TMC2    C7 1091   1.901   0.984   1.690  0.3262 -0.0883  0.2212
   71TMC2    C8 1092   2.351   0.840   1.651  0.3236  0.1715  0.3273
   71TMC2    O1 1093   1.926   1.019   1.803 -0.3235  0.0199  0.7410
   71TMC2    O2 1094   2.418   0.759   1.590 -0.7837 -0.7147  0.0489
   71TMC2    O5 1095   2.409   0.952   1.699  0.0285  0.3685  0.4863
   71TMC2    H5 1096   2.348   1.026   1.721  0.9152  1.3855 -0.4726
   72MPD2     C 1097   2.349   0.942   0.803  0.0375 -0.0185 -1.1703
   72MPD2    C1 1098   2.231   0.994   0.844  0.1297 -0.3433  0.0928
   72MPD2    C2 1099   2.186   0.974   0.974  0.0594 -0.2521  0.1425
   72MPD2    C3 1100   2.255   0.889   1.056  0.0791 -0.2029  0.3125
   72MPD2    C4 1101   2.367   0.825   1.010 -0.4632 -0.4380 -0.1231
   72MPD2    C5 1102   2.413   0.851   0.885  0.2436 -0.1219  0.5017
   72MPD2     H 1103   2.096   1.027   0.999 -0.1581 -0.5372 -0.0356
   72MPD2    H1 1104   2.421   0.751   1.067 -0.0724 -0.9423 -1.1500
   72MPD2    H2 1105   2.394   0.966   0.708  1.8532  0.4629 -0.1743
   72MPD2    H3 1106   2.506   0.803   0.859  0.0790 -0.1794  0.0285
   72MPD2     N 1107   2.206   0.855   1.187  0.0227  0.2990  0.7260
   72MPD2    H5 1108   2.244   0.775   1.236  0.5645 -0.8418 -1.5677
   72MPD2    N1 1109   2.145   1.073   0.765  0.0958  0.0900 -0.2422
   72MPD2    H7 1110   2.064   1.114   0.812  0.9596  0.4136  0.9713
   73TMC2    C1 1111   1.417   2.821  13.106  0.3815 -0.3393  0.3013
   73TMC2    C2 1112   1.293   2.880  13.122 -0.2872  0.3099  0.0213
   73TMC2    C3 1113   1.219   2.862  13.241  0.1236  0.1867  0.3585
   73TMC2    C4 1114   1.470   2.752  13.219  0.8709  0.6117  0.3106
   73TMC2    C5 1115   1.400   2.753  13.337 -0.2958  0.5614 -0.2119
   73TMC2    C6 1116   1.279   2.802  13.352 -0.6544  0.1199 -0.9788
   73TMC2     C 1117   1.519   2.881  13.020  0.1346  0.0421 -0.7021
   73TMC2     O 1118   1.630   2.865  13.073 -0.0337  0.2926  0.1600
   73TMC2     H 1119   1.248   2.946  13.049 -0.5107  0.6029  0.4212
   73TMC2    H1 1120   1.565   2.701  13.209  0.1988 -0.3648 -1.1506
   73TMC2    H2 1121   1.234   2.819  13.450  1.2077 -2.5168  0.3098
   73TMC2    C7 1122   1.485   2.814  13.439 -0.2610 -0.4931  0.1477
   73TMC2    C8 1123   1.104   2.942  13.269  0.1775  0.1763 -0.4669
   73TMC2    O1 1124   1.463   2.795  13.559  0.5545  0.6968 -0.8033
   73TMC2    O2 1125   1.084   3.048  13.207  0.4898  0.5734  0.0158
   73TMC2    O5 1126   1.005   2.859  13.309  0.4716 -0.1176  0.1350
   73TMC2    H5 1127   1.036   2.788  13.369 -3.2047 -1.1325  0.8374
   74MPD2     C 1128   1.701   3.240  12.697  0.3253  0.3617 -0.5361
   74MPD2    C1 1129   1.750   3.203  12.822 -0.2763  0.0835  0.3381
   74MPD2    C2 1130   1.674   3.110  12.892  0.7603  0.1283  0.2379
   74MPD2    C3 1131   1.560   3.052  12.838 -0.0446  0.4564  0.1857
   74MPD2    C4 1132   1.510   3.096  12.715 -0.5929  0.4587 -0.5684
   74MPD2    C5 1133   1.576   3.196  12.649 -0.2262 -0.1403 -0.0514
   74MPD2     H 1134   1.709   3.094  12.994  1.6943 -0.4977 -0.1771
   74MPD2    H1 1135   1.427   3.049  12.662 -0.5306 -1.4398  1.0490
   74MPD2    H2 1136   1.758   3.315  12.642  0.5180  0.2602 -0.4731
   74MPD2    H3 1137   1.543   3.226  12.551 -1.4449  1.4436  0.8452
   74MPD2     N 1138   1.479   2.954  12.911  0.2421  0.2786  0.5738
   74MPD2    H5 1139   1.387   2.922  12.879 -0.1937 -0.3506  2.4339
   74MPD2    N1 1140   1.855   3.254  12.894 -0.4990  0.0404 -0.6260
   74MPD2    H7 1141   1.864   3.222  12.990  0.7548 -3.6501 -1.9713
   75TCq2    C1 1142   1.900   4.138  13.569  0.1215 -0.2680 -0.5685
   75TCq2    O2 1143   1.900   4.164  13.691  0.2869  0.1223 -0.7631
   75TCq2    C2 1144   1.781   4.104  13.500  0.4106 -0.3616  0.3510
   75TCq2    C3 1145   1.670   4.085  13.578  1.2009  0.0693  0.0956
   75TCq2    C4 1146   1.555   4.134  13.535 -0.0899  0.5081 -0.2126
   75TCq2    C5 1147   1.537   4.169  13.410  1.0679  0.9243  1.0050
   75TCq2    C6 1148   1.644   4.171  13.324 -0.4539  0.0165  0.0092
   75TCq2    C7 1149   1.771   4.147  13.370 -0.7776 -0.8269  0.5490
   75TCq2    C8 1150   1.640   4.264  13.213 -0.2502 -0.0766  0.0089
   75TCq2    O4 1151   1.697   4.234  13.109  0.2403 -0.2859  1.0472
   75TCq2    C9 1152   1.438   4.137  13.621  0.9786 -0.5548 -0.4108
   75TCq2    O5 1153   1.453   4.091  13.739 -0.1799 -0.0635  0.0203
   75TCq2    O6 1154   1.332   4.179  13.569 -0.0031  0.2340 -0.0407
   75TCq2    H2 1155   1.677   4.055  13.682  2.2566 -1.6593 -0.4785
   75TCq2    H3 1156   1.435   4.178  13.376  1.0328 -0.0027  0.8563
   75TCq2    H4 1157   1.858   4.168  13.308 -1.4505  1.0543  0.2508
   76MPD2     C 1158   0.534   0.751  12.214  0.5485 -0.6984  1.0102
   76MPD2    C1 1159   0.570   0.792  12.090  0.2626  0.4740  0.3387
   76MPD2    C2 1160   0.685   0.748  12.034 -0.5015  0.3702 -0.4090
   76MPD2    C3 1161   0.769   0.665  12.102  0.2313  0.3320  0.5805
   76MPD2    C4 1162   0.735   0.628  12.228 -0.1869 -0.1309 -0.1717
   76MPD2    C5 1163   0.609   0.659  12.281  0.7620  0.3578  0.2454
   76MPD2     H 1164   0.716   0.793  11.940  2.2900  1.4723  1.0601
   76MPD2    H1 1165   0.793   0.550  12.276  1.6639  1.1417 -0.3550
   76MPD2    H2 1166   0.448   0.802  12.255 -0.5534 -1.7427 -0.0094
   76MPD2    H3 1167   0.585   0.613  12.376  2.1669 -0.7282  0.0705
   76MPD2     N 1168   0.887   0.620  12.049  0.2288 -0.1926 -0.8337
   76MPD2    H5 1169   0.951   0.574  12.113  1.3743  0.3291 -1.5864
   76MPD2    N1 1170   0.488   0.877  12.014 -0.4111  0.4362  0.4185
   76MPD2    H7 1171   0.524   0.898  11.922 -2.0441 -3.0989 -1.0075
   77TCq2    C1 1172   0.935   0.625  11.919  0.0241  0.3273  0.0159
   77TCq2    O2 1173   0.867   0.651  11.818  0.2902  0.3907  0.0197
   77TCq2    C2 1174   1.066   0.562  11.903 -0.0646 -0.1994  1.1716
   77TCq2    C3 1175   1.102   0.545  11.772  0.2930 -0.7187 -0.3756
   77TCq2    C4 1176   1.218   0.472  11.750 -0.1438  0.4886  0.9871
   77TCq2    C5 1177   1.300   0.420  11.852  0.1384  0.4016  0.9425
   77TCq2    C6 1178   1.257   0.446  11.977 -0.2311 -0.5467  0.4927
   77TCq2    C7 1179   1.145   0.519  12.005 -1.1070  0.0337  0.2785
   77TCq2    C8 1180   1.359   0.428  12.080  0.2809 -0.2438  0.2236
   77TCq2    O4 1181   1.472   0.409  12.043 -0.1401  0.2516 -0.1418
   77TCq2    C9 1182   1.258   0.445  11.605 -0.4302 -0.3223  0.0983
   77TCq2    O5 1183   1.362   0.371  11.591 -0.9048  0.9279  0.0447
   77TCq2    O6 1184   1.188   0.492  11.515 -0.0555  0.0746 -0.5191
   77TCq2    H2 1185   1.055   0.600  11.691 -1.0929  2.4427  2.5865
   77TCq2    H3 1186   1.380   0.348  11.839 -0.2657 -0.1371  1.4930
   77TCq2    H4 1187   1.113   0.533  12.108 -0.6092 -0.9351  0.5631
   78MPD1     C 1188   0.852   0.665   1.515 -0.0740 -0.2930 -1.1463
   78MPD1    C1 1189   0.852   0.741   1.628  0.0714  0.0014  0.7222
   78MPD1    C2 1190   0.966   0.756   1.703  0.4506  0.5653 -0.1928
   78MPD1    C3 1191   1.075   0.675   1.668  0.9293  0.6307 -0.2968
   78MPD1    C4 1192   1.077   0.599   1.554  0.1084 -0.1794 -0.5290
   78MPD1    C5 1193   0.960   0.588   1.483  0.1611 -0.6965  0.4873
   78MPD1     H 1194   0.964   0.822   1.789  1.3025 -1.6187  1.4765
   78MPD1    H1 1195   1.166   0.546   1.525 -0.7948 -1.9210 -0.0775
   78MPD1    H2 1196   0.769   0.656   1.446 -0.9835  3.4668 -0.5334
   78MPD1    H3 1197   0.957   0.532   1.390 -0.8416 -0.3744  0.3234
   78MPD1     N 1198   1.191   0.670   1.739 -0.4230 -0.2297 -0.4312
   78MPD1    H5 1199   1.264   0.609   1.703  1.7433  1.8128  0.5196
   78MPD1    N1 1200   0.740   0.822   1.652  0.5151  0.9229  1.0110
   78MPD1    H6 1201   0.655   0.779   1.617  1.2733  0.8075 -0.6823
   78MPD1    H7 1202   0.737   0.860   1.747  0.7919  0.9701  1.0031
   79TCq2    C1 1203   1.212   0.735   1.856  0.4008  0.4498  0.6818
   79TCq2    O2 1204   1.153   0.814   1.923  1.1553  0.4483 -0.1506
   79TCq2    C2 1205   1.353   0.726   1.885 -0.5705 -0.1247 -0.6333
   79TCq2    C3 1206   1.391   0.790   1.998 -0.6389  0.4769  0.0742
   79TCq2    C4 1207   1.519   0.796   2.028 -0.6891  0.0646  0.2552
   79TCq2    C5 1208   1.610   0.769   1.933  0.2241  0.0850 -0.3670
   79TCq2    C6 1209   1.573   0.715   1.817 -0.5200 -0.3804 -0.3234
   79TCq2    C7 1210   1.445   0.680   1.793  0.0670  0.7285  0.2285
   79TCq2    C8 1211   1.680   0.690   1.726 -0.7144  0.2201  0.0665
   79TCq2    O4 1212   1.792   0.668   1.771  0.4377 -0.0113  0.2140
   79TCq2    C9 1213   1.560   0.854   2.157 -0.1360  0.3735 -0.5347
   79TCq2    O5 1214   1.476   0.872   2.253  0.0218 -1.0134 -0.4255
   79TCq2    O6 1215   1.688   0.867   2.167  0.3726 -0.6067  0.4202
   79TCq2    H2 1216   1.329   0.835   2.074  0.6590  1.5859  0.4824
   79TCq2    H3 1217   1.712   0.779   1.969  0.6411 -2.0457 -0.9567
   79TCq2    H4 1218   1.426   0.607   1.715  1.2265  1.6220 -0.9042
   80MPD2     C 1219   4.556   4.723  12.448  0.8248 -0.0098  0.8478
   80MPD2    C1 1220   4.495   0.060  12.342  0.4637  0.2583 -0.4271
   80MPD2    C2 1221   4.361   0.096  12.365 -0.0304 -0.1087  0.1463
   80MPD2    C3 1222   4.294   0.062  12.483 -0.5253  0.5030  0.4377
   80MPD2    C4 1223   4.357   4.710  12.578  0.5177 -0.1875  0.3940
   80MPD2    C5 1224   4.493   4.693  12.566 -0.7035  0.5774 -0.6203
   80MPD2     H 1225   4.314   0.158  12.290 -0.9768 -2.4980 -1.2527
   80MPD2    H1 1226   4.310   4.679  12.671 -0.7806  0.1367 -0.1690
   80MPD2    H2 1227   4.657   4.682  12.442  0.4247 -1.0028  0.9506
   80MPD2    H3 1228   4.550   4.634  12.637 -1.1334  1.7809  0.7083
   80MPD2     N 1229   4.165   0.099  12.507  0.3356 -0.2931 -0.0778
   80MPD2    H5 1230   4.128   0.068  12.596 -0.7988 -0.7123 -0.6994
   80MPD2    N1 1231   4.552   0.081  12.217  0.6440 -0.1206  0.3398
   80MPD2    H7 1232   4.501   0.139  12.152 -0.1252 -0.9034  0.2550
   81TCq2    C1 1233   4.684   0.066  12.182 -0.2268 -0.1973 -0.1400
   81TCq2    O2 1234   0.057   0.019  12.241 -0.2996  0.6810  0.0085
   81TCq2    C2 1235   4.700   0.113  12.049 -0.4002  0.7364 -0.1281
   81TCq2    C3 1236   0.096   0.158  12.008 -0.1080  0.1254 -0.1110
   81TCq2    C4 1237   0.115   0.190  11.877  0.3453  0.3842  0.0971
   81TCq2    C5 1238   0.023   0.161  11.781  0.3669  0.1079  0.2665
   81TCq2    C6 1239   4.628   0.101  11.822  0.1564 -0.0275 -0.0874
   81TCq2    C7 1240   4.604   0.087  11.958  0.0492 -0.3253 -0.0952
   81TCq2    C8 1241   4.533   0.067  11.726 -0.8428 -0.2431 -0.3855
   81TCq2    O4 1242   4.543   0.121  11.614 -0.1796  0.1948 -0.2891
   81TCq2    C9 1243   0.243   0.242  11.831 -0.2681 -0.8413 -0.4724
   81TCq2    O5 1244   0.332   0.250  11.919 -0.0641  0.5517  0.5609
   81TCq2    O6 1245   0.241   0.301  11.721 -0.1854  0.4852 -0.0110
   81TCq2    H2 1246   0.174   0.179  12.079  0.5347 -0.5017 -0.6392
   81TCq2    H3 1247   0.044   0.170  11.675  2.8144 -1.5810  0.5996
   81TCq2    H4 1248   4.506   0.051  11.987 -0.1230 -0.7371 -1.2072
   82MPD2     C 1249   2.671   0.160  10.192  0.2027 -0.9690 -0.0349
   82MPD2    C1 1250   2.629   0.038  10.156 -0.0949  0.4380  0.5190
   82MPD2    C2 1251   2.684   4.644  10.215  0.8997 -0.0345  0.0171
   82MPD2    C3 1252   2.789   4.652  10.303 -0.3962  0.4428 -0.3267
   82MPD2    C4 1253   2.841   0.058  10.335  0.0391  1.0203  0.3547
   82MPD2    C5 1254   2.775   0.166  10.282  0.6548 -0.4884  0.1989
   82MPD2     H 1255   2.647   4.547  10.186 -0.7703  0.1922  1.4082
   82MPD2    H1 1256   2.933   0.074  10.390  0.1060  0.6810  0.3407
   82MPD2    H2 1257   2.625   0.252  10.157  0.2752 -0.9609 -0.1090
   82MPD2    H3 1258   2.818   0.263  10.306  0.0740 -0.0936 -0.3754
   82MPD2     N 1259   2.840   4.546  10.369  0.2647  0.3128  0.0328
   82MPD2    H5 1260   2.918   4.570  10.429  0.2328 -1.1175  0.6361
   82MPD2    N1 1261   2.511   0.036  10.070  0.1752 -0.2931 -0.2730
   82MPD2    H7 1262   2.472   0.124  10.039 -2.4787 -2.1367 -2.1408
   83TCq2    C1 1263   2.796   4.415  10.363 -0.5979 -0.2969 -0.3456
   83TCq2    O2 1264   2.703   4.367  10.302  0.3504 -0.3168  0.0545
   83TCq2    C2 1265   2.880   4.326  10.438  0.5797 -0.1532 -0.3700
   83TCq2    C3 1266   2.980   4.376  10.523  0.6601 -0.1583  0.4259
   83TCq2    C4 1267   3.069   4.288  10.583 -0.5275 -0.9210 -0.3657
   83TCq2    C5 1268   3.060   4.156  10.565  0.5339 -0.1462  0.0180
   83TCq2    C6 1269   2.952   4.101  10.500 -0.0603  0.4156  0.5462
   83TCq2    C7 1270   2.861   4.188  10.430 -0.7565 -0.1075 -0.0523
   83TCq2    C8 1271   2.894   3.977  10.555  0.0813  0.2643  0.3333
   83TCq2    O4 1272   2.944   3.934  10.657 -0.3612 -0.3818  0.4541
   83TCq2    C9 1273   3.170   4.340  10.670 -0.0859 -0.4912 -0.0311
   83TCq2    O5 1274   3.197   4.465  10.669 -0.6083  0.4363  0.1220
   83TCq2    O6 1275   3.257   4.255  10.711 -0.5662 -0.5203 -0.1579
   83TCq2    H2 1276   2.982   4.480  10.554 -1.8978  0.4623 -1.4613
   83TCq2    H3 1277   3.129   4.096  10.623 -0.3670 -2.3528 -1.1794
   83TCq2    H4 1278   2.776   4.151  10.376  1.5182 -0.4260 -3.4065
   84TCq2    C1 1279   4.146   3.564   9.809  0.3109  0.2437  1.0547
   84TCq2    O2 1280   4.046   3.505   9.760  0.0038  0.1919 -0.6463
   84TCq2    C2 1281   4.178   3.515   9.936 -0.2338 -0.3011  0.0985
   84TCq2    C3 1282   4.300   3.547   9.989  0.3856 -0.0400 -0.1510
   84TCq2    C4 1283   4.336   3.514  10.118  0.0767 -0.1924 -0.2785
   84TCq2    C5 1284   4.243   3.451  10.195 -0.4009 -0.4322 -0.4215
   84TCq2    C6 1285   4.114   3.428  10.143 -0.4136 -0.0117  0.3667
   84TCq2    C7 1286   4.080   3.459  10.015 -0.2287  0.6710  0.2522
   84TCq2    C8 1287   4.031   3.340  10.235 -0.4503  0.1499  0.2893
   84TCq2    O4 1288   4.085   3.311  10.344  0.1571  0.2001 -0.2335
   84TCq2    C9 1289   4.460   3.561  10.179  0.1476 -0.8555 -0.5287
   84TCq2    O5 1290   4.510   3.495  10.271  0.1190 -0.2358 -0.3341
   84TCq2    O6 1291   4.527   3.652  10.116 -0.0427  0.5443 -0.7036
   84TCq2    H2 1292   4.382   3.599   9.939 -1.0884  3.2208  0.7958
   84TCq2    H3 1293   4.275   3.427  10.296 -1.2131  2.4991  0.5444
   84TCq2    H4 1294   3.989   3.441   9.959 -0.6662 -0.6359  1.3877
   85MPD2     C 1295   3.972   1.053  16.326  0.2627 -0.4295 -0.3047
   85MPD2    C1 1296   3.901   1.040  16.208 -0.2606  0.4676 -0.5165
   85MPD2    C2 1297   3.917   1.129  16.105  0.4165 -0.0824 -0.5148
   85MPD2    C3 1298   3.992   1.248  16.123  0.1577  0.5221 -0.0173
   85MPD2    C4 1299   4.059   1.263  16.243 -0.4045  0.0726  0.3746
   85MPD2    C5 1300   4.055   1.162  16.341  0.1596  0.9681  0.4308
   85MPD2     H 1301   3.865   1.112  16.011 -3.3751 -1.2921  1.7858
   85MPD2    H1 1302   4.113   1.352  16.272  1.8017 -1.1622  0.0755
   85MPD2    H2 1303   3.975   0.976  16.403 -3.1053  0.4670  0.7039
   85MPD2    H3 1304   4.119   1.168  16.429  1.6371 -1.2127 -0.4854
   85MPD2     N 1305   4.005   1.347  16.013  0.5292  0.2338 -0.0085
   85MPD2    H5 1306   3.968   1.324  15.921  2.1672  0.0167 -0.6303
   85MPD2    N1 1307   3.826   0.922  16.174 -0.3369 -0.2696 -0.0426
   85MPD2    H7 1308   3.801   0.909  16.077  1.0226 -2.9236 -0.0535
   86TCq2    C1 1309   4.094   1.455  16.015 -0.3600  0.1945  0.0455
   86TCq2    O2 1310   4.165   1.505  16.097 -0.2234  0.2702  0.1513
   86TCq2    C2 1311   4.080   1.531  15.894 -1.1340  0.0666  0.1345
   86TCq2    C3 1312   4.129   1.665  15.891  0.0863  0.6384  0.7127
   86TCq2    C4 1313   4.171   1.705  15.767 -0.2429 -0.7867  0.3168
   86TCq2    C5 1314   4.145   1.637  15.653 -0.1858 -0.7137 -0.4406
   86TCq2    C6 1315   4.094   1.508  15.654  0.6165  0.0280 -0.1731
   86TCq2    C7 1316   4.061   1.457  15.777 -0.0648  0.3611 -0.8000
   86TCq2    C8 1317   4.148   1.412  15.554 -0.0954  1.6910  0.7775
   86TCq2    O4 1318   4.167   1.299  15.593  0.3959 -0.3492  0.0172
   86TCq2    C9 1319   4.237   1.832  15.758  0.7493 -0.5008  0.5216
   86TCq2    O5 1320   4.271   1.881  15.647 -0.1206  0.6404  0.0441
   86TCq2    O6 1321   4.265   1.880  15.870  0.0286  0.2384  0.1183
   86TCq2    H2 1322   4.155   1.720  15.981  0.0339 -0.2636  1.2854
   86TCq2    H3 1323   4.181   1.683  15.561  0.4426 -0.2586  0.0309
   86TCq2    H4 1324   4.033   1.352  15.780 -0.5641  0.4971 -0.7091
   87MPD2     C 1325   1.730   4.317   1.546  0.4628 -0.0693 -0.0151
   87MPD2    C1 1326   1.753   4.354   1.417  0.5172 -0.5479 -0.9511
   87MPD2    C2 1327   1.707   4.473   1.368  0.1886 -0.8492  0.0981
   87MPD2    C3 1328   1.617   4.546   1.448 -0.6684  0.1576 -0.0538
   87MPD2    C4 1329   1.604   4.520   1.584  0.8745  0.1248 -0.0375
   87MPD2    C5 1330   1.656   4.398   1.625 -0.3690 -0.1161  0.0603
   87MPD2     H 1331   1.736   4.492   1.265  0.3537 -2.3741 -0.1275
   87MPD2    H1 1332   1.552   4.593   1.645  1.1600 -0.5606  1.0319
   87MPD2    H2 1333   1.775   4.229   1.591 -0.4221 -0.2946  0.4404
   87MPD2    H3 1334   1.642   4.363   1.727  0.3461  0.1223  0.2360
   87MPD2     N 1335   1.543   4.653   1.408 -0.1243  0.2482 -0.1044
   87MPD2    H5 1336   1.490   4.711   1.473 -1.1284  0.4403 -1.0969
   87MPD2    N1 1337   1.806   4.245   1.331 -0.0117 -0.4840  0.0291
   87MPD2    H7 1338   1.818   4.153   1.372 -1.6748 -0.9648 -0.5709
   88TCq2    C1 1339   1.843   4.252   1.200  0.1527  0.1241 -0.2496
   88TCq2    O2 1340   1.887   4.349   1.139  0.1222  0.7223 -0.5099
   88TCq2    C2 1341   1.811   4.131   1.124  0.3386  0.1078  0.3492
   88TCq2    C3 1342   1.713   4.044   1.169 -0.9768  0.1675  0.0895
   88TCq2    C4 1343   1.686   3.924   1.108 -1.0207 -0.9717 -0.4382
   88TCq2    C5 1344   1.766   3.895   1.000 -0.4548  0.2031  0.4507
   88TCq2    C6 1345   1.872   3.978   0.960 -0.3348  0.3877  0.4886
   88TCq2    C7 1346   1.896   4.100   1.024  0.1172  0.4833  0.7750
   88TCq2    C8 1347   1.939   3.967   0.832 -0.1564 -0.2563 -0.5214
   88TCq2    O4 1348   1.989   4.067   0.782  0.5643  0.3715  0.6285
   88TCq2    C9 1349   1.561   3.858   1.140  0.1036 -0.0136 -0.2350
   88TCq2    O5 1350   1.501   3.898   1.242 -0.0485 -0.4473 -0.9792
   88TCq2    O6 1351   1.515   3.776   1.059  0.1923  0.6547 -0.3755
   88TCq2    H2 1352   1.652   4.078   1.251 -0.1235 -0.3948  0.9613
   88TCq2    H3 1353   1.740   3.813   0.933  0.7506  1.2818 -1.3361
   88TCq2    H4 1354   1.961   4.175   0.981 -0.6708 -0.7696 -2.6163
   89MPD2     C 1355   2.988   1.841   1.443  0.1685  0.0017  0.3996
   89MPD2    C1 1356   2.948   1.889   1.565  0.1874 -0.1682 -0.3554
   89MPD2    C2 1357   2.984   2.021   1.601  0.5965  0.6492  0.1383
   89MPD2    C3 1358   3.067   2.101   1.515  0.2451  0.1821 -0.1017
   89MPD2    C4 1359   3.123   2.035   1.402 -0.5491  0.4740 -0.5237
   89MPD2    C5 1360   3.074   1.916   1.366  0.2233 -0.7885  0.0428
   89MPD2     H 1361   2.944   2.057   1.695  0.6289 -2.4461  1.3511
   89MPD2    H1 1362   3.192   2.083   1.332 -1.7818  0.4619 -1.7440
   89MPD2    H2 1363   2.968   1.740   1.407 -2.7264  0.4990  0.6054
   89MPD2    H3 1364   3.105   1.876   1.270 -1.5324  0.5443 -1.0748
   89MPD2     N 1365   3.096   2.235   1.545  0.0844 -0.8204  0.1749
   89MPD2    H5 1366   3.059   2.278   1.629  0.2804  0.8193 -0.5723
   89MPD2    N1 1367   2.869   1.817   1.661 -0.1168 -0.5158 -0.2267
   89MPD2    H7 1368   2.832   1.867   1.742 -0.2367 -3.7611  1.7049
   90TCq2    C1 1369   3.165   2.326   1.471  0.3797 -0.3932  0.4831
   90TCq2    O2 1370   3.214   2.323   1.358 -0.3284 -0.0012  0.2071
   90TCq2    C2 1371   3.156   2.454   1.537  0.2508 -0.4064 -0.2571
   90TCq2    C3 1372   3.119   2.452   1.670 -0.6891 -0.1841  0.3269
   90TCq2    C4 1373   3.056   2.562   1.727  0.2342 -0.3725  0.6400
   90TCq2    C5 1374   3.036   2.674   1.655  0.1313 -0.2452 -0.4915
   90TCq2    C6 1375   3.079   2.677   1.528 -0.5627 -0.8455 -0.0572
   90TCq2    C7 1376   3.143   2.569   1.466  0.8962 -0.0704  0.3691
   90TCq2    C8 1377   3.069   2.812   1.465  0.0575  0.0309 -0.0952
   90TCq2    O4 1378   2.995   2.897   1.514  0.2400 -0.4271 -0.0912
   90TCq2    C9 1379   3.016   2.559   1.862 -0.3691  0.1256 -0.1628
   90TCq2    O5 1380   3.084   2.480   1.930 -0.8103  0.5170 -0.0741
   90TCq2    O6 1381   2.949   2.656   1.903 -0.1031 -0.3713 -0.1672
   90TCq2    H2 1382   3.143   2.367   1.734  0.8806  0.8673  1.1319
   90TCq2    H3 1383   2.991   2.762   1.700 -2.1926 -0.7189 -1.8895
   90TCq2    H4 1384   3.113   2.555   1.363 -1.2262  2.0750  0.6871
   91TMC2    C1 1385   4.153   2.057  16.444 -0.0790  0.1468  0.8815
   91TMC2    C2 1386   4.202   2.116  16.560  0.2899  0.1034  0.2755
   91TMC2    C3 1387   4.115   2.117  16.664 -0.2067  0.3978 -0.4724
   91TMC2    C4 1388   4.033   1.994  16.443 -0.0767  0.5410  0.3625
   91TMC2    C5 1389   3.951   2.009  16.547 -0.1880  0.4164  0.1249
   91TMC2    C6 1390   3.990   2.070  16.657 -0.2032 -0.4960  1.2489
   91TMC2     C 1391   4.251   2.010  16.339 -0.5677  0.0336  0.2364
   91TMC2     O 1392   4.206   1.920  16.274 -0.2808  0.3104  0.3478
   91TMC2     H 1393   4.304   2.152  16.573  0.4032 -0.0798 -0.1141
   91TMC2    H1 1394   3.997   1.933  16.361  2.2230  1.0363 -1.0127
   91TMC2    H2 1395   3.930   2.069  16.748  0.0690 -0.9943  1.4208
   91TMC2    C7 1396   3.820   1.958  16.556  0.0249  0.1586  0.1240
   91TMC2    C8 1397   4.159   2.175  16.787 -0.1064 -0.6580  0.4552
   91TMC2    O1 1398   3.773   1.928  16.665  0.6981  0.2830  0.1056
   91TMC2    O2 1399   4.087   2.213  16.877  0.4056 -0.3020 -0.0846
   91TMC2    O5 1400   4.287   2.202  16.804  0.5808 -0.7204  0.0485
   91TMC2    H5 1401   4.347   2.177  16.731  1.1375 -0.4917  0.4242
   92MPD2     C 1402   4.495   1.903  16.200  0.3621  0.3652 -0.7251
   92MPD2    C1 1403   4.499   1.994  16.302 -0.8809  0.1217  0.1677
   92MPD2    C2 1404   4.627   2.026  16.343 -0.1802  0.4021 -0.1901
   92MPD2    C3 1405   0.023   1.972  16.301 -0.7012  0.0372 -0.3105
   92MPD2    C4 1406   0.005   1.882  16.199 -1.0353 -0.0124  0.0991
   92MPD2    C5 1407   4.611   1.853  16.142 -0.3352  0.3940 -0.0484
   92MPD2     H 1408   4.643   2.098  16.423  1.6348  0.4390 -0.5932
   92MPD2    H1 1409   0.088   1.827  16.157 -0.6647 -0.1324  0.9705
   92MPD2    H2 1410   4.404   1.857  16.163 -1.2770  1.3874  2.0339
   92MPD2    H3 1411   4.613   1.777  16.064 -2.8087  1.7572 -1.4235
   92MPD2     N 1412   0.153   2.009  16.355 -0.5057  0.7317 -0.8665
   92MPD2    H5 1413   0.154   2.093  16.412  0.3228  0.5210 -0.5823
   92MPD2    N1 1414   4.386   2.043  16.370 -0.3891  0.3732  0.3752
   92MPD2    H7 1415   4.394   2.107  16.447 -0.0400  0.0213  0.6334
   93MPD2     C 1416   1.548   2.237  13.695 -0.0193  0.2370  0.3582
   93MPD2    C1 1417   1.508   2.358  13.751 -0.5949  0.2213 -0.2885
   93MPD2    C2 1418   1.380   2.392  13.787  0.2638 -0.1744 -0.5236
   93MPD2    C3 1419   1.289   2.296  13.776  0.0958  0.0056 -0.3608
   93MPD2    C4 1420   1.323   2.167  13.726 -0.0083 -0.1644  0.0293
   93MPD2    C5 1421   1.453   2.143  13.685  0.2178  0.8367 -0.6610
   93MPD2     H 1422   1.350   2.488  13.828  1.9141 -1.1903  3.0550
   93MPD2    H1 1423   1.252   2.086  13.715 -1.4673  0.9531  1.2655
   93MPD2    H2 1424   1.650   2.205  13.678 -0.3520 -1.3374  1.3219
   93MPD2    H3 1425   1.490   2.049  13.645 -1.6205  0.0771 -0.5820
   93MPD2     N 1426   1.151   2.319  13.802 -0.2402  0.3385 -0.1650
   93MPD2    H5 1427   1.094   2.236  13.785  0.1779  0.3031 -1.4149
   93MPD2    N1 1428   1.599   2.471  13.769 -0.4097  0.0790  0.0568
   93MPD2    H7 1429   1.566   2.556  13.813  2.2401  0.4006  1.4010
   94TCq2    C1 1430   1.729   2.462  13.740  0.6103  0.2052 -1.2317
   94TCq2    O2 1431   1.793   2.374  13.684  0.1100 -0.0689 -0.1200
   94TCq2    C2 1432   1.799   2.579  13.779  0.4273 -0.4927  0.0457
   94TCq2    C3 1433   1.745   2.680  13.855 -0.3894 -1.1793  0.4026
   94TCq2    C4 1434   1.807   2.804  13.850 -0.3350  0.1715  0.3902
   94TCq2    C5 1435   1.925   2.823  13.786 -0.0316 -0.4384  0.7680
   94TCq2    C6 1436   1.974   2.721  13.713  0.0959  0.3420 -0.2102
   94TCq2    C7 1437   1.910   2.605  13.709  0.1437  0.3012 -0.2552
   94TCq2    C8 1438   2.109   2.736  13.659  0.1364 -0.4866  0.0542
   94TCq2    O4 1439   2.153   2.643  13.590  0.1310  0.3203 -0.0768
   94TCq2    C9 1440   1.747   2.911  13.921  0.0394 -0.9458 -0.0050
   94TCq2    O5 1441   1.828   2.991  13.972  0.1360 -0.0689 -0.3998
   94TCq2    O6 1442   1.630   2.897  13.966  0.9732  0.3387  0.0023
   94TCq2    H2 1443   1.663   2.668  13.924  0.4993  0.0767  1.6739
   94TCq2    H3 1444   1.956   2.927  13.776 -0.2165 -0.3829  0.7842
   94TCq2    H4 1445   1.960   2.528  13.651  0.5509  1.2287 -1.1328
   95TMC2    C1 1446   1.561   3.892  16.058  0.1996  0.2520  0.5922
   95TMC2    C2 1447   1.588   3.772  15.993 -0.5936 -0.3061  0.7261
   95TMC2    C3 1448   1.512   3.663  16.035 -0.0387 -0.2032  0.0454
   95TMC2    C4 1449   1.462   3.909  16.156  0.0880 -0.6941 -0.9451
   95TMC2    C5 1450   1.387   3.798  16.194  0.3218 -1.0289  0.6533
   95TMC2    C6 1451   1.431   3.675  16.144 -0.1573  0.9935  0.6040
   95TMC2     C 1452   1.649   3.997  16.013 -0.0444 -0.6211 -0.1238
   95TMC2     O 1453   1.726   3.968  15.924  0.1022  0.0103  0.2627
   95TMC2     H 1454   1.663   3.764  15.916  0.0040 -1.1154  1.3863
   95TMC2    H1 1455   1.455   4.000  16.214  2.1873 -0.6100 -0.8406
   95TMC2    H2 1456   1.385   3.584  16.182  1.0704 -0.9445 -2.5597
   95TMC2    C7 1457   1.336   3.796  16.324 -1.3024  0.1338  0.2473
   95TMC2    C8 1458   1.573   3.533  16.020  0.4286  0.0205 -0.0284
   95TMC2    O1 1459   1.313   3.683  16.373 -0.0318 -0.8248 -0.3739
   95TMC2    O2 1460   1.567   3.440  16.100  0.1627 -0.5694 -0.1499
   95TMC2    O5 1461   1.622   3.522  15.897  0.0415  0.0133  1.1239
   95TMC2    H5 1462   1.606   3.591  15.830 -1.5272 -0.3873  1.0932
   96MPD2     C 1463   1.783   4.481  15.911  0.1253  0.2799  0.2892
   96MPD2    C1 1464   1.815   4.364  15.846  0.0165  0.3504  0.1907
   96MPD2    C2 1465   1.772   4.244  15.903  0.0939  0.7696 -0.8254
   96MPD2    C3 1466   1.689   4.247  16.015 -0.3314  0.0396  1.2383
   96MPD2    C4 1467   1.659   4.367  16.081 -0.1682 -0.1466 -0.4205
   96MPD2    C5 1468   1.700   4.484  16.022 -0.5639 -0.4100 -0.1362
   96MPD2     H 1469   1.804   4.154  15.853 -0.9230 -0.6717  1.1596
   96MPD2    H1 1470   1.599   4.381  16.171 -0.3576  0.3746 -0.6244
   96MPD2    H2 1471   1.815   4.576  15.870  0.6246  0.4019  0.9764
   96MPD2    H3 1472   1.673   4.578  16.069 -0.0323 -0.2559 -0.1458
   96MPD2     N 1473   1.632   4.124  16.064  0.2189 -0.6356  0.3114
   96MPD2    H5 1474   1.555   4.126  16.131  0.1462 -1.0683  0.2406
   96MPD2    N1 1475   1.868   4.380  15.713  0.0813 -0.3561  0.6206
   96MPD2    H7 1476   1.878   4.476  15.682  0.1625 -0.1648  1.2277
   97MPD2     C 1477   2.990   0.677   0.458 -0.4605 -0.1230 -0.6503
   97MPD2    C1 1478   2.973   0.811   0.489 -0.7418  0.0423  0.0557
   97MPD2    C2 1479   2.972   0.891   0.375 -0.0398 -0.3856  0.1862
   97MPD2    C3 1480   2.991   0.851   0.248 -0.1328 -1.1348 -0.3692
   97MPD2    C4 1481   3.022   0.718   0.223 -0.7601  0.0507 -0.1543
   97MPD2    C5 1482   3.019   0.634   0.331  0.1641 -0.7253  0.2460
   97MPD2     H 1483   2.957   0.998   0.387  2.3796 -0.0340 -0.0287
   97MPD2    H1 1484   3.029   0.676   0.124 -0.3800 -1.1184  0.3673
   97MPD2    H2 1485   2.979   0.603   0.536  0.5352  3.8901  3.2749
   97MPD2    H3 1486   3.022   0.529   0.303 -1.5758 -0.8572  0.5655
   97MPD2     N 1487   2.997   0.942   0.139 -0.2916  0.6462  0.0299
   97MPD2    H5 1488   3.013   0.907   0.045  0.2447  1.8921 -0.3520
   97MPD2    N1 1489   2.949   0.852   0.619  0.2527 -0.2667 -0.5615
   97MPD2    H7 1490   2.958   0.780   0.691  0.0777  2.1518  1.8724
   98TCq2    C1 1491   2.972   1.077   0.142 -0.2775  0.5198 -0.5329
   98TCq2    O2 1492   2.981   1.154   0.236 -0.0773  0.0113  0.3487
   98TCq2    C2 1493   2.952   1.132   0.009  0.1108  0.1400 -0.1913
   98TCq2    C3 1494   2.910   1.049  17.601 -0.0059  0.7797  0.2704
   98TCq2    C4 1495   2.924   1.098  17.473  0.2177 -0.0094  0.2555
   98TCq2    C5 1496   2.972   1.225  17.453 -0.3193  0.4284 -0.3340
   98TCq2    C6 1497   2.986   1.309  17.561 -0.2398  0.0173  0.1361
   98TCq2    C7 1498   2.982   1.262  17.684  0.1423 -0.1794  0.3019
   98TCq2    C8 1499   3.102   1.398  17.552  0.0057  0.2458  0.4309
   98TCq2    O4 1500   3.141   1.465  17.646  0.0802  0.0917 -0.2060
   98TCq2    C9 1501   2.875   1.017  17.368  0.0965  0.0270  1.5330
   98TCq2    O5 1502   2.896   1.062  17.251 -0.0372 -0.1357  0.0876
   98TCq2    O6 1503   2.839   0.899  17.391 -0.2382  0.2682 -0.0442
   98TCq2    H2 1504   2.877   0.947  17.612 -0.0116  0.9417  1.8982
   98TCq2    H3 1505   2.967   1.260  17.351  0.1852  1.6440  0.0655
   98TCq2    H4 1506   3.023   1.320   0.070  0.0761  1.9869 -1.2417
   99MPD2     C 1507   2.378   3.813   2.274  0.4927 -0.1257  0.2375
   99MPD2    C1 1508   2.334   3.679   2.254 -0.2330 -0.0477  0.7009
   99MPD2    C2 1509   2.425   3.577   2.239  0.4186  0.4275 -0.3038
   99MPD2    C3 1510   2.563   3.608   2.261  1.0409 -0.6887 -0.0213
   99MPD2    C4 1511   2.609   3.737   2.292  0.6109 -0.6946  0.4217
   99MPD2    C5 1512   2.508   3.833   2.288  0.5344 -0.0802  0.7053
   99MPD2     H 1513   2.393   3.476   2.217 -1.8079  1.3571 -1.2493
   99MPD2    H1 1514   2.716   3.758   2.296  0.8304 -1.3673 -1.7728
   99MPD2    H2 1515   2.312   3.899   2.271  0.3066 -0.2940 -0.6586
   99MPD2    H3 1516   2.529   3.936   2.314 -0.3310 -0.1269  1.6069
   99MPD2     N 1517   2.653   3.494   2.262  0.1679 -1.1183  0.7400
   99MPD2    H5 1518   2.619   3.402   2.237  1.1335 -1.4321  0.5488
   99MPD2    N1 1519   2.200   3.649   2.222 -0.2002 -0.3990 -0.5065
   99MPD2    H7 1520   2.200   3.562   2.170  3.1164  0.2750 -1.6196
  100TCq2    C1 1521   2.089   3.726   2.250 -0.2727  0.5720 -0.4156
  100TCq2    O2 1522   2.088   3.838   2.310  0.1236  0.7126  0.4569
  100TCq2    C2 1523   1.972   3.663   2.201 -0.0542  0.1737 -0.3356
  100TCq2    C3 1524   1.851   3.706   2.249  0.4531  0.0415 -1.2330
  100TCq2    C4 1525   1.736   3.651   2.192 -0.0823  0.2719 -0.6296
  100TCq2    C5 1526   1.746   3.568   2.086  0.2426  0.2597 -0.9205
  100TCq2    C6 1527   1.869   3.521   2.044 -0.2478 -0.1482  0.8019
  100TCq2    C7 1528   1.980   3.568   2.108 -0.5228 -0.3491  0.4770
  100TCq2    C8 1529   1.882   3.444   1.918  0.5460  0.3403 -0.0561
  100TCq2    O4 1530   1.992   3.444   1.869  0.2952  0.6421 -0.6873
  100TCq2    C9 1531   1.605   3.682   2.248  0.3630  0.0239  0.0564
  100TCq2    O5 1532   1.609   3.790   2.315 -0.1446  0.3833 -0.3534
  100TCq2    O6 1533   1.506   3.608   2.220  0.3686 -0.1490  0.0267
  100TCq2    H2 1534   1.838   3.766   2.337  1.3310  0.0673 -1.1196
  100TCq2    H3 1535   1.654   3.528   2.046  0.2844 -0.1274 -0.6287
  100TCq2    H4 1536   2.075   3.545   2.061 -1.3685 -0.3376 -1.2158
  101MPD2     C 1537   3.395   0.037  12.725 -0.5627 -0.8127 -0.6143
  101MPD2    C1 1538   3.253   0.054  12.723 -0.0432 -0.4448 -0.4117
  101MPD2    C2 1539   3.178   4.672  12.768  0.0008  0.3751  0.2460
  101MPD2    C3 1540   3.235   4.564  12.826  0.2283  0.3544  0.0366
  101MPD2    C4 1541   3.371   4.556  12.846  1.4740 -0.2755 -0.1678
  101MPD2    C5 1542   3.454   4.651  12.791  0.8402 -0.7984 -0.0598
  101MPD2     H 1543   3.071   4.667  12.750 -0.3553  0.7450  2.2574
  101MPD2    H1 1544   3.406   4.469  12.901  3.1481  0.8209  0.4602
  101MPD2    H2 1545   3.459   0.119  12.695 -2.1233 -0.1911 -2.3126
  101MPD2    H3 1546   3.561   4.642  12.811  0.6611  1.7188  2.0705
  101MPD2     N 1547   3.138   4.469  12.871  0.1829  0.9628 -0.0953
  101MPD2    H5 1548   3.040   4.497  12.863  0.2262  1.7324  1.8783
  101MPD2    N1 1549   3.196   0.172  12.674 -0.0804 -0.3862  0.2452
  101MPD2    H7 1550   3.259   0.243  12.639  0.0352 -0.6892 -0.1546
  102TCq2    C1 1551   3.218   0.606  12.485  0.0424  0.5670 -0.9439
  102TCq2    O2 1552   3.322   0.545  12.498 -0.3540 -0.1161 -0.6540
  102TCq2    C2 1553   3.100   0.543  12.544  0.3396  0.1316  0.5131
  102TCq2    C3 1554   3.013   0.619  12.614  0.0301  0.2076  0.3497
  102TCq2    C4 1555   2.945   0.564  12.717  0.1049  0.6046  0.1181
  102TCq2    C5 1556   2.957   0.432  12.745  0.1789  0.1144 -0.6863
  102TCq2    C6 1557   3.031   0.347  12.660 -0.2974 -0.1042  0.6899
  102TCq2    C7 1558   3.114   0.409  12.566 -0.7273 -0.6667 -0.0172
  102TCq2    C8 1559   3.065   0.214  12.707  0.6046  0.4118  0.1590
  102TCq2    O4 1560   2.975   0.151  12.763  0.7802  0.4576  0.2558
  102TCq2    C9 1561   2.860   0.648  12.801 -0.5085 -0.4896  0.0338
  102TCq2    O5 1562   2.807   0.582  12.896  0.8948 -0.2783  0.3254
  102TCq2    O6 1563   2.839   0.767  12.764  0.5807 -0.4782  0.0486
  102TCq2    H2 1564   2.993   0.721  12.583  0.2449  0.2891  0.4763
  102TCq2    H3 1565   2.905   0.387  12.828  0.2759  3.6845  1.2915
  102TCq2    H4 1566   3.182   0.355  12.502 -0.2674 -0.6316  0.4400
  103TMC2    C1 1567   1.172   0.224  12.823  0.8327 -0.2369  0.5138
  103TMC2    C2 1568   1.187   0.308  12.928  0.3431  0.6355  0.2620
  103TMC2    C3 1569   1.149   0.267  13.051 -0.1838  0.2639  0.4457
  103TMC2    C4 1570   1.119   0.101  12.843 -0.1892  0.0097 -0.3366
  103TMC2    C5 1571   1.083   0.056  12.972 -0.3935  0.3107  0.9829
  103TMC2    C6 1572   1.103   0.145  13.078 -0.3533  0.4023 -0.2298
  103TMC2     C 1573   1.213   0.256  12.691 -0.5767  0.0796 -0.0798
  103TMC2     O 1574   1.154   0.197  12.600 -0.1860  0.0900  0.4149
  103TMC2     H 1575   1.228   0.408  12.930  0.3368  0.7787 -5.1074
  103TMC2    H1 1576   1.112   0.035  12.758 -0.6724 -0.8136  0.3457
  103TMC2    H2 1577   1.087   0.111  13.180  1.8526 -1.8315 -0.6321
  103TMC2    C7 1578   1.114   4.644  13.004 -0.6400 -0.1246  0.6847
  103TMC2    C8 1579   1.179   0.359  13.165 -0.4694  0.7630  0.0845
  103TMC2    O1 1580   1.168   4.629  13.112  0.2100 -0.1532 -0.3720
  103TMC2    O2 1581   1.274   0.434  13.169 -1.2092 -0.0734 -0.0314
  103TMC2    O5 1582   1.078   0.355  13.247 -0.3990  0.6652 -0.2130
  103TMC2    H5 1583   1.000   0.303  13.217 -0.5752 -1.5836  4.1753
  104MPD2     C 1584   1.517   0.404  12.566 -0.4346  0.3187 -0.0478
  104MPD2    C1 1585   1.385   0.370  12.565  0.0292  0.2779  0.0164
  104MPD2    C2 1586   1.322   0.373  12.444  0.0452 -0.1498 -0.9719
  104MPD2    C3 1587   1.389   0.407  12.328 -0.0126  0.4518  0.0384
  104MPD2    C4 1588   1.523   0.433  12.333 -0.4721 -0.5165  0.1520
  104MPD2    C5 1589   1.581   0.442  12.454 -0.1298 -0.2867 -0.0770
  104MPD2     H 1590   1.214   0.363  12.444 -0.1795  2.0230  2.4837
  104MPD2    H1 1591   1.595   0.457  12.255 -0.1050 -0.3973  0.5258
  104MPD2    H2 1592   1.569   0.409  12.661  0.1801 -1.1373 -0.3029
  104MPD2    H3 1593   1.683   0.477  12.464  0.3034 -2.0356  1.6841
  104MPD2     N 1594   1.313   0.402  12.210 -0.0248 -0.1276  0.0131
  104MPD2    H5 1595   1.213   0.387  12.222 -0.3978  0.3299 -2.5094
  104MPD2    N1 1596   1.328   0.331  12.688  0.1334  0.1329 -0.0900
  104MPD2    H7 1597   1.377   0.345  12.776  1.0173 -0.5074 -0.4749
  105MPD2     C 1598   2.948   4.183  17.291  0.9027  1.0179  0.4384
  105MPD2    C1 1599   2.820   4.215  17.253  0.0054 -0.1456  0.0236
  105MPD2    C2 1600   2.721   4.199  17.346 -0.2230  0.7134  0.0083
  105MPD2    C3 1601   2.742   4.135  17.464  0.5839 -0.2744 -0.0502
  105MPD2    C4 1602   2.870   4.099  17.503  0.0138  0.2129  0.5907
  105MPD2    C5 1603   2.968   4.115  17.412  0.0551 -1.2158  0.6980
  105MPD2     H 1604   2.621   4.229  17.316 -0.1137 -0.7006 -1.7722
  105MPD2    H1 1605   2.893   4.053  17.598  1.6027 -0.3020 -0.0459
  105MPD2    H2 1606   3.025   4.183  17.215 -0.0683  0.4843 -0.5518
  105MPD2    H3 1607   3.068   4.095  17.447 -0.2485 -1.1876  1.5803
  105MPD2     N 1608   2.624   4.101  17.533 -0.3570  0.1835 -0.1364
  105MPD2    H5 1609   2.533   4.117  17.490 -0.8976  1.1340  1.3701
  105MPD2    N1 1610   2.782   4.258  17.120 -0.0579 -0.2913  0.2180
  105MPD2    H7 1611   2.682   4.273  17.110 -0.0553  0.9030  2.0369
  106TCq2    C1 1612   2.612   4.026  17.646  0.5779  0.1784  0.2002
  106TCq2    O2 1613   2.689   3.951   0.003  0.0814  0.8403  0.1769
  106TCq2    C2 1614   2.471   4.037  17.694 -0.3529  0.1075 -0.4117
  106TCq2    C3 1615   2.404   4.152  17.687  0.1674  0.2549  0.0025
  106TCq2    C4 1616   2.315   4.185   0.094  0.4102  0.4227 -0.5948
  106TCq2    C5 1617   2.292   4.101   0.199  0.0744 -0.4362  0.1170
  106TCq2    C6 1618   2.360   3.986   0.206  0.4492 -0.3908 -0.2712
  106TCq2    C7 1619   2.453   3.952   0.108 -0.1411 -0.1090 -0.4122
  106TCq2    C8 1620   2.327   3.879   0.296  0.4787  0.1255 -0.5549
  106TCq2    O4 1621   2.388   3.773   0.274  0.9123  0.2933  0.5604
  106TCq2    C9 1622   2.246   4.313   0.094 -0.7489 -0.8656  0.1448
  106TCq2    O5 1623   2.141   4.332   0.158  0.1138 -0.8077 -0.3545
  106TCq2    O6 1624   2.303   4.402   0.018 -0.5751  0.0708 -0.2583
  106TCq2    H2 1625   2.416   4.220  17.603 -1.5356 -0.4154 -0.7850
  106TCq2    H3 1626   2.224   4.128   0.279 -0.4208  0.1781 -0.5040
  106TCq2    H4 1627   2.521   3.868   0.114 -1.3294 -0.9235  2.1187
  107TMC2    C1 1628   3.722   3.182  11.091  0.2002  0.4499 -0.8988
  107TMC2    C2 1629   3.828   3.098  11.099 -0.5115  0.3202 -0.1991
  107TMC2    C3 1630   3.875   3.043  10.983  0.3740 -0.3644 -0.3125
  107TMC2    C4 1631   3.657   3.213  10.974  0.0468 -0.0230 -0.1532
  107TMC2    C5 1632   3.701   3.143  10.860 -0.0440 -0.1848 -0.3032
  107TMC2    C6 1633   3.820   3.071  10.865 -0.2799 -0.3678  0.4426
  107TMC2     C 1634   3.696   3.263  11.204  0.1993  0.4717 -0.5593
  107TMC2     O 1635   3.594   3.328  11.212 -0.0843 -0.1342  0.5375
  107TMC2     H 1636   3.882   3.064  11.187 -1.3083  1.3470  0.6662
  107TMC2    H1 1637   3.565   3.269  10.973 -0.9249 -1.5981  0.2321
  107TMC2    H2 1638   3.845   3.013  10.777 -1.1183  1.1366 -0.7899
  107TMC2    C7 1639   3.634   3.165  10.729 -0.7363  0.2000  0.2521
  107TMC2    C8 1640   3.961   2.931  11.002 -0.4764  0.2109  0.3203
  107TMC2    O1 1641   3.518   3.207  10.729  0.1916  0.3457  0.0642
  107TMC2    O2 1642   3.923   2.823  11.053 -0.5410 -0.8122  0.4468
  107TMC2    O5 1643   4.058   2.998  11.076  0.4373 -0.1007  0.1169
  107TMC2    H5 1644   4.099   3.072  11.026 -0.2429  0.8665  1.0060
  108MPD2     C 1645   3.945   3.376  11.446  0.3161  0.9386  0.0883
  108MPD2    C1 1646   3.818   3.363  11.400 -0.1516  0.0448  0.4106
  108MPD2    C2 1647   3.716   3.434  11.464 -0.3662 -0.0354  0.0184
  108MPD2    C3 1648   3.751   3.530  11.557  0.1162  0.3430 -0.0164
  108MPD2    C4 1649   3.881   3.547  11.594 -1.2053 -0.1673  0.6184
  108MPD2    C5 1650   3.980   3.478  11.534  0.0434 -0.5186  0.3509
  108MPD2     H 1651   3.611   3.421  11.441 -0.2417 -0.1769 -0.4737
  108MPD2    H1 1652   3.905   3.616  11.674  0.6186  2.0117 -1.8009
  108MPD2    H2 1653   4.025   3.324  11.393  0.8964 -0.5598  2.4163
  108MPD2    H3 1654   4.081   3.497  11.567  1.2767 -2.1269 -2.4373
  108MPD2     N 1655   3.653   3.610  11.627 -0.0409 -0.0476  0.3979
  108MPD2    H5 1656   3.681   3.662  11.709  0.5508 -0.5062  0.4869
  108MPD2    N1 1657   3.804   3.269  11.289 -0.0472 -0.1718  0.4004
  108MPD2    H7 1658   3.891   3.226  11.261  0.8300  2.3445 -0.7455
  109MPD2     C 1659   2.553   0.186   1.969  0.2557  0.3351  0.8792
  109MPD2    C1 1660   2.576   0.225   1.839  0.0765  0.2262 -0.0990
  109MPD2    C2 1661   2.698   0.278   1.800 -0.2621  0.4346 -0.3049
  109MPD2    C3 1662   2.803   0.295   1.890  0.4993  0.0968  0.1270
  109MPD2    C4 1663   2.777   0.261   2.023 -0.1744  0.1432  0.8105
  109MPD2    C5 1664   2.647   0.209   2.056 -0.2308 -0.1553 -0.7312
  109MPD2     H 1665   2.718   0.304   1.697 -1.5629  0.0609 -0.6472
  109MPD2    H1 1666   2.848   0.286   2.100 -0.4718 -0.8773  1.4124
  109MPD2    H2 1667   2.453   0.162   2.005  0.9357 -1.8256  1.3473
  109MPD2    H3 1668   2.630   0.185   2.160  0.6391 -0.7737 -0.7254
  109MPD2     N 1669   2.927   0.345   1.844  0.0063  0.4435 -0.4530
  109MPD2    H5 1670   2.930   0.362   1.744  2.0166 -0.0571 -0.4683
  109MPD2    N1 1671   2.465   0.206   1.747  0.4927 -1.0558  0.5519
  109MPD2    H7 1672   2.369   0.205   1.782  1.1254 -0.6239  2.2878
  110TCq2    C1 1673   3.048   0.347   1.915  0.9592  0.4970  0.2113
  110TCq2    O2 1674   3.074   0.287   2.021  0.0870 -0.4197  0.4667
  110TCq2    C2 1675   3.158   0.402   1.832  0.5761 -0.9794  0.4063
  110TCq2    C3 1676   3.284   0.381   1.878  0.1918  0.7897 -0.1945
  110TCq2    C4 1677   3.392   0.419   1.811 -0.2981  0.5978 -0.3634
  110TCq2    C5 1678   3.373   0.491   1.698  0.1299 -0.5597 -0.1363
  110TCq2    C6 1679   3.245   0.514   1.650  0.6387  0.5027 -0.8739
  110TCq2    C7 1680   3.133   0.468   1.716  0.1614 -0.3696 -0.0362
  110TCq2    C8 1681   3.214   0.585   1.526 -0.1851  0.3617 -0.1631
  110TCq2    O4 1682   3.114   0.654   1.518  0.2357  0.3592 -0.2933
  110TCq2    C9 1683   3.531   0.405   1.865 -0.4759  0.0807  0.3959
  110TCq2    O5 1684   3.630   0.448   1.802  0.0006  0.0761  0.1544
  110TCq2    O6 1685   3.552   0.344   1.975 -0.3606  0.1062 -0.2964
  110TCq2    H2 1686   3.312   0.339   1.974 -0.4587  0.8511  0.0237
  110TCq2    H3 1687   3.461   0.535   1.654  1.1084  0.1992  2.6032
  110TCq2    H4 1688   3.042   0.504   1.670  2.0480  0.7991 -2.8351
  111TMC2    C1 1689   3.950   1.173  11.403 -0.1104  0.2465 -0.7945
  111TMC2    C2 1690   4.036   1.217  11.308 -0.8288 -0.3200 -0.2463
  111TMC2    C3 1691   4.159   1.258  11.351  0.4938 -0.1719 -0.2434
  111TMC2    C4 1692   3.986   1.174  11.539 -0.7439  0.4646 -0.0055
  111TMC2    C5 1693   4.111   1.213  11.575  0.3940  0.3502 -0.3915
  111TMC2    C6 1694   4.202   1.248  11.478  0.1009 -0.2320 -0.1091
  111TMC2     C 1695   3.811   1.126  11.357 -0.1836  0.0564  0.3262
  111TMC2     O 1696   3.796   1.131  11.238 -0.4868 -0.3948  0.3511
  111TMC2     H 1697   4.024   1.210  11.201 -3.2465  0.3283 -0.0299
  111TMC2    H1 1698   3.919   1.161  11.623  0.7809 -1.2817  0.9336
  111TMC2    H2 1699   4.301   1.285  11.502 -0.8035  1.1978  1.4034
  111TMC2    C7 1700   4.145   1.176  11.710 -0.3772  0.9044  0.0625
  111TMC2    C8 1701   4.277   1.254  11.265  0.6405  0.4410  0.3362
  111TMC2    O1 1702   4.061   1.195  11.793  0.5337  0.2919  0.2536
  111TMC2    O2 1703   4.391   1.220  11.300 -0.1220  0.4831 -0.0939
  111TMC2    O5 1704   4.251   1.352  11.175 -0.1415 -0.0525 -0.9122
  111TMC2    H5 1705   4.172   1.410  11.187 -1.1111 -1.5285 -0.2438
  112MPD2     C 1706   3.332   0.956  11.412 -0.6576 -0.0623  0.4094
  112MPD2    C1 1707   3.402   0.984  11.299  0.8348 -0.1123 -0.2259
  112MPD2    C2 1708   3.534   1.025  11.314  0.5112  0.0188 -0.5913
  112MPD2    C3 1709   3.592   1.026  11.439  0.3387 -0.7833 -0.7561
  112MPD2    C4 1710   3.520   0.989  11.554  0.6558  0.0160 -0.4542
  112MPD2    C5 1711   3.384   0.959  11.537  0.2939  0.2355 -0.9334
  112MPD2     H 1712   3.584   1.051  11.221  0.2260  0.0584 -0.7335
  112MPD2    H1 1713   3.577   0.992  11.647  0.5404  0.5136 -0.3989
  112MPD2    H2 1714   3.230   0.920  11.410 -1.0692  1.2478 -1.4348
  112MPD2    H3 1715   3.328   0.917  11.620  1.1183 -0.1089 -0.5446
  112MPD2     N 1716   3.731   1.065  11.457 -0.1414 -0.3187 -0.4018
  112MPD2    H5 1717   3.767   1.069  11.552  0.2835  0.5173 -0.5933
  112MPD2    N1 1718   3.349   0.992  11.167 -0.5271  0.0780  0.1668
  112MPD2    H7 1719   3.414   0.995  11.090 -3.1143  0.6090 -2.0156
  113MPD2     C 1720   1.085   2.659   1.016 -0.2440 -0.0236 -0.1730
  113MPD2    C1 1721   1.027   2.683   0.893 -0.6071  0.1351  0.8045
  113MPD2    C2 1722   0.982   2.580   0.809 -0.4512 -0.3998  0.3941
  113MPD2    C3 1723   1.009   2.449   0.846  0.4204  0.9241 -0.4260
  113MPD2    C4 1724   1.081   2.422   0.967  0.2627 -0.1280  0.0959
  113MPD2    C5 1725   1.110   2.526   1.055 -0.1081 -0.2869  0.6770
  113MPD2     H 1726   0.929   2.599   0.717 -1.9608  0.4987  1.4451
  113MPD2    H1 1727   1.112   2.322   0.995  0.0453 -0.3582 -0.4754
  113MPD2    H2 1728   1.113   2.732   1.091 -0.1902 -0.4043  0.1855
  113MPD2    H3 1729   1.158   2.502   1.148  1.0678  0.2297  0.2018
  113MPD2     N 1730   0.974   2.342   0.760 -0.2754  0.4076 -0.2986
  113MPD2    H5 1731   1.008   2.249   0.784  0.6254  0.5331 -1.0944
  113MPD2    N1 1732   0.989   2.816   0.841 -0.0662  0.3363  0.6551
  113MPD2    H7 1733   0.903   2.829   0.789  0.6599  1.3503 -0.3144
  114TCq2    C1 1734   0.901   2.351   0.644  0.0531 -0.5342  0.2622
  114TCq2    O2 1735   0.827   2.438   0.599 -0.2646 -0.6222 -0.3379
  114TCq2    C2 1736   0.915   2.226   0.570  0.4478 -0.2168  0.0938
  114TCq2    C3 1737   0.833   2.217   0.456 -0.1593 -0.3215  0.0222
  114TCq2    C4 1738   0.853   2.116   0.366 -0.2986 -0.3370  0.0065
  114TCq2    C5 1739   0.929   2.003   0.402  0.4586 -0.2789 -0.3641
  114TCq2    C6 1740   0.996   2.015   0.519 -0.1067 -0.6786 -0.6499
  114TCq2    C7 1741   1.000   2.125   0.606 -0.2108  0.6836  0.6740
  114TCq2    C8 1742   1.065   1.903   0.577  0.2459 -0.2209 -0.1617
  114TCq2    O4 1743   1.117   1.822   0.497 -0.0521 -0.6490 -0.1162
  114TCq2    C9 1744   0.765   2.113   0.249  0.0465 -0.0791  0.4915
  114TCq2    O5 1745   0.681   2.206   0.225 -0.2155 -0.0813  0.2425
  114TCq2    O6 1746   0.762   2.007   0.177  0.4949 -0.5531  0.1434
  114TCq2    H2 1747   0.774   2.304   0.429 -0.6773 -1.0348 -1.1174
  114TCq2    H3 1748   0.919   1.917   0.338 -2.7020  1.5798 -2.3259
  114TCq2    H4 1749   1.067   2.118   0.692 -0.2488  2.4656  0.8386
  115TMC2    C1 1750   2.119   1.536  17.694  0.1794 -0.3236 -0.1915
  115TMC2    C2 1751   1.992   1.528   0.055  0.4606 -0.9839 -0.8052
  115TMC2    C3 1752   1.921   1.640   0.069 -0.3298 -0.1170 -0.0950
  115TMC2    C4 1753   2.168   1.650  17.637  0.5016 -0.4873  0.3339
  115TMC2    C5 1754   2.095   1.761  17.663  0.2353 -0.7212  0.3577
  115TMC2    C6 1755   1.971   1.759   0.027 -0.0899 -0.6122 -0.4740
  115TMC2     C 1756   2.187   1.414  17.665  0.4604 -0.6181  0.5375
  115TMC2     O 1757   2.222   1.398  17.548 -0.0036  0.4351 -0.4370
  115TMC2     H 1758   1.957   1.428   0.077 -0.4652 -0.0814  1.7698
  115TMC2    H1 1759   2.274   1.655  17.616  0.7341 -1.9213  1.2051
  115TMC2    H2 1760   1.923   1.855   0.041  0.7788 -0.3935  1.0365
  115TMC2    C7 1761   2.181   1.866   0.012  0.6041 -0.2631  0.6751
  115TMC2    C8 1762   1.787   1.616   0.120 -0.5327 -0.4547 -0.5543
  115TMC2    O1 1763   2.144   1.941   0.102  0.2716 -0.8821 -0.0066
  115TMC2    O2 1764   1.757   1.532   0.207 -0.1861 -0.0850 -0.5228
  115TMC2    O5 1765   1.701   1.705   0.061  0.4440  0.1984 -0.1110
  115TMC2    H5 1766   1.745   1.766  17.692 -1.3719  0.9589 -0.6506
  116MPD2     C 1767   2.243   0.912   0.068 -0.0629 -0.2875  0.2614
  116MPD2    C1 1768   2.217   0.973  17.649 -1.0003  0.6114 -0.2807
  116MPD2    C2 1769   2.194   1.111  17.646 -0.2868  0.2372 -0.3304
  116MPD2    C3 1770   2.219   1.192   0.065 -0.0506  0.3991 -0.7625
  116MPD2    C4 1771   2.245   1.119   0.180 -0.6333  0.0417 -0.4221
  116MPD2    C5 1772   2.260   0.978   0.183  0.1882 -0.6889 -0.4367
  116MPD2     H 1773   2.159   1.161  17.556 -0.0904  0.5475 -0.2316
  116MPD2    H1 1774   2.252   1.166   0.277  0.2856 -1.7139  0.3642
  116MPD2    H2 1775   2.247   0.804   0.077  1.4178 -0.1967  0.6642
  116MPD2    H3 1776   2.274   0.913   0.269  1.8280  0.1687 -0.0604
  116MPD2     N 1777   2.206   1.332   0.073 -0.4608 -0.1879  0.9064
  116MPD2    H5 1778   2.201   1.368   0.168 -1.4529  2.0913 -0.0115
  116MPD2    N1 1779   2.181   0.903  17.531  0.5499 -0.2217 -0.0080
  116MPD2    H7 1780   2.134   0.956  17.459  0.4173  0.0715  0.2948
  117TMC2    C1 1781   0.391   2.733  13.712 -0.2026  0.5769  0.7863
  117TMC2    C2 1782   0.367   2.683  13.586 -0.8146  0.0321 -0.3927
  117TMC2    C3 1783   0.473   2.656  13.505 -0.4664  0.5339  0.0949
  117TMC2    C4 1784   0.514   2.780  13.758  0.5483 -0.0915 -0.4693
  117TMC2    C5 1785   0.620   2.748  13.673 -0.8778  0.5256  0.5102
  117TMC2    C6 1786   0.591   2.705  13.548  0.0042  0.3776  0.4261
  117TMC2     C 1787   0.273   2.743  13.796  0.2259 -0.2081  0.4518
  117TMC2     O 1788   0.178   2.670  13.758  0.2683 -0.4679 -1.1682
  117TMC2     H 1789   0.263   2.670  13.556 -1.7563  2.0177  2.0350
  117TMC2    H1 1790   0.533   2.822  13.856 -0.7645  0.3518 -0.3975
  117TMC2    H2 1791   0.671   2.700  13.474  1.6740 -1.4570  2.3749
  117TMC2    C7 1792   0.754   2.793  13.700  0.2428 -0.9121 -0.6268
  117TMC2    C8 1793   0.437   2.683  13.370 -0.7370  0.2691 -0.3669
  117TMC2    O1 1794   0.833   2.783  13.607 -0.2023  0.1597 -0.3736
  117TMC2    O2 1795   0.347   2.752  13.322 -0.4715 -0.1088 -0.0302
  117TMC2    O5 1796   0.517   2.602  13.307  0.2543 -0.0471  0.0393
  117TMC2    H5 1797   0.556   2.539  13.372  1.7302 -1.0415 -1.8039
  118MPD2     C 1798   0.947   2.831  14.017  1.0350  0.5437 -0.1368
  118MPD2    C1 1799   0.918   2.844  13.882  0.4583 -0.0693 -0.8016
  118MPD2    C2 1800   1.007   2.908  13.798 -0.2327 -0.8512 -0.3723
  118MPD2    C3 1801   1.128   2.951  13.849  0.4139 -0.3023 -0.0205
  118MPD2    C4 1802   1.158   2.930  13.980  0.5469  0.9588 -0.0793
  118MPD2    C5 1803   1.067   2.867  14.066 -0.2595  0.9568  1.0127
  118MPD2     H 1804   0.971   2.935  13.699  1.5525 -0.8881 -1.0352
  118MPD2    H1 1805   1.255   2.957  14.021  0.1925 -1.8513  2.5717
  118MPD2    H2 1806   0.868   2.789  14.078  1.8332  0.8648  1.1260
  118MPD2    H3 1807   1.092   2.851  14.170 -0.9010  0.5128  1.1007
  118MPD2     N 1808   1.218   3.028  13.772  0.3010  0.2901  0.0529
  118MPD2    H5 1809   1.296   3.067  13.825  0.2535 -1.2517  1.2501
  118MPD2    N1 1810   0.791   2.808  13.833  0.8213  0.6376 -0.8609
  118MPD2    H7 1811   0.730   2.777  13.908  0.1640  0.6564 -1.3847
  119MPD2     C 1812   4.194   4.615  13.395  0.6482  0.6073  0.1402
  119MPD2    C1 1813   4.069   4.574  13.437  0.4459  0.2136  0.9887
  119MPD2    C2 1814   3.988   4.500  13.356 -0.5714 -0.8079  0.5537
  119MPD2    C3 1815   4.043   4.449  13.239 -0.9533  0.3964  0.2678
  119MPD2    C4 1816   4.165   4.487  13.194 -0.4064 -0.3937  0.2784
  119MPD2    C5 1817   4.241   4.579  13.273 -0.2713 -0.1329  0.4638
  119MPD2     H 1818   3.899   4.450  13.391 -0.8310 -1.0643 -0.4752
  119MPD2    H1 1819   4.212   4.439  13.109  1.5998  2.4032 -0.2002
  119MPD2    H2 1820   4.263   4.665  13.462  0.7469 -3.1137  2.8345
  119MPD2    H3 1821   4.341   4.599  13.235  0.5616  1.1425  3.3667
  119MPD2     N 1822   3.981   4.343  13.160  0.0570 -0.4916 -0.2152
  119MPD2    H5 1823   4.044   4.287  13.103  2.6534  1.2057  0.9397
  119MPD2    N1 1824   4.034   4.582  13.580  0.4697 -0.2669  0.7494
  119MPD2    H7 1825   4.105   4.602  13.650  0.9905 -0.2007  0.2014
  120TCq2    C1 1826   3.861   4.287  13.185  0.0588  0.1909 -0.8125
  120TCq2    O2 1827   3.776   4.313  13.272 -0.0227  0.5372 -0.0678
  120TCq2    C2 1828   3.836   4.174  13.098  0.3180  0.0113  0.1068
  120TCq2    C3 1829   3.907   4.162  12.982  0.1019 -0.3421 -0.3022
  120TCq2    C4 1830   3.918   4.030  12.930 -0.1592  0.0148 -0.2712
  120TCq2    C5 1831   3.855   3.928  12.995 -0.2501  0.7947  0.4968
  120TCq2    C6 1832   3.792   3.946  13.116  0.1202  0.4109  0.0151
  120TCq2    C7 1833   3.782   4.072  13.165  0.5161 -0.9734 -0.1095
  120TCq2    C8 1834   3.751   3.831  13.198 -0.1848 -0.6043 -0.2804
  120TCq2    O4 1835   3.819   3.729  13.179 -0.2554  0.0194  0.0209
  120TCq2    C9 1836   4.004   3.996  12.817 -0.2268  0.2004 -1.2679
  120TCq2    O5 1837   4.094   4.084  12.798 -0.3708 -0.0427  0.4138
  120TCq2    O6 1838   4.007   3.888  12.754  0.5206  0.0760 -0.1501
  120TCq2    H2 1839   3.951   4.245  12.927  0.0837 -0.8910 -1.1558
  120TCq2    H3 1840   3.863   3.826  12.958 -1.1048  1.1101 -0.5395
  120TCq2    H4 1841   3.735   4.096  13.260  1.4946  1.1807 -0.1815
  121TMC2    C1 1842   0.781   1.183  14.130 -0.2654  0.1878  0.2770
  121TMC2    C2 1843   0.756   1.319  14.140 -0.7376  0.6867 -0.1554
  121TMC2    C3 1844   0.634   1.360  14.176  0.4210 -0.1286  0.0582
  121TMC2    C4 1845   0.680   1.096  14.146  0.1739 -0.6828  0.3906
  121TMC2    C5 1846   0.556   1.139  14.167  0.3311  0.0849 -0.4036
  121TMC2    C6 1847   0.531   1.273  14.188  0.1716 -0.1799  0.0753
  121TMC2     C 1848   0.888   1.129  14.047  0.4288 -0.4753 -0.6295
  121TMC2     O 1849   0.924   1.012  14.071 -0.2080 -0.1791  0.3977
  121TMC2     H 1850   0.834   1.388  14.108 -2.2313  1.6967 -1.6409
  121TMC2    H1 1851   0.694   0.995  14.111  0.1442  0.8663 -4.0614
  121TMC2    H2 1852   0.432   1.307  14.215  0.9111  2.6739 -0.8339
  121TMC2    C7 1853   0.444   1.049  14.157 -0.2317  0.2829  0.1880
  121TMC2    C8 1854   0.603   1.492  14.142  0.0542  0.6472  0.4278
  121TMC2    O1 1855   0.457   0.934  14.197  0.1429  0.4647 -0.3332
  121TMC2    O2 1856   0.634   1.545  14.037 -0.0071 -0.2463 -0.2434
  121TMC2    O5 1857   0.514   1.538  14.239  0.1790 -0.0146 -0.1890
  121TMC2    H5 1858   0.526   1.480  14.318 -1.3489 -0.5999 -0.3768
  122MPD2     C 1859   1.105   1.082  13.854 -0.0039 -0.3789  0.2084
  122MPD2    C1 1860   1.038   1.203  13.866 -1.0713 -0.3877 -0.4077
  122MPD2    C2 1861   1.077   1.310  13.787  0.3764 -0.0623 -0.2043
  122MPD2    C3 1862   1.171   1.291  13.688 -0.4237  0.1379 -0.0685
  122MPD2    C4 1863   1.218   1.167  13.667  0.3553  0.3669 -0.0696
  122MPD2    C5 1864   1.190   1.063  13.749  0.0178 -0.5386 -0.1740
  122MPD2     H 1865   1.023   1.404  13.795  1.5260  0.3590  2.7641
  122MPD2    H1 1866   1.291   1.147  13.589  0.0756  2.0868 -0.7645
  122MPD2    H2 1867   1.096   0.992  13.915  0.4120 -0.1938  0.5390
  122MPD2    H3 1868   1.246   0.972  13.733  1.9307  0.3142  1.5804
  122MPD2     N 1869   1.203   1.390  13.587 -0.2021 -0.0235  0.2856
  122MPD2    H5 1870   1.263   1.368  13.508 -0.3043  0.8154 -0.0254
  122MPD2    N1 1871   0.935   1.223  13.962 -0.0914 -0.1028 -0.2726
  122MPD2    H7 1872   0.889   1.314  13.967  1.8950  0.9593 -1.0905
  123MPD2     C 1873   3.740   3.661  10.140 -0.2146  0.1043  0.4649
  123MPD2    C1 1874   3.715   3.727  10.019 -0.8841 -0.0349 -0.4787
  123MPD2    C2 1875   3.823   3.794   9.963 -0.1586 -0.5334  1.2135
  123MPD2    C3 1876   3.948   3.791  10.020 -0.1867 -0.5222  0.1876
  123MPD2    C4 1877   3.963   3.743  10.146 -0.3285  0.3932 -0.1091
  123MPD2    C5 1878   3.865   3.665  10.202 -0.0899 -0.2369  0.4963
  123MPD2     H 1879   3.820   3.836   9.863 -1.0683  2.6402  2.5578
  123MPD2    H1 1880   4.057   3.750  10.199 -0.2750  2.1149 -0.4325
  123MPD2    H2 1881   3.654   3.615  10.187  0.3458  0.1444  1.5254
  123MPD2    H3 1882   3.887   3.619  10.297  1.0862 -1.2472 -0.2616
  123MPD2     N 1883   4.039   3.875   9.955  0.3893  0.1736  0.8714
  123MPD2    H5 1884   4.002   3.927   9.876  0.2583 -1.4566 -0.1335
  123MPD2    N1 1885   3.586   3.703   9.960  0.6876 -0.2027 -0.4933
  123MPD2    H7 1886   3.518   3.657  10.019  0.6389 -1.2855 -1.3895
  124TCq2    C1 1887   4.171   3.895   9.982  0.0572 -0.0802 -0.1298
  124TCq2    O2 1888   4.243   3.839  10.063  0.0658  0.0427 -0.4167
  124TCq2    C2 1889   4.226   3.998   9.891  0.0544  0.2643 -0.9319
  124TCq2    C3 1890   4.280   4.106   9.959 -0.1866 -0.9554 -1.2171
  124TCq2    C4 1891   4.289   4.226   9.892 -0.3617 -0.1372  0.0263
  124TCq2    C5 1892   4.252   4.239   9.758 -0.1223 -0.7351  0.3803
  124TCq2    C6 1893   4.186   4.131   9.703  0.2859  0.3292 -0.4206
  124TCq2    C7 1894   4.165   4.015   9.769  0.3512 -0.2142  0.2246
  124TCq2    C8 1895   4.109   4.148   9.580 -0.3803 -0.1615  0.1476
  124TCq2    O4 1896   4.011   4.079   9.585  0.0259  0.0477 -0.0562
  124TCq2    C9 1897   4.340   4.339   9.962 -0.2316  0.2485  0.3722
  124TCq2    O5 1898   4.352   4.449   9.904 -1.0478  0.3823 -0.4300
  124TCq2    O6 1899   4.384   4.311  10.075  0.0400  0.3924  0.7699
  124TCq2    H2 1900   4.308   4.099  10.063 -2.2950  0.2160 -0.5635
  124TCq2    H3 1901   4.256   4.334   9.706 -1.5818 -0.5204  0.6609
  124TCq2    H4 1902   4.119   3.937   9.709  0.1916  1.2383 -1.5338
  125TMC2    C1 1903   0.586   1.251   9.323  0.0016  0.2943  0.0749
  125TMC2    C2 1904   0.676   1.169   9.276  0.0285  0.4876  0.2806
  125TMC2    C3 1905   0.782   1.207   9.187  0.6634  0.4263 -0.4960
  125TMC2    C4 1906   0.583   1.386   9.273  0.6723 -0.3857  0.0998
  125TMC2    C5 1907   0.687   1.417   9.195  0.4406 -0.7431  0.1827
  125TMC2    C6 1908   0.791   1.340   9.155  0.0669  0.7259 -0.3121
  125TMC2     C 1909   0.475   1.197   9.398 -0.3131 -0.0120 -0.3070
  125TMC2     O 1910   0.495   1.087   9.445 -0.0224 -0.2012 -0.0051
  125TMC2     H 1911   0.685   1.066   9.309  1.2480 -0.3264 -2.6317
  125TMC2    H1 1912   0.519   1.461   9.317 -0.2270  0.2886 -2.3827
  125TMC2    H2 1913   0.864   1.371   9.081  0.3982  2.3117  0.6888
  125TMC2    C7 1914   0.707   1.563   9.180 -0.5418  0.3511  0.0370
  125TMC2    C8 1915   0.896   1.126   9.168 -0.2894 -0.5373 -0.7523
  125TMC2    O1 1916   0.622   1.641   9.228  0.0451  0.1458 -0.0062
  125TMC2    O2 1917   1.006   1.157   9.201 -0.1392 -0.1027  0.5976
  125TMC2    O5 1918   0.869   1.050   9.059 -0.0223 -0.1376 -0.0501
  125TMC2    H5 1919   0.779   1.064   9.022  0.9838  1.8052 -1.7863
  126MPD1     C 1920   4.691   1.184   9.481 -0.3393  0.4034 -0.3338
  126MPD1    C1 1921   0.004   1.317   9.459  0.3343 -0.3244  0.1985
  126MPD1    C2 1922   0.136   1.346   9.441 -0.6155  0.4562  0.3060
  126MPD1    C3 1923   0.231   1.244   9.435  0.4495  0.2635 -0.2160
  126MPD1    C4 1924   0.193   1.117   9.457  0.7757 -0.5105 -0.2825
  126MPD1    C5 1925   0.063   1.084   9.496 -0.5620  0.0309  0.0414
  126MPD1     H 1926   0.169   1.449   9.432 -0.2420  0.4100  1.1631
  126MPD1    H1 1927   0.261   1.033   9.463 -0.2299 -1.3193 -0.1337
  126MPD1    H2 1928   4.589   1.154   9.502 -0.9280  1.0630 -2.2737
  126MPD1    H3 1929   0.035   0.990   9.541  2.0716  0.1458  1.9174
  126MPD1     N 1930   0.358   1.277   9.392  0.0606  0.8400  0.1176
  126MPD1    H5 1931   0.365   1.371   9.354 -1.5024  0.2973 -1.5744
  126MPD1    N1 1932   4.632   1.422   9.475  0.6001  0.6905 -0.6459
  126MPD1    H6 1933   4.535   1.393   9.462  1.5158 -3.3083  1.6402
  126MPD1    H7 1934   4.643   1.498   9.407 -0.9566 -0.3256 -2.0297
  127MPD2     C 1935   1.199   0.524   9.558 -0.0011  0.5725 -0.0602
  127MPD2    C1 1936   1.180   0.470   9.435  0.3087 -0.1931  0.6094
  127MPD2    C2 1937   1.259   0.512   9.332 -0.0760 -0.0409 -0.9452
  127MPD2    C3 1938   1.361   0.604   9.340 -1.2189 -0.1089 -0.4534
  127MPD2    C4 1939   1.374   0.663   9.462 -0.5011 -0.9121  0.3854
  127MPD2    C5 1940   1.285   0.628   9.564  0.6363 -0.3756  0.8811
  127MPD2     H 1941   1.257   0.457   9.239  0.0021 -2.7751  0.6586
  127MPD2    H1 1942   1.459   0.728   9.480 -0.4249 -1.4258  1.8806
  127MPD2    H2 1943   1.140   0.490   9.642  1.4414 -1.5251  0.0959
  127MPD2    H3 1944   1.293   0.676   9.660 -0.2074  2.8984 -0.6856
  127MPD2     N 1945   1.453   0.627   9.234  0.4656  0.0228 -0.1058
  127MPD2    H5 1946   1.437   0.563   9.157  0.7093 -1.0152  0.7012
  127MPD2    N1 1947   1.081   0.364   9.419 -0.4963 -0.0072 -0.3940
  127MPD2    H7 1948   1.026   0.347   9.503  2.3746 -0.2810  1.4331
  128TCq2    C1 1949   1.035   0.307   9.300  0.0081 -0.4528 -0.3931
  128TCq2    O2 1950   1.076   0.316   9.188 -0.2948 -0.4380 -0.0052
  128TCq2    C2 1951   0.907   0.229   9.317 -0.2549 -0.2123  0.2017
  128TCq2    C3 1952   0.858   0.169   9.206 -0.2400 -0.1761  0.3818
  128TCq2    C4 1953   0.765   0.068   9.228 -0.5170 -0.0050  0.2554
  128TCq2    C5 1954   0.720   0.028   9.353  0.2273 -0.1007  0.0032
  128TCq2    C6 1955   0.767   0.104   9.457 -0.2438  0.0316 -0.3934
  128TCq2    C7 1956   0.860   0.204   9.443 -0.5211 -0.5064 -0.8484
  128TCq2    C8 1957   0.693   0.108   9.578  0.5152  0.1023  0.0447
  128TCq2    O4 1958   0.718   0.203   9.657  0.0962  0.3438  0.0989
  128TCq2    C9 1959   0.725   4.710   9.113  0.6991  0.0619  0.3867
  128TCq2    O5 1960   0.790   0.006   9.007 -0.7250 -0.0242  0.0791
  128TCq2    O6 1961   0.613   4.658   9.113 -0.6454  0.1348  0.2919
  128TCq2    H2 1962   0.889   0.198   9.106  0.1454 -2.0662 -0.0455
  128TCq2    H3 1963   0.651   4.668   9.361 -0.4333  0.5260  0.8119
  128TCq2    H4 1964   0.895   0.245   9.537 -0.1232 -1.0869 -0.7441
  129MPD2     C 1965   3.136   0.248   1.225  0.3365  0.1680 -0.0372
  129MPD2    C1 1966   3.226   0.227   1.332 -0.2321  0.0613 -0.1162
  129MPD2    C2 1967   3.359   0.244   1.313 -0.4033  0.0849  0.1698
  129MPD2    C3 1968   3.399   0.299   1.193  0.0921  0.4433 -0.0549
  129MPD2    C4 1969   3.313   0.313   1.085 -0.0392  0.3501  0.0235
  129MPD2    C5 1970   3.181   0.288   1.106 -0.3733 -0.0593  0.2282
  129MPD2     H 1971   3.429   0.232   1.395  0.8381 -2.5684 -1.2498
  129MPD2    H1 1972   3.339   0.342   0.984  0.2401 -2.1450 -0.6219
  129MPD2    H2 1973   3.031   0.225   1.238  0.6464 -1.7090 -0.9243
  129MPD2    H3 1974   3.111   0.290   1.023  0.0776 -1.3677 -0.1911
  129MPD2     N 1975   3.537   0.324   1.185  0.0609 -0.1372 -0.3180
  129MPD2    H5 1976   3.588   0.315   1.272  1.0575 -1.1710 -0.9910
  129MPD2    N1 1977   3.195   0.182   1.461  0.9761 -0.0674  0.3263
  129MPD2    H7 1978   3.278   0.161   1.515  0.2866  0.9986  1.8004
  130TCq2    C1 1979   3.066   0.167   1.509 -0.3938 -0.6072  0.1042
  130TCq2    O2 1980   2.965   0.208   1.450  0.0752 -0.0398 -0.4404
  130TCq2    C2 1981   3.052   0.105   1.641  0.6136 -0.2878 -1.1325
  130TCq2    C3 1982   3.155   0.109   1.724  0.5144  0.4319 -0.0428
  130TCq2    C4 1983   3.140   0.046   1.841  0.3217 -0.5349  0.6388
  130TCq2    C5 1984   3.015   4.712   1.878 -0.2938 -0.3824  0.1717
  130TCq2    C6 1985   2.909   0.002   1.793 -0.6601  1.3698  0.0292
  130TCq2    C7 1986   2.919   0.062   1.674  0.1347 -0.2672 -0.2019
  130TCq2    C8 1987   2.786   4.659   1.826  0.1106  0.1306 -0.3084
  130TCq2    O4 1988   2.706   4.645   1.735  0.2864 -0.2680 -0.1450
  130TCq2    C9 1989   3.257   0.036   1.926 -0.2324  0.3027 -0.3486
  130TCq2    O5 1990   3.368   0.077   1.879 -0.2825 -0.0742  0.1399
  130TCq2    O6 1991   3.245   4.708   2.039 -0.1722 -0.0955  0.7392
  130TCq2    H2 1992   3.250   0.149   1.691  0.5340 -0.0562 -0.5813
  130TCq2    H3 1993   3.005   4.668   1.977  4.3818 -0.5299  0.5829
  130TCq2    H4 1994   2.832   0.056   1.610 -0.5140 -2.0658  0.8307
  131MPD2     C 1995   3.163   4.294   9.316 -0.1012 -0.0612  0.5240
  131MPD2    C1 1996   3.271   4.279   9.404  0.2110 -0.7655  0.0839
  131MPD2    C2 1997   3.280   4.164   9.480  0.0399 -0.2591  0.7775
  131MPD2    C3 1998   3.177   4.072   9.483  0.0785 -0.5764  0.3833
  131MPD2    C4 1999   3.078   4.081   9.392 -0.2107 -0.2906  0.3475
  131MPD2    C5 2000   3.075   4.188   9.311 -0.6245 -0.1544  0.2480
  131MPD2     H 2001   3.366   4.139   9.542  1.4211  1.9191 -0.2622
  131MPD2    H1 2002   3.007   4.000   9.374 -1.2212  0.4543  0.9448
  131MPD2    H2 2003   3.139   4.384   9.260 -1.2649  0.2676  1.5651
  131MPD2    H3 2004   3.003   4.206   9.232  1.0584  2.6954 -0.6722
  131MPD2     N 2005   3.197   3.961   9.572 -0.0168  0.3624 -0.4091
  131MPD2    H5 2006   3.282   3.963   9.627 -0.2647  3.0431 -0.1185
  131MPD2    N1 2007   3.358   4.386   9.404  0.2066 -0.8585  0.2379
  131MPD2    H7 2008   3.348   4.450   9.326 -3.5114 -0.9735  0.6367
  132TCq2    C1 2009   3.812   4.718   9.607  0.3469  0.3880  0.1773
  132TCq2    O2 2010   3.860   4.642   9.692 -0.5976 -0.3764  0.2467
  132TCq2    C2 2011   3.736   4.650   9.495 -0.3747  1.0133  0.0561
  132TCq2    C3 2012   3.736   4.711   9.370  0.3757 -0.0183 -0.8906
  132TCq2    C4 2013   3.648   4.655   9.278  0.7882  0.0329  0.1588
  132TCq2    C5 2014   3.564   4.545   9.314  0.3404  0.0328  0.5469
  132TCq2    C6 2015   3.565   4.499   9.440  0.8311 -0.0537  0.7878
  132TCq2    C7 2016   3.652   4.553   9.531  0.5475 -0.2864 -0.0662
  132TCq2    C8 2017   3.467   4.399   9.483  0.5583 -0.3748 -0.6918
  132TCq2    O4 2018   3.487   4.339   9.588  0.2497 -0.4765  0.4483
  132TCq2    C9 2019   3.647   4.705   9.142 -0.1073  0.1946  0.3839
  132TCq2    O5 2020   3.566   4.641   9.070 -0.2044  0.5983 -0.0433
  132TCq2    O6 2021   3.713   0.086   9.110  0.6305  0.5214  0.1405
  132TCq2    H2 2022   3.806   0.067   9.344  1.1812 -0.7935 -1.0968
  132TCq2    H3 2023   3.500   4.499   9.240  0.0209  2.1906 -0.5172
  132TCq2    H4 2024   3.664   4.507   9.629  1.4437  0.8007  0.3454
  133MPD2     C 2025   2.753   1.209   9.144  1.3425 -0.1216 -0.0042
  133MPD2    C1 2026   2.866   1.134   9.166 -0.5025 -0.2692 -0.1658
  133MPD2    C2 2027   2.851   0.996   9.176  1.0391 -0.3383 -0.5198
  133MPD2    C3 2028   2.728   0.936   9.143 -0.1383 -0.7372  0.2202
  133MPD2    C4 2029   2.617   1.014   9.111 -0.2044 -0.2108  0.0158
  133MPD2    C5 2030   2.632   1.149   9.113  0.0534  0.4136 -0.2216
  133MPD2     H 2031   2.943   0.949   9.208 -0.1265 -2.6742 -0.6771
  133MPD2    H1 2032   2.520   0.977   9.079 -0.9731  1.9153 -0.1301
  133MPD2    H2 2033   2.762   1.317   9.142 -2.3415  0.1598 -0.5086
  133MPD2    H3 2034   2.553   1.217   9.084  0.9460  1.5614  0.0218
  133MPD2     N 2035   2.714   0.801   9.137 -0.0618 -0.1999 -0.3897
  133MPD2    H5 2036   2.636   0.750   9.095 -1.3981 -0.7649  2.8187
  133MPD2    N1 2037   2.987   1.201   9.182  0.1548  0.0863  0.2669
  133MPD2    H7 2038   2.985   1.302   9.172  3.3316  0.1880  0.7775
  134TCq2    C1 2039   3.115   1.143   9.183  1.0714 -0.6538  0.2236
  134TCq2    O2 2040   3.153   1.031   9.171 -0.0492 -0.1627  0.2193
  134TCq2    C2 2041   3.214   1.244   9.215 -0.1413 -1.0192 -0.1023
  134TCq2    C3 2042   3.337   1.217   9.162  0.0769 -0.3720 -0.1954
  134TCq2    C4 2043   3.432   1.313   9.185  0.2152 -0.8908  0.4019
  134TCq2    C5 2044   3.416   1.422   9.265 -0.4680  0.5879  0.3014
  134TCq2    C6 2045   3.293   1.443   9.323  0.4297  0.2461  0.2272
  134TCq2    C7 2046   3.189   1.354   9.294 -0.1242  0.0957  0.1534
  134TCq2    C8 2047   3.274   1.545   9.420 -0.1137 -0.0380  0.2763
  134TCq2    O4 2048   3.163   1.588   9.446  0.0056  0.0801 -0.4271
  134TCq2    C9 2049   3.567   1.299   9.128  0.6511 -0.5864  0.1253
  134TCq2    O5 2050   3.660   1.365   9.181  0.3928  0.0166 -0.2723
  134TCq2    O6 2051   3.576   1.205   9.054 -0.3553  0.2288  0.0578
  134TCq2    H2 2052   3.362   1.125   9.111  1.3091  1.0386 -2.0938
  134TCq2    H3 2053   3.493   1.497   9.271  1.1788 -1.0069 -0.7119
  134TCq2    H4 2054   3.097   1.367   9.350 -0.7016 -0.5554 -0.6432
  135MPD2     C 2055   0.794   1.141   9.607  0.5544 -0.2841  0.2181
  135MPD2    C1 2056   0.709   1.251   9.637 -0.1994  0.6471 -0.5993
  135MPD2    C2 2057   0.738   1.385   9.596 -0.1427 -0.4230  1.1012
  135MPD2    C3 2058   0.851   1.412   9.517  0.5994 -0.3919  0.3165
  135MPD2    C4 2059   0.929   1.300   9.481 -0.0471 -0.6685 -0.8174
  135MPD2    C5 2060   0.898   1.170   9.522  0.3881  0.3438 -0.8921
  135MPD2     H 2061   0.669   1.466   9.619 -0.5854 -0.2934 -0.6573
  135MPD2    H1 2062   1.020   1.308   9.423 -0.8370  0.5706 -1.8967
  135MPD2    H2 2063   0.772   1.038   9.630 -2.4415  0.7038  1.8019
  135MPD2    H3 2064   0.956   1.090   9.477  0.6032  0.4931 -0.8801
  135MPD2     N 2065   0.893   1.538   9.478  0.8670  0.5008  0.1216
  135MPD2    H5 2066   0.981   1.538   9.428  0.4173 -1.4547 -0.6632
  135MPD2    N1 2067   0.591   1.231   9.716  0.1828  0.5805 -0.2254
  135MPD2    H7 2068   0.567   1.135   9.735  2.1385  0.1858  0.2132
  136TCq2    C1 2069   0.498   1.314   9.759 -0.1735  0.1738 -0.0279
  136TCq2    O2 2070   0.500   1.436   9.748 -0.0630  0.3546  0.0543
  136TCq2    C2 2071   0.381   1.246   9.820 -0.4037 -0.9371  0.1683
  136TCq2    C3 2072   0.352   1.117   9.791  0.1616 -0.1989 -0.5670
  136TCq2    C4 2073   0.261   1.051   9.872 -0.2627  0.6307  0.2506
  136TCq2    C5 2074   0.193   1.120   9.972 -0.6114 -0.4400  0.1543
  136TCq2    C6 2075   0.230   1.252   9.998 -0.0095 -0.0079 -0.1400
  136TCq2    C7 2076   0.320   1.317   9.916 -0.1014 -0.0171  0.1910
  136TCq2    C8 2077   0.157   1.340  10.085 -0.1776 -0.9054 -0.0200
  136TCq2    O4 2078   0.172   1.461  10.072 -0.1528  0.2697  0.0745
  136TCq2    C9 2079   0.230   0.917   9.833 -0.1861 -0.5741  0.5929
  136TCq2    O5 2080   0.122   0.878   9.880 -0.5259 -0.0681 -0.4167
  136TCq2    O6 2081   0.297   0.862   9.750  0.2555 -0.3435  0.5138
  136TCq2    H2 2082   0.398   1.069   9.705  2.5069 -1.9004  1.6311
  136TCq2    H3 2083   0.116   1.064  10.024  0.0107 -1.7965 -0.3832
  136TCq2    H4 2084   0.345   1.420   9.938 -1.5736  0.3023  0.3652
  137MPD2     C 2085   0.601   0.565   9.329  0.0212  0.1679  0.2105
  137MPD2    C1 2086   0.499   0.663   9.357  0.2514 -0.2967  0.0310
  137MPD2    C2 2087   0.454   0.680   9.483  0.5631 -0.3602 -0.0466
  137MPD2    C3 2088   0.492   0.596   9.590  0.3123 -0.4479 -0.4025
  137MPD2    C4 2089   0.593   0.510   9.561  0.4277  0.4334 -0.8016
  137MPD2    C5 2090   0.652   0.500   9.438 -0.2779  0.3027  0.2336
  137MPD2     H 2091   0.381   0.751   9.521  2.1957  0.9753  0.5978
  137MPD2    H1 2092   0.628   0.436   9.633 -1.0853 -0.8757 -1.4124
  137MPD2    H2 2093   0.646   0.555   9.231  0.9984 -0.3833  0.7106
  137MPD2    H3 2094   0.738   0.437   9.420  0.0685  0.9584 -0.4321
  137MPD2     N 2095   0.425   0.603   9.713 -0.0329  0.4103 -0.7734
  137MPD2    H5 2096   0.371   0.687   9.730  2.6255  1.2329  3.5205
  137MPD2    N1 2097   0.453   0.756   9.262 -0.3015  0.1270 -0.2950
  137MPD2    H7 2098   0.520   0.784   9.192 -0.8416  3.8806  0.7163
  138TCq2    C1 2099   0.335   0.822   9.268  0.1148 -0.5070  0.3873
  138TCq2    O2 2100   0.239   0.804   9.340  0.1936  0.3006 -0.5839
  138TCq2    C2 2101   0.320   0.926   9.162  0.4778  0.4528  0.3190
  138TCq2    C3 2102   0.425   0.964   9.081  0.1103 -0.5716 -0.3568
  138TCq2    C4 2103   0.423   1.079   9.012  0.2942  0.2009 -0.4448
  138TCq2    C5 2104   0.310   1.154   9.013 -1.1080  0.2691 -0.2750
  138TCq2    C6 2105   0.209   1.115   9.097  1.3087  0.1285  0.3872
  138TCq2    C7 2106   0.207   1.005   9.171 -0.0910  0.0064  0.4437
  138TCq2    C8 2107   0.097   1.209   9.102 -0.6080 -0.0800  0.0547
  138TCq2    O4 2108   0.111   1.322   9.052 -0.2200 -0.5232  0.1624
  138TCq2    C9 2109   0.538   1.125   8.940 -0.6277 -0.2187 -1.3872
  138TCq2    O5 2110   0.644   1.053   8.951  0.1401 -0.6116 -0.2766
  138TCq2    O6 2111   0.532   1.242   8.891  0.3019 -0.1139 -0.0493
  138TCq2    H2 2112   0.522   0.916   9.090 -0.2753 -1.1011  0.9560
  138TCq2    H3 2113   0.311   1.242   8.950  1.8261  2.7365  3.1901
  138TCq2    H4 2114   0.127   0.973   9.238  0.1716  0.8594  1.1609
  139TMC2    C1 2115   0.608   3.840  12.912 -0.1921  0.3482  0.4012
  139TMC2    C2 2116   0.648   3.881  12.788 -0.0422 -0.7669  0.5803
  139TMC2    C3 2117   0.624   4.011  12.752 -0.0234  0.2895  0.5461
  139TMC2    C4 2118   0.542   3.933  12.996 -0.6533  0.4764 -0.4510
  139TMC2    C5 2119   0.523   4.059  12.953  0.0560  0.0628 -0.3135
  139TMC2    C6 2120   0.565   4.102  12.830  0.3028  0.1571  0.2639
  139TMC2     C 2121   0.605   3.697  12.934  0.3869 -0.0174 -0.5160
  139TMC2     O 2122   0.641   3.620  12.846 -0.5077 -0.0045  0.2519
  139TMC2     H 2123   0.685   3.813  12.713  0.3476 -2.2083  2.0613
  139TMC2    H1 2124   0.491   3.907  13.088 -0.1312  2.0605  0.2843
  139TMC2    H2 2125   0.546   4.206  12.808 -0.0893  0.2352  0.9820
  139TMC2    C7 2126   0.480   4.156  13.047  1.3184 -0.5386  0.2625
  139TMC2    C8 2127   0.663   4.068  12.625 -0.2804  0.0017  0.3761
  139TMC2    O1 2128   0.431   4.259  13.004 -0.1869 -0.4055  0.6563
  139TMC2    O2 2129   0.613   4.171  12.584  0.4477 -0.0737  0.7478
  139TMC2    O5 2130   0.795   4.036  12.622  0.4942 -0.4049 -0.1160
  139TMC2    H5 2131   0.832   4.004  12.707  2.4728  0.5286 -0.6126
  140MPD2     C 2132   0.478   3.510  13.228  0.4535 -0.0978 -0.2574
  140MPD2    C1 2133   0.549   3.527  13.109  0.4421  0.1132  0.3603
  140MPD2    C2 2134   0.622   3.424  13.061 -1.3071 -0.3542 -0.4498
  140MPD2    C3 2135   0.625   3.304  13.122 -0.3770 -0.3143  0.0478
  140MPD2    C4 2136   0.567   3.287  13.247 -0.6139  0.0366  0.1046
  140MPD2    C5 2137   0.492   3.388  13.296 -0.3328  0.0661 -0.2250
  140MPD2     H 2138   0.686   3.443  12.975  1.3054  3.4171  2.3590
  140MPD2    H1 2139   0.564   3.196  13.306  0.2516  0.1251  0.2959
  140MPD2    H2 2140   0.412   3.587  13.269 -0.4780 -0.4694 -1.0606
  140MPD2    H3 2141   0.429   3.368  13.382 -0.3957 -0.1837 -0.3298
  140MPD2     N 2142   0.720   3.214  13.069 -0.2584 -0.4212 -0.4406
  140MPD2    H5 2143   0.774   3.251  12.991 -0.5582  3.0424  1.0350
  140MPD2    N1 2144   0.553   3.660  13.056  0.1201  0.1773  0.0411
  140MPD2    H7 2145   0.522   3.736  13.116 -0.6747 -2.1009  2.4928
  141TCq2    C1 2146   1.365   4.413  13.932 -0.2197  0.5187  0.0631
  141TCq2    O2 2147   1.371   4.419  13.811 -0.1967 -0.1662 -0.6212
  141TCq2    C2 2148   1.460   4.500  14.002 -0.1737 -0.5933  0.1284
  141TCq2    C3 2149   1.483   4.483  14.139  0.0220 -0.2721 -0.5866
  141TCq2    C4 2150   1.584   4.562  14.194  0.1414  0.7523 -0.2578
  141TCq2    C5 2151   1.650   4.657  14.127  0.2745 -0.1160  0.4713
  141TCq2    C6 2152   1.624   4.671  13.989 -0.9008 -0.6105  0.1473
  141TCq2    C7 2153   1.526   4.598  13.930 -0.1796  0.3164  0.2647
  141TCq2    C8 2154   1.674   0.068  13.919  0.1989  0.7241 -0.2963
  141TCq2    O4 2155   1.668   0.082  13.799 -0.2531  0.2696 -0.5233
  141TCq2    C9 2156   1.615   4.546  14.328 -0.8384 -0.0126  0.3265
  141TCq2    O5 2157   1.669   4.640  14.389  0.1633  0.7908 -0.1817
  141TCq2    O6 2158   1.593   4.437  14.375  0.3122  0.3609  0.2811
  141TCq2    H2 2159   1.429   4.412  14.200 -3.4270  1.9275 -1.0905
  141TCq2    H3 2160   1.733   4.711  14.173 -1.0602  2.7252 -0.4732
  141TCq2    H4 2161   1.499   4.621  13.828  0.5024  2.8069  0.6631
  142MPD2     C 2162   3.417   3.360   9.583 -1.0085 -0.4767 -0.0010
  142MPD2    C1 2163   3.311   3.387   9.501  0.4057  0.2266 -0.0136
  142MPD2    C2 2164   3.312   3.503   9.425 -0.1300  0.3984 -0.5163
  142MPD2    C3 2165   3.411   3.597   9.435 -0.2644  0.2554  0.2410
  142MPD2    C4 2166   3.509   3.572   9.525  0.2205 -0.4791  0.3767
  142MPD2    C5 2167   3.518   3.455   9.592  0.6139 -0.0364  0.3562
  142MPD2     H 2168   3.230   3.528   9.359 -0.0737  0.5385 -0.5326
  142MPD2    H1 2169   3.584   3.648   9.541 -0.0352  0.0032 -0.7012
  142MPD2    H2 2170   3.416   3.273   9.647  0.1603  0.0323  0.6935
  142MPD2    H3 2171   3.593   3.432   9.667 -0.3261 -0.4473  1.1577
  142MPD2     N 2172   3.424   3.721   9.369 -0.0368  0.7461 -0.0959
  142MPD2    H5 2173   3.499   3.785   9.391  2.1938 -1.2432 -1.8989
  142MPD2    N1 2174   3.219   3.285   9.480  0.0776  0.5388  0.1980
  142MPD2    H7 2175   3.246   3.198   9.525 -3.3840 -1.3828 -1.4661
  143TCq2    C1 2176   3.345   3.767   9.258  0.1055  0.5783 -1.5262
  143TCq2    O2 2177   3.240   3.725   9.212  0.4747 -0.1586 -1.1355
  143TCq2    C2 2178   3.399   3.893   9.207  0.1991 -0.8543  0.4952
  143TCq2    C3 2179   3.314   3.968   9.128 -0.1674  0.0426 -0.6207
  143TCq2    C4 2180   3.361   4.082   9.078 -0.3589 -0.4737 -0.1349
  143TCq2    C5 2181   3.486   4.128   9.117 -0.4039  0.1626  0.5071
  143TCq2    C6 2182   3.569   4.048   9.192  0.3188 -0.3313  0.4321
  143TCq2    C7 2183   3.526   3.930   9.246  0.5505 -0.3713  0.2088
  143TCq2    C8 2184   3.696   4.104   9.243 -0.6641  0.3057  0.2840
  143TCq2    O4 2185   3.750   4.024   9.314  0.0710  0.2442  0.2097
  143TCq2    C9 2186   3.283   4.158   8.989  0.1448 -0.0615  0.4819
  143TCq2    O5 2187   3.176   4.110   8.944  0.6556 -0.5653  0.6315
  143TCq2    O6 2188   3.330   4.266   8.941 -0.0504 -0.0439 -0.6964
  143TCq2    H2 2189   3.213   3.943   9.101  0.2810 -0.5794 -1.7074
  143TCq2    H3 2190   3.521   4.220   9.071  1.8695 -0.4351  1.0347
  143TCq2    H4 2191   3.596   3.862   9.292  0.2741 -0.0509  1.0879
  144MPD2     C 2192   1.291   2.755   0.685 -0.2510 -0.1138  0.2746
  144MPD2    C1 2193   1.260   2.628   0.648  0.8655 -0.1053 -1.0785
  144MPD2    C2 2194   1.325   2.520   0.708  0.1546 -0.8311  0.6433
  144MPD2    C3 2195   1.400   2.541   0.825 -0.0187  0.1433  0.0296
  144MPD2    C4 2196   1.433   2.668   0.862  0.0934 -1.2343  0.3982
  144MPD2    C5 2197   1.384   2.774   0.785 -0.2424 -0.3896 -0.2331
  144MPD2     H 2198   1.306   2.422   0.664  2.2238 -1.0986  0.3597
  144MPD2    H1 2199   1.500   2.677   0.947 -1.6427 -0.8380  1.7180
  144MPD2    H2 2200   1.248   2.846   0.643 -0.6808 -1.1578 -1.5505
  144MPD2    H3 2201   1.411   2.874   0.817  0.3113 -0.5541 -0.1890
  144MPD2     N 2202   1.449   2.434   0.911 -0.5318  0.2408 -0.0630
  144MPD2    H5 2203   1.487   2.455   1.003 -0.9475  2.1301 -0.3250
  144MPD2    N1 2204   1.166   2.607   0.544  0.3427  0.5888 -0.2720
  144MPD2    H7 2205   1.156   2.513   0.507  0.2017  0.1275  0.9229
  145TCq2    C1 2206   1.432   2.302   0.887  0.1560 -0.1371  0.6931
  145TCq2    O2 2207   1.415   2.229   0.792  0.3008  0.4050 -0.8987
  145TCq2    C2 2208   1.451   2.236   1.012  1.0341  0.3985 -0.3937
  145TCq2    C3 2209   1.532   2.125   1.013 -0.2611  0.2101  0.0362
  145TCq2    C4 2210   1.567   2.062   1.132 -0.5167  0.2079  0.2774
  145TCq2    C5 2211   1.510   2.114   1.242 -0.0029 -0.0241  0.3017
  145TCq2    C6 2212   1.424   2.218   1.243  0.1690 -0.0372  0.3918
  145TCq2    C7 2213   1.413   2.296   1.129 -0.3374  0.8273 -0.0223
  145TCq2    C8 2214   1.333   2.242   1.359 -0.8180  0.2039 -0.4224
  145TCq2    O4 2215   1.305   2.155   1.438 -0.4905 -0.3733  0.9388
  145TCq2    C9 2216   1.677   1.973   1.127 -0.6533  0.1393 -0.0117
  145TCq2    O5 2217   1.751   1.989   1.018 -0.1926 -0.0539  0.0325
  145TCq2    O6 2218   1.706   1.919   1.237 -0.3385 -0.7249  0.6227
  145TCq2    H2 2219   1.579   2.096   0.919 -1.0861 -0.9676 -0.0200
  145TCq2    H3 2220   1.519   2.049   1.329 -2.4721  0.9126  1.2599
  145TCq2    H4 2221   1.334   2.369   1.120 -0.8031  0.3471  0.1993
  146TMC2    C1 2222   2.752   1.822  12.291  0.5912  0.2891  0.1585
  146TMC2    C2 2223   2.641   1.820  12.207 -0.1360 -0.8101 -0.3347
  146TMC2    C3 2224   2.648   1.741  12.096 -0.0922  0.4743  0.2262
  146TMC2    C4 2225   2.865   1.753  12.256 -0.4739  0.0080  0.7364
  146TMC2    C5 2226   2.863   1.669  12.145 -0.2074  0.7406  0.5087
  146TMC2    C6 2227   2.758   1.673  12.057  0.1565 -0.9641  0.2244
  146TMC2     C 2228   2.740   1.893  12.415 -0.8556  0.1481  0.0816
  146TMC2     O 2229   2.644   1.971  12.430 -0.3930  0.2711 -0.1438
  146TMC2     H 2230   2.549   1.877  12.221 -0.6227 -1.2295 -1.8298
  146TMC2    H1 2231   2.952   1.764  12.319  0.5351 -0.5527 -0.5699
  146TMC2    H2 2232   2.753   1.614  11.966  1.0944 -1.5307  0.5453
  146TMC2    C7 2233   2.989   1.610  12.101 -0.1383  0.0685  0.5913
  146TMC2    C8 2234   2.539   1.746  11.993  0.2335  0.1618  0.4641
  146TMC2    O1 2235   3.000   1.584  11.982 -1.0387  0.4641 -0.9445
  146TMC2    O2 2236   2.559   1.735  11.876  0.1760  0.0974  0.6787
  146TMC2    O5 2237   2.425   1.712  12.057  0.4174 -0.0266  0.0061
  146TMC2    H5 2238   2.419   1.716  12.154  1.2858 -1.2251  0.1198
  147MPD2     C 2239   3.418   1.356  12.210 -0.5649  0.5173  0.1161
  147MPD2    C1 2240   3.355   1.395  12.327 -0.5371  0.2764 -0.2931
  147MPD2    C2 2241   3.239   1.462  12.319  0.1356 -0.2762  0.3988
  147MPD2    C3 2242   3.177   1.481  12.200  0.6054  0.4310  0.4215
  147MPD2    C4 2243   3.233   1.429  12.083  0.0114 -0.0567 -0.3926
  147MPD2    C5 2244   3.355   1.366  12.083 -0.5469 -1.0693  0.4370
  147MPD2     H 2245   3.191   1.505  12.406  0.4538 -2.6965  1.7792
  147MPD2    H1 2246   3.193   1.451  11.984 -2.6535 -2.2213  0.2357
  147MPD2    H2 2247   3.507   1.296  12.218 -0.9065  0.0098  0.1192
  147MPD2    H3 2248   3.407   1.323  11.999  1.7338  0.6774  0.9656
  147MPD2     N 2249   3.066   1.567  12.207  0.1773 -0.3974 -0.5554
  147MPD2    H5 2250   3.035   1.585  12.302 -3.4364 -3.2141 -1.1920
  147MPD2    N1 2251   3.419   1.365  12.450 -0.5047 -0.1227  0.4447
  147MPD2    H7 2252   3.514   1.329  12.443 -0.6896 -0.6981  0.8601
  148MPD2     C 2253   3.723   4.557  10.071  0.3063  0.3884 -0.1459
  148MPD2    C1 2254   3.648   4.481  10.162  0.4615 -0.5962  0.2006
  148MPD2    C2 2255   3.512   4.470  10.145  0.6057 -0.0552  0.6823
  148MPD2    C3 2256   3.451   4.511  10.025  0.2003  0.1110  0.1758
  148MPD2    C4 2257   3.527   4.584   9.937  0.4396  0.6865 -0.1928
  148MPD2    C5 2258   3.660   4.608   9.956  0.6288  0.0347  0.6166
  148MPD2     H 2259   3.452   4.426  10.225  0.6298 -0.1459  0.6509
  148MPD2    H1 2260   3.483   4.643   9.857 -0.3559 -1.2815 -1.1978
  148MPD2    H2 2261   3.829   4.569  10.090  0.1973  1.3529 -0.1648
  148MPD2    H3 2262   3.710   4.672   9.884  0.6275 -1.1013 -0.3967
  148MPD2     N 2263   3.312   4.507   9.995  0.3060  0.4127  0.1153
  148MPD2    H5 2264   3.260   4.554   9.922  1.7553  1.2791 -0.3414
  148MPD2    N1 2265   3.714   4.437  10.273  0.0699 -0.1213 -0.5527
  148MPD2    H7 2266   3.813   4.459  10.265  0.4341 -0.8430  1.9850
  149TCq2    C1 2267   3.673   4.355  10.369 -0.2239 -0.0301  0.2658
  149TCq2    O2 2268   3.562   4.309  10.392  0.1925  0.2021  0.1405
  149TCq2    C2 2269   3.788   4.319  10.452  0.2829 -0.7576 -0.6146
  149TCq2    C3 2270   3.890   4.413  10.460  0.3925  0.1596 -0.1477
  149TCq2    C4 2271   4.016   4.374  10.425  0.7276 -0.1916 -0.7835
  149TCq2    C5 2272   4.027   4.252  10.365  0.3473  1.3394 -0.3030
  149TCq2    C6 2273   3.930   4.157  10.371 -0.0283 -0.9334  0.4251
  149TCq2    C7 2274   3.813   4.188  10.433 -0.1117  0.5708 -0.5340
  149TCq2    C8 2275   3.908   4.094  10.242  0.1459  0.0936  0.1105
  149TCq2    O4 2276   3.820   4.011  10.245 -0.5595 -0.3066  0.4174
  149TCq2    C9 2277   4.107   4.483  10.399 -0.1154 -0.1304 -0.3807
  149TCq2    O5 2278   4.178   4.467  10.295 -0.5028 -0.4329 -0.5842
  149TCq2    O6 2279   4.094   4.597  10.449  0.1731 -0.7523 -1.0461
  149TCq2    H2 2280   3.867   4.518  10.470  0.8470  0.1000  1.5714
  149TCq2    H3 2281   4.121   4.226  10.317  1.5657  1.9052  1.7975
  149TCq2    H4 2282   3.726   4.123  10.440  0.3012  0.2754  1.7221
  150MPD2     C 2283   0.200   4.002  11.847 -0.3416 -0.5147  0.4413
  150MPD2    C1 2284   0.144   4.129  11.831 -0.1177 -0.0219  0.3835
  150MPD2    C2 2285   0.222   4.246  11.841 -0.4490 -0.4490 -0.0688
  150MPD2    C3 2286   0.355   4.234  11.871 -0.2840 -0.0330 -0.2969
  150MPD2    C4 2287   0.404   4.107  11.908 -0.7892 -0.3021  0.6507
  150MPD2    C5 2288   0.330   3.996  11.887  0.3427 -0.2689  0.1113
  150MPD2     H 2289   0.173   4.339  11.816  0.4683 -0.2297 -1.0115
  150MPD2    H1 2290   0.507   4.085  11.933 -0.5894 -1.2189 -0.9775
  150MPD2    H2 2291   0.143   3.911  11.835  0.9418 -1.2229 -0.3377
  150MPD2    H3 2292   0.374   3.898  11.903 -0.8731 -1.2597 -2.6957
  150MPD2     N 2293   0.431   4.353  11.880 -0.0312  0.0324  0.5274
  150MPD2    H5 2294   0.365   4.429  11.869  1.3013  1.3286  1.4307
  150MPD2    N1 2295   0.008   4.128  11.799  0.3265  0.3044 -0.1145
  150MPD2    H7 2296   4.696   4.041  11.761  2.5962 -0.8796  0.5009
  151TCq2    C1 2297   0.560   4.375  11.932  0.8716  0.1964  0.1831
  151TCq2    O2 2298   0.631   4.296  11.989 -0.0963  0.4952  0.6339
  151TCq2    C2 2299   0.607   4.512  11.923 -0.0373  0.0609  0.4270
  151TCq2    C3 2300   0.555   4.589  11.826 -0.3025 -0.2948  0.0298
  151TCq2    C4 2301   0.605   4.713  11.811 -0.3068  0.0127  0.0138
  151TCq2    C5 2302   0.705   0.030  11.890  0.7061  0.1266 -0.2981
  151TCq2    C6 2303   0.762   4.669  11.981 -0.5507 -0.7608  0.6339
  151TCq2    C7 2304   0.716   4.541  12.001  0.2142 -0.6122  0.1577
  151TCq2    C8 2305   0.903   4.697  12.006 -0.2568  0.3866 -1.0597
  151TCq2    O4 2306   0.942   0.092  12.004  0.2320  0.4742  0.2351
  151TCq2    C9 2307   0.547   0.081  11.718  0.4463 -0.0787  0.5012
  151TCq2    O5 2308   0.442   0.039  11.660 -0.2594 -0.0745  0.1091
  151TCq2    O6 2309   0.595   0.200  11.700  0.4506 -0.2623  0.2855
  151TCq2    H2 2310   0.500   4.549  11.742 -1.7766  2.3240 -0.2767
  151TCq2    H3 2311   0.735   0.134  11.883  0.6840  0.0128 -1.9387
  151TCq2    H4 2312   0.764   4.476  12.073  0.7197  0.7498  1.0273
  152MPD2     C 2313   4.585   3.827  12.361  0.0957 -0.8151 -0.4099
  152MPD2    C1 2314   4.604   3.937  12.284 -0.0854  0.3929  0.3972
  152MPD2    C2 2315   4.499   3.984  12.208  0.8071  0.0635  0.1181
  152MPD2    C3 2316   4.377   3.921  12.208  0.2588  0.8712 -0.0457
  152MPD2    C4 2317   4.359   3.811  12.289 -0.7220  0.3821 -0.2215
  152MPD2    C5 2318   4.464   3.762  12.361  0.2726 -0.2334  0.1061
  152MPD2     H 2319   4.505   4.057  12.128  0.9674 -1.2121 -1.0370
  152MPD2    H1 2320   4.270   3.750  12.285 -0.4260 -0.0992  0.4379
  152MPD2    H2 2321   4.658   3.784  12.428 -1.0950 -1.5178  0.4389
  152MPD2    H3 2322   4.455   3.678  12.428  1.4450  1.2765  2.1307
  152MPD2     N 2323   4.275   3.985  12.132  0.5166 -0.7920  0.6398
  152MPD2    H5 2324   4.303   4.059  12.069  0.0582 -1.3180 -0.1724
  152MPD2    N1 2325   0.021   3.969  12.262  0.8311  0.6944  1.0110
  152MPD2    H7 2326   0.093   3.919  12.313 -1.0530 -1.1186  1.8997
  153TCq2    C1 2327   0.071   4.075  12.190 -0.1052 -0.4152  0.7662
  153TCq2    O2 2328   0.003   4.163  12.146 -0.0260  0.4756  0.4262
  153TCq2    C2 2329   0.213   4.092  12.213  0.6171 -0.6722 -0.3941
  153TCq2    C3 2330   0.291   3.983  12.225  0.4380  0.1688 -0.1535
  153TCq2    C4 2331   0.421   3.993  12.261 -0.3131 -0.0910  0.5278
  153TCq2    C5 2332   0.479   4.119  12.288  0.1110  0.7544  0.1606
  153TCq2    C6 2333   0.400   4.227  12.284  0.1402  0.7662  0.2921
  153TCq2    C7 2334   0.267   4.214  12.248  0.4774 -0.1108  0.1530
  153TCq2    C8 2335   0.450   4.365  12.287  0.6686  0.4956  0.9240
  153TCq2    O4 2336   0.361   4.448  12.274  0.9562  0.2474 -0.0512
  153TCq2    C9 2337   0.501   3.870  12.273 -0.4598 -0.6564  0.1629
  153TCq2    O5 2338   0.624   3.895  12.303 -0.1865  0.3899  0.3974
  153TCq2    O6 2339   0.436   3.763  12.275 -0.3893 -0.3393  0.1567
  153TCq2    H2 2340   0.254   3.888  12.188 -1.0442  0.1153  1.4548
  153TCq2    H3 2341   0.585   4.128  12.304  0.3419 -0.5954 -0.6755
  153TCq2    H4 2342   0.204   4.302  12.241 -0.5100 -0.7710  0.7360
  154MPD2     C 2343   1.607   3.824   0.107  0.6257  0.4627  0.2270
  154MPD2    C1 2344   1.554   3.784   0.229  0.5129  0.6195 -0.2229
  154MPD2    C2 2345   1.429   3.832   0.273 -0.1035  0.2645  0.0835
  154MPD2    C3 2346   1.366   3.934   0.201 -0.1171  0.3818 -0.5671
  154MPD2    C4 2347   1.415   3.972   0.073  0.1296 -1.2034  0.0668
  154MPD2    C5 2348   1.535   3.913   0.029  0.1690  0.2134 -0.4552
  154MPD2     H 2349   1.379   3.802   0.364  1.6260  0.5535  1.1163
  154MPD2    H1 2350   1.360   4.038   0.007  2.1433 -1.0771 -1.4962
  154MPD2    H2 2351   1.703   3.784   0.078  1.0865  1.1596  0.7835
  154MPD2    H3 2352   1.571   3.938  17.623  1.1411  3.0219  0.5886
  154MPD2     N 2353   1.252   3.994   0.251 -0.1572  0.0688  0.1306
  154MPD2    H5 2354   1.213   3.954   0.336  0.3467  0.8188  0.7206
  154MPD2    N1 2355   1.621   3.681   0.299 -0.6235 -0.0022  0.0930
  154MPD2    H7 2356   1.694   3.627   0.255  0.6689 -0.6683  3.0828
  155TCq2    C1 2357   1.583   3.651   0.430 -0.3680 -0.4273  0.3384
  155TCq2    O2 2358   1.527   3.720   0.516  0.0873  0.3591 -0.3279
  155TCq2    C2 2359   1.656   3.535   0.489 -0.0392 -0.1169  0.1339
  155TCq2    C3 2360   1.653   3.522   0.626  0.2402  0.1514  0.3612
  155TCq2    C4 2361   1.703   3.407   0.676 -0.2866 -0.9196  0.4314
  155TCq2    C5 2362   1.747   3.311   0.589  0.0376 -0.1835  0.6461
  155TCq2    C6 2363   1.747   3.319   0.452  0.1626  0.2867  0.4928
  155TCq2    C7 2364   1.699   3.433   0.401  0.3315 -0.6763 -1.0509
  155TCq2    C8 2365   1.815   3.212   0.375 -0.0198  0.3987  0.0905
  155TCq2    O4 2366   1.904   3.150   0.437 -0.1213  0.2180 -0.3400
  155TCq2    C9 2367   1.705   3.384   0.816  0.1897 -0.4964  0.0927
  155TCq2    O5 2368   1.729   3.262   0.848  0.3212  0.4348  0.7439
  155TCq2    O6 2369   1.678   3.481   0.900  0.3110 -0.3370 -0.0013
  155TCq2    H2 2370   1.617   3.600   0.692 -1.1777 -2.0405  2.1781
  155TCq2    H3 2371   1.779   3.220   0.639 -1.0577 -0.9808 -0.0966
  155TCq2    H4 2372   1.704   3.448   0.294 -2.3616 -1.2858 -1.2472
  156MPD2     C 2373   1.122   1.810  12.451  0.4658 -0.0992 -0.1415
  156MPD2    C1 2374   1.065   1.856  12.334 -0.8356 -0.8891  0.4794
  156MPD2    C2 2375   0.973   1.963  12.349  0.2262  0.2534  0.0482
  156MPD2    C3 2376   0.946   2.022  12.467  0.1531 -0.0397 -0.6940
  156MPD2    C4 2377   1.010   1.972  12.585 -0.4042  0.4485 -0.5933
  156MPD2    C5 2378   1.099   1.871  12.570 -1.0184  0.0307 -0.4372
  156MPD2     H 2379   0.928   2.006  12.260  0.4611  0.0665 -0.1598
  156MPD2    H1 2380   0.990   2.018  12.681  3.4606 -0.7105  0.7371
  156MPD2    H2 2381   1.190   1.726  12.448  1.9084  1.0599  0.1814
  156MPD2    H3 2382   1.145   1.834  12.661 -0.5967  0.1072 -0.6162
  156MPD2     N 2383   0.858   2.135  12.475  0.0998 -0.8407  0.2633
  156MPD2    H5 2384   0.816   2.169  12.389  0.2168 -0.9593  0.1593
  156MPD2    N1 2385   1.093   1.789  12.215 -0.1450  0.1459 -0.7427
  156MPD2    H7 2386   1.154   1.708  12.218 -3.3061 -2.1380  1.3040
  157TCq2    C1 2387   1.052   1.829  12.087 -0.2152  0.0703  0.8598
  157TCq2    O2 2388   0.958   1.905  12.060  0.5479  0.4851 -0.1206
  157TCq2    C2 2389   1.129   1.756  11.986 -0.3151  0.1715  0.7922
  157TCq2    C3 2390   1.256   1.706  12.024  0.5973  0.0501 -0.0082
  157TCq2    C4 2391   1.323   1.653  11.921 -0.2064  0.0676  0.1170
  157TCq2    C5 2392   1.286   1.647  11.792 -0.5772 -0.6066 -0.4554
  157TCq2    C6 2393   1.160   1.689  11.762  0.2903 -0.7589 -0.1260
  157TCq2    C7 2394   1.077   1.752  11.857 -0.1211 -0.4746  0.6920
  157TCq2    C8 2395   1.130   1.686  11.619 -0.2249  0.2575  0.1798
  157TCq2    O4 2396   1.201   1.611  11.554 -0.5012 -0.4870  0.1165
  157TCq2    C9 2397   1.440   1.573  11.960 -0.0239 -0.1429 -0.8891
  157TCq2    O5 2398   1.526   1.544  11.874 -0.7202 -0.3148  0.5202
  157TCq2    O6 2399   1.479   1.579  12.079 -0.1195  0.1043 -0.6125
  157TCq2    H2 2400   1.295   1.696  12.125  1.9644 -0.0805 -0.5533
  157TCq2    H3 2401   1.352   1.600  11.721  0.8341  0.0839  0.3887
  157TCq2    H4 2402   0.980   1.796  11.839 -0.9142 -2.0832  1.0143
  158TMC2    C1 2403   1.298   0.252  13.890 -0.3681  0.2500 -0.7341
  158TMC2    C2 2404   1.411   0.324  13.864 -0.2348  0.8002 -0.2648
  158TMC2    C3 2405   1.415   0.417  13.757  0.0900  0.2156 -1.1350
  158TMC2    C4 2406   1.181   0.279  13.827  0.3493 -0.0057 -0.0095
  158TMC2    C5 2407   1.186   0.368  13.724  0.1185 -0.1784 -0.3455
  158TMC2    C6 2408   1.301   0.437  13.683 -0.3238  0.4924  0.0901
  158TMC2     C 2409   1.291   0.196  14.019 -0.2376  0.0300 -0.3024
  158TMC2     O 2410   1.363   0.242  14.108  0.4437  0.0227 -0.3100
  158TMC2     H 2411   1.500   0.291  13.916 -0.1944 -0.3886 -1.0972
  158TMC2    H1 2412   1.085   0.233  13.849 -0.3247  1.0878 -0.5876
  158TMC2    H2 2413   1.292   0.512  13.605  0.8345 -1.6414 -2.1027
  158TMC2    C7 2414   1.064   0.448  13.687  0.1997  0.0337  0.1429
  158TMC2    C8 2415   1.527   0.506  13.748 -0.2200  0.4852 -0.5638
  158TMC2    O1 2416   1.071   0.566  13.709 -0.4907 -0.2605  0.0979
  158TMC2    O2 2417   1.561   0.571  13.843 -1.2416 -0.0447  0.3833
  158TMC2    O5 2418   1.519   0.558  13.620  0.2415 -0.7500 -0.3613
  158TMC2    H5 2419   1.468   0.503  13.558 -0.2791 -0.9429  0.2348
  159MPD2     C 2420   1.082   4.607  14.361  0.0997 -0.2876  0.2657
  159MPD2    C1 2421   1.011   4.595  14.244 -0.6895 -0.0072  0.5474
  159MPD2    C2 2422   1.059   4.665  14.134 -0.8199  0.2366  0.2247
  159MPD2    C3 2423   1.161   0.033  14.147  0.2837  0.2988 -0.0716
  159MPD2    C4 2424   1.234   0.044  14.265  0.3309  0.0496  0.9082
  159MPD2    C5 2425   1.192   4.700  14.374  0.3282  0.2479  0.2636
  159MPD2     H 2426   1.008   4.661  14.039 -0.3797  0.0603 -0.0052
  159MPD2    H1 2427   1.311   0.119  14.273 -0.1296  0.4416  1.6731
  159MPD2    H2 2428   1.064   4.542  14.446 -1.5556 -0.0899  0.0636
  159MPD2    H3 2429   1.251   4.708  14.464 -1.8356  0.9056  1.6313
  159MPD2     N 2430   1.197   0.099  14.030  0.6390 -0.0718  0.1323
  159MPD2    H5 2431   1.146   0.072  13.947 -0.5231  1.0529  0.4922
  159MPD2    N1 2432   0.897   4.505  14.236 -0.0161  0.2157  0.4789
  159MPD2    H7 2433   0.885   4.455  14.324  1.4333 -0.0640  0.5171
  160TMC2    C1 2434   4.653   2.625   0.401  0.3630 -0.0283 -0.3665
  160TMC2    C2 2435   4.676   2.535   0.303 -0.3278  0.3532 -0.2060
  160TMC2    C3 2436   0.011   2.571   0.187  0.4712 -0.3552 -0.2547
  160TMC2    C4 2437   4.691   2.753   0.389 -0.1128  0.4115 -0.8578
  160TMC2    C5 2438   0.040   2.788   0.275  0.2007 -0.1930  0.0420
  160TMC2    C6 2439   0.052   2.704   0.167  0.6814 -0.3513  0.6058
  160TMC2     C 2440   4.609   2.576   0.530 -0.2108 -0.7536  0.8698
  160TMC2     O 2441   4.632   2.460   0.564  0.0942 -0.8481  0.1002
  160TMC2     H 2442   4.635   2.435   0.310  0.6164  0.0802  1.4259
  160TMC2    H1 2443   4.684   2.824   0.471 -1.0453  1.2617 -1.6736
  160TMC2    H2 2444   0.079   2.742   0.069  2.3576  0.0178  1.2123
  160TMC2    C7 2445   0.124   2.909   0.279  0.1245 -1.3442 -0.4213
  160TMC2    C8 2446   4.701   2.506   0.055 -0.4070  0.0420 -0.4731
  160TMC2    O1 2447   0.199   2.922   0.182  0.3407  0.3266  0.1308
  160TMC2    O2 2448   0.033   2.545  17.649 -0.7234 -0.4949 -0.0257
  160TMC2    O5 2449   4.579   2.452   0.071  0.2716 -0.1001  0.2986
  160TMC2    H5 2450   4.538   2.461   0.160 -0.8272 -1.0618 -0.1039
  161MPD2     C 2451   4.511   2.585   0.814  0.0147 -0.8366  0.5120
  161MPD2    C1 2452   4.474   2.669   0.713  0.3610  0.7344 -0.0369
  161MPD2    C2 2453   4.375   2.763   0.738  0.5513  0.2108  0.2904
  161MPD2    C3 2454   4.317   2.773   0.860  0.0574  0.0261  0.6930
  161MPD2    C4 2455   4.351   2.687   0.956  0.3453  0.9219  0.3763
  161MPD2    C5 2456   4.443   2.591   0.935  0.5799  0.2942 -0.4463
  161MPD2     H 2457   4.357   2.831   0.656  0.0304  0.0196  0.2463
  161MPD2    H1 2458   4.298   2.688   1.051 -1.9733  0.2776 -0.9110
  161MPD2    H2 2459   4.574   2.500   0.792 -0.5925 -1.2115  0.2180
  161MPD2    H3 2460   4.469   2.524   1.017 -0.9878 -0.6765 -0.7531
  161MPD2     N 2461   4.209   2.863   0.897  0.7003  0.0897  0.2451
  161MPD2    H5 2462   4.178   2.853   0.993  2.5673  0.7433  0.9084
  161MPD2    N1 2463   4.527   2.672   0.587  0.0873 -0.1572 -0.1025
  161MPD2    H7 2464   4.518   2.748   0.520  2.3126  0.6728  0.5480
  162TMC2    C1 2465   1.922   0.121   0.788 -0.3009  0.8494 -0.2187
  162TMC2    C2 2466   1.855   0.005   0.765 -0.1510  0.2170 -0.1736
  162TMC2    C3 2467   1.804   4.662   0.874  0.2783  0.1424 -0.3633
  162TMC2    C4 2468   1.937   0.171   0.915  0.2721  0.4018  0.4312
  162TMC2    C5 2469   1.889   0.099   1.022 -0.3016  0.1055  0.1221
  162TMC2    C6 2470   1.834   4.700   1.004  0.3762  0.2601  0.2693
  162TMC2     C 2471   2.032   0.137   0.698  0.4622  0.8115  0.2575
  162TMC2     O 2472   2.057   0.035   0.634 -0.3314 -0.0996  0.0922
  162TMC2     H 2473   1.825   4.692   0.668  1.9610 -1.2782 -0.2546
  162TMC2    H1 2474   1.997   0.257   0.944  2.7820 -0.9937 -0.6648
  162TMC2    H2 2475   1.797   4.641   1.087 -0.3064  1.0974  0.5525
  162TMC2    C7 2476   1.865   0.175   1.143  0.0905  0.2889 -0.2501
  162TMC2    C8 2477   1.747   4.525   0.857  0.1268 -0.1364 -0.2822
  162TMC2    O1 2478   1.840   0.291   1.138 -0.1273  0.0878  0.1049
  162TMC2    O2 2479   1.735   4.479   0.747  0.8387 -0.0118 -0.8718
  162TMC2    O5 2480   1.648   4.515   0.957 -0.3169  0.0016 -0.6056
  162TMC2    H5 2481   1.646   4.570   1.039 -0.1214 -1.5145  0.4067
  163MPD2     C 2482   2.455   0.368   0.518  0.1445  0.0805 -0.4683
  163MPD2    C1 2483   2.418   0.235   0.517 -0.1667 -0.1710 -0.7437
  163MPD2    C2 2484   2.291   0.199   0.568  0.2503 -0.5142 -0.1193
  163MPD2    C3 2485   2.215   0.288   0.644 -0.0012  0.1281 -0.4117
  163MPD2    C4 2486   2.260   0.417   0.649  0.0605  0.3201 -0.2476
  163MPD2    C5 2487   2.383   0.460   0.588  0.1510 -0.1386 -0.5093
  163MPD2     H 2488   2.259   0.095   0.561 -3.1003  0.3639  2.2901
  163MPD2    H1 2489   2.200   0.483   0.711 -0.3686 -1.5105  1.3110
  163MPD2    H2 2490   2.544   0.407   0.470 -1.1199  0.9462 -2.0926
  163MPD2    H3 2491   2.421   0.560   0.600 -1.6257  0.4825  0.0498
  163MPD2     N 2492   2.097   0.255   0.715 -0.0028  0.4516 -0.4045
  163MPD2    H5 2493   2.064   0.319   0.786 -2.2283 -0.5211 -0.5474
  163MPD2    N1 2494   2.520   0.149   0.469 -0.1359  0.3482  0.4095
  163MPD2    H7 2495   2.607   0.193   0.442 -0.0825  0.6031  0.9864
  164TCq2    C1 2496   3.832   4.701  10.913  0.6842  0.0665  0.0902
  164TCq2    O2 2497   3.767   4.675  11.012 -0.2825  0.1392  0.3755
  164TCq2    C2 2498   3.874   0.115  10.900  0.0709  0.0064  0.2445
  164TCq2    C3 2499   3.964   0.151  10.807 -0.3423  0.0787  0.4412
  164TCq2    C4 2500   4.029   0.265  10.830  0.0773 -0.6345  0.4064
  164TCq2    C5 2501   3.998   0.352  10.924 -0.1942 -0.3406  0.3881
  164TCq2    C6 2502   3.912   0.317  11.014 -0.5327 -0.5425 -0.2103
  164TCq2    C7 2503   3.840   0.204  10.998  0.1277 -0.8738  0.6284
  164TCq2    C8 2504   3.858   0.421  11.103  0.0093 -0.2310  0.1261
  164TCq2    O4 2505   3.935   0.502  11.154 -0.1620  0.1058 -0.0627
  164TCq2    C9 2506   4.135   0.302  10.736 -0.0491  0.5470  0.1210
  164TCq2    O5 2507   4.181   0.417  10.756  0.7314  0.5663 -0.2738
  164TCq2    O6 2508   4.137   0.226  10.630  0.3272 -0.0406  0.6324
  164TCq2    H2 2509   4.003   0.088  10.729 -0.3242  0.0064  0.5084
  164TCq2    H3 2510   4.056   0.442  10.943  1.3578 -0.6796 -2.7565
  164TCq2    H4 2511   3.766   0.176  11.072  0.4530  1.6919  1.9342
  165MPD2     C 2512   3.885   1.628   1.746  0.1799  0.0235  0.4537
  165MPD2    C1 2513   3.987   1.589   1.828  0.3297 -0.4016  0.7369
  165MPD2    C2 2514   4.097   1.677   1.834 -0.1017 -0.5460  0.2700
  165MPD2    C3 2515   4.103   1.785   1.749  0.3210 -0.2848 -0.5455
  165MPD2    C4 2516   4.002   1.811   1.662 -0.3443 -0.0938 -0.2738
  165MPD2    C5 2517   3.890   1.740   1.670  0.4270  0.0014 -0.0947
  165MPD2     H 2518   4.172   1.657   1.910  1.0966  0.0820 -0.7586
  165MPD2    H1 2519   3.990   1.900   1.601  0.5907  1.0139  1.1554
  165MPD2    H2 2520   3.797   1.566   1.746 -0.2537  0.6401  0.7785
  165MPD2    H3 2521   3.808   1.771   1.606  0.3250 -0.6246 -0.2663
  165MPD2     N 2522   4.215   1.873   1.745  0.1568  0.6477 -0.2512
  165MPD2    H5 2523   4.203   1.949   1.679 -0.9424  1.0961  0.4563
  165MPD2    N1 2524   3.979   1.464   1.885 -0.2521  0.0884  0.1269
  165MPD2    H7 2525   3.910   1.404   1.839 -0.7329  0.4435  0.3851
  166TCq2    C1 2526   4.337   1.848   1.805  0.6998 -0.3360  0.0158
  166TCq2    O2 2527   4.366   1.756   1.885 -0.0420  0.0108 -0.4208
  166TCq2    C2 2528   4.446   1.924   1.749 -0.3918  0.0078  0.0153
  166TCq2    C3 2529   4.420   2.035   1.673  0.1022  0.3049  0.2600
  166TCq2    C4 2530   4.524   2.083   1.597  0.1140 -0.1928 -0.2948
  166TCq2    C5 2531   4.645   2.030   1.593  0.0291 -0.4741 -0.3246
  166TCq2    C6 2532   4.669   1.920   1.676  0.1890 -0.0162 -0.2787
  166TCq2    C7 2533   4.575   1.872   1.765  0.0846  0.0012 -0.1875
  166TCq2    C8 2534   0.091   1.889   1.682  0.2643  0.1231 -0.3363
  166TCq2    O4 2535   0.151   1.895   1.574  0.3057  0.7340  0.3144
  166TCq2    C9 2536   4.487   2.182   1.493  0.5083 -0.4663  0.2071
  166TCq2    O5 2537   4.370   2.231   1.478 -0.2759  0.1090  0.5633
  166TCq2    O6 2538   4.579   2.200   1.404  0.0543 -0.1932  0.3858
  166TCq2    H2 2539   4.325   2.086   1.662  0.8307  1.0892 -2.3011
  166TCq2    H3 2540   4.721   2.069   1.526  2.1617 -1.3946  1.5463
  166TCq2    H4 2541   4.598   1.799   1.842  1.9649 -0.2153 -0.9361
  167TMC2    C1 2542   2.649   0.368  12.534  1.1219 -0.3430  0.0610
  167TMC2    C2 2543   2.532   0.384  12.604  0.0120  0.1886 -0.3652
  167TMC2    C3 2544   2.483   0.281  12.677  0.3306  0.1333 -0.3604
  167TMC2    C4 2545   2.721   0.249  12.526  0.2658 -0.6539  0.3933
  167TMC2    C5 2546   2.667   0.144  12.600  0.1535  0.3671 -0.9888
  167TMC2    C6 2547   2.548   0.161  12.670  0.0823  0.5314 -0.3658
  167TMC2     C 2548   2.705   0.492  12.481 -0.0628 -0.3405  0.0363
  167TMC2     O 2549   2.639   0.595  12.499 -0.0041  0.2855  0.0115
  167TMC2     H 2550   2.504   0.484  12.636 -2.2933 -1.2965  2.2602
  167TMC2    H1 2551   2.826   0.248  12.499 -0.6285 -0.0264 -3.0428
  167TMC2    H2 2552   2.510   0.074  12.721 -0.3690 -0.3721 -2.2391
  167TMC2    C7 2553   2.739   0.015  12.615  0.0717  0.1064  0.3789
  167TMC2    C8 2554   2.445   0.306  12.816  0.7307 -0.4865 -0.1043
  167TMC2    O1 2555   2.686   4.660  12.691  0.2662 -0.1793 -0.6379
  167TMC2    O2 2556   2.480   0.408  12.875  0.0842  0.2115  0.1540
  167TMC2    O5 2557   2.366   0.210  12.866 -0.4659 -0.7679  0.1799
  167TMC2    H5 2558   2.333   0.145  12.800 -1.5159 -0.9859  0.9216
  168MPD2     C 2559   2.861   0.690  12.301 -0.4070 -0.0053 -0.1096
  168MPD2    C1 2560   2.863   0.552  12.295 -0.2538 -0.1370 -0.0810
  168MPD2    C2 2561   2.930   0.490  12.190 -0.2352  0.1456  0.3772
  168MPD2    C3 2562   2.984   0.564  12.081  0.4655  0.5028 -0.0384
  168MPD2    C4 2563   2.979   0.699  12.095 -0.5908 -0.5455 -0.3054
  168MPD2    C5 2564   2.916   0.763  12.195  0.5629  1.2879 -0.1996
  168MPD2     H 2565   2.944   0.383  12.199  0.9210  0.5146  3.1892
  168MPD2    H1 2566   3.019   0.766  12.019  0.4064  0.2419  0.9211
  168MPD2    H2 2567   2.814   0.741  12.384  1.1473  0.6106  0.4076
  168MPD2    H3 2568   2.906   0.871  12.192  2.9977  1.5587  0.9171
  168MPD2     N 2569   3.043   0.497  11.976 -0.1602 -1.0312 -0.1870
  168MPD2    H5 2570   3.086   0.555  11.904  1.9839 -2.3379  0.0272
  168MPD2    N1 2571   2.805   0.461  12.387  0.5370  0.5038  0.7506
  168MPD2    H7 2572   2.818   0.364  12.358 -2.1924 -0.0415  1.3882
  169MPD1     C 2573   4.703   4.698   9.784  0.0461  0.1857 -0.1305
  169MPD1    C1 2574   0.093   0.004   9.708 -0.7375  0.0783 -0.0704
  169MPD1    C2 2575   0.156   4.617   9.646 -0.1599 -0.2104 -0.1064
  169MPD1    C3 2576   0.114   4.487   9.663 -0.0211  0.6848 -0.6004
  169MPD1    C4 2577   0.005   4.456   9.741  0.2864 -0.3550  0.0741
  169MPD1    C5 2578   4.662   4.562   9.801  0.2674 -0.1491  0.6778
  169MPD1     H 2579   0.247   4.633   9.589  0.1298  2.1248  1.0016
  169MPD1    H1 2580   4.684   4.360   9.766  0.8875 -0.5123  0.5076
  169MPD1    H2 2581   4.637   0.054   9.818 -0.8092  0.1676 -1.7708
  169MPD1    H3 2582   4.568   4.549   9.854  0.3406 -0.6384  0.6855
  169MPD1     N 2583   0.181   4.385   9.584 -0.1027  0.3232 -0.1704
  169MPD1    H5 2584   0.260   4.425   9.535 -1.2361  0.0077 -2.2573
  169MPD1    N1 2585   0.126   0.133   9.670  0.4717  0.4349  0.4060
  169MPD1    H6 2586   0.101   0.198   9.745  1.2857  1.0191  0.1766
  169MPD1    H7 2587   0.227   0.143   9.660  0.2648 -0.8374 -2.7300
  170MPD1     C 2588   4.292   2.185  12.665 -0.7538 -0.1504 -0.0711
  170MPD1    C1 2589   4.202   2.286  12.668  0.2409 -0.1896  0.2693
  170MPD1    C2 2590   4.142   2.310  12.793 -0.2318  0.2633 -0.3323
  170MPD1    C3 2591   4.175   2.239  12.908  0.1117  0.4378  0.5104
  170MPD1    C4 2592   4.270   2.138  12.897 -0.3953 -0.1732  0.5306
  170MPD1    C5 2593   4.332   2.125  12.776  0.2435  0.6004  0.5891
  170MPD1     H 2594   4.060   2.380  12.797 -1.6421 -1.4866  1.0741
  170MPD1    H1 2595   4.299   2.069  12.975 -2.4357 -0.5974  0.9006
  170MPD1    H2 2596   4.340   2.160  12.571  3.5079 -1.3895  2.4633
  170MPD1    H3 2597   4.402   2.043  12.769  1.4865  1.7932 -0.9614
  170MPD1     N 2598   4.109   2.273  13.030 -0.5557  0.3815 -0.3377
  170MPD1    H5 2599   4.034   2.340  13.017 -1.4547 -0.8774 -1.5666
  170MPD1    N1 2600   4.154   2.348  12.554  0.3211  0.1568 -0.1774
  170MPD1    H6 2601   4.220   2.350  12.477  0.1365 -0.1332 -0.3438
  170MPD1    H7 2602   4.127   2.443  12.578 -0.5798  0.2675 -1.6551
  171MPD1     C 2603   2.932   3.426  15.338  0.1493  0.2183 -0.0816
  171MPD1    C1 2604   2.805   3.388  15.295 -0.5855 -0.2564  0.0129
  171MPD1    C2 2605   2.759   3.260  15.330 -0.2125 -0.0901  0.3625
  171MPD1    C3 2606   2.825   3.178  15.419  0.0175 -0.3051  0.1470
  171MPD1    C4 2607   2.951   3.223  15.469  0.5001  0.2014 -0.4342
  171MPD1    C5 2608   3.002   3.342  15.422 -0.1289 -0.3681  0.4816
  171MPD1     H 2609   2.672   3.220  15.280  1.1795 -0.8424 -1.4585
  171MPD1    H1 2610   3.009   3.161  15.537  0.7454  0.6848 -0.2058
  171MPD1    H2 2611   2.974   3.518  15.301  1.8741  0.1657  1.8198
  171MPD1    H3 2612   3.099   3.386  15.445  0.7997 -0.7712 -2.6350
  171MPD1     N 2613   2.775   3.055  15.464 -0.3585 -0.1862  0.8248
  171MPD1    H5 2614   2.834   2.987  15.512  2.2590  0.1711 -1.9079
  171MPD1    N1 2615   2.732   3.464  15.202  0.3961  0.2160 -0.4070
  171MPD1    H6 2616   2.756   3.561  15.221  1.6623 -0.1852  0.0086
  171MPD1    H7 2617   2.631   3.452  15.202  0.2997  1.0401  2.0773
  172MPD1     C 2618   1.234   2.117   0.280 -0.0907  0.4874  0.3637
  172MPD1    C1 2619   1.217   2.233   0.210 -0.2202 -0.0235  0.7727
  172MPD1    C2 2620   1.301   2.338   0.246 -0.0914 -1.1388  0.5303
  172MPD1    C3 2621   1.390   2.328   0.352 -0.0417  0.4339 -0.1448
  172MPD1    C4 2622   1.412   2.210   0.414  0.1035 -0.1239 -0.0568
  172MPD1    C5 2623   1.333   2.104   0.373 -0.2056  0.2779  0.1585
  172MPD1     H 2624   1.299   2.433   0.194  2.2849 -0.0191  2.5154
  172MPD1    H1 2625   1.470   2.197   0.504  0.6673  0.3123 -0.3581
  172MPD1    H2 2626   1.180   2.027   0.255 -2.3019  2.6554 -2.5019
  172MPD1    H3 2627   1.352   2.011   0.425  0.9617  0.8316  0.7166
  172MPD1     N 2628   1.460   2.444   0.393  0.2447  0.4556 -0.0277
  172MPD1    H5 2629   1.523   2.434   0.471  0.0569 -0.2625  0.0300
  172MPD1    N1 2630   1.160   2.234   0.079  0.0394 -0.1697 -0.3107
  172MPD1    H6 2631   1.121   2.324   0.051 -1.3728 -0.9489 -0.8490
  172MPD1    H7 2632   1.093   2.159   0.066 -0.2073 -0.1832  1.0137
  173MPD1     C 2633   3.212   2.868  13.416 -0.5404  0.0429  0.3487
  173MPD1    C1 2634   3.111   2.870  13.509  0.4478 -0.2399 -0.5811
  173MPD1    C2 2635   3.129   2.805  13.631 -0.0406 -0.2880 -0.8593
  173MPD1    C3 2636   3.241   2.724  13.651 -0.0718 -0.3558  0.1289
  173MPD1    C4 2637   3.333   2.710  13.550  0.5240 -0.0432  0.3245
  173MPD1    C5 2638   3.322   2.792  13.438  0.3375 -0.4124  0.1492
  173MPD1     H 2639   3.056   2.813  13.710  0.4263  1.1265 -0.5619
  173MPD1    H1 2640   3.410   2.635  13.556  0.9935  0.3726 -0.4989
  173MPD1    H2 2641   3.205   2.929  13.326 -1.1563 -1.3034 -0.5287
  173MPD1    H3 2642   3.397   2.770  13.363  0.6154  1.7874 -0.2098
  173MPD1     N 2643   3.242   2.639  13.766 -0.2964 -0.2883  0.1647
  173MPD1    H5 2644   3.164   2.652  13.829  0.6160 -3.2325  1.9107
  173MPD1    N1 2645   3.003   2.956  13.491  0.7447 -0.5195 -0.6648
  173MPD1    H6 2646   2.978   2.977  13.394 -1.8824 -0.4362  0.0521
  173MPD1    H7 2647   2.921   2.920  13.539  1.8083 -0.2377  1.3580
  174MPD1     C 2648   3.969   2.089  14.259 -0.4889 -0.0831 -0.4416
  174MPD1    C1 2649   3.858   2.085  14.335  0.5130 -0.0721  0.3761
  174MPD1    C2 2650   3.736   2.133  14.281 -0.3000 -0.6498  0.2127
  174MPD1    C3 2651   3.736   2.200  14.158 -0.2522 -0.0714 -0.0090
  174MPD1    C4 2652   3.851   2.202  14.079  0.7865  0.7809  0.1348
  174MPD1    C5 2653   3.965   2.138  14.127 -0.3115 -0.1747  0.0667
  174MPD1     H 2654   3.649   2.111  14.340  0.6596 -0.9740  1.5003
  174MPD1    H1 2655   3.855   2.246  13.980 -2.7385  0.2418 -0.2404
  174MPD1    H2 2656   4.060   2.039  14.290 -0.7741  0.1628  0.8196
  174MPD1    H3 2657   4.055   2.121  14.069 -0.7802  1.6912 -1.2275
  174MPD1     N 2658   3.618   2.259  14.103 -0.1665  0.1887 -0.1935
  174MPD1    H5 2659   3.615   2.307  14.014  2.7190  1.2339  0.2779
  174MPD1    N1 2660   3.862   2.038  14.471 -0.0699 -0.0575 -0.4537
  174MPD1    H6 2661   3.951   1.988  14.475 -0.2036 -0.4071 -1.7406
  174MPD1    H7 2662   3.792   1.970  14.500 -1.6157  1.5111 -0.5967
  175MPD1     C 2663   1.552   3.282  15.492  0.1018  0.4368  0.6370
  175MPD1    C1 2664   1.418   3.292  15.515 -0.4033  1.3377  0.4636
  175MPD1    C2 2665   1.361   3.282  15.644  0.2546 -0.0636 -0.4588
  175MPD1    C3 2666   1.445   3.272  15.751  0.2336  0.3396  0.3547
  175MPD1    C4 2667   1.583   3.259  15.729  0.0101 -0.4519 -0.2253
  175MPD1    C5 2668   1.634   3.275  15.603  0.0496  0.1250  0.0943
  175MPD1     H 2669   1.255   3.301  15.655  0.4532  1.1365 -0.5554
  175MPD1    H1 2670   1.643   3.239  15.817 -1.9386  1.4362  1.5335
  175MPD1    H2 2671   1.594   3.308  15.396  2.1398 -1.1030  1.1128
  175MPD1    H3 2672   1.742   3.280  15.598  0.0271 -1.5648 -1.8643
  175MPD1     N 2673   1.403   3.259  15.883  0.6071 -0.0243 -0.5975
  175MPD1    H5 2674   1.474   3.280  15.953  1.4443 -0.6643 -1.2548
  175MPD1    N1 2675   1.336   3.349  15.411 -0.3427 -0.4117 -0.2372
  175MPD1    H6 2676   1.376   3.332  15.319 -0.1985 -0.0799 -0.2330
  175MPD1    H7 2677   1.249   3.298  15.402 -0.1803 -0.8410  0.6579
  176MPD1     C 2678   3.106   4.494  17.058 -0.0209  0.1726 -0.2304
  176MPD1    C1 2679   3.043   4.585  17.137  1.0194 -0.0548  0.0909
  176MPD1    C2 2680   2.974   4.692  17.081  0.7408 -0.2741 -0.0796
  176MPD1    C3 2681   3.004   0.005  16.947  0.1044 -0.2740  0.3936
  176MPD1    C4 2682   3.086   4.639  16.873 -0.3239  0.5505 -0.2484
  176MPD1    C5 2683   3.123   4.523  16.925 -0.7613 -0.4705 -0.4810
  176MPD1     H 2684   2.906   0.033  17.136 -1.8777 -1.9134 -1.4071
  176MPD1    H1 2685   3.106   4.663  16.769 -1.4737  0.0079 -0.5935
  176MPD1    H2 2686   3.149   4.403  17.100  0.9201  0.1729 -1.2126
  176MPD1    H3 2687   3.175   4.444  16.872 -2.0984 -2.2029  0.7565
  176MPD1     N 2688   2.942   0.114  16.881 -0.3415 -0.2173  0.0687
  176MPD1    H5 2689   2.939   0.115  16.780 -0.5336  1.3309  0.0891
  176MPD1    N1 2690   3.013   4.547  17.269 -0.5605  1.2266  0.2633
  176MPD1    H6 2691   3.089   4.500  17.318 -1.7675  1.0901  2.0240
  176MPD1    H7 2692   2.990   4.627  17.328 -2.8098 -0.8114  2.1681
  177MPD1     C 2693   2.083   0.042   9.297  0.4321 -0.1073  0.3026
  177MPD1    C1 2694   1.949   0.055   9.329 -0.3959  0.6073 -0.4821
  177MPD1    C2 2695   1.887   0.171   9.282 -0.3867  0.1106  0.6073
  177MPD1    C3 2696   1.939   0.254   9.182 -0.0775  0.6418 -0.5335
  177MPD1    C4 2697   2.075   0.231   9.140 -0.2512  0.3922  0.0778
  177MPD1    C5 2698   2.142   0.124   9.197  0.3387  0.2057 -0.2788
  177MPD1     H 2699   1.786   0.185   9.320 -1.2446 -0.5458 -1.4054
  177MPD1    H1 2700   2.128   0.294   9.070  0.5120  0.5463  0.7967
  177MPD1    H2 2701   2.153   4.694   9.340  1.2839  0.6379  0.1583
  177MPD1    H3 2702   2.247   0.108   9.173  0.5805  2.0134 -0.4438
  177MPD1     N 2703   1.863   0.370   9.135  1.1153  0.0033 -0.0888
  177MPD1    H5 2704   1.773   0.390   9.179  0.7582 -0.1838 -0.7403
  177MPD1    N1 2705   1.891   4.704   9.440 -0.6067 -0.0021  0.1361
  177MPD1    H6 2706   1.790   4.690   9.440 -0.5079 -0.7317  0.3332
  177MPD1    H7 2707   1.940   4.616   9.455 -3.0779 -1.5063 -0.5762
  178MPD1     C 2708   3.275   0.974  17.688 -0.3118 -0.7918 -0.3610
  178MPD1    C1 2709   3.209   0.924  17.578  0.0846 -0.3760 -0.3924
  178MPD1    C2 2710   3.245   0.968  17.450  0.0557  0.6052 -0.2353
  178MPD1    C3 2711   3.355   1.059  17.431  0.5907  0.0031  0.7210
  178MPD1    C4 2712   3.419   1.106  17.549 -0.1539 -0.3877  0.2608
  178MPD1    C5 2713   3.376   1.065  17.670  0.1882 -0.3288  0.5610
  178MPD1     H 2714   3.198   0.917  17.366 -0.1248  1.0914 -0.4266
  178MPD1    H1 2715   3.496   1.183  17.545  1.0745 -1.6769 -0.9718
  178MPD1    H2 2716   3.253   0.946   0.097 -0.4648 -1.5271 -0.5959
  178MPD1    H3 2717   3.430   1.109   0.059  0.2470  1.5180 -0.4620
  178MPD1     N 2718   3.407   1.102  17.299  0.5595 -0.4148  0.1937
  178MPD1    H5 2719   3.487   1.165  17.295  1.3479 -1.4223  0.2132
  178MPD1    N1 2720   3.129   0.809  17.594  0.0107  0.2246  0.0697
  178MPD1    H6 2721   3.184   0.723  17.595  0.5294  0.5606  0.3411
  178MPD1    H7 2722   3.074   0.793  17.510 -2.0065 -0.8958  1.6102
  179MPD1     C 2723   3.476   4.573  15.804 -0.1836 -0.1543  0.1271
  179MPD1    C1 2724   3.347   4.524  15.795  0.1400 -0.0363  0.5322
  179MPD1    C2 2725   3.344   4.391  15.758  0.0357  0.0027  0.8958
  179MPD1    C3 2726   3.454   4.324  15.701 -0.4897  0.1635 -0.0905
  179MPD1    C4 2727   3.575   4.388  15.693 -0.4487  0.4245 -0.3945
  179MPD1    C5 2728   3.587   4.510  15.752 -0.7567 -0.0598  0.7977
  179MPD1     H 2729   3.258   4.337  15.795  1.8923 -2.1509  2.0996
  179MPD1    H1 2730   3.662   4.338  15.652 -1.0574  0.4394 -1.7133
  179MPD1    H2 2731   3.492   4.672  15.844 -1.2918 -0.6607  1.8629
  179MPD1    H3 2732   3.688   4.549  15.755 -1.1107  0.9691 -0.3606
  179MPD1     N 2733   3.444   4.186  15.672  0.3824  0.1278  0.4424
  179MPD1    H5 2734   3.532   4.143  15.644 -0.8625 -1.1917 -1.4397
  179MPD1    N1 2735   3.239   4.587  15.855  0.1793 -0.2350 -0.1438
  179MPD1    H6 2736   3.160   4.542  15.809 -1.5896  1.7912  0.9604
  179MPD1    H7 2737   3.240   4.685  15.825 -0.4750 -0.2633 -0.2470
  180MPD1     C 2738   4.268   0.643  14.445  0.4836  0.4917 -1.1759
  180MPD1    C1 2739   4.289   0.775  14.446  0.1086 -0.0446 -0.4584
  180MPD1    C2 2740   4.188   0.855  14.388  0.1993 -0.1136  0.5680
  180MPD1    C3 2741   4.063   0.814  14.360 -0.2263 -0.3930  0.1683
  180MPD1    C4 2742   4.042   0.676  14.364 -0.3109 -0.0978  0.4436
  180MPD1    C5 2743   4.147   0.590  14.404 -0.3493  0.5037 -0.2127
  180MPD1     H 2744   4.212   0.959  14.370 -1.9925  0.4504  1.0202
  180MPD1    H1 2745   3.944   0.635  14.344  0.7117 -1.1686 -2.3593
  180MPD1    H2 2746   4.344   0.572  14.477 -0.7719 -0.3353 -0.0252
  180MPD1    H3 2747   4.130   0.483  14.406  1.5358  0.2871  3.9529
  180MPD1     N 2748   3.969   0.916  14.322  0.1931  0.2325  0.2421
  180MPD1    H5 2749   4.002   1.012  14.313  0.2158  0.2468  0.4777
  180MPD1    N1 2750   4.418   0.819  14.478  0.0434 -0.4268  0.1443
  180MPD1    H6 2751   4.417   0.914  14.514 -2.7743  0.6838 -2.8759
  180MPD1    H7 2752   4.473   0.766  14.545 -0.4246  0.9242  1.6053
  181MPD1     C 2753   0.522   2.123  10.130 -0.1138  0.3702  0.6222
  181MPD1    C1 2754   0.508   2.259  10.155 -0.5892 -0.0986  0.6149
  181MPD1    C2 2755   0.600   2.343  10.105 -0.3274  0.3541 -0.5580
  181MPD1    C3 2756   0.707   2.300  10.033 -0.1858 -0.4590 -0.1002
  181MPD1    C4 2757   0.723   2.165  10.009 -0.1134  0.7691  0.4594
  181MPD1    C5 2758   0.629   2.076  10.057  0.6736 -0.6342  0.8674
  181MPD1     H 2759   0.598   2.447  10.134  0.9002 -0.0074  0.7805
  181MPD1    H1 2760   0.803   2.118   9.952  0.0352  1.2423  0.2805
  181MPD1    H2 2761   0.451   2.052  10.170 -1.5625  1.5215  0.0510
  181MPD1    H3 2762   0.644   1.970  10.040 -2.5657 -0.7110 -1.4919
  181MPD1     N 2763   0.805   2.391   9.985  0.4465  0.3216  0.0016
  181MPD1    H5 2764   0.797   2.489  10.010 -1.3577  0.0987  0.2480
  181MPD1    N1 2765   0.399   2.299  10.236 -0.4708 -0.3812 -0.2821
  181MPD1    H6 2766   0.388   2.236  10.316 -3.5192 -0.1703 -0.5425
  181MPD1    H7 2767   0.395   2.396  10.267  1.7960 -0.1968 -0.5495
  182MPD1     C 2768   1.210   0.943   0.872  0.3826 -0.0357 -0.2877
  182MPD1    C1 2769   1.302   1.023   0.806  0.2861 -0.5351  0.3582
  182MPD1    C2 2770   1.251   1.130   0.730 -0.2915 -0.0094 -0.1595
  182MPD1    C3 2771   1.114   1.145   0.705  0.7803 -0.1579 -0.5169
  182MPD1    C4 2772   1.025   1.067   0.771  0.2133 -0.4322  0.2946
  182MPD1    C5 2773   1.074   0.961   0.854  0.5374 -0.6306 -0.1965
  182MPD1     H 2774   1.321   1.203   0.691 -1.5498  0.6143 -1.2330
  182MPD1    H1 2775   0.918   1.084   0.763 -0.0334 -4.5538 -5.0006
  182MPD1    H2 2776   1.240   0.864   0.940  0.2335 -0.1222 -0.3234
  182MPD1    H3 2777   1.002   0.903   0.911 -0.7099 -0.0618 -1.1871
  182MPD1     N 2778   1.058   1.244   0.620 -0.4113 -0.0335  0.5744
  182MPD1    H5 2779   0.958   1.249   0.636 -0.4850  1.5257 -0.3637
  182MPD1    N1 2780   1.434   1.008   0.844  0.7970 -0.4556  0.2381
  182MPD1    H6 2781   1.472   0.916   0.865 -1.0887 -1.8298 -2.3683
  182MPD1    H7 2782   1.492   1.047   0.769 -0.2811 -0.4186 -0.5818
  183MPD1     C 2783   2.986   3.193   9.013 -0.1383  0.1905  0.3720
  183MPD1    C1 2784   2.897   3.303   9.031 -0.3792 -0.2069  0.2700
  183MPD1    C2 2785   2.766   3.273   9.075  0.2746  0.8343 -0.3008
  183MPD1    C3 2786   2.736   3.148   9.130  0.4874  0.1462  0.2168
  183MPD1    C4 2787   2.831   3.051   9.128 -0.0848 -0.1096  0.0029
  183MPD1    C5 2788   2.946   3.076   9.064 -0.5161  0.0338 -0.6982
  183MPD1     H 2789   2.687   3.347   9.066  0.7121  1.2416 -0.8167
  183MPD1    H1 2790   2.820   2.948   9.162  0.6980 -0.9038 -2.1913
  183MPD1    H2 2791   3.074   3.188   8.950 -0.6479 -1.2734 -0.2234
  183MPD1    H3 2792   3.020   2.998   9.063 -0.3463  0.1730  1.0027
  183MPD1     N 2793   2.603   3.134   9.192  0.1211 -0.8301 -0.3475
  183MPD1    H5 2794   2.562   3.226   9.203  1.8469  0.1155 -1.7530
  183MPD1    N1 2795   2.920   3.419   8.957 -0.5663 -0.3038  0.2846
  183MPD1    H6 2796   3.018   3.445   8.950 -0.7925  0.5702  0.3857
  183MPD1    H7 2797   2.870   3.492   9.008 -1.7030  0.4157 -1.8764
  184MPD1     C 2798   0.741   0.646  10.208  0.8077 -0.3004 -0.0515
  184MPD1    C1 2799   0.708   0.583  10.084 -0.1336 -0.1484  0.1380
  184MPD1    C2 2800   0.759   0.633   9.973  0.3409 -0.1500 -0.7377
  184MPD1    C3 2801   0.833   0.753   9.973 -0.0992 -0.2810 -0.5475
  184MPD1    C4 2802   0.851   0.816  10.093  0.6783  0.9062 -0.4112
  184MPD1    C5 2803   0.802   0.765  10.205 -0.0345 -0.0599 -0.3724
  184MPD1     H 2804   0.746   0.567   9.888  0.1672 -0.0021 -0.8275
  184MPD1    H1 2805   0.910   0.906  10.106  4.8201 -1.5325 -2.0727
  184MPD1    H2 2806   0.692   0.614  10.299  0.2849  2.2568  0.5625
  184MPD1    H3 2807   0.834   0.821  10.292 -4.1222  0.8914  0.5326
  184MPD1     N 2808   0.902   0.813   9.863 -0.0239 -0.5102  0.1145
  184MPD1    H5 2809   0.952   0.899   9.883  0.5777 -0.4950 -1.4995
  184MPD1    N1 2810   0.667   0.449  10.083  0.4329  0.2901  0.3087
  184MPD1    H6 2811   0.610   0.421  10.004  0.7679 -0.1121  0.2090
  184MPD1    H7 2812   0.612   0.436  10.168  1.1776  2.0777  1.0820
  185MPD1     C 2813   1.189   0.704   8.796  0.5391  0.5352  0.0942
  185MPD1    C1 2814   1.075   0.667   8.868  0.6882  0.2510 -0.1260
  185MPD1    C2 2815   1.060   0.702   9.001 -0.4539 -0.6585 -0.1136
  185MPD1    C3 2816   1.158   0.778   9.066  0.2978 -0.1622  0.4966
  185MPD1    C4 2817   1.276   0.805   8.996 -0.0607  0.2297 -0.7177
  185MPD1    C5 2818   1.288   0.773   8.862  0.3733  0.3567 -0.3529
  185MPD1     H 2819   0.984   0.648   9.056 -2.0917  3.8665  2.1552
  185MPD1    H1 2820   1.354   0.858   9.050  1.4912 -0.9570 -1.7903
  185MPD1    H2 2821   1.204   0.676   8.692  2.5538 -0.3627  0.6462
  185MPD1    H3 2822   1.372   0.800   8.799  0.8083 -0.2333 -0.0280
  185MPD1     N 2823   1.144   0.820   9.202 -0.8409  0.7781 -0.0942
  185MPD1    H5 2824   1.222   0.875   9.237  0.5332 -1.2999  0.0988
  185MPD1    N1 2825   0.997   0.567   8.813 -0.1242  0.2859  0.8817
  185MPD1    H6 2826   1.000   0.580   8.712  4.5234  3.2564  1.3538
  185MPD1    H7 2827   0.900   0.576   8.841 -0.7488 -0.6360 -0.9903
  186MPD1     C 2828   4.014   3.943  15.740 -0.1612 -0.2816 -0.1847
  186MPD1    C1 2829   3.895   3.912  15.805 -0.2983 -0.3847 -0.2315
  186MPD1    C2 2830   3.832   4.022  15.870  0.1339 -1.2240  0.1541
  186MPD1    C3 2831   3.884   4.152  15.870  0.4716  0.5557  0.5421
  186MPD1    C4 2832   4.002   4.170  15.814 -0.0046  0.4098 -0.3183
  186MPD1    C5 2833   4.064   4.069  15.752  0.4921  0.4048 -1.1103
  186MPD1     H 2834   3.739   4.000  15.922  0.1678 -2.4084 -0.2816
  186MPD1    H1 2835   4.044   4.270  15.810  1.9916 -0.4244 -0.5022
  186MPD1    H2 2836   4.086   3.873  15.699  1.3112  1.8777 -1.3035
  186MPD1    H3 2837   4.153   4.094  15.695  0.4149  0.4988 -1.1878
  186MPD1     N 2838   3.819   4.260  15.941 -0.3697 -0.1759 -0.0842
  186MPD1    H5 2839   3.864   4.351  15.940 -0.8794  0.0746  0.2780
  186MPD1    N1 2840   3.878   3.776  15.828 -0.1521 -0.7389  0.2411
  186MPD1    H6 2841   3.784   3.737  15.841 -0.9521  1.5191  1.1273
  186MPD1    H7 2842   3.919   3.715  15.757 -2.7779 -1.4252 -0.6865
  187MPD1     C 2843   3.619   1.882  16.985  0.5077  0.7339 -0.1233
  187MPD1    C1 2844   3.497   1.899  16.926 -0.2301  0.0321  0.9213
  187MPD1    C2 2845   3.386   1.893  17.006 -0.0144 -0.5523  0.0920
  187MPD1    C3 2846   3.389   1.842  17.129 -0.5123  0.1192 -0.2047
  187MPD1    C4 2847   3.514   1.819  17.191 -0.5101 -0.3149  0.2237
  187MPD1    C5 2848   3.625   1.838  17.115 -0.1579  0.6655 -0.1085
  187MPD1     H 2849   3.296   1.919  16.952  1.1404  3.1157 -0.0350
  187MPD1    H1 2850   3.528   1.787  17.293 -0.5452 -1.5822 -0.1674
  187MPD1    H2 2851   3.706   1.901  16.924  1.2566  0.8390  0.9887
  187MPD1    H3 2852   3.720   1.837  17.168 -0.4822 -0.0555  0.4545
  187MPD1     N 2853   3.268   1.822  17.206 -0.4392  0.3060 -0.9660
  187MPD1    H5 2854   3.280   1.813  17.307  0.9965  1.5935 -1.0133
  187MPD1    N1 2855   3.494   1.961  16.800  0.0990 -0.6781  0.0522
  187MPD1    H6 2856   3.578   1.934  16.749  0.5511 -0.5321  0.7116
  187MPD1    H7 2857   3.407   1.942  16.751  0.4529 -0.1421 -0.7959
  188MPD1     C 2858   3.121   2.011  10.209 -0.1786  0.6803  0.1883
  188MPD1    C1 2859   3.252   1.993  10.172  0.3788  0.0310  0.8417
  188MPD1    C2 2860   3.277   1.879  10.095  0.1352  0.7106 -0.5914
  188MPD1    C3 2861   3.184   1.779  10.066 -0.0142  0.0612 -0.0578
  188MPD1    C4 2862   3.060   1.800  10.117  0.5349 -0.0923  0.3241
  188MPD1    C5 2863   3.031   1.916  10.180  0.1266  0.3163 -0.7557
  188MPD1     H 2864   3.375   1.857  10.054  0.0704 -1.7893  0.5987
  188MPD1    H1 2865   2.981   1.729  10.099  1.5430 -1.1369 -0.0316
  188MPD1    H2 2866   3.091   2.109  10.242  1.2057  1.3362 -0.5112
  188MPD1    H3 2867   2.929   1.942  10.204  0.1795 -0.7502  0.6169
  188MPD1     N 2868   3.198   1.659   9.992 -0.0060  0.1694  0.0279
  188MPD1    H5 2869   3.112   1.612   9.964  0.1327 -0.9144  1.4139
  188MPD1    N1 2870   3.345   2.095  10.182  0.8277  0.1745  0.2271
  188MPD1    H6 2871   3.443   2.068  10.189  0.4191 -1.4799 -0.3887
  188MPD1    H7 2872   3.322   2.141  10.270  0.0944 -2.6476  1.4916
  189MPD1     C 2873   3.658   1.420   0.906 -0.3237 -0.0716  0.3694
  189MPD1    C1 2874   3.564   1.376   0.810  0.1200 -0.8771 -0.1033
  189MPD1    C2 2875   3.598   1.410   0.682  0.0264  0.6375  0.2143
  189MPD1    C3 2876   3.701   1.495   0.641  0.7493 -0.6166  0.3322
  189MPD1    C4 2877   3.781   1.550   0.741 -0.0258 -0.4094  0.2082
  189MPD1    C5 2878   3.761   1.508   0.875  0.5827  0.0473 -0.3962
  189MPD1     H 2879   3.536   1.371   0.602 -0.4509  1.3999  0.2159
  189MPD1    H1 2880   3.852   1.631   0.735 -0.4898  0.0912  1.5033
  189MPD1    H2 2881   3.659   1.373   1.003 -0.0529  1.7994  1.2769
  189MPD1    H3 2882   3.832   1.532   0.953 -0.6423 -2.0362  1.3646
  189MPD1     N 2883   3.719   1.516   0.507 -0.0982  0.5510  0.4682
  189MPD1    H5 2884   3.646   1.480   0.447  0.9055 -0.8964  0.1185
  189MPD1    N1 2885   3.463   1.290   0.847 -0.3049 -0.5124  0.7471
  189MPD1    H6 2886   3.415   1.320   0.931  0.4054 -0.7428  1.2273
  189MPD1    H7 2887   3.388   1.286   0.778 -1.5712 -0.4649  2.1278
  190MPD1     C 2888   3.009   1.099  15.084 -0.0236  0.2008  0.3953
  190MPD1    C1 2889   2.961   1.032  15.202  0.2860  0.0898 -0.0138
  190MPD1    C2 2890   3.052   0.970  15.283 -0.0462 -0.4613 -0.6740
  190MPD1    C3 2891   3.187   0.996  15.272 -0.9196  0.4406  0.2801
  190MPD1    C4 2892   3.223   1.068  15.167 -0.0635 -0.7697 -0.4634
  190MPD1    C5 2893   3.138   1.114  15.074 -0.1908 -0.3296  0.2306
  190MPD1     H 2894   3.014   0.918  15.369  1.6911  1.5120  1.3090
  190MPD1    H1 2895   3.328   1.091  15.152 -1.2446  3.0258 -2.9566
  190MPD1    H2 2896   2.946   1.154  15.016 -1.8743 -2.3867 -0.0102
  190MPD1    H3 2897   3.172   1.177  14.992  2.1361 -1.1517  0.5689
  190MPD1     N 2898   3.283   0.947  15.359  0.2025 -0.1381 -0.0602
  190MPD1    H5 2899   3.382   0.955  15.339 -0.1147 -1.6086 -2.2291
  190MPD1    N1 2900   2.825   0.997  15.212  0.0216 -0.0026  0.0181
  190MPD1    H6 2901   2.793   0.977  15.307  1.7684  0.9462  0.8170
  190MPD1    H7 2902   2.754   1.053  15.165 -0.8589 -1.5952 -0.5218
  191MPD1     C 2903   3.096   2.242  12.773  0.5222  0.0908  0.8185
  191MPD1    C1 2904   3.139   2.345  12.686  0.2782  0.1366  0.1641
  191MPD1    C2 2905   3.070   2.469  12.690  0.2843  0.0618 -0.3117
  191MPD1    C3 2906   2.969   2.482  12.779 -0.7345  0.1099  0.1160
  191MPD1    C4 2907   2.933   2.383  12.865 -0.1441 -0.5136 -0.7059
  191MPD1    C5 2908   2.994   2.258  12.861 -0.2707 -0.8552 -0.0755
  191MPD1     H 2909   3.086   2.548  12.618  2.8534 -1.4156 -1.3603
  191MPD1    H1 2910   2.847   2.395  12.930 -0.8832  0.0981 -1.7957
  191MPD1    H2 2911   3.143   2.144  12.774  0.9051  0.2766  1.4741
  191MPD1    H3 2912   2.959   2.173  12.920  0.0595  0.5061  2.0980
  191MPD1     N 2913   2.904   2.611  12.779 -0.1995 -0.0119  0.3538
  191MPD1    H5 2914   2.944   2.673  12.710 -0.4619  1.6873  1.7243
  191MPD1    N1 2915   3.220   2.318  12.576  0.3048  0.1462 -0.4148
  191MPD1    H6 2916   3.299   2.256  12.595  1.3910  2.1176  1.4719
  191MPD1    H7 2917   3.254   2.405  12.536  0.6820  0.1875 -0.0095
  192MPD1     C 2918   2.200   3.066  13.356 -0.3196  0.1856 -0.1996
  192MPD1    C1 2919   2.303   3.150  13.322  0.0697  0.2493 -0.7533
  192MPD1    C2 2920   2.385   3.120  13.220 -0.0670  0.6237 -0.0324
  192MPD1    C3 2921   2.373   2.993  13.154  0.0970  0.8960 -1.1562
  192MPD1    C4 2922   2.274   2.908  13.190 -1.0921 -0.2591 -0.0014
  192MPD1    C5 2923   2.187   2.951  13.286  0.3203 -0.0076 -0.1716
  192MPD1     H 2924   2.467   3.186  13.195 -0.4697  0.3486 -2.0637
  192MPD1    H1 2925   2.276   2.810  13.143 -4.0411 -0.0220 -0.6053
  192MPD1    H2 2926   2.124   3.087  13.431 -0.6149 -1.7292  0.0548
  192MPD1    H3 2927   2.099   2.891  13.308  0.3700 -0.2480 -0.6503
  192MPD1     N 2928   2.462   2.962  13.050 -0.2811  0.1979 -0.3614
  192MPD1    H5 2929   2.462   2.865  13.019 -0.2224  0.5434 -1.4414
  192MPD1    N1 2930   2.312   3.273  13.390  0.0672 -0.3236 -0.0168
  192MPD1    H6 2931   2.399   3.320  13.368  0.3605 -1.3724 -1.0952
  192MPD1    H7 2932   2.296   3.252  13.488 -0.2922 -2.2423 -0.4892
  193MPD1     C 2933   2.343   2.369  15.770  0.3160 -0.8867  0.4812
  193MPD1    C1 2934   2.305   2.490  15.829 -0.0087  0.5178 -0.2482
  193MPD1    C2 2935   2.381   2.532  15.942 -0.1915 -0.5207  0.6801
  193MPD1    C3 2936   2.492   2.465  15.978 -1.1600 -0.1977  0.2707
  193MPD1    C4 2937   2.533   2.349  15.909  0.2424  1.6927 -0.3606
  193MPD1    C5 2938   2.456   2.306  15.799  0.6303  0.7960 -1.1648
  193MPD1     H 2939   2.354   2.624  15.994 -0.3331 -1.4284  2.2163
  193MPD1    H1 2940   2.618   2.291  15.945 -1.0057 -0.4479 -0.8153
  193MPD1    H2 2941   2.284   2.324  15.691  0.3312 -0.9111  0.4837
  193MPD1    H3 2942   2.490   2.218  15.746  1.8108  0.7834 -0.3868
  193MPD1     N 2943   2.567   2.498  16.091  0.2064  0.6440  0.4506
  193MPD1    H5 2944   2.650   2.440  16.099 -0.5404 -0.0254  3.0491
  193MPD1    N1 2945   2.182   2.548  15.788  0.2372  0.4621  0.4727
  193MPD1    H6 2946   2.177   2.647  15.810  2.0723  0.6039  0.3020
  193MPD1    H7 2947   2.179   2.541  15.687 -2.1585  0.0615  0.5790
  194MPD1     C 2948   4.306   4.681  17.598  0.2996 -0.4560 -0.0660
  194MPD1    C1 2949   4.302   4.568  17.674 -0.3648  0.2492 -0.0434
  194MPD1    C2 2950   4.335   4.446  17.615  0.4050 -0.0154  0.0482
  194MPD1    C3 2951   4.379   4.433  17.487  0.4967  0.8642  0.2485
  194MPD1    C4 2952   4.391   4.551  17.413  0.8907  0.3830  0.6076
  194MPD1    C5 2953   4.340   4.670  17.465 -0.1948  0.1805  0.3742
  194MPD1     H 2954   4.340   4.355  17.674 -0.5109 -0.6934 -0.9176
  194MPD1    H1 2955   4.414   4.561  17.308  0.3336 -0.7621  0.3861
  194MPD1    H2 2956   4.274   0.050  17.644  2.7300  1.7035 -2.7060
  194MPD1    H3 2957   4.333   0.034  17.400 -2.9185 -1.2062 -1.2273
  194MPD1     N 2958   4.413   4.315  17.431 -0.6542  0.1100  0.5650
  194MPD1    H5 2959   4.441   4.318  17.334 -1.5590  0.2035  0.3055
  194MPD1    N1 2960   4.276   4.580   0.115 -0.1165  0.1457 -0.1941
  194MPD1    H6 2961   4.302   4.672   0.151 -3.3766  0.8687  0.2683
  194MPD1    H7 2962   4.325   4.513   0.175  0.8838  0.3389 -0.7935
  195MPD1     C 2963   2.638   1.763   0.244  0.3737 -0.3093  0.0683
  195MPD1    C1 2964   2.649   1.654   0.328 -0.1835  0.3120 -0.5693
  195MPD1    C2 2965   2.625   1.523   0.269  0.2351 -0.1216 -0.8017
  195MPD1    C3 2966   2.583   1.511   0.138 -0.1647 -0.1678  0.2654
  195MPD1    C4 2967   2.570   1.622   0.062  0.1872 -0.1337 -0.0024
  195MPD1    C5 2968   2.613   1.750   0.112  0.6226  0.4083  0.6285
  195MPD1     H 2969   2.663   1.437   0.322  1.4064  1.7884  1.4334
  195MPD1    H1 2970   2.540   1.614  17.653 -0.3480  1.7205  0.0068
  195MPD1    H2 2971   2.648   1.865   0.280  0.3783 -0.4289  0.4016
  195MPD1    H3 2972   2.615   1.834   0.044 -1.8957 -0.3701 -0.3875
  195MPD1     N 2973   2.569   1.382   0.084  0.8118  0.0029  0.1177
  195MPD1    H5 2974   2.567   1.379  17.676  1.3634  0.2128  0.1023
  195MPD1    N1 2975   2.708   1.673   0.455 -0.2063 -0.3172  0.7832
  195MPD1    H6 2976   2.692   1.763   0.500  1.4750 -0.1419  1.0473
  195MPD1    H7 2977   2.659   1.612   0.520 -1.0038 -0.7244 -0.2134
  196MPD1     C 2978   1.753   0.782  17.609 -0.1062 -0.6148  0.4779
  196MPD1    C1 2979   1.760   0.920  17.595 -0.2928 -0.3743 -0.3790
  196MPD1    C2 2980   1.810   0.998   0.004  0.2738  0.9513  0.3577
  196MPD1    C3 2981   1.859   0.939   0.118 -0.2991 -0.1668  0.0178
  196MPD1    C4 2982   1.862   0.798   0.123 -0.3778  1.0091  0.7147
  196MPD1    C5 2983   1.815   0.720   0.026  0.4678  0.2622  0.6011
  196MPD1     H 2984   1.805   1.104  17.678  2.9388  0.9042 -0.5072
  196MPD1    H1 2985   1.900   0.749   0.212 -0.9371 -0.8576 -0.0691
  196MPD1    H2 2986   1.718   0.709  17.538 -1.5041  0.4924  0.0378
  196MPD1    H3 2987   1.821   0.613   0.041  0.2072  0.5480  2.7235
  196MPD1     N 2988   1.897   1.005   0.235 -0.1131  0.2424  0.4699
  196MPD1    H5 2989   1.935   0.947   0.309 -0.2233 -0.0963  0.2616
  196MPD1    N1 2990   1.687   0.985  17.491  0.2257  0.6694  0.6090
  196MPD1    H6 2991   1.658   0.924  17.415  1.6519 -0.2445  0.7992
  196MPD1    H7 2992   1.727   1.070  17.452 -0.9005  2.1859  2.7693
  197MPD1     C 2993   1.247   3.371  17.597  0.2996  0.1955  0.1499
  197MPD1    C1 2994   1.282   3.500  17.623 -0.5754  0.1588 -0.6223
  197MPD1    C2 2995   1.264   3.595  17.523 -0.5274 -0.4957  0.4268
  197MPD1    C3 2996   1.196   3.577  17.404  0.1387 -0.3457  0.1730
  197MPD1    C4 2997   1.151   3.446  17.379  0.8171  0.5521 -0.3549
  197MPD1    C5 2998   1.178   3.345  17.475  0.1449 -0.0368 -0.2395
  197MPD1     H 2999   1.318   3.688  17.539 -1.4244  0.0029  0.5753
  197MPD1    H1 3000   1.105   3.421  17.284  2.4930 -1.4572 -0.6377
  197MPD1    H2 3001   1.262   3.287  17.665 -1.7475 -0.5291 -0.2895
  197MPD1    H3 3002   1.147   3.242  17.468 -3.4408  1.0333 -0.3155
  197MPD1     N 3003   1.178   3.677  17.302 -0.0290 -0.2003  0.2207
  197MPD1    H5 3004   1.119   3.656  17.222  1.4221  0.4493 -1.0222
  197MPD1    N1 3005   1.362   3.533   0.045  0.0396  0.1333  0.3021
  197MPD1    H6 3006   1.337   3.476   0.125 -0.7759 -0.6427 -0.5028
  197MPD1    H7 3007   1.360   3.633   0.067 -0.1885 -0.0953  1.2808
  198MPD1     C 3008   2.669   2.184  15.472  0.0677 -0.7270 -0.5724
  198MPD1    C1 3009   2.721   2.087  15.388  0.1151  0.5518  0.2984
  198MPD1    C2 3010   2.820   2.009  15.441 -0.1250  0.2178  0.2725
  198MPD1    C3 3011   2.880   2.028  15.565 -0.5706  0.0904 -0.2142
  198MPD1    C4 3012   2.832   2.130  15.644  0.1365 -0.0019 -0.0805
  198MPD1    C5 3013   2.727   2.202  15.597  0.1084  0.5223  0.7843
  198MPD1     H 3014   2.843   1.911  15.400  2.4226  0.4684  1.1012
  198MPD1    H1 3015   2.884   2.161  15.734  0.4129 -0.6997  0.0012
  198MPD1    H2 3016   2.584   2.245  15.445  0.3917  0.2741  0.6782
  198MPD1    H3 3017   2.684   2.280  15.659 -2.3879  0.1549 -0.4769
  198MPD1     N 3018   2.980   1.935  15.600  0.3166 -0.3288  1.0199
  198MPD1    H5 3019   2.990   1.855  15.539 -0.9284  0.4384 -0.2053
  198MPD1    N1 3020   2.650   2.056  15.269 -0.1258 -0.0411  0.1034
  198MPD1    H6 3021   2.593   2.130  15.231  0.6320  0.7033  0.4087
  198MPD1    H7 3022   2.712   2.022  15.196 -0.9086  0.3228 -0.7221
  199MPD1     C 3023   1.651   3.622   9.540  0.0808 -0.0886  0.0629
  199MPD1    C1 3024   1.524   3.673   9.576  0.0977  0.2308 -0.2175
  199MPD1    C2 3025   1.414   3.599   9.543  0.1513  0.3911  0.7749
  199MPD1    C3 3026   1.428   3.476   9.481 -0.1476  0.0401 -0.0106
  199MPD1    C4 3027   1.560   3.419   9.468 -0.2877  0.7157  0.9938
  199MPD1    C5 3028   1.666   3.496   9.487 -0.5312  0.7310  0.1925
  199MPD1     H 3029   1.318   3.638   9.573 -0.5583 -1.6354  1.1388
  199MPD1    H1 3030   1.575   3.321   9.425  0.8478  1.2808  0.0988
  199MPD1    H2 3031   1.743   3.679   9.532 -0.4229  0.7610  0.2732
  199MPD1    H3 3032   1.768   3.458   9.482 -1.0562 -0.5226 -0.8008
  199MPD1     N 3033   1.317   3.396   9.448 -0.0144  0.0131  0.0078
  199MPD1    H5 3034   1.343   3.302   9.417  0.3495  0.3336 -0.6683
  199MPD1    N1 3035   1.513   3.808   9.612 -0.2847  0.2490 -0.3824
  199MPD1    H6 3036   1.584   3.830   9.681  0.9759 -2.9935 -0.6283
  199MPD1    H7 3037   1.432   3.819   9.672 -0.0682 -0.9680  0.1296
  200MPD1     C 3038   4.620   3.426  15.405 -0.9713 -0.6854 -0.4451
  200MPD1    C1 3039   4.561   3.302  15.393 -0.1340 -0.7275 -0.3640
  200MPD1    C2 3040   4.513   3.264  15.269  0.4052 -0.5351 -0.0897
  200MPD1    C3 3041   4.559   3.321  15.157 -0.0564  0.1039  0.1033
  200MPD1    C4 3042   4.641   3.426  15.157  0.5826  0.0998  0.0558
  200MPD1    C5 3043   4.662   3.481  15.288 -0.2851  0.5537 -0.5521
  200MPD1     H 3044   4.449   3.177  15.278  0.8849 -1.1475 -2.5548
  200MPD1    H1 3045   4.690   3.469  15.071  0.3838  0.1649 -0.0245
  200MPD1    H2 3046   4.640   3.470  15.502 -1.0570 -0.3408 -0.5835
  200MPD1    H3 3047   0.003   3.568  15.293 -1.7283  1.6847 -1.5996
  200MPD1     N 3048   4.545   3.243  15.039 -0.3599 -0.2118  0.7054
  200MPD1    H5 3049   4.476   3.169  15.051 -2.1416  1.6602  2.1153
  200MPD1    N1 3050   4.527   3.230  15.502  0.4629 -0.3690 -0.0135
  200MPD1    H6 3051   4.584   3.246  15.585  0.9792  1.9717 -0.8193
  200MPD1    H7 3052   4.524   3.131  15.481  2.5381 -0.2660 -0.7998
  201MPD1     C 3053   1.682   2.524  13.383  0.3069 -0.0449 -0.4022
  201MPD1    C1 3054   1.806   2.563  13.330 -0.1003 -0.1389 -0.6792
  201MPD1    C2 3055   1.854   2.485  13.224 -0.2927 -0.3185 -0.0501
  201MPD1    C3 3056   1.802   2.365  13.181  0.6705 -0.0815  0.4248
  201MPD1    C4 3057   1.682   2.327  13.241 -0.4913  0.5641  0.3622
  201MPD1    C5 3058   1.627   2.411  13.338 -0.4992 -0.0316 -0.5230
  201MPD1     H 3059   1.947   2.512  13.174  0.1842 -2.1090 -0.1142
  201MPD1    H1 3060   1.625   2.239  13.215  0.6709  0.3405 -1.4445
  201MPD1    H2 3061   1.628   2.569  13.465  1.0910 -0.1659  0.1808
  201MPD1    H3 3062   1.550   2.374  13.404 -1.1269 -0.7575 -1.6689
  201MPD1     N 3063   1.871   2.291  13.080  0.5793  0.3568 -0.2284
  201MPD1    H5 3064   1.960   2.328  13.045  0.6031 -1.1618 -1.7835
  201MPD1    N1 3065   1.861   2.686  13.363 -0.1282  0.3845 -0.3912
  201MPD1    H6 3066   1.835   2.717  13.457  3.0375 -0.8906  0.9111
  201MPD1    H7 3067   1.959   2.693  13.336 -0.0832  0.5811 -0.1762
  202MPD1     C 3068   3.081   1.873   9.060  0.5504  0.4862  0.1852
  202MPD1    C1 3069   2.944   1.901   9.037  0.3073  0.5357  0.5554
  202MPD1    C2 3070   2.867   1.944   9.144 -0.0385  0.1238 -0.8743
  202MPD1    C3 3071   2.916   1.921   9.275  0.0503 -0.4112  0.4570
  202MPD1    C4 3072   3.030   1.862   9.290  0.5643  1.2529  0.6073
  202MPD1    C5 3073   3.117   1.855   9.186 -0.0143  0.5289 -0.1765
  202MPD1     H 3074   2.763   1.970   9.127 -0.0905  0.8190  0.5406
  202MPD1    H1 3075   3.062   1.840   9.391  0.3748  0.7436  0.5608
  202MPD1    H2 3076   3.147   1.846   8.978  1.1612  0.9568  0.5174
  202MPD1    H3 3077   3.217   1.821   9.210 -0.3340 -1.2621 -1.3877
  202MPD1     N 3078   2.830   1.923   9.393 -0.6201  0.2072  0.6637
  202MPD1    H5 3079   2.859   1.880   9.480  1.2293  0.1737  0.0336
  202MPD1    N1 3080   2.907   1.937   8.906 -0.1782 -0.2458  0.1462
  202MPD1    H6 3081   2.807   1.920   8.895  0.3622 -0.7771 -4.0387
  202MPD1    H7 3082   2.963   1.893   8.833 -1.7864 -1.6765 -0.2370
  203MPD1     C 3083   1.151   3.128  12.285  0.6705 -1.0707  0.4432
  203MPD1    C1 3084   1.065   3.050  12.217  0.1627 -0.2644  0.1098
  203MPD1    C2 3085   1.039   2.919  12.260  0.9152  0.4948  0.2074
  203MPD1    C3 3086   1.101   2.872  12.381  0.9850  0.4502 -0.0919
  203MPD1    C4 3087   1.191   2.957  12.444 -0.8811 -0.3844  0.2711
  203MPD1    C5 3088   1.217   3.076  12.390  0.1714 -0.4131 -0.0221
  203MPD1     H 3089   0.954   2.861  12.227  0.3888  1.8943 -0.9138
  203MPD1    H1 3090   1.240   2.927  12.536  1.4566  1.3250 -0.4128
  203MPD1    H2 3091   1.154   3.233  12.256  0.7705 -1.3117 -0.4216
  203MPD1    H3 3092   1.279   3.148  12.442  1.7268 -0.5076 -1.7442
  203MPD1     N 3093   1.080   2.736  12.425  0.0610 -0.3049 -0.0404
  203MPD1    H5 3094   1.027   2.674  12.364 -1.1415  0.6135  0.0806
  203MPD1    N1 3095   0.983   3.097  12.118  0.3244 -0.7940  0.2223
  203MPD1    H6 3096   0.948   3.021  12.060  1.6664  1.1868 -3.1655
  203MPD1    H7 3097   1.003   3.185  12.072 -1.8259  0.4160  1.5486
  204MPD1     C 3098   0.357   3.733   0.309 -0.1123 -0.3479  0.5404
  204MPD1    C1 3099   0.315   3.817   0.212 -0.0089  0.1625 -0.2658
  204MPD1    C2 3100   0.218   3.785   0.119 -0.6252  0.0969  0.7218
  204MPD1    C3 3101   0.159   3.664   0.130  0.7175  0.1677  0.2503
  204MPD1    C4 3102   0.197   3.582   0.230 -0.4077  0.7140 -0.6075
  204MPD1    C5 3103   0.287   3.616   0.322  1.1841 -0.1373  0.2009
  204MPD1     H 3104   0.168   3.851   0.049  0.5821  1.0725  0.7678
  204MPD1    H1 3105   0.157   3.482   0.244  0.5346  0.5482  0.8885
  204MPD1    H2 3106   0.435   3.752   0.381 -0.1032  1.5865  0.0158
  204MPD1    H3 3107   0.322   3.534   0.384 -1.9069 -0.7228  1.1974
  204MPD1     N 3108   0.051   3.631   0.036 -0.0534  0.7675  0.0365
  204MPD1    H5 3109   0.016   3.702  17.666  0.8081  1.2636  0.1180
  204MPD1    N1 3110   0.391   3.936   0.202 -0.2361  0.3036 -0.1204
  204MPD1    H6 3111   0.333   4.009   0.160  0.6716  1.3172  0.4013
  204MPD1    H7 3112   0.425   3.960   0.295  2.5560  0.2636 -1.1499
  205MPD1     C 3113   0.595   3.087  16.649 -0.8793  0.6206  0.2985
  205MPD1    C1 3114   0.566   2.963  16.596 -0.1576 -0.0364  0.3453
  205MPD1    C2 3115   0.466   2.883  16.653  0.0551  0.3357 -0.5666
  205MPD1    C3 3116   0.394   2.932  16.760  0.2997 -0.2118 -0.2555
  205MPD1    C4 3117   0.422   3.058  16.810  0.7121 -0.2911  0.6233
  205MPD1    C5 3118   0.521   3.136  16.754  0.2414 -0.4734 -0.3561
  205MPD1     H 3119   0.458   2.777  16.631  0.0957 -0.1357  1.7936
  205MPD1    H1 3120   0.376   3.112  16.892 -0.0456  0.6431 -0.4275
  205MPD1    H2 3121   0.680   3.143  16.610  0.4941 -1.9542 -0.3593
  205MPD1    H3 3122   0.544   3.237  16.787 -1.4321 -0.1066 -0.3295
  205MPD1     N 3123   0.312   2.856  16.840 -0.1561  0.1528 -0.2960
  205MPD1    H5 3124   0.277   2.885  16.931  0.4491  1.2738 -0.4291
  205MPD1    N1 3125   0.659   2.917  16.498  0.7952 -0.0542 -0.3449
  205MPD1    H6 3126   0.698   2.992  16.441  0.2880  0.5422  0.0864
  205MPD1    H7 3127   0.628   2.841  16.439 -1.0014  1.5011 -1.4044
  206MPD1     C 3128   0.859   1.098  15.863  0.2117  0.2982  0.3616
  206MPD1    C1 3129   0.841   1.028  15.983 -0.6111  0.0196 -0.3225
  206MPD1    C2 3130   0.718   0.966  16.002  0.4034 -0.7487  0.2770
  206MPD1    C3 3131   0.623   0.965  15.906  1.0976  0.3990  0.2209
  206MPD1    C4 3132   0.650   1.024  15.786  0.1520  0.6503 -0.5857
  206MPD1    C5 3133   0.765   1.093  15.765  0.4446  0.2102  0.3897
  206MPD1     H 3134   0.711   0.904  16.091 -2.1054  0.1332  0.6869
  206MPD1    H1 3135   0.585   1.016  15.700 -1.4512 -3.0231  0.9546
  206MPD1    H2 3136   0.953   1.146  15.843 -0.1878  1.8553  2.2318
  206MPD1    H3 3137   0.782   1.141  15.670 -1.0411 -0.6498 -0.3046
  206MPD1     N 3138   0.501   0.893  15.915 -0.2935  0.5133  0.1303
  206MPD1    H5 3139   0.451   0.901  15.828  1.2316  3.3163 -0.4769
  206MPD1    N1 3140   0.922   1.059  16.088 -0.4037  0.5324 -0.2212
  206MPD1    H6 3141   0.924   0.989  16.162 -1.3853  1.7306  0.9453
  206MPD1    H7 3142   1.018   1.069  16.059 -0.1640 -0.6675  0.1544
  207MPD1     C 3143   2.291   3.357   9.646  0.8853  0.1643  0.1907
  207MPD1    C1 3144   2.307   3.216   9.634 -0.1649 -0.7762  0.6279
  207MPD1    C2 3145   2.426   3.170   9.600  0.3772 -0.5425  0.1168
  207MPD1    C3 3146   2.527   3.244   9.550 -0.0240  0.4935 -0.4820
  207MPD1    C4 3147   2.498   3.381   9.537  0.2481  0.4309 -0.4093
  207MPD1    C5 3148   2.386   3.438   9.592 -0.0992 -0.1923 -0.0102
  207MPD1     H 3149   2.444   3.064   9.614  1.8729 -0.6068 -2.1649
  207MPD1    H1 3150   2.567   3.453   9.494  0.9456  0.0501  0.0679
  207MPD1    H2 3151   2.206   3.399   9.698  1.1559  1.5053 -0.4534
  207MPD1    H3 3152   2.371   3.545   9.601  0.3591 -0.0183 -1.2974
  207MPD1     N 3153   2.662   3.208   9.525  0.3383 -0.3559  1.0690
  207MPD1    H5 3154   2.730   3.282   9.511 -1.5585  1.0931 -0.5395
  207MPD1    N1 3155   2.207   3.132   9.691 -0.0737  0.0607  0.2470
  207MPD1    H6 3156   2.208   3.038   9.653  0.7186  0.0751  0.2353
  207MPD1    H7 3157   2.111   3.162   9.677  0.6459  1.8073 -0.9336
  208MPD1     C 3158   1.451   2.599  17.027 -0.2227 -0.1684  0.1414
  208MPD1    C1 3159   1.488   2.503  17.116  0.1661  0.5656 -0.6673
  208MPD1    C2 3160   1.396   2.414  17.156  0.1690  0.6278  0.2861
  208MPD1    C3 3161   1.262   2.417  17.117 -0.0763  0.3631 -0.1981
  208MPD1    C4 3162   1.227   2.511  17.033 -0.0290  0.0782  0.1858
  208MPD1    C5 3163   1.319   2.601  16.990  0.3036  0.0101 -0.4823
  208MPD1     H 3164   1.437   2.334  17.217 -1.2313 -0.3431 -0.0561
  208MPD1    H1 3165   1.123   2.520  17.004 -0.6756 -1.8959  1.8429
  208MPD1    H2 3166   1.524   2.672  16.993  0.8562 -0.5192  1.7057
  208MPD1    H3 3167   1.285   2.688  16.935 -0.1445  0.5720  0.6916
  208MPD1     N 3168   1.167   2.323  17.166 -1.3526 -0.5436  0.0920
  208MPD1    H5 3169   1.210   2.255  17.228  0.3386 -0.3931 -0.9031
  208MPD1    N1 3170   1.625   2.481  17.144  0.0116 -0.0509  0.0101
  208MPD1    H6 3171   1.636   2.446  17.239 -2.0117 -0.7101  0.0102
  208MPD1    H7 3172   1.679   2.567  17.140 -0.2065  0.1288  0.8375
  209MPD1     C 3173   4.114   2.646  10.753  0.5078  0.1351  0.0307
  209MPD1    C1 3174   4.201   2.693  10.659 -0.1981 -0.1272  0.3273
  209MPD1    C2 3175   4.141   2.768  10.558  0.0271 -0.2458  0.1965
  209MPD1    C3 3176   4.006   2.781  10.540 -0.8656 -0.9459  0.9100
  209MPD1    C4 3177   3.926   2.721  10.638 -0.1152 -0.1334 -0.3402
  209MPD1    C5 3178   3.984   2.657  10.745 -0.0038  0.3450  0.5021
  209MPD1     H 3179   4.207   2.818  10.487  1.8711 -1.5562  1.0105
  209MPD1    H1 3180   3.818   2.728  10.640 -0.0822  0.3390 -0.3859
  209MPD1    H2 3181   4.146   2.595  10.843  0.1284 -1.5323 -0.7819
  209MPD1    H3 3182   3.914   2.608  10.812 -0.2357 -0.8520 -0.6199
  209MPD1     N 3183   3.955   2.834  10.428 -0.1627  0.0469 -0.3276
  209MPD1    H5 3184   4.026   2.857  10.359 -0.9902 -0.9603 -1.5294
  209MPD1    N1 3185   4.340   2.667  10.676  0.2991  0.6978  0.0417
  209MPD1    H6 3186   4.375   2.669  10.581 -1.4808 -2.5273 -0.6713
  209MPD1    H7 3187   4.363   2.578  10.718  0.3778 -0.6744 -2.9340
  210MPD1     C 3188   4.468   3.238   9.863 -0.2079  0.5283  0.9397
  210MPD1    C1 3189   4.349   3.228   9.794  0.3865  0.0987 -0.2150
  210MPD1    C2 3190   4.241   3.159   9.849 -0.4318  0.4442  0.2291
  210MPD1    C3 3191   4.232   3.132   9.984 -0.1304  0.1999 -0.2541
  210MPD1    C4 3192   4.347   3.162  10.052 -0.9765  0.3327  0.3251
  210MPD1    C5 3193   4.470   3.192   9.990  0.1184 -0.0909  0.2850
  210MPD1     H 3194   4.154   3.152   9.785  0.8072  1.4022 -1.5553
  210MPD1    H1 3195   4.348   3.156  10.160 -0.9431 -1.0220  0.2509
  210MPD1    H2 3196   4.559   3.271   9.814 -0.2434 -0.8628 -0.0783
  210MPD1    H3 3197   4.569   3.193  10.033  0.7059 -2.6823 -1.0430
  210MPD1     N 3198   4.113   3.087  10.058  0.1135 -0.6371  0.3220
  210MPD1    H5 3199   4.132   3.072  10.157  0.1620  0.4533  0.4793
  210MPD1    N1 3200   4.356   3.252   9.654  0.3718 -0.0027  0.2466
  210MPD1    H6 3201   4.417   3.334   9.657  0.2972  0.0944 -0.8636
  210MPD1    H7 3202   4.265   3.274   9.612  0.0733 -2.1622 -0.2018
  211MPD1     C 3203   0.897   1.470  16.752  0.3142  0.5663  0.1345
  211MPD1    C1 3204   0.780   1.429  16.684 -0.2141 -0.3610  0.2964
  211MPD1    C2 3205   0.708   1.528  16.616  0.2357  0.1830 -0.2051
  211MPD1    C3 3206   0.766   1.649  16.590 -0.2774 -0.5656 -0.6495
  211MPD1    C4 3207   0.892   1.671  16.636 -0.9601  0.7059 -0.6750
  211MPD1    C5 3208   0.953   1.593  16.732 -0.5684  0.7030 -0.1315
  211MPD1     H 3209   0.606   1.508  16.585  0.1043  0.4432  0.0563
  211MPD1    H1 3210   0.942   1.766  16.626  1.0780 -0.3519 -0.4853
  211MPD1    H2 3211   0.941   1.414  16.834  0.9085  1.4851  0.4394
  211MPD1    H3 3212   1.045   1.627  16.779 -0.9570 -1.1368  1.9770
  211MPD1     N 3213   0.691   1.747  16.522  0.4687 -0.0224 -0.7930
  211MPD1    H5 3214   0.605   1.712  16.482 -0.3591  0.8266  0.2593
  211MPD1    N1 3215   0.721   1.311  16.726 -0.6592 -0.1342  1.2977
  211MPD1    H6 3216   0.647   1.267  16.671  0.4341  0.3744 -0.5928
  211MPD1    H7 3217   0.786   1.237  16.751  1.3235  1.0771 -0.2124
  212MPD1     C 3218   4.298   0.794  16.424 -0.2492  0.6592  0.5360
  212MPD1    C1 3219   4.363   0.689  16.361  0.2825  0.0121 -0.2831
  212MPD1    C2 3220   4.363   0.566  16.415 -0.3003  0.1957 -0.1625
  212MPD1    C3 3221   4.307   0.553  16.542 -0.3330  0.3415 -0.4139
  212MPD1    C4 3222   4.250   0.660  16.611 -0.5138 -0.4514 -0.1505
  212MPD1    C5 3223   4.244   0.782  16.553  0.1694  0.3728 -0.0468
  212MPD1     H 3224   4.403   0.478  16.367  0.8890  0.5012  0.2783
  212MPD1    H1 3225   4.192   0.641  16.700  1.7631 -0.7049  1.2912
  212MPD1    H2 3226   4.274   0.886  16.373  1.4602  3.2255  4.3627
  212MPD1    H3 3227   4.182   0.862  16.593  0.1644 -0.2821  1.2596
  212MPD1     N 3228   4.293   0.426  16.612  0.5755 -0.3809 -0.2461
  212MPD1    H5 3229   4.247   0.432  16.701 -2.1930  2.0426 -1.8673
  212MPD1    N1 3230   4.424   0.706  16.236  0.4043 -0.1079 -0.3334
  212MPD1    H6 3231   4.456   0.802  16.223  0.4585  0.0754  1.1397
  212MPD1    H7 3232   4.493   0.635  16.211 -0.5405 -1.7688  1.8135
  213MPD1     C 3233   3.831   1.254  15.566 -0.6711 -0.0523  0.5580
  213MPD1    C1 3234   3.741   1.191  15.651 -0.6182  0.0397 -0.1621
  213MPD1    C2 3235   3.606   1.217  15.635 -0.4148 -0.5890  0.0573
  213MPD1    C3 3236   3.564   1.282  15.524 -0.3022  0.4332  0.6955
  213MPD1    C4 3237   3.650   1.339  15.443 -0.4523  0.4116  0.1554
  213MPD1    C5 3238   3.782   1.324  15.463 -0.6557 -1.0860  0.8449
  213MPD1     H 3239   3.524   1.189  15.700 -1.4328  0.4963 -0.7764
  213MPD1    H1 3240   3.610   1.399  15.362 -2.1971 -3.0497 -1.5472
  213MPD1    H2 3241   3.936   1.230  15.574 -0.7179 -0.1854  0.7662
  213MPD1    H3 3242   3.861   1.369  15.404 -0.3120 -0.1611  2.0179
  213MPD1     N 3243   3.425   1.297  15.505 -0.1065 -0.1987  0.0919
  213MPD1    H5 3244   3.369   1.293  15.590  0.7757  0.6579  0.7123
  213MPD1    N1 3245   3.783   1.145  15.777  0.4070  0.3744  0.4168
  213MPD1    H6 3246   3.879   1.110  15.780  1.0739  2.1728  0.0948
  213MPD1    H7 3247   3.719   1.072  15.806  2.8311 -2.5860 -1.7331
  214MPD1     C 3248   2.532   1.296  15.915 -0.2657 -0.2878 -0.8240
  214MPD1    C1 3249   2.648   1.212  15.924  0.1812 -0.9348  1.7074
  214MPD1    C2 3250   2.733   1.214  15.821  0.2572 -0.3929  0.2481
  214MPD1    C3 3251   2.714   1.299  15.713  0.5015 -0.4019  0.1192
  214MPD1    C4 3252   2.618   1.399  15.722 -1.0648  0.8515 -0.2769
  214MPD1    C5 3253   2.529   1.402  15.823  0.3393  0.4465  0.0640
  214MPD1     H 3254   2.808   1.135  15.822 -1.8432 -2.3597  0.6524
  214MPD1    H1 3255   2.623   1.486  15.657  1.5043  1.3010  0.5243
  214MPD1    H2 3256   2.447   1.286  15.981 -0.4503  0.1412 -0.9998
  214MPD1    H3 3257   2.454   1.478  15.841  1.9252  1.6464  1.6898
  214MPD1     N 3258   2.812   1.320  15.611  0.6442 -0.2341 -0.5971
  214MPD1    H5 3259   2.801   1.404  15.556  1.2953  1.5771  2.0350
  214MPD1    N1 3260   2.644   1.097  16.007  0.0723  0.1551 -0.5134
  214MPD1    H6 3261   2.737   1.057  16.013 -0.2141 -0.4975 -0.3789
  214MPD1    H7 3262   2.606   1.117  16.100  0.3442 -1.6185 -0.0120
  215MPD1     C 3263   3.583   1.965  10.367 -0.8119 -0.0643 -0.5557
  215MPD1    C1 3264   3.652   2.063  10.300  0.1526 -0.5738  0.3947
  215MPD1    C2 3265   3.663   2.185  10.360 -0.1466  0.3010 -0.1501
  215MPD1    C3 3266   3.633   2.209  10.496  0.1510 -0.0148  0.2242
  215MPD1    C4 3267   3.575   2.108  10.562 -0.1326  0.5261  0.5078
  215MPD1    C5 3268   3.554   1.989  10.502 -0.1162 -0.0773 -0.1010
  215MPD1     H 3269   3.701   2.265  10.296  1.9464 -0.8432 -0.3164
  215MPD1    H1 3270   3.559   2.114  10.669  0.3352  0.9490  0.5532
  215MPD1    H2 3271   3.556   1.877  10.309 -0.0075  0.9181 -2.4027
  215MPD1    H3 3272   3.508   1.910  10.560 -0.9850  1.1369  0.8593
  215MPD1     N 3273   3.662   2.340  10.550  0.1235 -0.2464 -0.2671
  215MPD1    H5 3274   3.682   2.414  10.483  0.4295  0.6668  0.8393
  215MPD1    N1 3275   3.656   2.060  10.159 -0.4517 -0.1149  0.1251
  215MPD1    H6 3276   3.733   2.117  10.126  0.2085 -1.4960 -0.7205
  215MPD1    H7 3277   3.674   1.965  10.126 -0.6236  0.7757 -2.5201
  216MPD1     C 3278   4.084   0.411  17.453  0.1747  0.1232 -0.7996
  216MPD1    C1 3279   4.133   0.326  17.364  0.3544  0.6705  0.0022
  216MPD1    C2 3280   4.111   0.191  17.376  0.4050 -0.9847  0.0312
  216MPD1    C3 3281   4.033   0.139  17.481  0.1567  1.0901 -0.3467
  216MPD1    C4 3282   3.965   0.230  17.568 -0.5182  0.2180  0.4939
  216MPD1    C5 3283   3.999   0.364  17.551  0.5145  0.3903 -0.0668
  216MPD1     H 3284   4.149   0.129  17.296  0.1715  0.5961 -1.2934
  216MPD1    H1 3285   3.901   0.209  17.653  0.0308 -0.0398  0.8378
  216MPD1    H2 3286   4.113   0.515  17.456 -0.7504  0.4082 -1.8426
  216MPD1    H3 3287   3.931   0.433  17.598 -0.4503 -0.0581 -0.8107
  216MPD1     N 3288   4.004   0.002  17.480 -0.6002  0.0356 -0.3453
  216MPD1    H5 3289   4.043   4.676  17.400  0.8204 -0.5580  0.7067
  216MPD1    N1 3290   4.239   0.370  17.279  0.4278  0.2336  0.2398
  216MPD1    H6 3291   4.252   0.302  17.205 -1.9771 -0.0926  0.1396
  216MPD1    H7 3292   4.215   0.461  17.239 -1.6161 -0.4697 -0.1229
  217MPD1     C 3293   0.402   2.391   9.230  0.7832 -1.0325  0.7472
  217MPD1    C1 3294   0.536   2.423   9.218 -0.7630  1.1054  0.4211
  217MPD1    C2 3295   0.626   2.321   9.239 -0.1992 -0.1449  0.5075
  217MPD1    C3 3296   0.592   2.186   9.261  0.3047 -0.1446 -0.5602
  217MPD1    C4 3297   0.456   2.158   9.255 -0.2821  0.1747  0.0929
  217MPD1    C5 3298   0.365   2.262   9.246 -0.4053  0.4482  0.2554
  217MPD1     H 3299   0.730   2.352   9.234 -0.3706  0.4941  0.9280
  217MPD1    H1 3300   0.409   2.063   9.281 -1.6861 -0.0485 -3.3185
  217MPD1    H2 3301   0.329   2.467   9.204 -0.2191 -1.8892  1.0389
  217MPD1    H3 3302   0.258   2.242   9.246 -0.7872  2.5030 -1.8660
  217MPD1     N 3303   0.685   2.079   9.287  0.3008 -0.2672  0.2322
  217MPD1    H5 3304   0.657   1.984   9.309  0.0428  0.4233  2.8596
  217MPD1    N1 3305   0.579   2.554   9.222  0.7981 -0.0870 -0.2350
  217MPD1    H6 3306   0.515   2.605   9.161 -0.9539  1.7907  3.1905
  217MPD1    H7 3307   0.667   2.561   9.172 -0.6897  0.9066 -2.7522
  218MPD1     C 3308   2.521   2.651  12.554  0.0199  0.6225  0.6135
  218MPD1    C1 3309   2.598   2.545  12.514 -0.1274  0.3103  0.5136
  218MPD1    C2 3310   2.725   2.574  12.467 -0.2730  0.2060  0.5216
  218MPD1    C3 3311   2.763   2.709  12.441  0.9963  0.0559  0.6107
  218MPD1    C4 3312   2.685   2.812  12.483  0.0559 -0.2844  0.3690
  218MPD1    C5 3313   2.567   2.775  12.549 -0.7622 -0.1230  0.2961
  218MPD1     H 3314   2.796   2.494  12.457  0.0284  0.2240  2.5530
  218MPD1    H1 3315   2.713   2.917  12.485  0.5090 -0.3950 -0.1430
  218MPD1    H2 3316   2.428   2.633  12.606 -0.3308 -0.5163 -0.3979
  218MPD1    H3 3317   2.498   2.851  12.582 -2.0939 -2.3110  2.4670
  218MPD1     N 3318   2.894   2.732  12.388  0.0490  0.4945 -0.0677
  218MPD1    H5 3319   2.953   2.652  12.367  0.0871  0.5768 -0.2734
  218MPD1    N1 3320   2.563   2.413  12.549 -0.4102  0.4474 -0.3228
  218MPD1    H6 3321   2.618   2.347  12.495  0.6116  0.4246  0.7379
  218MPD1    H7 3322   2.463   2.404  12.533  0.0882 -1.7870 -2.2648
  219MPD1     C 3323   3.178   3.154  11.608  0.7093 -0.0550  0.5127
  219MPD1    C1 3324   3.292   3.170  11.684 -0.1830  0.6595  0.1720
  219MPD1    C2 3325   3.301   3.121  11.815  0.2442  0.1612 -0.4661
  219MPD1    C3 3326   3.204   3.033  11.858 -0.6221 -0.1817  0.5950
  219MPD1    C4 3327   3.087   3.020  11.779 -0.1372  0.2073 -0.2428
  219MPD1    C5 3328   3.082   3.066  11.649  0.0303 -0.3561 -0.5332
  219MPD1     H 3329   3.397   3.133  11.865 -1.1532 -1.1094  2.5129
  219MPD1    H1 3330   2.995   2.972  11.809 -0.6840  1.4336  0.0602
  219MPD1    H2 3331   3.179   3.204  11.511 -0.2163  1.8393  1.4787
  219MPD1    H3 3332   2.987   3.045  11.600 -1.4144  3.3810  0.7196
  219MPD1     N 3333   3.205   2.966  11.979 -0.1657 -0.8318 -0.2835
  219MPD1    H5 3334   3.124   2.907  11.993  0.1875 -0.6444  2.7336
  219MPD1    N1 3335   3.383   3.271  11.647  0.4961  0.6745 -0.3213
  219MPD1    H6 3336   3.476   3.264  11.687  0.5879 -0.2419 -0.6944
  219MPD1    H7 3337   3.394   3.279  11.546 -1.1436  0.2460 -0.5347
  220MPD1     C 3338   3.028   2.097   9.647  0.1008 -0.1325  0.1660
  220MPD1    C1 3339   2.986   2.230   9.658  0.0861  0.2259  0.1131
  220MPD1    C2 3340   2.912   2.262   9.771  0.7653  0.4233  0.1970
  220MPD1    C3 3341   2.898   2.171   9.871  0.4085  1.0301 -0.4906
  220MPD1    C4 3342   2.948   2.046   9.863  0.8710  0.2644  0.6729
  220MPD1    C5 3343   3.009   2.002   9.747  0.1561 -0.2371 -0.1205
  220MPD1     H 3344   2.866   2.360   9.780  1.3279  0.7777 -0.8055
  220MPD1    H1 3345   2.930   1.975   9.943  0.0119 -0.2620  0.0118
  220MPD1    H2 3346   3.078   2.073   9.554 -1.3406  1.4938 -1.0284
  220MPD1    H3 3347   3.040   1.899   9.730 -2.2534 -0.5392 -2.7174
  220MPD1     N 3348   2.833   2.216   9.991 -0.3692 -0.2224 -0.4969
  220MPD1    H5 3349   2.799   2.311   9.995  0.9696  0.2841 -0.9957
  220MPD1    N1 3350   3.004   2.323   9.551  0.0660  0.4451 -0.1357
  220MPD1    H6 3351   3.009   2.419   9.585  1.2388  0.0962  0.6926
  220MPD1    H7 3352   3.063   2.294   9.473 -2.0952 -0.5158 -1.3993
  221MPD1     C 3353   0.763   0.884  16.975  0.0191 -0.7490  0.4513
  221MPD1    C1 3354   0.862   0.944  16.899 -0.7787  0.3511 -0.0051
  221MPD1    C2 3355   0.847   0.970  16.764 -1.0503  0.2326  0.1049
  221MPD1    C3 3356   0.726   0.948  16.701  0.2130 -0.0954  0.3484
  221MPD1    C4 3357   0.623   0.907  16.784 -0.0711  0.0344  0.8657
  221MPD1    C5 3358   0.641   0.876  16.915  0.1469 -0.0264 -0.2235
  221MPD1     H 3359   0.935   1.004  16.710 -0.4558  1.1194  1.5896
  221MPD1    H1 3360   0.527   0.882  16.742  0.2948  0.5244 -0.2638
  221MPD1    H2 3361   0.764   0.859  17.080 -2.8006 -0.3400  0.5784
  221MPD1    H3 3362   0.569   0.824  16.977 -0.4920 -0.6904 -1.5171
  221MPD1     N 3363   0.701   0.974  16.564  0.1755 -0.8757 -0.4242
  221MPD1    H5 3364   0.604   0.958  16.536 -0.0117  0.9385 -0.7935
  221MPD1    N1 3365   0.988   0.946  16.964 -0.2408 -0.5087 -0.1986
  221MPD1    H6 3366   1.047   1.018  16.923  0.7461 -0.7925  0.7156
  221MPD1    H7 3367   0.984   0.964  17.064  0.8548  2.6838 -0.7187
  222MPD1     C 3368   3.919   0.731  16.762 -0.2194  0.6430  0.6888
  222MPD1    C1 3369   3.781   0.736  16.767  0.7840  0.3118 -1.0477
  222MPD1    C2 3370   3.712   0.745  16.886 -0.2909  0.6649 -0.3789
  222MPD1    C3 3371   3.785   0.761  17.002  0.3777  0.0181 -0.6396
  222MPD1    C4 3372   3.925   0.749  16.999 -0.8925 -0.4045  1.0763
  222MPD1    C5 3373   3.988   0.734  16.882  0.0804  0.2532  0.8966
  222MPD1     H 3374   3.604   0.743  16.887 -0.2455 -1.5338  0.4209
  222MPD1    H1 3375   3.984   0.745  17.090  0.6743  0.6003  0.1005
  222MPD1    H2 3376   3.971   0.722  16.667  1.0224 -0.4509  1.4643
  222MPD1    H3 3377   4.096   0.727  16.878 -0.0642 -1.3430 -0.5444
  222MPD1     N 3378   3.736   0.766  17.132 -0.0251 -0.2495  0.0847
  222MPD1    H5 3379   3.804   0.759  17.207 -0.3563 -0.9997  0.3119
  222MPD1    N1 3380   3.706   0.716  16.645  0.3340 -0.4382 -0.4237
  222MPD1    H6 3381   3.762   0.746  16.565 -1.4802 -0.2623 -1.6500
  222MPD1    H7 3382   3.613   0.757  16.646  0.4218 -0.2297 -0.7395
  223MPD1     C 3383   3.036   0.291   0.114 -0.5162 -0.6061 -0.9236
  223MPD1    C1 3384   3.161   0.308   0.172  0.4584 -0.4665  0.2595
  223MPD1    C2 3385   3.265   0.375   0.103 -0.7231 -0.1693 -0.0484
  223MPD1    C3 3386   3.240   0.422  17.670 -0.1793  0.7372  0.4564
  223MPD1    C4 3387   3.115   0.398  17.614 -0.0327 -0.1740  0.7075
  223MPD1    C5 3388   3.016   0.327  17.676 -0.6718  0.5093 -0.1866
  223MPD1     H 3389   3.364   0.395   0.144 -0.7884 -2.1645  1.0920
  223MPD1    H1 3390   3.095   0.435  17.515  1.5753  2.0524  1.2077
  223MPD1    H2 3391   2.951   0.241   0.157  1.8349 -1.2367  2.9805
  223MPD1    H3 3392   2.917   0.312  17.635 -0.7294  1.4815 -0.3874
  223MPD1     N 3393   3.335   0.504  17.602  0.8082 -0.0948  0.1833
  223MPD1    H5 3394   3.422   0.529  17.648  0.9221  0.2517 -0.2284
  223MPD1    N1 3395   3.181   0.258   0.302 -0.4449  0.5531 -0.1342
  223MPD1    H6 3396   3.098   0.203   0.324 -1.5205  1.5881 -1.5877
  223MPD1    H7 3397   3.268   0.207   0.315 -1.4579 -1.2668 -0.5862
  224MPD1     C 3398   2.040   3.059   8.958  0.2295 -0.3299  0.3467
  224MPD1    C1 3399   2.154   2.984   8.967  0.3501 -0.6150 -0.2342
  224MPD1    C2 3400   2.134   2.863   9.036  0.0583 -0.0874 -0.1368
  224MPD1    C3 3401   2.025   2.841   9.121 -0.6475  0.4624  0.4205
  224MPD1    C4 3402   1.921   2.924   9.110  0.1222  0.8025 -0.5024
  224MPD1    C5 3403   1.926   3.030   9.019 -0.6148  0.5874 -0.6131
  224MPD1     H 3404   2.218   2.794   9.031  1.9662  2.2366 -0.1012
  224MPD1    H1 3405   1.831   2.914   9.170 -0.4203 -0.0197 -1.4442
  224MPD1    H2 3406   2.043   3.152   8.903  3.1481 -1.1582 -0.8787
  224MPD1    H3 3407   1.846   3.104   9.016 -0.5265  0.6846 -0.5636
  224MPD1     N 3408   2.006   2.726   9.201 -0.1090  0.2295 -0.3858
  224MPD1    H5 3409   1.913   2.719   9.240 -0.2226 -0.9847 -0.8784
  224MPD1    N1 3410   2.270   3.017   8.886  0.1610  0.0484 -0.2837
  224MPD1    H6 3411   2.277   3.115   8.860  0.7866  0.3478  0.9841
  224MPD1    H7 3412   2.359   2.979   8.919 -1.0927 -1.8993  0.8263
  225MPD1     C 3413   3.118   3.853  12.091  0.3465  0.5971 -0.4984
  225MPD1    C1 3414   3.097   3.731  12.028  0.6382 -0.5824 -0.4432
  225MPD1    C2 3415   2.983   3.720  11.953  0.2527  0.5422 -0.4631
  225MPD1    C3 3416   2.912   3.832  11.922  0.0746  0.2624 -0.4888
  225MPD1    C4 3417   2.946   3.957  11.962  0.3999  0.2678 -0.1223
  225MPD1    C5 3418   3.054   3.965  12.049  0.5939  0.0084  0.9230
  225MPD1     H 3419   2.950   3.621  11.923 -1.9722  0.8792  0.8795
  225MPD1    H1 3420   2.887   4.041  11.929 -0.4619  0.2170  1.2941
  225MPD1    H2 3421   3.194   3.847  12.168  2.7079  0.6905 -2.8187
  225MPD1    H3 3422   3.086   4.059  12.093 -0.0288 -0.2958  2.0303
  225MPD1     N 3423   2.793   3.825  11.832 -0.1890  0.0734 -0.0831
  225MPD1    H5 3424   2.726   3.901  11.835 -0.6216 -0.2195 -2.3164
  225MPD1    N1 3425   3.158   3.618  12.082  0.2833 -0.0320  0.7128
  225MPD1    H6 3426   3.153   3.549  12.007  1.2489  0.9965 -0.2976
  225MPD1    H7 3427   3.255   3.631  12.109  0.2324  3.2067 -0.6844
  226MPD1     C 3428   1.131   4.133   8.486  0.0672 -0.2762 -0.3092
  226MPD1    C1 3429   1.086   4.004   8.493  0.2383 -0.1160 -0.2869
  226MPD1    C2 3430   1.148   3.927   8.589 -0.2125  0.2850  0.3439
  226MPD1    C3 3431   1.255   3.970   8.666  0.6397  0.4452  0.1069
  226MPD1    C4 3432   1.283   4.103   8.663  0.0824  0.4248  0.6529
  226MPD1    C5 3433   1.217   4.190   8.575 -0.0249  0.4882  1.0653
  226MPD1     H 3434   1.113   3.825   8.602 -0.1884  0.1969 -0.2625
  226MPD1    H1 3435   1.361   4.134   8.732 -0.0778 -1.9857  1.8979
  226MPD1    H2 3436   1.073   4.203   8.427 -0.8508 -0.7212  0.0594
  226MPD1    H3 3437   1.246   4.294   8.567  0.0735  0.3279 -0.6596
  226MPD1     N 3438   1.316   3.874   8.753 -0.0428  0.0566  0.5973
  226MPD1    H5 3439   1.286   3.777   8.748 -1.0350  0.5804 -3.3132
  226MPD1    N1 3440   0.964   3.967   8.431 -0.6301  0.0177 -0.0871
  226MPD1    H6 3441   0.943   4.024   8.350 -0.6398 -0.0811 -0.1539
  226MPD1    H7 3442   0.966   3.869   8.404  0.8764 -0.1106  0.5065
  227MPD1     C 3443   0.931   3.158   8.995 -0.5435 -0.2940 -0.1005
  227MPD1    C1 3444   0.891   3.288   9.017  0.5077  0.1648  0.5310
  227MPD1    C2 3445   0.982   3.390   9.021  0.0364  0.2308  0.3440
  227MPD1    C3 3446   1.115   3.358   9.005  0.1899 -0.2769 -0.5193
  227MPD1    C4 3447   1.153   3.226   8.993 -0.2788 -0.4857 -1.6645
  227MPD1    C5 3448   1.063   3.124   8.979  0.6233  0.4729  0.4524
  227MPD1     H 3449   0.943   3.488   9.042  0.9255  0.3418  1.4872
  227MPD1    H1 3450   1.255   3.198   8.969  0.2207 -0.2246  0.1735
  227MPD1    H2 3451   0.858   3.078   8.984 -1.7613  0.9907 -1.4314
  227MPD1    H3 3452   1.088   3.024   8.946 -2.6797 -0.2840  0.2280
  227MPD1     N 3453   1.204   3.467   9.024  0.1869  0.0610 -0.4342
  227MPD1    H5 3454   1.165   3.560   9.035  1.5553  0.4556  1.0613
  227MPD1    N1 3455   0.750   3.310   9.022  0.1628 -0.2624  0.5902
  227MPD1    H6 3456   0.703   3.228   9.060  3.1718 -1.3753  1.9884
  227MPD1    H7 3457   0.716   3.393   9.070 -1.7249 -1.4526  1.2971
  228MPD1     C 3458   4.287   1.235  12.890 -0.2252  0.3837 -0.3458
  228MPD1    C1 3459   4.222   1.119  12.927  0.4861 -0.2777 -0.5507
  228MPD1    C2 3460   4.084   1.116  12.909  0.1420 -0.0658 -0.1563
  228MPD1    C3 3461   4.017   1.223  12.858 -0.6208 -0.1914  0.1583
  228MPD1    C4 3462   4.085   1.342  12.822  0.3861  0.6961 -0.7521
  228MPD1    C5 3463   4.222   1.338  12.832 -1.2658 -0.9983 -0.1730
  228MPD1     H 3464   4.025   1.028  12.933 -0.0564  0.0732 -0.1321
  228MPD1    H1 3465   4.032   1.426  12.779 -2.2720  1.8348  4.7399
  228MPD1    H2 3466   4.393   1.254  12.907 -0.4692  2.4337 -1.1559
  228MPD1    H3 3467   4.281   1.426  12.811  3.3574 -4.5683 -2.3025
  228MPD1     N 3468   3.877   1.222  12.846 -0.2223 -0.2870  0.1503
  228MPD1    H5 3469   3.839   1.131  12.868  1.9973 -0.9691  1.1550
  228MPD1    N1 3470   4.290   1.016  12.996 -0.0971 -0.4005 -0.3282
  228MPD1    H6 3471   4.389   1.019  12.969  0.2130  1.8311  1.0458
  228MPD1    H7 3472   4.245   0.927  12.978  0.4757 -0.9202  0.8074
  229MPD1     C 3473   4.281   4.106  13.789 -0.4635 -0.7830 -0.0760
  229MPD1    C1 3474   4.240   4.189  13.890  0.2842 -0.4795 -0.1686
  229MPD1    C2 3475   4.150   4.152  13.989  0.3378 -0.5832 -0.4617
  229MPD1    C3 3476   4.090   4.028  13.973  0.3166 -0.1145  0.0089
  229MPD1    C4 3477   4.139   3.941  13.875 -0.3814  0.2788  0.5681
  229MPD1    C5 3478   4.236   3.977  13.789  0.0454 -0.2410 -0.8544
  229MPD1     H 3479   4.141   4.215  14.077  0.8214  0.8542 -1.4416
  229MPD1    H1 3480   4.097   3.842  13.863  1.8061 -0.8851  2.6672
  229MPD1    H2 3481   4.355   4.135  13.716  0.2501  0.4263  1.1173
  229MPD1    H3 3482   4.271   3.917  13.706  0.2034 -0.8027 -0.3874
  229MPD1     N 3483   3.996   3.976  14.064  0.3387  0.7429  0.0821
  229MPD1    H5 3484   3.971   3.880  14.044 -0.3838  0.8952  0.2645
  229MPD1    N1 3485   4.306   4.312  13.901  0.3612 -0.4734 -0.2846
  229MPD1    H6 3486   4.236   4.384  13.917 -0.4560 -1.3887  0.2321
  229MPD1    H7 3487   4.354   4.345  13.817  0.7557  0.8708  0.4797
  230MPD1     C 3488   3.385   3.965  14.977 -0.1804 -0.2561 -0.4260
  230MPD1    C1 3489   3.441   3.838  14.962  0.5548 -1.0974  0.0344
  230MPD1    C2 3490   3.524   3.820  14.855  0.5525  0.0450  0.0103
  230MPD1    C3 3491   3.544   3.919  14.761  0.7935 -0.0808 -0.2923
  230MPD1    C4 3492   3.478   4.040  14.767  0.9617  0.0129  0.0736
  230MPD1    C5 3493   3.399   4.062  14.881 -0.6092  0.0815 -0.6333
  230MPD1     H 3494   3.581   3.727  14.852  0.7777  0.0855  3.5434
  230MPD1    H1 3495   3.479   4.110  14.684  0.8625 -1.4569 -1.1690
  230MPD1    H2 3496   3.321   3.981  15.063 -0.2975  3.2126 -1.1625
  230MPD1    H3 3497   3.361   4.161  14.904 -1.3071 -0.3225 -0.0384
  230MPD1     N 3498   3.639   3.891  14.659 -0.4667 -0.0827 -0.4176
  230MPD1    H5 3499   3.655   3.791  14.656 -2.6716 -0.4601  0.3878
  230MPD1    N1 3500   3.427   3.742  15.068 -0.2772 -0.4011  0.3347
  230MPD1    H6 3501   3.411   3.645  15.042  0.9128 -0.1842 -1.1902
  230MPD1    H7 3502   3.366   3.772  15.144  2.1859  2.9824  0.9832
  231MPD1     C 3503   2.194   1.452  15.288 -0.9178  0.1237 -0.4715
  231MPD1    C1 3504   2.203   1.366  15.179  0.2067  0.6511 -0.1598
  231MPD1    C2 3505   2.271   1.424  15.068  0.4130  0.3089 -0.2949
  231MPD1    C3 3506   2.329   1.547  15.074  0.3168 -0.6813  0.1902
  231MPD1    C4 3507   2.327   1.625  15.187  0.8523  0.2292  0.2664
  231MPD1    C5 3508   2.261   1.572  15.292  0.3543  0.4602 -0.2412
  231MPD1     H 3509   2.281   1.362  14.980  0.3541 -0.0247 -0.0652
  231MPD1    H1 3510   2.367   1.725  15.198 -3.0712  1.9293 -1.0776
  231MPD1    H2 3511   2.131   1.435  15.374 -0.8905  1.8763 -0.0980
  231MPD1    H3 3512   2.242   1.628  15.383 -0.6870 -1.5154  0.7677
  231MPD1     N 3513   2.401   1.581  14.958  0.8928 -0.1139 -0.4802
  231MPD1    H5 3514   2.381   1.528  14.874 -0.6421 -0.5668  0.1755
  231MPD1    N1 3515   2.139   1.244  15.167  0.2759  0.5512  0.2753
  231MPD1    H6 3516   2.192   1.177  15.113 -2.7789 -1.9008  0.3283
  231MPD1    H7 3517   2.109   1.212  15.259 -0.3620  1.0734  0.2503
  232MPD1     C 3518   3.716   4.674   0.454  0.2602  0.8876 -0.0132
  232MPD1    C1 3519   3.637   4.592   0.531 -0.9229  0.3531  0.3736
  232MPD1    C2 3520   3.579   4.484   0.460  0.2071  0.0222 -0.2708
  232MPD1    C3 3521   3.603   4.463   0.324 -0.7887 -1.0053 -0.0712
  232MPD1    C4 3522   3.680   4.549   0.257  0.0870  0.3670 -0.4550
  232MPD1    C5 3523   3.732   4.657   0.320  0.2770 -0.4499 -0.0776
  232MPD1     H 3524   3.533   4.404   0.518 -2.5149  2.4246  0.8654
  232MPD1    H1 3525   3.713   4.533   0.155  3.4370 -1.0716  0.8645
  232MPD1    H2 3526   3.755   0.043   0.496 -1.9939  2.3455 -1.1225
  232MPD1    H3 3527   3.790   0.004   0.262  1.4993 -0.8848  0.6237
  232MPD1     N 3528   3.549   4.351   0.266 -0.4407  0.5967 -0.1009
  232MPD1    H5 3529   3.503   4.285   0.328  0.0875  0.6338  0.3361
  232MPD1    N1 3530   3.640   4.608   0.671  0.2836  0.3270  0.2977
  232MPD1    H6 3531   3.560   4.558   0.711  1.9606 -0.6287  2.4520
  232MPD1    H7 3532   3.644   4.707   0.695 -0.9766 -0.0675  2.1861
  233MPD1     C 3533   4.276   1.810   1.379 -0.2907  0.4736  0.8858
  233MPD1    C1 3534   4.347   1.879   1.287 -0.8234 -0.0704 -0.8251
  233MPD1    C2 3535   4.480   1.856   1.268  0.1576  0.0522  0.1158
  233MPD1    C3 3536   4.544   1.766   1.353 -0.3156 -0.1416  0.0447
  233MPD1    C4 3537   4.477   1.707   1.452 -0.5601 -0.2031 -0.3080
  233MPD1    C5 3538   4.342   1.723   1.467  0.1677 -0.0122 -0.1980
  233MPD1     H 3539   4.538   1.911   1.196 -1.4258  0.1046 -1.1184
  233MPD1    H1 3540   4.533   1.641   1.517 -1.7898 -1.5845 -0.6380
  233MPD1    H2 3541   4.170   1.830   1.388 -0.9323 -1.6431 -2.1552
  233MPD1    H3 3542   4.277   1.669   1.535 -1.4431 -0.4662 -2.0908
  233MPD1     N 3543   4.684   1.741   1.345 -0.2495 -0.3670  0.2603
  233MPD1    H5 3544   4.722   1.664   1.400  2.9849  0.3635 -0.9472
  233MPD1    N1 3545   4.280   1.963   1.197 -0.1320 -0.1239 -0.5225
  233MPD1    H6 3546   4.201   2.005   1.245  0.6081 -0.4391  0.9768
  233MPD1    H7 3547   4.338   2.043   1.172 -1.2088  1.4581  2.0407
  234MPD1     C 3548   1.975   0.696   9.381 -0.5468 -0.0030  0.2921
  234MPD1    C1 3549   2.092   0.755   9.351  0.2593  0.2892 -0.8426
  234MPD1    C2 3550   2.094   0.888   9.314  0.6771  0.0963  0.4902
  234MPD1    C3 3551   1.978   0.965   9.300  0.0663  0.0108  0.3091
  234MPD1    C4 3552   1.860   0.903   9.337 -0.3560 -0.2087 -0.3803
  234MPD1    C5 3553   1.859   0.775   9.380 -0.6144  0.1672  0.0895
  234MPD1     H 3554   2.179   0.938   9.267 -0.4583  1.0295 -0.5643
  234MPD1    H1 3555   1.767   0.958   9.330  0.8709  1.8690 -0.3448
  234MPD1    H2 3556   1.964   0.590   9.402  1.5279  0.0881  1.8354
  234MPD1    H3 3557   1.758   0.739   9.395  0.1612 -2.2016 -0.4895
  234MPD1     N 3558   1.984   1.097   9.255  0.3456  0.0950  0.7839
  234MPD1    H5 3559   2.076   1.140   9.244  1.2407 -2.4346 -1.5792
  234MPD1    N1 3560   2.204   0.678   9.327 -0.3743  0.0369 -0.1362
  234MPD1    H6 3561   2.212   0.597   9.389  2.7111  0.1054 -0.4726
  234MPD1    H7 3562   2.285   0.737   9.347 -0.3672 -0.1336  0.3500
  235MPD1     C 3563   2.860   3.049   9.944  0.3646 -0.2448 -0.7085
  235MPD1    C1 3564   2.792   3.144   9.867 -0.2529  0.1488  0.5538
  235MPD1    C2 3565   2.857   3.257   9.835 -0.3626 -0.0330 -0.3561
  235MPD1    C3 3566   2.984   3.281   9.860  0.4148  0.2664  0.3979
  235MPD1    C4 3567   3.053   3.189   9.939 -0.1909 -0.8709  0.3099
  235MPD1    C5 3568   2.988   3.078   9.979  0.0009  0.7326  0.3371
  235MPD1     H 3569   2.803   3.327   9.772  0.0704 -0.4054 -1.1516
  235MPD1    H1 3570   3.157   3.183   9.968  0.2565  2.3327 -0.6966
  235MPD1    H2 3571   2.819   2.956   9.981  1.3531  0.0831  1.2349
  235MPD1    H3 3572   3.044   2.997  10.026 -2.1167  0.5425  2.5045
  235MPD1     N 3573   3.047   3.400   9.812  0.0028 -0.1405 -0.2290
  235MPD1    H5 3574   2.995   3.466   9.755 -0.6334  0.5089  1.0900
  235MPD1    N1 3575   2.656   3.132   9.842  1.0084 -0.4051 -0.1981
  235MPD1    H6 3576   2.623   3.167   9.753 -2.1731  1.0071  1.5335
  235MPD1    H7 3577   2.634   3.035   9.865  2.1646 -0.7936 -0.7139
  236MPD1     C 3578   3.033   0.537  10.040  0.3210  0.3056 -0.0077
  236MPD1    C1 3579   2.932   0.486   9.963  0.4802 -0.7540  0.9974
  236MPD1    C2 3580   2.940   0.349   9.943  0.0940  0.0147  0.2882
  236MPD1    C3 3581   3.017   0.267  10.030 -0.2714 -0.2046 -0.3899
  236MPD1    C4 3582   3.107   0.329  10.126  0.1162  0.3125  0.7797
  236MPD1    C5 3583   3.121   0.468  10.118  1.0307 -0.4537  0.4389
  236MPD1     H 3584   2.862   0.307   9.880  0.8333 -0.3317 -0.3862
  236MPD1    H1 3585   3.166   0.266  10.191  2.4868  2.2553  0.5234
  236MPD1    H2 3586   3.040   0.645  10.049 -0.3467  0.5501 -2.3882
  236MPD1    H3 3587   3.198   0.522  10.170  0.0679 -0.0780  1.4798
  236MPD1     N 3588   2.999   0.129  10.039  0.2485 -0.5724  0.3968
  236MPD1    H5 3589   3.062   0.086  10.106  0.5985  1.6391  1.4730
  236MPD1    N1 3590   2.854   0.568   9.882 -0.0603 -0.7315  0.4160
  236MPD1    H6 3591   2.844   0.657   9.930  0.6947 -0.0733 -0.6390
  236MPD1    H7 3592   2.770   0.523   9.846  0.7090 -0.9144 -1.1636
  237MPD1     C 3593   2.361   2.839  14.873 -0.0604  0.5122  0.4216
  237MPD1    C1 3594   2.381   2.772  14.992  0.0115  0.1047  0.0798
  237MPD1    C2 3595   2.264   2.724  15.054 -0.7924 -0.8437 -0.5144
  237MPD1    C3 3596   2.138   2.743  15.006 -0.6711 -0.0053 -0.5094
  237MPD1    C4 3597   2.135   2.792  14.877 -0.0297  0.0559  0.4682
  237MPD1    C5 3598   2.244   2.834  14.806 -1.1692 -0.1486 -0.0979
  237MPD1     H 3599   2.284   2.673  15.148 -0.3963 -1.4793 -0.9372
  237MPD1    H1 3600   2.043   2.800  14.820  0.6513 -0.4733 -0.7110
  237MPD1    H2 3601   2.445   2.883  14.819  1.4823 -1.0814  1.5172
  237MPD1    H3 3602   2.229   2.870  14.705 -0.8226  1.2873  0.3622
  237MPD1     N 3603   2.018   2.705  15.074  0.4517  0.7095  0.2362
  237MPD1    H5 3604   1.933   2.735  15.028 -1.2611  0.2166  3.1164
  237MPD1    N1 3605   2.501   2.771  15.066  0.1509 -0.5234 -0.2428
  237MPD1    H6 3606   2.496   2.683  15.117  3.5321 -1.2380 -1.1213
  237MPD1    H7 3607   2.576   2.776  14.998 -1.4506  1.0061 -1.9020
  238MPD1     C 3608   4.079   0.758  14.981  0.7460  0.5221  0.0256
  238MPD1    C1 3609   4.086   0.789  14.848 -0.5845 -0.9618  0.5492
  238MPD1    C2 3610   3.998   0.880  14.799 -0.5405 -0.3422  0.1175
  238MPD1    C3 3611   3.900   0.946  14.875 -0.7106 -0.4580 -0.3433
  238MPD1    C4 3612   3.892   0.905  15.003  0.1656  1.5655 -1.0824
  238MPD1    C5 3613   3.980   0.818  15.054  0.1566 -0.5296 -0.2143
  238MPD1     H 3614   3.986   0.888  14.692  1.2966  0.8271  0.0116
  238MPD1    H1 3615   3.815   0.940  15.071 -1.1347  0.5297 -2.0385
  238MPD1    H2 3616   4.132   0.674  15.025  1.4808  0.8832 -0.1701
  238MPD1    H3 3617   3.969   0.793  15.159 -0.1798 -4.9517 -1.3117
  238MPD1     N 3618   3.807   1.041  14.827 -0.9725 -0.0777  0.8355
  238MPD1    H5 3619   3.737   1.064  14.897 -0.4327  1.1626  0.9712
  238MPD1    N1 3620   4.141   0.689  14.763  0.2906 -0.3922 -0.5626
  238MPD1    H6 3621   4.155   0.719  14.666 -0.5695  0.6469 -0.3675
  238MPD1    H7 3622   4.219   0.631  14.793 -0.5141 -0.6625  0.9974
  239MPD1     C 3623   4.265   2.191  14.627  0.0300 -0.2110 -0.1272
  239MPD1    C1 3624   4.197   2.296  14.668 -0.2586 -0.3360 -0.0258
  239MPD1    C2 3625   4.125   2.367  14.567 -0.0039  0.6157 -0.4883
  239MPD1    C3 3626   4.141   2.333  14.435 -0.5233 -0.2347  1.2069
  239MPD1    C4 3627   4.229   2.235  14.392  0.3034  0.2903 -0.1449
  239MPD1    C5 3628   4.285   2.166  14.495 -0.0644  0.2355  0.4306
  239MPD1     H 3629   4.059   2.448  14.596 -1.7963 -0.9152 -0.3104
  239MPD1    H1 3630   4.246   2.202  14.291  1.3206  1.9831 -0.5210
  239MPD1    H2 3631   4.315   2.127  14.698 -1.0760  2.3869  2.9771
  239MPD1    H3 3632   4.355   2.089  14.467 -1.8615 -1.6419  1.0531
  239MPD1     N 3633   4.081   2.409  14.334 -0.2037  0.0610  0.2762
  239MPD1    H5 3634   4.096   2.380  14.238  1.2158  0.5701  0.3427
  239MPD1    N1 3635   4.178   2.312  14.803 -0.6496 -0.2667 -0.0891
  239MPD1    H6 3636   4.252   2.280  14.865 -0.0481  0.1607 -0.5884
  239MPD1    H7 3637   4.160   2.409  14.825 -0.9822 -0.5287  0.7690
  240MPD1     C 3638   3.365   2.344  13.493 -0.3805  0.2262 -0.2712
  240MPD1    C1 3639   3.233   2.338  13.521  0.0833  0.2217  0.1625
  240MPD1    C2 3640   3.187   2.261  13.626 -0.0287 -0.4387  0.1107
  240MPD1    C3 3641   3.290   2.197  13.700 -0.5783 -0.0917  0.9778
  240MPD1    C4 3642   3.419   2.194  13.660  0.0644 -0.6777  0.0022
  240MPD1    C5 3643   3.458   2.266  13.552  0.2499  0.3393 -0.3400
  240MPD1     H 3644   3.084   2.266  13.660 -0.7563 -2.2146 -1.8060
  240MPD1    H1 3645   3.495   2.132  13.707  0.7361  0.6225  0.6264
  240MPD1    H2 3646   3.411   2.414  13.424  2.6423 -0.0129  1.4997
  240MPD1    H3 3647   3.562   2.290  13.535  0.7272  0.4211  2.6249
  240MPD1     N 3648   3.260   2.132  13.823  0.1461  0.1626 -0.0795
  240MPD1    H5 3649   3.160   2.126  13.837 -0.0763  0.7914 -1.4228
  240MPD1    N1 3650   3.138   2.419  13.447  0.6269  0.0013  0.0492
  240MPD1    H6 3651   3.053   2.380  13.407 -0.2045  0.7782  1.0815
  240MPD1    H7 3652   3.189   2.475  13.378  0.5582  0.9133  0.7347
  241MPD1     C 3653   3.537   1.922  14.768 -0.0238 -0.0286 -0.1783
  241MPD1    C1 3654   3.491   1.805  14.719 -0.5879 -0.2553 -0.7152
  241MPD1    C2 3655   3.460   1.791  14.581  0.9448 -0.0329 -0.9652
  241MPD1    C3 3656   3.471   1.904  14.495  0.8769 -0.1419 -0.6451
  241MPD1    C4 3657   3.527   2.017  14.550 -0.5910  0.2021 -0.1490
  241MPD1    C5 3658   3.556   2.030  14.681 -0.0898  0.4502  0.8234
  241MPD1     H 3659   3.417   1.697  14.547 -0.6927 -0.7412  3.0516
  241MPD1    H1 3660   3.552   2.110  14.501  0.0299 -0.0140 -0.2514
  241MPD1    H2 3661   3.559   1.940  14.872  2.4957 -0.1735 -0.6679
  241MPD1    H3 3662   3.608   2.114  14.726  0.9454 -0.5001  1.3895
  241MPD1     N 3663   3.426   1.905  14.362  0.8577  0.3828  0.1230
  241MPD1    H5 3664   3.453   1.979  14.299  1.3300 -0.0430 -0.1774
  241MPD1    N1 3665   3.469   1.700  14.807  0.0742 -0.0932  0.4306
  241MPD1    H6 3666   3.382   1.650  14.792  2.1666 -3.0540 -1.7064
  241MPD1    H7 3667   3.484   1.718  14.906 -2.3894  0.5560  0.6606
  242MPD1     C 3668   2.456   0.262  15.503  0.2790  0.1146  0.4435
  242MPD1    C1 3669   2.449   0.350  15.399  0.2932  0.1551 -0.1742
  242MPD1    C2 3670   2.558   0.361  15.310  0.2383 -0.8044  0.6512
  242MPD1    C3 3671   2.660   0.272  15.315  0.1754  0.4108 -0.7194
  242MPD1    C4 3672   2.662   0.175  15.415 -0.2473 -0.0033 -0.3900
  242MPD1    C5 3673   2.554   0.163  15.498  0.7077 -0.0993 -0.0973
  242MPD1     H 3674   2.556   0.431  15.227 -0.2118 -1.0898  0.4226
  242MPD1    H1 3675   2.739   0.100  15.422 -0.5571 -0.3194 -0.3451
  242MPD1    H2 3676   2.387   0.245  15.585  0.4028 -0.6070  0.4038
  242MPD1    H3 3677   2.553   0.083  15.570 -1.4152  0.3618  0.3682
  242MPD1     N 3678   2.769   0.274  15.222 -0.0321 -0.4779 -0.0487
  242MPD1    H5 3679   2.822   0.188  15.222  0.6062 -0.0714  2.1858
  242MPD1    N1 3680   2.348   0.448  15.409  0.1183  0.1387  0.1169
  242MPD1    H6 3681   2.260   0.418  15.450 -0.3552  1.5056  0.0980
  242MPD1    H7 3682   2.321   0.481  15.316 -0.6995 -1.5081 -0.2442
  243MPD1     C 3683   3.870   3.199  17.106  0.2404  0.4483  0.1550
  243MPD1    C1 3684   3.964   3.162  17.204  0.2747  0.0402 -1.2030
  243MPD1    C2 3685   4.098   3.161  17.182  0.1321 -0.1935  0.8605
  243MPD1    C3 3686   4.148   3.212  17.063  0.0570 -0.0681 -0.1319
  243MPD1    C4 3687   4.059   3.263  16.969  0.7993 -0.5016 -0.5576
  243MPD1    C5 3688   3.926   3.242  16.988 -0.1103 -0.0875  0.0228
  243MPD1     H 3689   4.170   3.125  17.254  1.9791 -1.1065 -1.4312
  243MPD1    H1 3690   4.087   3.293  16.869 -0.6314 -0.1813 -0.8583
  243MPD1    H2 3691   3.764   3.191  17.123  0.2003 -1.7022 -1.1234
  243MPD1    H3 3692   3.857   3.275  16.912  0.9281  1.5984 -0.1762
  243MPD1     N 3693   4.293   3.217  17.050  0.4845 -0.5360 -0.3179
  243MPD1    H5 3694   4.352   3.181  17.124 -1.1071 -0.4567  0.9931
  243MPD1    N1 3695   3.916   3.120  17.331  0.1783  0.1204 -0.5195
  243MPD1    H6 3696   3.984   3.111  17.406 -0.5034 -1.1707 -0.0499
  243MPD1    H7 3697   3.849   3.184  17.373  1.1163 -0.0941  1.3071
  244MPD1     C 3698   0.206   3.206  17.606  0.5021  0.4804  0.2461
  244MPD1    C1 3699   0.124   3.104  17.555 -0.9918  0.6207 -0.1054
  244MPD1    C2 3700   0.060   3.116  17.436  0.0300 -0.0183  0.2050
  244MPD1    C3 3701   0.094   3.212  17.345  0.1929  0.2332 -0.7163
  244MPD1    C4 3702   0.177   3.321  17.380  0.3595  0.1331 -0.0667
  244MPD1    C5 3703   0.227   3.307  17.513 -1.0318 -0.1158 -0.0132
  244MPD1     H 3704   4.721   3.032  17.407  1.2505 -1.2983  1.2706
  244MPD1    H1 3705   0.217   3.399  17.316  1.1097  0.5811  0.9409
  244MPD1    H2 3706   0.244   3.212   0.013 -1.3779  0.0773  0.9729
  244MPD1    H3 3707   0.289   3.390  17.546  0.4151 -0.2981 -2.2951
  244MPD1     N 3708   0.040   3.185  17.221  0.3204  0.2368 -0.6259
  244MPD1    H5 3709   4.713   3.097  17.212  0.8455 -0.2166  1.0376
  244MPD1    N1 3710   0.082   2.998  17.637 -0.2462  0.2313 -0.8887
  244MPD1    H6 3711   0.065   2.920  17.573 -3.5337 -0.6206  1.0353
  244MPD1    H7 3712   0.147   2.976   0.019 -0.9139 -1.5467 -0.8157
  245MPD1     C 3713   1.797   3.962  12.613 -0.2895 -0.0613 -0.6729
  245MPD1    C1 3714   1.733   3.960  12.734  0.4617  0.2204 -0.0993
  245MPD1    C2 3715   1.742   4.068  12.815  0.0098  0.5091  0.1011
  245MPD1    C3 3716   1.795   4.187  12.772 -0.2661  0.4891 -0.3358
  245MPD1    C4 3717   1.858   4.190  12.645  1.0004 -0.1830  0.3524
  245MPD1    C5 3718   1.866   4.072  12.579 -0.2873 -0.3631 -0.2464
  245MPD1     H 3719   1.697   4.067  12.914  1.2050  1.0227  0.6483
  245MPD1    H1 3720   1.903   4.279  12.603  0.3385  0.0652  0.1720
  245MPD1    H2 3721   1.812   3.881  12.543 -0.4056 -1.2239  0.6308
  245MPD1    H3 3722   1.908   4.057  12.480  0.8019  0.6990  0.0575
  245MPD1     N 3723   1.782   4.297  12.855 -0.1750  0.7902  0.7277
  245MPD1    H5 3724   1.754   4.282  12.951 -1.1738  0.3846  0.3799
  245MPD1    N1 3725   1.680   3.841  12.784 -0.0848 -0.2381  0.3612
  245MPD1    H6 3726   1.640   3.774  12.718  0.8249  0.3552 -0.7843
  245MPD1    H7 3727   1.616   3.850  12.864 -1.6671  1.5168 -1.0910
  246MPD1     C 3728   3.482   1.877   9.759 -0.0617  0.1072 -0.1747
  246MPD1    C1 3729   3.575   1.782   9.724 -0.2469  0.1040 -0.4448
  246MPD1    C2 3730   3.541   1.685   9.632  0.0447  0.2105 -0.3497
  246MPD1    C3 3731   3.419   1.683   9.571  0.3351 -0.2914  0.1123
  246MPD1    C4 3732   3.333   1.784   9.599 -0.0271 -0.5019  0.3859
  246MPD1    C5 3733   3.364   1.874   9.693  0.6187  0.3936  0.2860
  246MPD1     H 3734   3.617   1.613   9.604  1.2051  1.5046 -0.5473
  246MPD1    H1 3735   3.235   1.788   9.551  0.9426 -0.8248 -1.6194
  246MPD1    H2 3736   3.503   1.946   9.840 -0.5477 -1.3949  1.2196
  246MPD1    H3 3737   3.295   1.955   9.713 -0.1240 -0.0123 -0.6587
  246MPD1     N 3738   3.402   1.573   9.479 -0.0194 -0.6576  0.3916
  246MPD1    H5 3739   3.479   1.514   9.450  1.2419  0.7451  0.8716
  246MPD1    N1 3740   3.687   1.776   9.802 -0.3944  0.3223 -0.3349
  246MPD1    H6 3741   3.769   1.734   9.758 -0.1147  0.1014  0.3889
  246MPD1    H7 3742   3.707   1.871   9.831 -3.0008  0.3576  1.3077
  247MPD1     C 3743   1.022   4.008  16.675 -0.3129 -0.5702  0.3854
  247MPD1    C1 3744   1.043   3.868  16.643  1.0723 -0.0862 -0.0730
  247MPD1    C2 3745   1.123   3.843  16.529 -1.0718 -0.1290 -0.2087
  247MPD1    C3 3746   1.206   3.940  16.479  0.2356 -0.5417 -0.3010
  247MPD1    C4 3747   1.191   4.075  16.524  0.4091  0.3262 -0.2673
  247MPD1    C5 3748   1.093   4.103  16.616  0.0099 -0.3671 -0.6110
  247MPD1     H 3749   1.130   3.739  16.498  2.1819 -0.5821  1.9309
  247MPD1    H1 3750   1.249   4.155  16.479  1.6317 -0.2008  0.3772
  247MPD1    H2 3751   0.953   4.042  16.750 -0.4579 -0.5693  0.2513
  247MPD1    H3 3752   1.067   4.202  16.651  0.4488 -0.3785 -0.2540
  247MPD1     N 3753   1.302   3.918  16.378  0.5121 -0.0440  0.0658
  247MPD1    H5 3754   1.338   3.996  16.323  2.2967 -1.3336 -0.6125
  247MPD1    N1 3755   0.967   3.770  16.704  0.4829 -0.1709  0.6351
  247MPD1    H6 3756   1.009   3.678  16.704 -0.4928 -0.6162  1.9056
  247MPD1    H7 3757   0.949   3.798  16.801 -3.8413  0.2857 -0.2697
  248MPD1     C 3758   1.948   2.946  17.654 -0.3239  0.8418 -0.2817
  248MPD1    C1 3759   1.867   3.055  17.611 -0.1335 -0.1833  0.4094
  248MPD1    C2 3760   1.826   3.142   0.017  0.3781 -0.1978 -0.6587
  248MPD1    C3 3761   1.848   3.123   0.152  0.6651  0.7915  0.4295
  248MPD1    C4 3762   1.908   3.002   0.186 -0.4397  1.0793  0.0121
  248MPD1    C5 3763   1.957   2.913   0.095 -0.0670 -0.1667 -0.5175
  248MPD1     H 3764   1.770   3.231  17.684  0.5486 -0.3825 -1.6040
  248MPD1    H1 3765   1.923   2.963   0.286 -1.3989 -2.4434 -1.2102
  248MPD1    H2 3766   1.989   2.874  17.584  1.0665  2.1389 -0.8027
  248MPD1    H3 3767   2.004   2.819   0.122 -0.8678 -1.3977 -3.3807
  248MPD1     N 3768   1.782   3.206   0.243 -0.6554  0.7690 -0.2389
  248MPD1    H5 3769   1.711   3.269   0.206  0.4572  1.4240 -1.2720
  248MPD1    N1 3770   1.866   3.082  17.472  0.7522  0.5708  0.2957
  248MPD1    H6 3771   1.859   2.994  17.421 -1.5153 -0.3180  2.1339
  248MPD1    H7 3772   1.786   3.142  17.453  0.0340 -0.2254  0.7827
  249MPD1     C 3773   3.339   3.043   9.002  0.0242 -0.2538 -0.6340
  249MPD1    C1 3774   3.353   3.122   8.892  0.1345  0.7810  0.1449
  249MPD1    C2 3775   3.409   3.253   8.908 -0.6437  0.2684  0.3746
  249MPD1    C3 3776   3.460   3.299   9.031 -0.1748 -0.4551 -0.6477
  249MPD1    C4 3777   3.439   3.220   9.145 -0.7165  0.3655 -0.3717
  249MPD1    C5 3778   3.385   3.093   9.125  0.3546  0.2840 -0.4942
  249MPD1     H 3779   3.425   3.312   8.819  0.8210 -1.0599 -0.2457
  249MPD1    H1 3780   3.469   3.247   9.246 -0.2146  2.2813 -1.0260
  249MPD1    H2 3781   3.295   2.944   8.993 -0.3040 -0.3284  1.9192
  249MPD1    H3 3782   3.368   3.041   9.218  0.4580  0.9553 -0.1062
  249MPD1     N 3783   3.519   3.424   9.041  0.4297  1.0535 -0.3080
  249MPD1    H5 3784   3.536   3.459   8.947 -2.2659 -0.8633 -1.5081
  249MPD1    N1 3785   3.324   3.067   8.767  0.4080 -0.3330  0.5745
  249MPD1    H6 3786   3.281   2.975   8.777 -0.1262 -0.0119  1.2751
  249MPD1    H7 3787   3.265   3.132   8.716  3.6463  1.2061 -1.1996
  250MPD2     C 3788   4.611   3.054  13.100  0.1742  0.0453 -0.4165
  250MPD2    C1 3789   4.684   3.035  12.985  0.1328 -0.2394  0.2483
  250MPD2    C2 3790   4.650   2.947  12.887 -0.2056 -0.2194 -0.6118
  250MPD2    C3 3791   4.542   2.863  12.909  0.2008 -0.1378 -0.0286
  250MPD2    C4 3792   4.463   2.882  13.019 -0.1597  0.0709  0.1706
  250MPD2    C5 3793   4.500   2.975  13.115 -0.0771  0.4962  0.0920
  250MPD2     H 3794   4.709   2.943  12.796  1.1052  0.8888  0.1916
  250MPD2    H1 3795   4.378   2.816  13.033  1.0785 -1.3763  0.8787
  250MPD2    H2 3796   4.650   3.118  13.178 -0.8287 -0.9571  0.9150
  250MPD2    H3 3797   4.438   2.982  13.204 -0.9827  1.9564 -0.6430
  250MPD2     N 3798   4.522   2.765  12.814 -0.5084 -0.2238 -0.8920
  250MPD2    H5 3799   4.584   2.768  12.734 -0.0235  0.5623 -0.4905
  250MPD2    N1 3800   0.074   3.116  12.986  0.1819 -0.5598 -0.6693
  250MPD2    H7 3801   0.075   3.198  13.047  0.4442 -0.3743 -0.9250
  251TMC3    C1 3802   0.269   3.203  12.894  0.0184  0.1880  0.5992
  251TMC3    C2 3803   0.227   3.333  12.877  0.2763 -0.2760  0.8528
  251TMC3    C3 3804   0.298   3.424  12.804  0.1040  0.0500  0.2958
  251TMC3    C4 3805   0.397   3.182  12.841  0.9939 -0.6920 -0.5463
  251TMC3    C5 3806   0.469   3.270  12.773  0.2408  0.0662  1.0527
  251TMC3    C6 3807   0.425   3.393  12.750 -0.1258 -0.1362  0.0233
  251TMC3     C 3808   0.180   3.087  12.901  0.6630  0.0228  0.2061
  251TMC3     O 3809   0.204   2.995  12.826 -0.1159 -0.2462  0.0497
  251TMC3     H 3810   0.129   3.370  12.905 -0.2697 -1.1679  0.1030
  251TMC3    H1 3811   0.433   3.080  12.847 -0.5256 -1.1263  1.1499
  251TMC3    H2 3812   0.473   3.468  12.688  1.7025 -2.0081 -0.8462
  251TMC3    C7 3813   0.606   3.235  12.743  0.2611  0.2626  0.3070
  251TMC3    C8 3814   0.267   3.562  12.839  0.5309 -0.2954 -1.1719
  251TMC3    O1 3815   0.640   3.118  12.764 -0.1419 -0.7001 -0.2778
  251TMC3    O2 3816   0.206   3.583  12.940  0.3665 -0.2122 -0.1554
  252TMC3    C1 3817   0.253   4.172   9.505  0.8457  0.5755  0.3385
  252TMC3    C2 3818   0.373   4.225   9.470  0.5873  0.7189 -1.0320
  252TMC3    C3 3819   0.468   4.154   9.408  1.2269 -0.2630 -0.3054
  252TMC3    C4 3820   0.210   4.049   9.471  0.3957  0.0519  0.0834
  252TMC3    C5 3821   0.308   3.976   9.414 -0.4294 -0.1754  0.3698
  252TMC3    C6 3822   0.438   4.027   9.382 -0.1909 -0.2990 -0.3999
  252TMC3     C 3823   0.154   4.249   9.583 -0.5801  0.1885 -0.2453
  252TMC3     O 3824   0.066   4.182   9.638 -0.0546 -0.1385  0.5369
  252TMC3     H 3825   0.393   4.332   9.478 -0.9884  0.9460 -0.1722
  252TMC3    H1 3826   0.123   3.997   9.509 -0.6529  0.2629 -1.9744
  252TMC3    H2 3827   0.519   3.968   9.341  2.2389  1.1776  2.2237
  252TMC3    C7 3828   0.273   3.842   9.394  0.7970  0.1955  0.7515
  252TMC3    C8 3829   0.598   4.209   9.389  0.1930 -0.0069 -0.4961
  252TMC3    O1 3830   0.154   3.823   9.365 -0.2607 -0.1490  0.3417
  252TMC3    O2 3831   0.660   4.173   9.291 -0.0665 -0.6884 -0.2011
  253MPD2     C 3832   1.624   2.888  15.513  0.5918  0.7414  0.6469
  253MPD2    C1 3833   1.491   2.890  15.488  0.4279 -0.2283  0.4743
  253MPD2    C2 3834   1.401   2.891  15.596  0.2951 -0.4048 -1.3118
  253MPD2    C3 3835   1.445   2.904  15.725  0.0227  0.3265 -0.6919
  253MPD2    C4 3836   1.577   2.925  15.751 -0.1041 -0.4982 -0.0289
  253MPD2    C5 3837   1.664   2.912  15.646  0.0016 -0.9484  0.2581
  253MPD2     H 3838   1.296   2.896  15.569  0.2089 -0.2487 -0.9453
  253MPD2    H1 3839   1.621   2.928  15.850 -0.8884 -1.1498  0.3335
  253MPD2    H2 3840   1.698   2.880  15.434  1.5086 -1.0123  1.6848
  253MPD2    H3 3841   1.769   2.918  15.671  0.0449  0.5103 -0.3380
  253MPD2     N 3842   1.358   2.894  15.835 -0.0892 -0.1007 -0.6684
  253MPD2    H5 3843   1.411   2.911  15.920  0.5494 -0.9170 -0.9058
  253MPD2    N1 3844   1.440   2.908  15.355  0.1159 -0.3835  0.3471
  253MPD2    H7 3845   1.339   2.910  15.347  0.0003  0.1937  1.9501
  254TMC3    C1 3846   1.164   2.886  15.966 -0.5355 -0.2166  0.3705
  254TMC3    C2 3847   1.046   2.952  15.980  0.6666 -0.3954  0.5810
  254TMC3    C3 3848   0.999   2.964  16.107  0.2013  0.3001  0.1119
  254TMC3    C4 3849   1.232   2.821  16.064  0.0073  0.2942  0.5468
  254TMC3    C5 3850   1.176   2.826  16.191 -0.2434  0.3800 -0.1422
  254TMC3    C6 3851   1.063   2.902  16.217  0.1170  0.8722 -0.4301
  254TMC3     C 3852   1.219   2.889  15.834  0.0984 -0.3403 -0.7365
  254TMC3     O 3853   1.139   2.917  15.748 -0.1880 -0.3663  0.3988
  254TMC3     H 3854   0.997   2.995  15.893  0.9550  1.4116  1.3172
  254TMC3    H1 3855   1.310   2.751  16.034  0.5267  1.0416  0.1466
  254TMC3    H2 3856   1.032   2.902  16.321  1.4389 -0.1071 -0.0367
  254TMC3    C7 3857   1.244   2.750  16.293  0.6369 -0.2536 -0.1197
  254TMC3    C8 3858   0.876   3.040  16.134 -0.3094 -0.4138  0.0984
  254TMC3    O1 3859   1.174   2.696  16.376  0.1401 -0.2494 -0.0261
  254TMC3    O2 3860   0.818   3.020  16.241 -0.0398 -0.1893 -0.3459
  255MPD2     C 3861   4.425   0.484  10.460 -0.2083 -0.9842 -1.0423
  255MPD2    C1 3862   4.461   0.620  10.422  0.3963  0.2856  1.6197
  255MPD2    C2 3863   4.573   0.643  10.345  0.2894 -0.1404  0.7629
  255MPD2    C3 3864   4.652   0.537  10.299  0.3983 -0.6692 -0.2294
  255MPD2    C4 3865   4.619   0.404  10.346 -0.2297  0.1350 -0.2748
  255MPD2    C5 3866   4.512   0.378  10.426 -0.4433 -0.3559 -0.4452
  255MPD2     H 3867   4.589   0.744  10.308 -1.9214 -0.2037 -0.4044
  255MPD2    H1 3868   4.676   0.316  10.317 -0.9978  0.0790 -1.5708
  255MPD2    H2 3869   4.341   0.455  10.523 -0.0641 -0.0725 -0.4358
  255MPD2    H3 3870   4.487   0.282  10.472  0.3164 -0.1126  0.4606
  255MPD2     N 3871   0.039   0.571  10.217 -0.0178  0.1559  0.2275
  255MPD2    H5 3872   0.052   0.666  10.183 -1.2851  1.2917  2.9206
  255MPD2    N1 3873   4.385   0.724  10.480  0.0834  0.2501 -0.0677
  255MPD2    H7 3874   4.300   0.694  10.527  1.0307 -1.9342  0.2919
  256TMC3    C1 3875   4.319   0.939  10.560  0.0399  0.4662 -0.1467
  256TMC3    C2 3876   4.371   1.050  10.626  0.6401  0.9681 -0.1369
  256TMC3    C3 3877   4.302   1.173  10.626  0.1587  0.4557  0.1888
  256TMC3    C4 3878   4.197   0.952  10.501 -0.3681  0.1357 -0.3123
  256TMC3    C5 3879   4.130   1.077  10.483 -0.9715 -0.0453 -0.0479
  256TMC3    C6 3880   4.183   1.184  10.553 -0.7628  0.1239 -0.2949
  256TMC3     C 3881   4.420   0.854  10.490 -0.0534  0.3449  0.2230
  256TMC3     O 3882   4.515   0.920  10.450  0.5606  0.1009 -0.0391
  256TMC3     H 3883   4.457   1.045  10.693  0.9128  1.2990 -0.4581
  256TMC3    H1 3884   4.184   0.874  10.428 -0.5683 -0.9326  0.8759
  256TMC3    H2 3885   4.131   1.279  10.555  0.0961  0.5709  0.5292
  256TMC3    C7 3886   4.102   1.101  10.341 -0.1491  0.3301  0.2999
  256TMC3    C8 3887   4.387   1.285  10.622 -0.2297  0.1920 -0.4653
  256TMC3    O1 3888   4.074   1.005  10.272 -0.0006 -0.0651 -0.1817
  256TMC3    O2 3889   4.344   1.399  10.637 -0.2979  0.1796  0.4443
  257MPD2     C 3890   3.667   2.980  13.097 -0.4855 -0.9749  0.0937
  257MPD2    C1 3891   3.771   2.927  13.028 -0.9183  0.4590  0.0018
  257MPD2    C2 3892   3.828   2.809  13.069  0.1130 -0.4636  0.1814
  257MPD2    C3 3893   3.783   2.743  13.182 -0.0899  0.3350 -0.7886
  257MPD2    C4 3894   3.683   2.804  13.256  0.4108  0.9517  0.1877
  257MPD2    C5 3895   3.627   2.929  13.221  0.5506 -0.6756  0.9889
  257MPD2     H 3896   3.906   2.767  13.008 -0.8434 -0.3098 -1.1473
  257MPD2    H1 3897   3.645   2.758  13.347  1.9955  1.8878  1.3205
  257MPD2    H2 3898   3.608   3.063  13.059  0.8304  0.1233  0.4631
  257MPD2    H3 3899   3.539   2.962  13.275  1.5356  1.1048  1.5206
  257MPD2     N 3900   3.839   2.624  13.226  0.1058 -0.6130  0.3694
  257MPD2    H5 3901   3.914   2.584  13.171  1.3251  1.6878  0.3408
  257MPD2    N1 3902   3.786   2.983  12.899 -0.3130 -0.0287 -0.3153
  257MPD2    H7 3903   3.715   3.050  12.870 -0.1993 -0.3018 -1.2315
  258TMC3    C1 3904   3.859   2.411  13.333 -0.2074  0.2383 -0.4608
  258TMC3    C2 3905   3.957   2.379  13.234 -0.2703  1.0911  0.6121
  258TMC3    C3 3906   4.045   2.277  13.260 -0.4146  0.8378 -0.0957
  258TMC3    C4 3907   3.864   2.347  13.459  0.3092 -0.3680 -0.1147
  258TMC3    C5 3908   3.964   2.259  13.484 -0.3843  0.0014 -0.0222
  258TMC3    C6 3909   4.052   2.216  13.384 -0.5316  0.4975 -0.0124
  258TMC3     C 3910   3.791   2.540  13.331  0.3990 -0.8457  0.1526
  258TMC3     O 3911   3.717   2.567  13.423  0.2816 -0.0709 -0.0569
  258TMC3     H 3912   3.953   2.413  13.131  1.7114 -0.4439  0.0442
  258TMC3    H1 3913   3.804   2.381  13.542  0.1777 -0.2664 -0.2520
  258TMC3    H2 3914   4.108   2.125  13.403 -0.2794  0.9647  1.5023
  258TMC3    C7 3915   3.954   2.187  13.609 -0.0965 -0.4017 -0.2402
  258TMC3    C8 3916   4.130   2.227  13.156 -0.1098 -0.1459  0.3855
  258TMC3    O1 3917   3.839   2.169  13.652 -0.1389  0.3842 -0.8104
  258TMC3    O2 3918   4.222   2.149  13.193 -0.0084 -0.0969 -0.0163
  259MPD2     C 3919   2.114   3.999   1.332  0.2867  0.2351 -0.0249
  259MPD2    C1 3920   2.095   3.877   1.267  0.5242 -0.0542 -0.2105
  259MPD2    C2 3921   2.154   3.853   1.146 -0.8476  0.3229 -0.4143
  259MPD2    C3 3922   2.230   3.953   1.082  0.0444  0.6231  0.1300
  259MPD2    C4 3923   2.255   4.070   1.149  0.0107  0.2251 -0.0972
  259MPD2    C5 3924   2.199   4.090   1.274 -0.0183 -0.0390  0.4051
  259MPD2     H 3925   2.135   3.767   1.083  0.1079  0.9116 -1.4875
  259MPD2    H1 3926   2.318   4.152   1.118 -0.5061  0.5929 -0.1851
  259MPD2    H2 3927   2.072   4.008   1.431 -1.4682 -3.0167 -0.4562
  259MPD2    H3 3928   2.220   4.186   1.320  2.4736  0.9424 -2.7481
  259MPD2     N 3929   2.293   3.933   0.955  0.9284 -0.3559  0.8483
  259MPD2    H5 3930   2.289   3.836   0.925  0.8691  0.4123 -1.5655
  259MPD2    N1 3931   2.005   3.787   1.335  0.3314 -0.3230  0.1539
  259MPD2    H7 3932   1.966   3.820   1.422 -0.7457  1.0595 -0.8473
  260TMC3    C1 3933   2.413   3.971   0.755 -0.2583  0.0501 -0.1056
  260TMC3    C2 3934   2.464   4.066   0.671 -0.0510  0.2242  1.0137
  260TMC3    C3 3935   2.547   4.020   0.576  0.4573 -0.6139 -0.1040
  260TMC3    C4 3936   2.434   3.838   0.738  0.4512  0.3654 -0.1781
  260TMC3    C5 3937   2.518   3.801   0.636  0.3603 -0.2751  0.4581
  260TMC3    C6 3938   2.571   3.887   0.550 -0.4565 -0.4324 -0.3922
  260TMC3     C 3939   2.355   4.025   0.876  0.4240  0.4572  0.1307
  260TMC3     O 3940   2.352   4.147   0.888 -0.4050 -0.5020  0.1074
  260TMC3     H 3941   2.456   4.172   0.693  0.2381  0.6109 -0.7622
  260TMC3    H1 3942   2.406   3.768   0.816 -1.4206  0.8335 -0.4173
  260TMC3    H2 3943   2.613   3.846   0.459 -0.0452  0.4608 -0.6126
  260TMC3    C7 3944   2.558   3.660   0.619 -0.2520 -0.2583  0.7872
  260TMC3    C8 3945   2.572   4.103   0.464  0.3943  0.3483  0.2677
  260TMC3    O1 3946   2.624   3.629   0.518  0.4884 -0.2318 -0.4021
  260TMC3    O2 3947   2.482   4.184   0.435  0.5101 -0.4381 -0.5886
  261MPD2     C 3948   4.549   2.531  12.110 -0.2800 -0.0874 -0.1534
  261MPD2    C1 3949   4.534   2.638  12.191 -0.5909 -0.3950  0.3798
  261MPD2    C2 3950   4.531   2.768  12.136  0.0079 -0.0844 -0.0302
  261MPD2    C3 3951   4.543   2.786  11.996 -0.3576  0.5451 -0.5381
  261MPD2    C4 3952   4.538   2.672  11.913  0.3876  0.1554 -0.3240
  261MPD2    C5 3953   4.549   2.549  11.974 -0.4028 -0.5688 -0.0276
  261MPD2     H 3954   4.524   2.852  12.204 -0.3346 -0.0377 -0.1215
  261MPD2    H1 3955   4.553   2.688  11.807  0.6413  1.1213 -0.1482
  261MPD2    H2 3956   4.557   2.431  12.151 -1.6235  0.3417  1.1746
  261MPD2    H3 3957   4.574   2.468  11.906  1.7375 -0.6732  0.8784
  261MPD2     N 3958   4.555   2.905  11.928 -0.0654 -0.4353 -0.3933
  261MPD2    H5 3959   4.563   2.896  11.828  4.4167 -0.6936 -0.0338
  261MPD2    N1 3960   4.538   2.621  12.334 -0.0538 -0.0083 -0.3680
  261MPD2    H7 3961   4.536   2.698  12.400 -0.9040  0.0703 -0.4748
  262TMC3    C1 3962   4.570   3.128  11.872 -0.0764 -0.4447  0.6397
  262TMC3    C2 3963   4.481   3.233  11.842  0.1103 -0.4092  0.0495
  262TMC3    C3 3964   4.512   3.308  11.730 -0.7110  0.4645  0.4039
  262TMC3    C4 3965   4.677   3.098  11.788 -0.5016  0.1676 -0.0303
  262TMC3    C5 3966   4.707   3.186  11.687  0.8388 -0.6520 -0.7521
  262TMC3    C6 3967   4.625   3.295  11.658 -0.1241  0.2736  0.5477
  262TMC3     C 3968   4.534   3.030  11.970 -0.0719  0.3466  0.7916
  262TMC3     O 3969   4.499   3.073  12.081 -0.3335  0.1114 -0.2949
  262TMC3     H 3970   4.394   3.252  11.904 -1.3371 -2.8912 -1.2004
  262TMC3    H1 3971   0.020   3.022  11.828 -0.1465 -0.4289 -1.7449
  262TMC3    H2 3972   4.655   3.367  11.583 -3.4159 -0.1635 -1.1925
  262TMC3    C7 3973   0.097   3.138  11.608  0.3219  0.7527 -0.7210
  262TMC3    C8 3974   4.419   3.410  11.694  0.0930 -0.5400 -0.0239
  262TMC3    O1 3975   0.166   3.058  11.662 -0.3430 -0.2527 -0.0477
  262TMC3    O2 3976   4.359   3.471  11.784 -0.2004 -0.1198 -0.1138
  263MPD2     C 3977   0.827   2.410  11.509  0.2397 -1.2658  0.0885
  263MPD2    C1 3978   0.890   2.324  11.421 -0.0497 -0.2671  0.4400
  263MPD2    C2 3979   0.845   2.319  11.289 -0.6316  0.8098 -0.4563
  263MPD2    C3 3980   0.749   2.409  11.241  0.5584  0.4035 -0.3527
  263MPD2    C4 3981   0.702   2.506  11.330 -0.2172  0.0752 -0.2407
  263MPD2    C5 3982   0.738   2.506  11.458  0.2109  0.3028  0.4963
  263MPD2     H 3983   0.879   2.244  11.218 -0.1047  0.1847  0.4643
  263MPD2    H1 3984   0.642   2.585  11.286 -0.0394  0.1490 -0.3484
  263MPD2    H2 3985   0.865   2.429  11.609  3.8825  0.0345 -1.5155
  263MPD2    H3 3986   0.690   2.579  11.522 -0.4935  0.0499  0.2684
  263MPD2     N 3987   0.714   2.405  11.104  0.8353  0.1802  0.7890
  263MPD2    H5 3988   0.768   2.342  11.046 -1.7224 -0.2789 -1.1019
  263MPD2    N1 3989   0.989   2.234  11.470 -0.0735 -0.2732 -0.1428
  263MPD2    H7 3990   1.016   2.236  11.568  2.1586 -3.0013 -0.7002
  264TMC3    C1 3991   0.661   2.502  10.903  0.5809 -0.5264 -0.4045
  264TMC3    C2 3992   0.672   2.635  10.868  0.4041  0.1909 -0.2028
  264TMC3    C3 3993   0.758   2.667  10.762 -1.1479 -0.2997 -0.1265
  264TMC3    C4 3994   0.743   2.403  10.843  0.3001 -0.0479 -0.7263
  264TMC3    C5 3995   0.835   2.442  10.744  0.1617  0.1970  0.0188
  264TMC3    C6 3996   0.845   2.575  10.707  0.1878  0.2800 -0.0845
  264TMC3     C 3997   0.627   2.494  11.040  0.1623  0.1961 -0.1848
  264TMC3     O 3998   0.563   2.587  11.086  0.4110 -0.0060  0.1152
  264TMC3     H 3999   0.590   2.698  10.899 -1.5951 -2.4337 -0.1992
  264TMC3    H1 4000   0.737   2.297  10.864  0.6340  0.5272  2.2371
  264TMC3    H2 4001   0.921   2.607  10.637  0.4771 -0.3935 -0.0785
  264TMC3    C7 4002   0.949   2.357  10.694 -0.1519  0.0307 -0.0791
  264TMC3    C8 4003   0.815   2.802  10.754 -0.0831 -0.6770  0.5718
  264TMC3    O1 4004   1.023   2.404  10.611  0.1647 -0.0193  0.1436
  264TMC3    O2 4005   0.891   2.823  10.659  0.1176 -0.1836  0.5045
  265MPD2     C 4006   2.414   2.390  15.178 -0.2568  0.2154 -0.0541
  265MPD2    C1 4007   2.532   2.458  15.183 -0.4898 -0.0672 -0.1336
  265MPD2    C2 4008   2.624   2.445  15.080  0.1016  0.2142  0.8148
  265MPD2    C3 4009   2.615   2.351  14.980  0.4709 -1.0211  0.3901
  265MPD2    C4 4010   2.508   2.271  14.992  0.1757 -0.3085  0.5789
  265MPD2    C5 4011   2.412   2.287  15.089  0.4231  0.3563 -0.0692
  265MPD2     H 4012   2.714   2.505  15.082 -0.4720  1.1478 -1.1112
  265MPD2    H1 4013   2.492   2.186  14.926  0.3958  1.7655 -2.1702
  265MPD2    H2 4014   2.333   2.383  15.250  0.1209  1.2053  0.4695
  265MPD2    H3 4015   2.323   2.226  15.091  1.2693 -0.8540  0.7331
  265MPD2     N 4016   2.714   2.328  14.873 -0.2008  0.0996 -0.1712
  265MPD2    H5 4017   2.704   2.250  14.808  0.7644  0.1637 -0.3919
  265MPD2    N1 4018   2.564   2.545  15.287 -0.0146 -0.6041  0.3910
  265MPD2    H7 4019   2.631   2.619  15.267 -2.0809  0.5840 -2.1955
  266TMC3    C1 4020   2.565   2.652  15.484 -0.3508  0.4294 -0.7520
  266TMC3    C2 4021   2.620   2.617  15.608 -0.0542  0.2424 -0.1450
  266TMC3    C3 4022   2.680   2.723  15.671  0.5683  0.3051  0.8377
  266TMC3    C4 4023   2.568   2.780  15.433 -0.0880  0.0008 -0.4260
  266TMC3    C5 4024   2.619   2.879  15.509  0.5103 -0.4889  0.7341
  266TMC3    C6 4025   2.678   2.853  15.624 -0.3017 -0.4190  0.2788
  266TMC3     C 4026   2.508   2.546  15.405  0.2534 -0.0183  0.1805
  266TMC3     O 4027   2.439   2.468  15.468 -0.6248  0.3452 -0.5150
  266TMC3     H 4028   2.623   2.514  15.641 -3.9483  0.7817  1.8625
  266TMC3    H1 4029   2.518   2.800  15.339  0.0780  0.5597 -0.3941
  266TMC3    H2 4030   2.731   2.936  15.670 -1.0701  0.8881 -1.1976
  266TMC3    C7 4031   2.641   3.003  15.445 -0.7912  0.9873  0.4193
  266TMC3    C8 4032   2.742   2.699  15.798 -0.0049  0.6586  0.3326
  266TMC3    O1 4033   2.554   3.052  15.375 -0.1416  0.0196  0.1142
  266TMC3    O2 4034   2.751   2.579  15.819  0.4672  0.4573  0.0766
  267MPD2     C 4035   3.852   4.078   0.556 -0.0080 -0.7033  0.5950
  267MPD2    C1 4036   3.889   4.006   0.445 -0.5648 -0.3416 -0.4704
  267MPD2    C2 4037   3.926   4.073   0.325  0.0791  0.1314  0.0565
  267MPD2    C3 4038   3.918   4.212   0.318  0.0573 -0.7482  0.5425
  267MPD2    C4 4039   3.887   4.284   0.435 -0.0185  0.1044  0.2386
  267MPD2    C5 4040   3.857   4.216   0.550  1.2426  0.4097 -0.1264
  267MPD2     H 4041   3.961   4.017   0.240  0.1760  0.0385  0.1574
  267MPD2    H1 4042   3.897   4.392   0.440 -2.6170  0.4398 -1.4923
  267MPD2    H2 4043   3.827   4.039   0.654 -0.6779  1.2205  1.1732
  267MPD2    H3 4044   3.837   4.270   0.642  2.1734  0.8832 -0.2064
  267MPD2     N 4045   3.956   4.289   0.207 -0.6749 -0.0489 -0.0939
  267MPD2    H5 4046   3.940   4.389   0.216  1.2576  0.2635 -0.0302
  267MPD2    N1 4047   3.900   3.863   0.468 -0.4577  0.5231  0.3827
  267MPD2    H7 4048   3.873   3.824   0.557  0.9787 -1.7866 -0.1760
  268TMC3    C1 4049   3.929   3.634   0.423 -0.4616 -0.1851 -0.5561
  268TMC3    C2 4050   3.903   3.547   0.322  0.2816  0.2193 -0.1737
  268TMC3    C3 4051   3.981   3.437   0.312  0.0318 -0.0673  0.5163
  268TMC3    C4 4052   4.022   3.600   0.519 -0.5616  0.1262 -0.3479
  268TMC3    C5 4053   4.082   3.478   0.517  0.7272  0.1019  0.7638
  268TMC3    C6 4054   4.071   3.397   0.408  0.3457  0.2540 -0.7832
  268TMC3     C 4055   3.935   3.772   0.374  0.4687 -0.6390 -0.1457
  268TMC3     O 4056   3.941   3.779   0.253  0.1664  0.5336  0.1469
  268TMC3     H 4057   3.841   3.573   0.237 -0.4000 -1.9608 -0.3496
  268TMC3    H1 4058   4.050   3.681   0.586  1.0928 -0.3585 -0.4538
  268TMC3    H2 4059   4.134   3.311   0.393  0.7766  0.5533 -0.6771
  268TMC3    C7 4060   4.167   3.431   0.629  0.4864 -0.4857 -0.1917
  268TMC3    C8 4061   4.025   3.401   0.175  0.0398 -0.1872 -0.1428
  268TMC3    O1 4062   4.251   3.343   0.604 -0.4032  0.1712 -0.1919
  268TMC3    O2 4063   4.036   3.279   0.160 -0.3839 -0.4423  0.3011
  269MPD2     C 4064   0.617   2.951  15.807  0.6543 -0.3123 -0.1342
  269MPD2    C1 4065   0.491   3.002  15.837  0.1011  0.4181 -0.8309
  269MPD2    C2 4066   0.458   3.128  15.790 -0.4034  1.0533  0.0497
  269MPD2    C3 4067   0.544   3.206  15.716 -0.3542  0.7446  0.3690
  269MPD2    C4 4068   0.673   3.153  15.692  0.3641 -0.4354 -0.1093
  269MPD2    C5 4069   0.704   3.025  15.740  1.1362 -0.2827 -0.4804
  269MPD2     H 4070   0.357   3.163  15.808 -0.0940  1.7114  0.5196
  269MPD2    H1 4071   0.756   3.197  15.638  1.6308 -1.0812  1.2989
  269MPD2    H2 4072   0.648   2.858  15.853  0.4835 -0.4019 -0.2007
  269MPD2    H3 4073   0.802   2.981  15.721  1.2643 -0.1650 -0.0959
  269MPD2     N 4074   0.495   3.330  15.664  0.2563  0.1782 -0.0987
  269MPD2    H5 4075   0.398   3.355  15.681  0.2758 -1.6947  2.8823
  269MPD2    N1 4076   0.404   2.905  15.895  0.2582  0.0919 -0.3336
  269MPD2    H7 4077   0.439   2.811  15.904  0.9013  0.3429 -0.2728
  270TMC3    C1 4078   0.201   2.791  15.947  0.0592  0.6135  0.0401
  270TMC3    C2 4079   0.069   2.782  15.911  0.2450 -0.0126 -0.2426
  270TMC3    C3 4080   0.009   2.657  15.921 -0.0784  0.2497  0.9716
  270TMC3    C4 4081   0.278   2.684  15.992 -0.3348 -0.0375  0.6611
  270TMC3    C5 4082   0.215   2.560  16.007  0.1688  0.3177 -0.0818
  270TMC3    C6 4083   0.084   2.545  15.964 -0.5147  0.0079 -0.4483
  270TMC3     C 4084   0.273   2.921  15.933  0.0151  0.2887 -0.2312
  270TMC3     O 4085   0.205   3.020  15.923 -0.2589  0.2318 -0.1786
  270TMC3     H 4086   0.011   2.863  15.868  2.4059  2.0063  0.6436
  270TMC3    H1 4087   0.381   2.696  16.023  0.4532 -0.8240 -1.6610
  270TMC3    H2 4088   0.041   2.446  15.948 -0.0530 -0.3432  0.5328
  270TMC3    C7 4089   0.309   2.447  16.011 -0.2180 -0.2137  0.2759
  270TMC3    C8 4090   4.660   2.619  15.803  0.6690 -0.5120  0.2180
  270TMC3    O1 4091   0.424   2.475  15.999 -0.0842  0.3077  0.2710
  270TMC3    O2 4092   4.542   2.592  15.817  0.7437  0.0211  0.8463
  271MPD2     C 4093   4.427   2.554  13.972 -0.1755 -0.3793 -0.3262
  271MPD2    C1 4094   4.366   2.605  14.087  0.4494  0.1496 -0.5557
  271MPD2    C2 4095   4.266   2.703  14.066  0.1225 -0.2829 -0.4151
  271MPD2    C3 4096   4.226   2.745  13.941  0.4430 -0.2738 -0.2432
  271MPD2    C4 4097   4.297   2.696  13.836 -0.1043 -0.0105 -0.5736
  271MPD2    C5 4098   4.389   2.596  13.847  0.0907  0.1261  0.5922
  271MPD2     H 4099   4.211   2.741  14.152  1.0183  1.4928 -0.6248
  271MPD2    H1 4100   4.266   2.721  13.735 -0.0209 -0.5869 -0.7459
  271MPD2    H2 4101   4.510   2.484  13.976  1.1718  1.2860  0.6726
  271MPD2    H3 4102   4.444   2.567  13.758 -0.5717 -0.4979  0.3826
  271MPD2     N 4103   4.123   2.843  13.916 -0.2868  0.6770  0.2794
  271MPD2    H5 4104   4.109   2.876  13.821 -0.6715  0.7706  0.3673
  271MPD2    N1 4105   4.395   2.572  14.223  0.3178  0.5270 -0.4920
  271MPD2    H7 4106   4.345   2.627  14.292 -1.0081  1.4541 -2.2155
  272TMC3    C1 4107   4.511   2.446  14.395 -0.5789 -0.1986  0.0909
  272TMC3    C2 4108   4.636   2.386  14.424  0.8426  0.2289  0.6090
  272TMC3    C3 4109   4.696   2.406  14.542  0.7841 -0.2597 -0.2523
  272TMC3    C4 4110   4.458   2.522  14.492 -0.0932  0.0833  0.0018
  272TMC3    C5 4111   4.518   2.539  14.610  0.3066 -0.0469 -0.0128
  272TMC3    C6 4112   4.636   2.481  14.642 -0.0729  0.4999 -0.4317
  272TMC3     C 4113   4.482   2.467  14.258  0.1105 -0.0746  0.0387
  272TMC3     O 4114   4.545   2.398  14.175 -0.0451  0.0879  0.2665
  272TMC3     H 4115   4.687   2.325  14.351  2.0905 -1.2041  2.6825
  272TMC3    H1 4116   4.358   2.558  14.470  0.9548  3.5268  0.8951
  272TMC3    H2 4117   4.666   2.488  14.746 -1.0161 -0.6151 -0.0856
  272TMC3    C7 4118   4.443   2.603  14.717 -0.3529  0.5614 -0.4182
  272TMC3    C8 4119   0.112   2.367  14.549 -0.1184  0.4438  0.1827
  272TMC3    O1 4120   4.322   2.590  14.712  0.3616 -0.1563  0.3366
  272TMC3    O2 4121   0.168   2.355  14.442  0.2861 -0.6984 -0.4450
  273MPD2     C 4122   1.489   0.805  11.726 -0.4135  0.4492  0.0567
  273MPD2    C1 4123   1.545   0.925  11.748 -0.1465  0.2339  0.0459
  273MPD2    C2 4124   1.580   1.009  11.645  0.2466  0.5665  0.1829
  273MPD2    C3 4125   1.574   0.953  11.521 -0.7211 -0.2704  1.0241
  273MPD2    C4 4126   1.519   0.826  11.493 -0.8922 -0.5439 -0.0225
  273MPD2    C5 4127   1.473   0.752  11.599 -0.1324  0.3601 -0.8525
  273MPD2     H 4128   1.611   1.111  11.662 -0.8616  1.1983 -1.5665
  273MPD2    H1 4129   1.507   0.796  11.389  0.2525  1.7808 -0.8127
  273MPD2    H2 4130   1.464   0.740  11.810 -1.2643  1.5172  0.6276
  273MPD2    H3 4131   1.427   0.657  11.575  1.7791 -0.5467 -0.9876
  273MPD2     N 4132   1.611   1.025  11.407  0.4633  0.4629 -0.6232
  273MPD2    H5 4133   1.579   0.994  11.316  3.3102 -2.9531 -0.4316
  273MPD2    N1 4134   1.592   0.945  11.879 -0.3507  0.3546 -0.3978
  273MPD2    H7 4135   1.593   0.865  11.941  1.4311  0.3843 -0.3831
  274TMC3    C1 4136   1.676   1.223  11.289 -0.6413  0.2314  0.5063
  274TMC3    C2 4137   1.573   1.197  11.198  1.2809 -0.5080 -0.2968
  274TMC3    C3 4138   1.546   1.301  11.110 -0.3163  0.2770 -0.3603
  274TMC3    C4 4139   1.756   1.334  11.282 -0.3548  0.9881  0.2404
  274TMC3    C5 4140   1.728   1.425  11.184  0.3744  0.1238  0.6701
  274TMC3    C6 4141   1.618   1.416  11.099  0.1496  0.4634  0.0176
  274TMC3     C 4142   1.682   1.142  11.411  0.2183  0.0269  0.5640
  274TMC3     O 4143   1.742   1.189  11.510 -0.1596 -0.2287 -0.0988
  274TMC3     H 4144   1.505   1.114  11.211  1.5740 -1.2813 -3.6128
  274TMC3    H1 4145   1.825   1.357  11.363 -0.4555 -0.6547  0.7816
  274TMC3    H2 4146   1.576   1.505  11.054 -0.2968 -0.4223 -1.3291
  274TMC3    C7 4147   1.776   1.563  11.212  0.1009 -0.2349  0.1902
  274TMC3    C8 4148   1.466   1.256  10.999  0.7246  0.5291  0.0345
  274TMC3    O1 4149   1.795   1.604  11.324  0.0639 -0.1944 -0.2475
  274TMC3    O2 4150   1.385   1.168  11.017  0.2252 -0.3643  0.0616
  275MPD2     C 4151   1.195   3.639  14.276  0.6312  0.2467  0.1066
  275MPD2    C1 4152   1.120   3.690  14.382  0.1355 -0.0894 -0.5823
  275MPD2    C2 4153   0.987   3.652  14.398  0.6933 -0.2922 -0.1653
  275MPD2    C3 4154   0.923   3.570  14.303  0.1453 -0.4950 -0.0681
  275MPD2    C4 4155   0.999   3.525  14.194 -0.0846  0.9682 -0.0859
  275MPD2    C5 4156   1.130   3.560  14.181 -0.3016  0.0725  0.5581
  275MPD2     H 4157   0.927   3.695  14.477  1.3348  2.8036 -1.3570
  275MPD2    H1 4158   0.952   3.470  14.114  0.9525 -0.8976  0.5891
  275MPD2    H2 4159   1.297   3.666  14.253  1.0774 -1.1347  0.4835
  275MPD2    H3 4160   1.184   3.527  14.093  1.4750  1.2507  1.2096
  275MPD2     N 4161   0.781   3.553  14.300  0.5440  0.1928 -0.2544
  275MPD2    H5 4162   0.745   3.514  14.214 -0.9585 -0.5878  0.7189
  275MPD2    N1 4163   1.175   3.770  14.479 -0.1843 -0.1995  0.4291
  275MPD2    H7 4164   1.114   3.817  14.544 -1.0781 -1.3477  0.4131
  276TMC3    C1 4165   1.321   3.912  14.597  0.0531 -0.3815  0.9089
  276TMC3    C2 4166   1.245   3.890  14.713 -0.0070  0.0129 -0.4293
  276TMC3    C3 4167   1.256   3.981  14.815  0.5945 -0.5598 -0.1602
  276TMC3    C4 4168   1.423   4.006  14.586  0.4721 -0.6037  0.6318
  276TMC3    C5 4169   1.428   4.092  14.696 -0.1875 -0.0021 -1.0085
  276TMC3    C6 4170   1.342   4.082  14.806 -0.0157 -0.4700 -0.3010
  276TMC3     C 4171   1.303   3.819  14.485 -0.9990 -0.1651 -1.3171
  276TMC3     O 4172   1.392   3.809  14.404 -0.4205  0.0040 -0.0807
  276TMC3     H 4173   1.174   3.809  14.720  1.0434 -0.8496  0.2825
  276TMC3    H1 4174   1.489   4.021  14.502  0.0252 -1.2402  0.1692
  276TMC3    H2 4175   1.361   4.156  14.883 -4.1457  0.6594 -0.3726
  276TMC3    C7 4176   1.549   4.171  14.727 -0.3223 -0.6065 -0.4225
  276TMC3    C8 4177   1.222   3.943  14.952 -0.4126 -0.5560 -0.5916
  276TMC3    O1 4178   1.539   4.261  14.806 -0.1523 -0.0076 -0.4837
  276TMC3    O2 4179   1.189   4.038  15.026  0.2504 -0.0413  0.0957
  277MPD2     C 4180   3.360   3.098  12.856 -0.9637  0.4232 -0.7534
  277MPD2    C1 4181   3.231   3.152  12.892  0.3555 -0.1218 -0.0546
  277MPD2    C2 4182   3.151   3.080  12.979 -0.6489 -0.1304 -0.5080
  277MPD2    C3 4183   3.178   2.949  13.014  0.3247 -0.7264 -0.3195
  277MPD2    C4 4184   3.307   2.899  12.981 -0.2902 -0.1977  0.3980
  277MPD2    C5 4185   3.395   2.976  12.907  0.7729 -0.0553  0.1256
  277MPD2     H 4186   3.058   3.124  13.014 -0.5313 -0.3213  0.0361
  277MPD2    H1 4187   3.350   2.813  13.030  1.7417 -0.8526 -2.5500
  277MPD2    H2 4188   3.430   3.139  12.784 -0.4235 -0.3792 -0.6786
  277MPD2    H3 4189   3.495   2.939  12.887 -1.3240 -3.6259 -3.8015
  277MPD2     N 4190   3.080   2.875  13.084  0.5021  0.7044  0.4307
  277MPD2    H5 4191   3.000   2.932  13.108  1.1869  1.8428 -0.0028
  277MPD2    N1 4192   3.195   3.278  12.834  0.4798  0.2781  0.1392
  277MPD2    H7 4193   3.263   3.319  12.772  0.3324  0.4718  0.1053
  278TMC3    C1 4194   2.965   2.699  13.199 -0.1602  0.1608  0.4920
  278TMC3    C2 4195   2.952   2.561  13.215  0.5232  0.4135  0.4038
  278TMC3    C3 4196   2.843   2.519  13.284 -0.4185  0.6060  0.4623
  278TMC3    C4 4197   2.876   2.790  13.254  0.5750 -0.3698  0.2049
  278TMC3    C5 4198   2.764   2.748  13.315 -0.1376  0.2192  0.7506
  278TMC3    C6 4199   2.752   2.611  13.327 -0.0140  0.0802 -0.1115
  278TMC3     C 4200   3.081   2.744  13.118  0.0242 -0.1775  0.9958
  278TMC3     O 4201   3.162   2.654  13.093  0.3201  0.1350  0.2368
  278TMC3     H 4202   3.023   2.494  13.170  1.0807  0.0146  1.9076
  278TMC3    H1 4203   2.874   2.893  13.220  0.6840 -0.1490  0.8713
  278TMC3    H2 4204   2.656   2.578  13.365  0.5027 -0.7189  0.4922
  278TMC3    C7 4205   2.688   2.845  13.386 -0.0852  0.6349 -0.2501
  278TMC3    C8 4206   2.807   2.385  13.267  0.0001  0.4975 -0.0757
  278TMC3    O1 4207   2.747   2.951  13.404 -0.1185  0.1016 -0.2801
  278TMC3    O2 4208   2.902   2.308  13.275 -0.2299 -0.0155 -0.3278
  279MPD2     C 4209   2.129   2.558   0.478 -0.4058 -0.1771 -0.3195
  279MPD2    C1 4210   2.042   2.552   0.374 -0.1760 -0.4970  0.0799
  279MPD2    C2 4211   2.069   2.469   0.270 -0.0849 -0.0361 -0.2352
  279MPD2    C3 4212   2.193   2.412   0.254 -0.2700 -0.0324  0.1003
  279MPD2    C4 4213   2.285   2.434   0.351  0.0478 -0.1717  0.3507
  279MPD2    C5 4214   2.253   2.506   0.461 -0.7440  0.1926  0.8477
  279MPD2     H 4215   1.994   2.454   0.194 -1.9890 -2.0692  2.0335
  279MPD2    H1 4216   2.388   2.402   0.342 -0.0762 -0.9752  1.8621
  279MPD2    H2 4217   2.105   2.612   0.569 -1.0717 -0.2214 -0.4678
  279MPD2    H3 4218   2.331   2.529   0.532  0.1007  0.5164 -0.1965
  279MPD2     N 4219   2.237   2.352   0.135  0.7444  0.3978  0.4925
  279MPD2    H5 4220   2.337   2.337   0.122  0.9435  1.4868  0.7499
  279MPD2    N1 4221   1.919   2.619   0.381  0.2520  0.2794  0.2996
  279MPD2    H7 4222   1.855   2.584   0.310 -0.2759  2.7358 -0.4481
  280TMC3    C1 4223   1.732   2.746   0.477  0.0830 -0.1946  0.3010
  280TMC3    C2 4224   1.653   2.644   0.426  0.2159  0.0860  0.4290
  280TMC3    C3 4225   1.523   2.671   0.402 -1.0768 -0.3209  0.2147
  280TMC3    C4 4226   1.692   2.874   0.473  0.5322 -0.4126 -0.1580
  280TMC3    C5 4227   1.561   2.896   0.442 -0.3452  0.3933 -0.0793
  280TMC3    C6 4228   1.469   2.797   0.408 -0.1457 -0.5045  0.1927
  280TMC3     C 4229   1.876   2.726   0.464 -0.1580  0.7439 -0.1371
  280TMC3     O 4230   1.951   2.801   0.530 -0.3644 -0.3868 -0.1435
  280TMC3     H 4231   1.686   2.541   0.417 -1.5108 -0.3471 -1.0074
  280TMC3    H1 4232   1.763   2.948   0.510 -3.1933  1.7196  2.7219
  280TMC3    H2 4233   1.364   2.819   0.394 -0.5519 -1.1469  2.2165
  280TMC3    C7 4234   1.505   3.021   0.494 -0.5722  0.0295 -0.4760
  280TMC3    C8 4235   1.444   2.572   0.341 -0.4795  0.4324 -0.3964
  280TMC3    O1 4236   1.559   3.059   0.596  0.4752 -0.0686  0.3967
  280TMC3    O2 4237   1.341   2.619   0.294  0.6355 -0.7457  0.3427
  281TMC3    C1 4238   0.832   2.999  13.030  0.0313 -0.9369 -0.1785
  281TMC3    C2 4239   0.931   3.063  12.958  0.1695 -0.3442  0.7893
  281TMC3    C3 4240   0.997   2.994  12.867 -0.7564  0.0917 -0.0682
  281TMC3    C4 4241   0.807   2.862  13.023  0.6773  0.1409  0.0738
  281TMC3    C5 4242   0.887   2.798  12.928  0.1328 -0.3328  0.7640
  281TMC3    C6 4243   0.979   2.862  12.857  0.4183  0.6279 -0.2412
  281TMC3     C 4244   0.734   3.080  13.103  0.3841  0.0328  0.2193
  281TMC3     O 4245   0.670   3.022  13.193  0.2621  0.3634 -0.2450
  281TMC3     H 4246   0.943   3.169  12.975 -1.1788 -0.4843  2.6314
  281TMC3    H1 4247   0.721   2.814  13.068  0.6320  0.9562  0.8451
  281TMC3    H2 4248   1.033   2.807  12.781  0.0393 -2.4938  1.7560
  281TMC3    C7 4249   0.880   2.656  12.919  0.2027 -0.2004 -0.5559
  281TMC3    C8 4250   1.123   3.044  12.809  0.4620  0.5137 -0.1074
  281TMC3    O1 4251   0.923   2.599  12.823 -0.4007  0.7083  0.2280
  281TMC3    O2 4252   1.220   2.968  12.800  0.1639  0.0089  0.5051
  282MPD2     C 4253   2.459   4.035  14.863  0.2557 -0.3420  0.2989
  282MPD2    C1 4254   2.470   4.169  14.855 -1.3196  0.1132  0.4128
  282MPD2    C2 4255   2.459   4.234  14.733  0.1263 -0.2764 -0.4178
  282MPD2    C3 4256   2.455   4.162  14.618  1.0071  0.0507  0.7680
  282MPD2    C4 4257   2.459   4.023  14.632 -0.4004  0.5132 -0.4466
  282MPD2    C5 4258   2.459   3.958  14.753  0.5340  0.3327 -0.0162
  282MPD2     H 4259   2.441   4.341  14.725  3.5440  0.3844  0.8204
  282MPD2    H1 4260   2.466   3.953  14.549  1.4948  2.8296 -2.2447
  282MPD2    H2 4261   2.456   3.978  14.955  1.7838 -0.5875  0.2067
  282MPD2    H3 4262   2.447   3.851  14.766  1.6877  0.2176  0.0897
  282MPD2     N 4263   2.461   4.228  14.493  0.3956 -0.0402  0.3742
  282MPD2    H5 4264   2.458   4.329  14.501  1.0265  0.0008  0.1361
  282MPD2    N1 4265   2.477   4.254  14.972 -0.0434  0.7386  0.0354
  282MPD2    H7 4266   2.475   4.354  14.953  1.5577  1.0814  1.6522
  283TMC3    C1 4267   2.432   4.300  15.200  0.1253 -0.5801  0.0944
  283TMC3    C2 4268   2.415   4.435  15.181 -0.9036  0.1887  0.9977
  283TMC3    C3 4269   2.363   4.512  15.275 -0.0270 -0.4986  0.1108
  283TMC3    C4 4270   2.405   4.242  15.319  0.0299 -0.0865  0.3183
  283TMC3    C5 4271   2.363   4.326  15.418 -0.7717  0.0833 -0.0575
  283TMC3    C6 4272   2.326   4.456  15.392  0.1543  0.0965  0.5280
  283TMC3     C 4273   2.488   4.208  15.099  0.7906  0.8305  0.0888
  283TMC3     O 4274   2.517   4.093  15.125 -0.2468 -0.0926  0.5742
  283TMC3     H 4275   2.436   4.484  15.087  1.2918  0.4501  1.6194
  283TMC3    H1 4276   2.430   4.139  15.342  1.4035 -0.1058 -1.3192
  283TMC3    H2 4277   2.287   4.519  15.471  0.9247  0.7655  0.3701
  283TMC3    C7 4278   2.313   4.276  15.541  0.6360 -0.3396 -0.1503
  283TMC3    C8 4279   2.302   4.642  15.253  0.4576 -0.4869  0.0636
  283TMC3    O1 4280   2.257   4.356  15.618  0.3249  0.1397  0.5978
  283TMC3    O2 4281   2.215   4.668  15.334 -0.3129  0.1118  0.3791
  284MPD2     C 4282   1.164   3.819  11.712  0.2582  0.0980 -0.7896
  284MPD2    C1 4283   1.218   3.749  11.603  0.2125 -0.2373  0.0933
  284MPD2    C2 4284   1.140   3.665  11.528 -0.0526 -0.1878 -0.2040
  284MPD2    C3 4285   1.014   3.632  11.574  0.2010  0.2775  0.2060
  284MPD2    C4 4286   0.968   3.689  11.687 -0.4330  0.3489 -0.1477
  284MPD2    C5 4287   1.043   3.776  11.761  0.5680  0.4135  0.7125
  284MPD2     H 4288   1.189   3.627  11.439  1.2165 -1.2674  0.9549
  284MPD2    H1 4289   0.871   3.654  11.720  0.6408  2.1037  4.9044
  284MPD2    H2 4290   1.216   3.896  11.768  0.0683 -1.0181  0.9188
  284MPD2    H3 4291   0.994   3.798  11.855  0.5066  0.4642  0.6690
  284MPD2     N 4292   0.937   3.523  11.524 -0.0702 -0.2908  0.0091
  284MPD2    H5 4293   0.860   3.497  11.586 -0.4219  0.6744 -0.0166
  284MPD2    N1 4294   1.347   3.778  11.559  0.0334 -0.5521 -0.6352
  284MPD2    H7 4295   1.381   3.722  11.481  1.8943  1.2007 -1.0861
  285TMC3    C1 4296   1.559   3.868  11.551 -0.1309 -0.5333 -0.3320
  285TMC3    C2 4297   1.593   3.776  11.456 -0.5133 -0.0099 -0.7658
  285TMC3    C3 4298   1.675   3.810  11.342 -1.0174 -0.7488  0.3882
  285TMC3    C4 4299   1.615   3.993  11.544 -0.0260 -0.3211  0.5359
  285TMC3    C5 4300   1.709   4.017  11.446  0.3196 -0.5570  0.3885
  285TMC3    C6 4301   1.744   3.928  11.343 -0.0380  0.2516  0.4343
  285TMC3     C 4302   1.431   3.870  11.613  0.6417 -0.5707 -0.2606
  285TMC3     O 4303   1.418   3.960  11.697 -0.1024 -0.8253 -0.4129
  285TMC3     H 4304   1.559   3.673  11.448 -0.0399 -0.2744  0.5558
  285TMC3    H1 4305   1.585   4.083  11.595  0.2785  1.3426 -2.2324
  285TMC3    H2 4306   1.818   3.939  11.264 -1.8721  0.8767 -1.2086
  285TMC3    C7 4307   1.755   4.153  11.419 -0.3030 -0.2651  0.4954
  285TMC3    C8 4308   1.654   3.727  11.226  0.1422  0.5664  0.7146
  285TMC3    O1 4309   1.675   4.246  11.423 -0.0004  0.1105 -0.8734
  285TMC3    O2 4310   1.550   3.660  11.215 -0.3602 -0.4852  0.0375
  286MPD2     C 4311   1.244   1.406   1.720 -0.3997 -0.0606  0.0234
  286MPD2    C1 4312   1.235   1.442   1.587  0.1812 -0.2302 -0.3197
  286MPD2    C2 4313   1.350   1.451   1.509 -1.2989 -0.2603  0.3769
  286MPD2    C3 4314   1.473   1.417   1.557  0.4378 -0.2848 -0.0743
  286MPD2    C4 4315   1.481   1.387   1.686  0.4043 -1.0618 -0.0781
  286MPD2    C5 4316   1.370   1.374   1.765 -0.7411  0.5892  0.1314
  286MPD2     H 4317   1.332   1.466   1.404 -0.4063  0.6590  0.3600
  286MPD2    H1 4318   1.569   1.336   1.724 -0.3091 -3.1933 -1.2855
  286MPD2    H2 4319   1.168   1.401   1.797  1.0788 -2.5356  1.3600
  286MPD2    H3 4320   1.395   1.336   1.864  2.3457 -0.2148 -0.9453
  286MPD2     N 4321   1.585   1.382   1.480 -0.0878 -0.5704  0.3970
  286MPD2    H5 4322   1.669   1.352   1.527 -0.9800 -1.4476  1.4427
  286MPD2    N1 4323   1.111   1.483   1.525  0.7756  0.5392 -0.2519
  286MPD2    H7 4324   1.117   1.524   1.432 -0.9093  2.1065  0.3320
  287TMC3    C1 4325   1.719   1.372   1.281 -0.0640  0.0585 -0.4829
  287TMC3    C2 4326   1.718   1.346   1.144 -0.2206 -0.3396 -0.4832
  287TMC3    C3 4327   1.835   1.322   1.076  0.8132 -0.1792  0.3136
  287TMC3    C4 4328   1.834   1.363   1.360  0.3165 -0.3762 -0.1044
  287TMC3    C5 4329   1.949   1.346   1.283 -1.1550 -0.4146  0.5677
  287TMC3    C6 4330   1.952   1.320   1.147 -0.8037  0.4238 -0.0535
  287TMC3     C 4331   1.587   1.385   1.344 -0.0031  0.4307  0.3058
  287TMC3     O 4332   1.494   1.388   1.267 -0.4102 -0.5275  0.2133
  287TMC3     H 4333   1.625   1.343   1.088 -0.4389 -2.7059  0.0195
  287TMC3    H1 4334   1.841   1.397   1.463 -0.4314 -0.5690  0.0063
  287TMC3    H2 4335   2.048   1.297   1.103 -0.4050 -1.7922  1.9589
  287TMC3    C7 4336   2.078   1.350   1.357 -0.2894 -0.4206  0.4369
  287TMC3    C8 4337   1.826   1.254   0.952  0.6307 -0.1751 -0.2229
  287TMC3    O1 4338   2.076   1.401   1.465 -0.2209  0.4779 -0.3123
  287TMC3    O2 4339   1.922   1.196   0.914  0.0367 -0.5384  0.0842
  288TMC3    C1 4340   3.391   2.334  14.094  0.0474 -0.1331  0.3869
  288TMC3    C2 4341   3.268   2.315  14.144 -0.5164 -0.2648  0.5742
  288TMC3    C3 4342   3.166   2.380  14.084 -0.1735 -0.0147 -0.1319
  288TMC3    C4 4343   3.421   2.426  13.992 -0.1485 -0.8133 -0.2318
  288TMC3    C5 4344   3.314   2.486  13.929 -0.3701 -0.0248 -0.7202
  288TMC3    C6 4345   3.184   2.462  13.971  0.1330 -0.0580 -0.7225
  288TMC3     C 4346   3.494   2.252  14.161  0.3233  0.4099 -0.4731
  288TMC3     O 4347   3.465   2.200  14.271  0.6840 -0.4148 -0.5594
  288TMC3     H 4348   3.259   2.247  14.227  2.3081 -0.1411  0.9782
  288TMC3    H1 4349   3.520   2.440  13.951 -0.5162  0.7238 -0.6107
  288TMC3    H2 4350   3.100   2.506  13.919 -0.1153 -0.1343 -0.3827
  288TMC3    C7 4351   3.345   2.559  13.801  0.3287  0.2075  0.2038
  288TMC3    C8 4352   3.037   2.390  14.147 -0.7129  1.0253  0.1631
  288TMC3    O1 4353   3.455   2.534  13.758  0.0145 -0.1940 -0.1651
  288TMC3    O2 4354   2.967   2.480  14.099  0.2424  0.1149  0.2120
  289MPD2     C 4355   2.887   1.375  14.049 -0.7432  0.4673 -0.2533
  289MPD2    C1 4356   2.897   1.501  13.981  0.9446 -0.6276 -0.5619
  289MPD2    C2 4357   2.793   1.533  13.899  0.3564  0.9070 -0.4504
  289MPD2    C3 4358   2.687   1.449  13.861 -0.4037 -0.4623 -0.5031
  289MPD2    C4 4359   2.694   1.325  13.917 -0.5359 -0.0434  0.3636
  289MPD2    C5 4360   2.786   1.291  14.009 -0.1674 -0.0078 -0.5003
  289MPD2     H 4361   2.788   1.634  13.858 -1.4152  0.9854 -0.0561
  289MPD2    H1 4362   2.618   1.249  13.901  1.8749 -2.7158  1.5851
  289MPD2    H2 4363   2.961   1.350  14.124  0.6218  0.4527 -1.6049
  289MPD2    H3 4364   2.760   1.200  14.062 -0.8122  0.4611 -0.0052
  289MPD2     N 4365   2.582   1.473  13.766 -0.0845 -0.5579 -0.6545
  289MPD2    H5 4366   2.520   1.393  13.757 -1.3402  0.3554 -0.1717
  289MPD2    N1 4367   2.999   1.594  14.023  0.3718  0.0053 -0.5057
  289MPD2    H7 4368   3.064   1.565  14.096 -0.4331 -1.8378 -0.5106
  290TMC3    C1 4369   2.446   1.577  13.607  0.1591  0.5710  0.2692
  290TMC3    C2 4370   2.399   1.697  13.564 -0.7028  0.7194  0.0134
  290TMC3    C3 4371   2.341   1.701  13.441  0.4464  0.2165 -0.1769
  290TMC3    C4 4372   2.436   1.464  13.527  0.2694 -0.0203  0.2774
  290TMC3    C5 4373   2.378   1.475  13.403  0.2709 -0.7536 -0.4327
  290TMC3    C6 4374   2.332   1.593  13.356  0.7598  0.4182 -0.4214
  290TMC3     C 4375   2.553   1.588  13.709  0.2808  0.1649  0.0683
  290TMC3     O 4376   2.595   1.699  13.736 -0.0785  0.0515  0.7280
  290TMC3     H 4377   2.412   1.788  13.622 -1.8955 -0.3336  1.9501
  290TMC3    H1 4378   2.469   1.372  13.573  3.9016  0.1054 -2.0252
  290TMC3    H2 4379   2.291   1.606  13.256 -2.5303  1.7340  1.0789
  290TMC3    C7 4380   2.352   1.361  13.317 -0.1232 -0.0659 -0.2431
  290TMC3    C8 4381   2.257   1.812  13.407 -0.3749 -0.6056  0.6654
  290TMC3    O1 4382   2.264   1.384  13.231  0.1753  0.3658  0.1901
  290TMC3    O2 4383   2.163   1.782  13.327  0.5717 -0.2014 -0.1578
  291MPD2     C 4384   2.533   0.280   0.127 -0.6294  0.4844 -0.3250
  291MPD2    C1 4385   2.437   0.378   0.152 -0.7927 -0.4882 -0.1606
  291MPD2    C2 4386   2.471   0.510   0.132 -0.1259  0.3908  0.6973
  291MPD2    C3 4387   2.592   0.548   0.092 -0.5514  0.3731  0.0385
  291MPD2    C4 4388   2.685   0.452   0.067 -0.2163 -0.3220 -0.0907
  291MPD2    C5 4389   2.659   0.320   0.085  0.3424  0.0352 -0.3785
  291MPD2     H 4390   2.397   0.586   0.152 -1.2280 -0.1276 -1.4298
  291MPD2    H1 4391   2.787   0.483   0.045 -0.3496  0.5425  0.4864
  291MPD2    H2 4392   2.515   0.173   0.131  0.2283  0.3708  0.5055
  291MPD2    H3 4393   2.735   0.244   0.068  1.8476  1.2190  1.0538
  291MPD2     N 4394   2.626   0.680   0.067 -0.4485  0.7433 -0.4118
  291MPD2    H5 4395   2.683   0.696  17.679  2.4452  2.3091  1.9231
  291MPD2    N1 4396   2.308   0.341   0.196  0.6936  0.2242 -0.0255
  291MPD2    H7 4397   2.240   0.414   0.216  1.7866  1.5398 -1.1511
  292TMC3    C1 4398   2.122   0.211   0.239  0.4627  0.1390 -0.1277
  292TMC3    C2 4399   2.064   0.318   0.299  0.2553  0.0601  0.1990
  292TMC3    C3 4400   1.930   0.295   0.340 -0.2486 -0.8874  0.2151
  292TMC3    C4 4401   2.064   0.095   0.221  0.8941 -0.3385  0.1143
  292TMC3    C5 4402   1.935   0.082   0.260  1.0277 -0.6332 -0.2097
  292TMC3    C6 4403   1.867   0.176   0.322  0.3213  0.0955 -0.3298
  292TMC3     C 4404   2.268   0.212   0.220 -0.6568 -0.0603 -0.2530
  292TMC3     O 4405   2.324   0.106   0.202 -0.4784 -0.1034  0.1579
  292TMC3     H 4406   2.102   0.420   0.303  1.4449 -0.3916  0.2463
  292TMC3    H1 4407   2.115   0.013   0.170  1.8071  0.4722 -0.2774
  292TMC3    H2 4408   1.760   0.177   0.339  0.0762  0.8861 -1.9472
  292TMC3    C7 4409   1.871   4.682   0.211  0.2484 -0.6136  0.0743
  292TMC3    C8 4410   1.873   0.392   0.429 -0.4965  0.9336  0.4874
  292TMC3    O1 4411   1.938   4.590   0.167 -0.3530 -0.2270 -0.6434
  292TMC3    O2 4412   1.916   0.505   0.424  0.3221 -0.2533 -0.0108
  293MPD2     C 4413   4.421   3.135  12.461  0.1733  0.7118 -0.0983
  293MPD2    C1 4414   4.302   3.070  12.471 -0.8748 -0.1767  0.4424
  293MPD2    C2 4415   4.260   3.056  12.606  0.1462  0.2506 -0.1285
  293MPD2    C3 4416   4.321   3.117  12.713  0.4527  0.0660  0.5288
  293MPD2    C4 4417   4.446   3.177  12.692  0.5985  0.7358 -0.1755
  293MPD2    C5 4418   4.497   3.185  12.568 -0.2320 -1.0279  0.3930
  293MPD2     H 4419   4.175   2.992  12.626  0.4227  0.4779  1.8008
  293MPD2    H1 4420   4.510   3.222  12.768 -2.3350  2.8925  1.0095
  293MPD2    H2 4421   4.459   3.154  12.361  0.7515 -1.1168 -0.2185
  293MPD2    H3 4422   4.592   3.235  12.557  0.3408 -2.1540  0.2334
  293MPD2     N 4423   4.251   3.120  12.840 -0.1784  0.4085 -0.2911
  293MPD2    H5 4424   4.159   3.077  12.847 -0.1885  0.5878  0.6282
  293MPD2    N1 4425   4.217   3.038  12.359  0.2201 -0.3952 -0.0884
  293MPD2    H7 4426   4.260   3.072  12.274  1.2445  1.3762  1.1416
  294TMC3    C1 4427   4.031   2.957  12.231  0.2816 -0.5339 -0.5375
  294TMC3    C2 4428   3.906   2.911  12.227  0.1512  1.1757  0.6318
  294TMC3    C3 4429   3.848   2.901  12.103  0.2754 -0.4001 -0.4610
  294TMC3    C4 4430   4.101   2.995  12.113 -0.6234  0.4839  0.1873
  294TMC3    C5 4431   4.035   2.978  11.998 -0.3816 -0.2745  0.3964
  294TMC3    C6 4432   3.910   2.925  11.986 -0.4877  0.7503 -0.4605
  294TMC3     C 4433   4.098   2.961  12.361  0.1176 -0.1186  0.6032
  294TMC3     O 4434   4.057   2.901  12.454  0.0154 -0.4214 -0.0591
  294TMC3     H 4435   3.854   2.874  12.314 -0.9838  0.0904 -0.4917
  294TMC3    H1 4436   4.207   3.015  12.120 -0.4764  0.5147 -2.1085
  294TMC3    H2 4437   3.871   2.902  11.888 -0.4302 -1.7187  0.1146
  294TMC3    C7 4438   4.123   2.956  11.886 -0.0955 -0.5739  0.3852
  294TMC3    C8 4439   3.729   2.826  12.104 -0.0695  0.5962  0.3061
  294TMC3    O1 4440   4.228   2.906  11.917 -0.4983 -0.0686  0.2146
  294TMC3    O2 4441   3.670   2.805  12.209 -0.8585  0.3346  0.1944
  295MPD2     C 4442   4.011   1.264   1.011  0.4663  0.9164  0.4841
  295MPD2    C1 4443   3.990   1.182   0.900 -0.4995 -0.0989  0.0447
  295MPD2    C2 4444   3.954   1.055   0.925  0.3917  0.0761  0.9803
  295MPD2    C3 4445   3.959   0.995   1.052  0.2425  0.3314  0.4740
  295MPD2    C4 4446   4.003   1.071   1.155  0.0091 -0.5965  0.3059
  295MPD2    C5 4447   4.015   1.206   1.138  0.5706  0.3701  0.2276
  295MPD2     H 4448   3.935   0.995   0.836 -0.5438 -0.5339  1.5924
  295MPD2    H1 4449   4.017   1.029   1.254 -0.5104  1.3797  1.2181
  295MPD2    H2 4450   4.028   1.370   0.996  3.5753 -0.0898 -3.3614
  295MPD2    H3 4451   4.033   1.264   1.228 -0.3361  1.4268 -0.2649
  295MPD2     N 4452   3.915   0.863   1.082  0.0334  0.2352  0.1837
  295MPD2    H5 4453   3.915   0.840   1.181  1.1277  1.9325  0.5874
  295MPD2    N1 4454   4.014   1.234   0.769 -1.0360 -0.5173  0.2750
  295MPD2    H7 4455   4.003   1.169   0.692  2.8724 -2.0220  0.9909
  296TMC3    C1 4456   3.850   0.648   1.080 -0.7142 -0.2144  0.0479
  296TMC3    C2 4457   3.905   0.630   1.207 -0.1023  0.1788  0.3776
  296TMC3    C3 4458   3.869   0.521   1.279  0.2687  0.5806  0.6086
  296TMC3    C4 4459   3.778   0.551   1.029  0.0673  0.0827  0.1666
  296TMC3    C5 4460   3.733   0.445   1.107 -0.0459 -0.1760  0.4077
  296TMC3    C6 4461   3.779   0.427   1.232 -0.2385 -0.2091 -0.2770
  296TMC3     C 4462   3.882   0.761   1.000  0.0398 -0.0741  0.8220
  296TMC3     O 4463   3.856   0.763   0.878  0.0165  0.0313 -0.0501
  296TMC3     H 4464   3.980   0.700   1.243  1.7057 -1.7260  0.3178
  296TMC3    H1 4465   3.728   0.565   0.934  0.8300 -0.0864 -0.2497
  296TMC3    H2 4466   3.758   0.339   1.291  1.3013  0.2393  0.9251
  296TMC3    C7 4467   3.598   0.392   1.078  0.2906  0.5155 -0.4404
  296TMC3    C8 4468   3.942   0.489   1.399  0.1963 -0.0126  0.0726
  296TMC3    O1 4469   3.547   0.429   0.973  0.0582 -0.2911  0.4107
  296TMC3    O2 4470   3.959   0.373   1.431 -0.7252 -0.5451  0.1706
  297MPD2     C 4471   1.688   3.179  16.513 -0.7452  0.2668  0.4688
  297MPD2    C1 4472   1.665   3.265  16.407  0.7242  0.2718  1.3102
  297MPD2    C2 4473   1.764   3.360  16.370 -0.3018  0.2858 -0.3891
  297MPD2    C3 4474   1.886   3.353  16.445  1.0966 -0.1323  0.8954
  297MPD2    C4 4475   1.910   3.256  16.544 -0.4847  0.8965 -0.6373
  297MPD2    C5 4476   1.805   3.171  16.579 -0.2777 -0.0645  0.7881
  297MPD2     H 4477   1.744   3.427  16.288  0.6916 -1.4599 -2.0375
  297MPD2    H1 4478   2.001   3.263  16.604 -0.1767 -0.2740 -0.9784
  297MPD2    H2 4479   1.614   3.107  16.544  1.7613 -1.7477  1.7081
  297MPD2    H3 4480   1.817   3.113  16.669 -1.2791 -0.9928  0.3165
  297MPD2     N 4481   1.980   3.450  16.415 -0.1891 -0.1233  0.6547
  297MPD2    H5 4482   1.955   3.516  16.342  0.0710 -0.6688  0.0652
  297MPD2    N1 4483   1.542   3.268  16.330 -0.8134  0.0210 -0.2140
  297MPD2    H7 4484   1.545   3.332  16.251 -1.1013  0.0452 -0.2047
  298TMC3    C1 4485   1.321   3.259  16.275 -0.0320  0.9368  0.5904
  298TMC3    C2 4486   1.354   3.249  16.144 -0.0209 -0.1162  0.0666
  298TMC3    C3 4487   1.256   3.285  16.057 -0.5703 -0.0354  0.9614
  298TMC3    C4 4488   1.207   3.318  16.327  0.2281  0.3242 -0.2507
  298TMC3    C5 4489   1.119   3.371  16.234 -0.5975  0.3982  0.8991
  298TMC3    C6 4490   1.139   3.343  16.100 -0.2839  0.4456 -0.3025
  298TMC3     C 4491   1.420   3.221  16.372  0.0038 -0.8163  0.2973
  298TMC3     O 4492   1.389   3.158  16.471 -0.2441 -0.3273  0.0937
  298TMC3     H 4493   1.443   3.192  16.117 -0.4674 -0.2148 -1.1736
  298TMC3    H1 4494   1.200   3.325  16.435 -0.1521  1.5426 -0.3456
  298TMC3    H2 4495   1.077   3.381  16.020  0.3912  0.9473 -0.5901
  298TMC3    C7 4496   1.028   3.472  16.288 -0.2378 -0.4810  0.2737
  298TMC3    C8 4497   1.267   3.252  15.921 -0.3023  0.1995 -0.6750
  298TMC3    O1 4498   1.009   3.483  16.408 -0.3573  0.1069  0.1900
  298TMC3    O2 4499   1.165   3.224  15.861 -0.1867 -0.6651  0.7416
  299MPD2     C 4500   2.481   2.852  10.656  0.4389  0.1026 -0.0809
  299MPD2    C1 4501   2.484   2.860  10.515 -0.1368 -0.0255  0.4082
  299MPD2    C2 4502   2.387   2.786  10.447  0.2799 -0.0027  0.3016
  299MPD2    C3 4503   2.272   2.736  10.504 -0.1597 -0.2129 -0.3448
  299MPD2    C4 4504   2.260   2.747  10.644 -0.0307  0.2679  0.2204
  299MPD2    C5 4505   2.366   2.803  10.720 -0.3776 -0.2473 -0.1971
  299MPD2     H 4506   2.399   2.770  10.341  2.1772  1.8788  0.2268
  299MPD2    H1 4507   2.168   2.707  10.685 -0.0456 -2.1404 -2.1343
  299MPD2    H2 4508   2.563   2.888  10.716  1.3682 -1.5611 -0.3448
  299MPD2    H3 4509   2.362   2.810  10.828 -1.5337 -1.1446 -0.1866
  299MPD2     N 4510   2.157   2.689  10.427  0.0049  0.2431 -0.6743
  299MPD2    H5 4511   2.064   2.682  10.469  1.0629 -0.1480  1.6250
  299MPD2    N1 4512   2.584   2.932  10.458 -0.2203 -0.5033 -0.3230
  299MPD2    H7 4513   2.649   2.977  10.522  2.0624  0.3072 -3.1897
  300TMC3    C1 4514   2.028   2.654  10.231 -0.7867  0.1649  0.3449
  300TMC3    C2 4515   2.019   2.725  10.118  0.0046  0.0080  0.0265
  300TMC3    C3 4516   1.894   2.754  10.066  0.4781 -0.0535 -1.0161
  300TMC3    C4 4517   1.915   2.613  10.298  0.1662 -0.6950  0.2841
  300TMC3    C5 4518   1.797   2.655  10.252 -0.0301  0.2606  0.4260
  300TMC3    C6 4519   1.782   2.722  10.135  0.8123  0.2370 -0.6188
  300TMC3     C 4520   2.160   2.652  10.291 -0.2198 -0.4603 -0.4698
  300TMC3     O 4521   2.248   2.653  10.205 -0.2517  0.2132 -0.4752
  300TMC3     H 4522   2.107   2.762  10.067 -0.4891 -1.7779 -2.1007
  300TMC3    H1 4523   1.926   2.546  10.383 -0.3254 -1.4320 -0.2378
  300TMC3    H2 4524   1.681   2.742  10.102 -0.2350 -0.9337  1.8982
  300TMC3    C7 4525   1.688   2.666  10.352 -0.1072  0.8590  0.4971
  300TMC3    C8 4526   1.888   2.855   9.968 -0.2049 -0.0977  0.7074
  300TMC3    O1 4527   1.665   2.566  10.417  0.3796 -0.1726  0.4841
  300TMC3    O2 4528   1.798   2.842   9.887 -0.1542  0.2191 -0.0224
  301MPD2     C 4529   3.965   3.611   1.532 -0.6311 -0.3611  0.4353
  301MPD2    C1 4530   3.850   3.598   1.463 -0.1272 -0.6878  0.1437
  301MPD2    C2 4531   3.839   3.513   1.360 -0.1393 -0.4684 -0.7487
  301MPD2    C3 4532   3.940   3.423   1.334 -0.3574 -0.2234 -0.2714
  301MPD2    C4 4533   4.063   3.435   1.409  0.0174 -0.5416 -0.0578
  301MPD2    C5 4534   4.070   3.528   1.506 -0.6328 -0.4406 -0.1380
  301MPD2     H 4535   3.749   3.514   1.298  0.1555  1.4539 -1.1580
  301MPD2    H1 4536   4.146   3.368   1.394  0.5773  0.4012 -1.1555
  301MPD2    H2 4537   3.996   3.681   1.609  1.1411  0.2408 -0.8237
  301MPD2    H3 4538   4.163   3.545   1.560 -1.2801 -1.5885  1.3302
  301MPD2     N 4539   3.931   3.323   1.237  0.3620 -0.0874  0.3362
  301MPD2    H5 4540   3.848   3.328   1.180  0.8357 -0.4305 -0.3813
  301MPD2    N1 4541   3.736   3.685   1.481  0.4777  0.4079 -0.8464
  301MPD2    H7 4542   3.651   3.661   1.432  0.7713  0.3035 -1.3034
  302TMC3    C1 4543   4.003   3.183   1.059  0.4653 -0.2462 -0.5724
  302TMC3    C2 4544   4.083   3.085   1.011 -0.5654 -0.3063  0.2110
  302TMC3    C3 4545   4.061   3.044   0.879 -0.3826  0.0619 -0.5710
  302TMC3    C4 4546   3.891   3.230   0.987  1.2963 -0.3711 -0.2652
  302TMC3    C5 4547   3.878   3.182   0.854 -0.3645  0.1870  0.3713
  302TMC3    C6 4548   3.967   3.089   0.792  0.1796  0.5822  0.8568
  302TMC3     C 4549   4.031   3.236   1.197  0.4015 -0.4056  0.5036
  302TMC3     O 4550   4.124   3.190   1.258  0.0357  0.0765 -0.2870
  302TMC3     H 4551   4.173   3.055   1.065  1.0331  0.2797 -2.1309
  302TMC3    H1 4552   3.834   3.317   1.017 -1.6061 -1.5472 -2.3534
  302TMC3    H2 4553   3.955   3.045   0.694  1.1066  0.2722  0.8760
  302TMC3    C7 4554   3.806   3.259   0.762  0.7034 -0.1209  0.3223
  302TMC3    C8 4555   4.157   2.962   0.815 -0.2122  0.8536 -0.4558
  302TMC3    O1 4556   3.831   3.244   0.646 -0.5027  0.3959 -0.5059
  302TMC3    O2 4557   4.161   2.975   0.692  0.3746  0.0552  0.4501
  303MPD2     C 4558   0.081   2.896   9.432 -0.4079 -0.1463 -0.4065
  303MPD2    C1 4559   0.056   2.831   9.559  0.3806  0.8487  0.6879
  303MPD2    C2 4560   0.135   2.718   9.583  0.8626  0.1595 -0.2747
  303MPD2    C3 4561   0.234   2.675   9.497  0.1698  0.1316  0.3065
  303MPD2    C4 4562   0.266   2.752   9.386  0.2908 -0.0182 -0.7455
  303MPD2    C5 4563   0.186   2.858   9.350  0.5465  0.1484  0.4581
  303MPD2     H 4564   0.105   2.652   9.664  0.3488  0.8786  0.1214
  303MPD2    H1 4565   0.332   2.715   9.309  1.9399  1.0829  0.1471
  303MPD2    H2 4566   0.021   2.977   9.392 -1.2588 -2.0324 -2.9222
  303MPD2    H3 4567   0.208   2.908   9.256 -1.3702 -1.1942 -0.7053
  303MPD2     N 4568   0.306   2.552   9.508  0.5327 -0.4327  0.3336
  303MPD2    H5 4569   0.385   2.552   9.445 -0.4080  2.3334 -0.8571
  303MPD2    N1 4570   4.683   2.885   9.652  0.1589 -0.5355  0.2104
  303MPD2    H7 4571   4.616   2.950   9.614  0.3856 -0.7528 -0.5648
  304TMC3    C1 4572   4.540   2.883   9.840  0.5314  0.0033 -0.2672
  304TMC3    C2 4573   4.429   2.869   9.758 -0.5728 -0.3855  0.4698
  304TMC3    C3 4574   4.317   2.807   9.817  0.3873  0.0923 -0.5543
  304TMC3    C4 4575   4.539   2.854   9.970 -0.8374 -0.4307 -0.3006
  304TMC3    C5 4576   4.421   2.819  10.031 -0.2559 -0.9881 -0.4849
  304TMC3    C6 4577   4.310   2.797   9.956  0.1413  0.6061 -0.5703
  304TMC3     C 4578   4.672   2.850   9.783  0.6153  0.0132 -0.2679
  304TMC3     O 4579   0.038   2.794   9.844  0.0519  0.3228  0.3639
  304TMC3     H 4580   4.444   2.862   9.651 -0.4376  0.1410  0.4541
  304TMC3    H1 4581   4.635   2.856  10.021 -0.5604  1.2042 -0.8695
  304TMC3    H2 4582   4.218   2.760   9.999 -0.9723  1.2828 -2.3551
  304TMC3    C7 4583   4.438   2.731  10.146 -0.0433 -0.3945  0.5050
  304TMC3    C8 4584   4.281   2.681   9.756 -0.6521 -0.9042 -0.0654
  304TMC3    O1 4585   4.357   2.641  10.145 -0.3038  0.5852  0.0246
  304TMC3    O2 4586   4.297   2.660   9.637  0.2134  0.4255 -0.1926
  305MPD2     C 4587   2.647   4.709  13.591  0.8189  0.9559  0.8805
  305MPD2    C1 4588   2.699   4.582  13.632  0.3849 -0.0934  0.0648
  305MPD2    C2 4589   2.743   4.495  13.537  0.1133  0.1959  0.2188
  305MPD2    C3 4590   2.739   4.529  13.400 -0.1665 -0.0436  0.2549
  305MPD2    C4 4591   2.679   4.651  13.367 -1.0122 -0.0099  0.2943
  305MPD2    C5 4592   2.626   0.015  13.457  0.0409  0.5729  0.0559
  305MPD2     H 4593   2.796   4.411  13.580 -1.8326  0.0383  2.3246
  305MPD2    H1 4594   2.645   4.668  13.266  3.3262  1.2527 -0.9910
  305MPD2    H2 4595   2.627   0.057  13.670  1.0181  1.5675  0.3724
  305MPD2    H3 4596   2.567   0.101  13.429 -0.2035  0.2856 -0.3033
  305MPD2     N 4597   2.793   4.455  13.295 -0.3733 -0.1512 -0.6757
  305MPD2    H5 4598   2.764   4.476  13.200 -1.7820  1.6714  0.1451
  305MPD2    N1 4599   2.715   4.564  13.773  0.0405  0.0157  0.0634
  305MPD2    H7 4600   2.677   4.637  13.833 -2.8625 -1.0070 -0.5412
  306TMC3    C1 4601   2.804   4.493  13.970 -0.5661 -0.0883  0.8219
  306TMC3    C2 4602   2.798   4.396  14.069  0.3439 -0.6254  0.0300
  306TMC3    C3 4603   2.829   4.443  14.192 -0.2112 -0.2148 -0.3015
  306TMC3    C4 4604   2.852   4.626  13.991 -0.1370 -0.7354  0.1723
  306TMC3    C5 4605   2.890   4.659  14.117  0.1059  1.1114  0.2970
  306TMC3    C6 4606   2.859   4.574  14.218 -0.2386  0.0667 -0.0332
  306TMC3     C 4607   2.770   4.454  13.838 -0.2055 -0.4830 -0.9308
  306TMC3     O 4608   2.804   4.341  13.800  0.1482  0.5634  0.1674
  306TMC3     H 4609   2.751   4.300  14.048 -1.3279  0.1934  0.0545
  306TMC3    H1 4610   2.875   4.697  13.911  2.5180 -1.8248 -0.0417
  306TMC3    H2 4611   2.895   4.605  14.315  0.2629  2.5293 -0.9968
  306TMC3    C7 4612   2.978   0.044  14.140 -0.2233 -0.1050 -0.0383
  306TMC3    C8 4613   2.816   4.352  14.302  0.1459  0.6428  0.1805
  306TMC3    O1 4614   3.025   0.097  14.043  0.2018 -0.3265 -0.1299
  306TMC3    O2 4615   2.825   4.233  14.276 -0.0120 -0.8733 -0.0932
  307MPD2     C 4616   3.916   1.435   1.437 -0.0777 -0.0231 -0.3905
  307MPD2    C1 4617   3.998   1.504   1.352 -0.2317 -0.3841 -0.1669
  307MPD2    C2 4618   3.945   1.602   1.270 -0.4146 -0.2491  0.3008
  307MPD2    C3 4619   3.808   1.618   1.256 -0.0556  0.0649 -0.1754
  307MPD2    C4 4620   3.726   1.549   1.347 -0.2653 -0.0645  0.6352
  307MPD2    C5 4621   3.786   1.461   1.436 -0.4371  0.5439  0.5041
  307MPD2     H 4622   4.009   1.658   1.203  0.7427  0.6767  2.1468
  307MPD2    H1 4623   3.619   1.566   1.353 -0.1133  0.6052  1.4228
  307MPD2    H2 4624   3.947   1.353   1.501 -2.1648 -0.5248 -0.0433
  307MPD2    H3 4625   3.721   1.412   1.506 -1.0623 -0.2977 -0.6664
  307MPD2     N 4626   3.757   1.709   1.158  0.3595  0.5906 -0.3865
  307MPD2    H5 4627   3.825   1.773   1.117  0.3275  0.6207 -0.3922
  307MPD2    N1 4628   4.141   1.487   1.336 -0.7076  0.4674 -0.2134
  307MPD2    H7 4629   4.187   1.561   1.283  0.3964  0.7845  1.1911
  308TMC3    C1 4630   3.578   1.876   0.797  0.4390  0.3542 -0.0491
  308TMC3    C2 4631   3.642   1.998   0.820  0.3398 -0.0770 -0.3052
  308TMC3    C3 4632   3.674   2.024   0.947  0.5895  0.5424  0.1459
  308TMC3    C4 4633   3.561   1.779   0.896  0.4893  0.3248 -0.3260
  308TMC3    C5 4634   3.607   1.813   1.020  0.2060 -0.0136 -0.4711
  308TMC3    C6 4635   3.660   1.930   1.046 -0.0242  0.5761 -0.1531
  308TMC3     C 4636   3.554   1.832   0.664  0.3460  0.1142  0.3365
  308TMC3     O 4637   3.474   1.742   0.646  0.2990  0.1387 -0.3481
  308TMC3     H 4638   3.631   2.072   0.741  1.8298  0.6521  0.1672
  308TMC3    H1 4639   3.520   1.681   0.877 -0.2711  0.0384  2.7530
  308TMC3    H2 4640   3.686   1.945   1.151 -1.8023 -1.9216  0.6319
  308TMC3    C7 4641   3.626   1.709   1.121  0.4332 -0.4195 -0.2494
  308TMC3    C8 4642   3.768   2.134   0.976 -0.7066 -0.1176  0.7756
  308TMC3    O1 4643   3.529   1.639   1.135 -0.0547  0.8421 -0.2988
  308TMC3    O2 4644   3.771   2.174   1.090  0.2270  0.2217 -0.0287
  309MPD2     C 4645   4.409   2.940  16.952  0.1701 -0.2272 -0.2538
  309MPD2    C1 4646   4.361   2.959  16.821 -0.5616  0.1884 -0.1362
  309MPD2    C2 4647   4.221   2.952  16.800  0.8435  0.4675  0.9236
  309MPD2    C3 4648   4.137   2.903  16.898 -0.4800  0.1103  0.0983
  309MPD2    C4 4649   4.183   2.880  17.024 -0.2502 -0.7350 -0.0601
  309MPD2    C5 4650   4.323   2.898  17.051  0.1013 -0.1475 -0.7360
  309MPD2     H 4651   4.187   2.972  16.699 -0.6704 -1.0194  1.1507
  309MPD2    H1 4652   4.125   2.831  17.102 -1.8575  1.3270  0.0532
  309MPD2    H2 4653   4.515   2.950  16.973 -0.5334  1.8826  2.3644
  309MPD2    H3 4654   4.369   2.860  17.142 -1.4347 -0.1715  0.0245
  309MPD2     N 4655   3.998   2.886  16.871 -0.1282 -0.3469  0.0057
  309MPD2    H5 4656   3.939   2.898  16.953 -2.3653  0.5981 -1.7511
  309MPD2    N1 4657   4.444   2.984  16.707  0.2312 -0.0094  0.4251
  309MPD2    H7 4658   4.401   3.004  16.617  0.4361 -0.4127  0.2348
  310TMC3    C1 4659   4.649   2.997  16.572  0.0291  0.3627 -0.1930
  310TMC3    C2 4660   4.591   3.086  16.477  0.3594 -0.0595 -0.2195
  310TMC3    C3 4661   4.650   3.084  16.349 -0.0077  0.4650  1.1653
  310TMC3    C4 4662   0.032   2.921  16.541 -0.1611 -0.2343 -0.2078
  310TMC3    C5 4663   0.080   2.929  16.415  0.5643 -0.2315  0.5291
  310TMC3    C6 4664   0.029   3.006  16.311  0.1735  0.2350  0.7562
  310TMC3     C 4665   4.586   2.975  16.703  0.3143  0.0364 -0.1402
  310TMC3     O 4666   4.653   2.924  16.789 -0.1083  0.1393  0.3177
  310TMC3     H 4667   4.499   3.140  16.497  1.3532  3.1083 -4.0613
  310TMC3    H1 4668   0.057   2.846  16.616  2.2601 -0.5770 -1.3457
  310TMC3    H2 4669   0.064   3.021  16.210 -3.5452  0.8756 -0.4488
  310TMC3    C7 4670   0.159   2.806  16.384 -0.3319  0.0948 -0.6910
  310TMC3    C8 4671   4.561   3.142  16.254 -0.2884 -0.1671  0.6797
  310TMC3    O1 4672   0.119   2.700  16.426 -0.1515 -0.0826 -0.2826
  310TMC3    O2 4673   4.446   3.125  16.283  0.2818 -0.0275 -0.3267
  311MPD2     C 4674   2.039   4.217  12.213 -0.4095  0.5281 -0.2782
  311MPD2    C1 4675   2.023   4.319  12.308 -0.7209  0.1151 -0.2709
  311MPD2    C2 4676   1.897   4.355  12.345  0.0705 -0.2993  0.0582
  311MPD2    C3 4677   1.787   4.283  12.316  0.2351 -0.1279  0.5397
  311MPD2    C4 4678   1.802   4.168  12.238  0.9250  0.2844  0.3821
  311MPD2    C5 4679   1.928   4.137  12.189  0.1395  0.6132  0.1852
  311MPD2     H 4680   1.885   4.439  12.413  0.8536  0.0398 -0.2285
  311MPD2    H1 4681   1.719   4.101  12.222 -0.3873  1.9901  0.0193
  311MPD2    H2 4682   2.134   4.187  12.170 -0.9902 -2.0580  0.2141
  311MPD2    H3 4683   1.947   4.037  12.152 -0.0186 -0.0294  1.8239
  311MPD2     N 4684   1.661   4.322  12.367  1.1528 -0.6832  0.6412
  311MPD2    H5 4685   1.665   4.407  12.422 -1.1650  0.8530 -1.5238
  311MPD2    N1 4686   2.127   4.401  12.359  0.6592 -0.3515 -0.9454
  311MPD2    H7 4687   2.097   4.476  12.421  0.4122 -2.9427  2.0814
  312TMC3    C1 4688   1.430   4.331  12.417  0.4611  0.3689  0.0499
  312TMC3    C2 4689   1.311   4.345  12.351  0.0668 -0.0670  0.4655
  312TMC3    C3 4690   1.224   4.432  12.400 -0.0851  0.0912  0.5232
  312TMC3    C4 4691   1.459   4.408  12.535  0.5925  0.3106 -0.9367
  312TMC3    C5 4692   1.365   4.498  12.574 -1.1270  0.3220 -0.0822
  312TMC3    C6 4693   1.249   4.518  12.504 -0.1587 -0.4462  0.1599
  312TMC3     C 4694   1.538   4.264  12.351  0.3499  0.3783 -0.1347
  312TMC3     O 4695   1.499   4.167  12.287 -0.6578  0.0426 -0.7593
  312TMC3     H 4696   1.279   4.272  12.277  2.9908 -2.0110  1.1096
  312TMC3    H1 4697   1.548   4.392  12.595 -0.4305  1.8312  0.9999
  312TMC3    H2 4698   1.177   4.582  12.554 -1.5187 -4.3945  3.2103
  312TMC3    C7 4699   1.380   4.573  12.698  0.6608 -0.2229  0.2732
  312TMC3    C8 4700   1.090   4.428  12.351  0.6412 -0.2121 -0.0385
  312TMC3    O1 4701   1.337   4.685  12.703  0.8588  0.0447 -0.2086
  312TMC3    O2 4702   1.049   4.316  12.310  0.1369 -0.3004  0.2813
  313MPD2     C 4703   0.842   3.667  10.695 -0.6065  0.1199  0.2886
  313MPD2    C1 4704   0.956   3.747  10.691  0.4139  0.4068 -0.7026
  313MPD2    C2 4705   1.030   3.752  10.576 -0.0270  0.0516  0.0085
  313MPD2    C3 4706   0.995   3.688  10.462  0.1915  0.1980  0.3938
  313MPD2    C4 4707   0.885   3.603  10.471 -0.4836  0.7637 -0.1768
  313MPD2    C5 4708   0.816   3.596  10.584  0.4508  0.0335 -0.0911
  313MPD2     H 4709   1.113   3.820  10.579  1.2295 -1.4410 -0.8775
  313MPD2    H1 4710   0.854   3.537  10.390 -1.4219 -0.6710  1.3529
  313MPD2    H2 4711   0.774   3.664  10.779  0.3683 -0.6862  1.0420
  313MPD2    H3 4712   0.725   3.538  10.585 -0.3012  1.2320  1.6240
  313MPD2     N 4713   1.082   3.703  10.350  0.3210 -0.0185 -0.7717
  313MPD2    H5 4714   1.176   3.741  10.362  0.1422  0.3679 -0.6010
  313MPD2    N1 4715   1.002   3.827  10.799 -0.0332  0.5558 -0.7356
  313MPD2    H7 4716   1.095   3.864  10.779  0.9393 -2.5491 -1.9970
  314TMC3    C1 4717   0.979   3.990  10.963 -0.2426  0.9247 -0.5407
  314TMC3    C2 4718   1.115   3.996  10.966 -0.1900  0.3781 -0.4689
  314TMC3    C3 4719   1.190   4.111  10.947 -0.2452 -0.7502 -1.0744
  314TMC3    C4 4720   0.908   4.111  10.957 -0.3053 -0.0532  0.7145
  314TMC3    C5 4721   0.983   4.222  10.922 -0.4236  0.6378 -0.8401
  314TMC3    C6 4722   1.119   4.225  10.920  0.5692 -0.7807 -0.2718
  314TMC3     C 4723   0.917   3.878  10.886  0.1448 -0.3403 -0.1831
  314TMC3     O 4724   0.794   3.873  10.873 -0.6943  0.3853  0.4236
  314TMC3     H 4725   1.166   3.901  10.955 -1.9959 -0.7135  0.5432
  314TMC3    H1 4726   0.803   4.105  10.931 -0.1161  2.2213 -0.5719
  314TMC3    H2 4727   1.167   4.322  10.911  0.4265 -0.9088 -2.5387
  314TMC3    C7 4728   0.901   4.334  10.875  0.5583  0.0088 -0.2104
  314TMC3    C8 4729   1.330   4.102  10.976 -0.1504 -1.2485 -0.6145
  314TMC3    O1 4730   0.790   4.349  10.923  0.0579 -0.0477 -0.0279
  314TMC3    O2 4731   1.370   3.995  11.014 -0.2200  0.7050 -0.1773
  315MPD2     C 4732   0.530   2.954   0.109 -0.0769  0.4485 -0.1861
  315MPD2    C1 4733   0.659   2.961   0.158  0.0591 -0.1013  0.1648
  315MPD2    C2 4734   0.735   3.069   0.127 -0.4263  0.6782  0.2434
  315MPD2    C3 4735   0.689   3.167   0.048 -0.6832  0.3382  0.5526
  315MPD2    C4 4736   0.564   3.159  17.689  0.5038 -0.4426 -0.5347
  315MPD2    C5 4737   0.493   3.045   0.013  0.5499 -0.1874  0.0097
  315MPD2     H 4738   0.834   3.073   0.170 -0.0462 -2.7203 -0.2836
  315MPD2    H1 4739   0.525   3.236  17.623  2.0951 -1.7888 -3.0342
  315MPD2    H2 4740   0.464   2.872   0.136  0.3643  0.0485 -0.3182
  315MPD2    H3 4741   0.392   3.044  17.668  0.6567 -0.3174 -0.2624
  315MPD2     N 4742   0.774   3.274   0.018  0.4088 -0.5616 -0.1455
  315MPD2    H5 4743   0.871   3.254   0.041  0.0496 -1.5677  0.5085
  315MPD2    N1 4744   0.718   2.864   0.244  0.0657  0.0081 -0.4357
  315MPD2    H7 4745   0.809   2.889   0.281 -0.8746  1.7306  0.6995
  316TMC3    C1 4746   0.860   3.469  17.646 -0.1690  0.1231 -0.1301
  316TMC3    C2 4747   0.943   3.455   0.062  0.1923 -0.0100 -0.2842
  316TMC3    C3 4748   1.007   3.566   0.108  0.1395  0.0645  1.1973
  316TMC3    C4 4749   0.854   3.583  17.573  0.7048 -0.4267 -0.2864
  316TMC3    C5 4750   0.923   3.690  17.622 -0.3167  0.0650 -0.0685
  316TMC3    C6 4751   0.996   3.689   0.042  0.3497 -0.0619 -0.1000
  316TMC3     C 4752   0.742   3.388  17.649  1.5755  0.4309  0.2323
  316TMC3     O 4753   0.646   3.430  17.587 -0.2420  0.1727  0.3304
  316TMC3     H 4754   0.937   3.373   0.132  1.9276  1.8046  2.0118
  316TMC3    H1 4755   0.783   3.597  17.492 -0.5865  0.1639  0.9418
  316TMC3    H2 4756   1.059   3.774   0.066 -2.0081  1.6124  0.1539
  316TMC3    C7 4757   0.911   3.818  17.555 -0.0159 -0.5666 -0.1414
  316TMC3    C8 4758   1.103   3.554   0.218  0.0046  0.6890 -0.2772
  316TMC3    O1 4759   0.937   3.914  17.623 -0.1576  0.5457  0.0418
  316TMC3    O2 4760   1.138   3.656   0.273  0.0854  0.0150  0.0747
  317MPD2     C 4761   2.760   1.986  12.699  0.1921 -0.1746 -0.1666
  317MPD2    C1 4762   2.829   1.877  12.645 -0.3117  0.1229 -0.5250
  317MPD2    C2 4763   2.890   1.786  12.730  0.0149 -0.8610  0.1176
  317MPD2    C3 4764   2.889   1.804  12.865 -0.1710 -0.2314 -0.7676
  317MPD2    C4 4765   2.829   1.915  12.918 -0.1600 -0.3020  0.0803
  317MPD2    C5 4766   2.761   1.998  12.832 -0.3580  0.1257  0.0561
  317MPD2     H 4767   2.952   1.701  12.704  2.8676  1.5354 -0.9478
  317MPD2    H1 4768   2.817   1.934  13.024  1.5383 -0.5127  0.3082
  317MPD2    H2 4769   2.739   2.076  12.641 -1.5534  0.6367  1.7053
  317MPD2    H3 4770   2.725   2.090  12.878  1.1358 -0.1886  1.9032
  317MPD2     N 4771   2.956   1.715  12.947  0.3304  0.0759  0.3947
  317MPD2    H5 4772   2.977   1.628  12.899 -1.7389  0.7563 -1.7625
  317MPD2    N1 4773   2.834   1.853  12.506 -0.4386 -0.3004 -0.6421
  317MPD2    H7 4774   2.897   1.776  12.487 -1.1590 -0.5372 -2.1185
  318TMC3    C1 4775   3.073   1.615  13.111  0.9459  0.2954 -0.3246
  318TMC3    C2 4776   3.009   1.498  13.123  0.6771 -0.5460 -0.0113
  318TMC3    C3 4777   3.061   1.389  13.195  0.4847 -0.3127 -0.2867
  318TMC3    C4 4778   3.192   1.634  13.177 -0.9087 -0.1251  0.7478
  318TMC3    C5 4779   3.243   1.529  13.256  0.0983  0.1708 -0.3071
  318TMC3    C6 4780   3.179   1.409  13.263 -0.0687  0.0367  0.6013
  318TMC3     C 4781   2.999   1.735  13.069 -0.6952 -0.5953  0.1884
  318TMC3     O 4782   3.029   1.841  13.126 -0.3804 -0.0331 -0.2845
  318TMC3     H 4783   2.916   1.494  13.069 -0.1434  0.0508  1.3504
  318TMC3    H1 4784   3.245   1.728  13.170  0.5097 -0.9100  1.0762
  318TMC3    H2 4785   3.214   1.328  13.326  0.9477  0.3712  0.4688
  318TMC3    C7 4786   3.388   1.531  13.271  0.4056 -0.0010 -0.1719
  318TMC3    C8 4787   2.999   1.263  13.211 -0.1572 -0.6765 -0.4758
  318TMC3    O1 4788   3.441   1.642  13.261  0.0288 -0.0019 -0.4595
  318TMC3    O2 4789   3.040   1.186  13.299 -0.0764  0.5503 -0.0917
  319MPD2     C 4790   3.961   2.366  16.435 -0.0888  0.4161  0.6824
  319MPD2    C1 4791   3.849   2.354  16.522  0.6096  0.4440  0.1341
  319MPD2    C2 4792   3.726   2.306  16.478  0.4306  0.1211  0.2739
  319MPD2    C3 4793   3.719   2.272  16.341  0.0641 -0.4303  0.6228
  319MPD2    C4 4794   3.820   2.291  16.251 -0.2917 -0.1845 -0.1790
  319MPD2    C5 4795   3.945   2.338  16.299 -0.1108  0.4928 -0.2937
  319MPD2     H 4796   3.635   2.307  16.538  0.7607  0.2263  0.7701
  319MPD2    H1 4797   3.803   2.268  16.146  0.6215  1.6538 -0.7204
  319MPD2    H2 4798   4.059   2.404  16.462  0.2871 -2.0246  2.6831
  319MPD2    H3 4799   4.028   2.369  16.237 -0.9138  3.0904 -0.0867
  319MPD2     N 4800   3.596   2.235  16.283 -0.4307  0.1575 -0.1526
  319MPD2    H5 4801   3.593   2.224  16.182 -0.6825  0.2490 -0.1550
  319MPD2    N1 4802   3.859   2.390  16.662  0.4056  0.4142  0.0293
  319MPD2    H7 4803   3.778   2.382  16.721 -0.3654  0.2055 -1.0559
  320TMC3    C1 4804   3.369   2.158  16.259  0.2867  0.3455 -0.2269
  320TMC3    C2 4805   3.368   2.202  16.127 -0.0595 -0.5782  0.9875
  320TMC3    C3 4806   3.252   2.200  16.056 -0.1537 -0.2664  0.7412
  320TMC3    C4 4807   3.265   2.099  16.318 -0.3324 -0.3790  0.0723
  320TMC3    C5 4808   3.158   2.083  16.238  0.1939  0.0770 -0.0473
  320TMC3    C6 4809   3.141   2.142  16.111  0.6132  0.2969  0.6898
  320TMC3     C 4810   3.488   2.181  16.343  0.4362  0.4635  0.4264
  320TMC3     O 4811   3.468   2.162  16.462 -0.1520 -0.1075  0.0556
  320TMC3     H 4812   3.452   2.246  16.075 -0.5778  1.8400  2.1775
  320TMC3    H1 4813   3.277   2.059  16.418 -1.8677  0.3002  0.5307
  320TMC3    H2 4814   3.042   2.148  16.069  1.0153  0.2638 -0.2764
  320TMC3    C7 4815   3.059   1.978  16.264  0.2850  0.2155 -0.3867
  320TMC3    C8 4816   3.247   2.308  15.959 -0.4505  0.5977  0.6460
  320TMC3    O1 4817   2.982   1.958  16.169 -0.1876  0.0292  0.3330
  320TMC3    O2 4818   3.325   2.396  15.984 -0.0316 -0.1221 -0.1800
  321TMC3    C1 4819   3.931   2.483  16.865  0.2796  0.5220 -0.3854
  321TMC3    C2 4820   3.844   2.404  16.929  0.4936  0.1981 -0.5169
  321TMC3    C3 4821   3.834   2.428  17.066 -0.5266  0.2559  0.8832
  321TMC3    C4 4822   4.017   2.576  16.920 -0.2607  0.0689  0.0992
  321TMC3    C5 4823   4.022   2.580  17.056 -0.2031 -0.1291  0.0326
  321TMC3    C6 4824   3.920   2.517  17.126 -0.2089 -0.0480  0.2381
  321TMC3     C 4825   3.969   2.445  16.727  0.5533 -0.1277 -0.0070
  321TMC3     O 4826   4.084   2.453  16.691  0.0676  0.7572 -0.0521
  321TMC3     H 4827   3.797   2.316  16.887  0.6165 -0.5449  0.9361
  321TMC3    H1 4828   4.094   2.632  16.868  0.6691 -0.0545  1.3243
  321TMC3    H2 4829   3.897   2.544  17.229 -0.2511  1.9812 -0.3027
  321TMC3    C7 4830   4.146   2.541  17.112  0.1503 -0.0262  0.7857
  321TMC3    C8 4831   3.825   2.310  17.147  0.7649  0.1413  0.1169
  321TMC3    O1 4832   4.239   2.514  17.038 -0.7921  0.7110  0.3436
  321TMC3    O2 4833   3.728   2.301  17.221 -0.5277  0.0272 -0.4750
  322MPD2     C 4834   2.707   4.069  13.401 -0.1286 -0.6785  0.0245
  322MPD2    C1 4835   2.755   3.983  13.497  0.7790  0.2787  0.3392
  322MPD2    C2 4836   2.816   3.862  13.460  0.1917 -0.5533  0.6847
  322MPD2    C3 4837   2.818   3.818  13.324  0.5631 -0.6829 -0.0360
  322MPD2    C4 4838   2.771   3.901  13.228  0.0909  0.6913 -0.5839
  322MPD2    C5 4839   2.714   4.022  13.271 -0.3010 -0.8407 -0.2650
  322MPD2     H 4840   2.871   3.811  13.538  0.5580 -2.4736 -0.8166
  322MPD2    H1 4841   2.758   3.868  13.126  0.5555 -0.8340 -0.1545
  322MPD2    H2 4842   2.668   4.168  13.422  2.1058  0.1145  0.4551
  322MPD2    H3 4843   2.666   4.080  13.193 -1.5985 -0.2695  0.9592
  322MPD2     N 4844   2.888   3.698  13.298  0.0884 -0.4528 -0.4434
  322MPD2    H5 4845   2.927   3.639  13.371 -1.2527 -1.9458 -0.9333
  322MPD2    N1 4846   2.748   4.028  13.634 -0.1816 -0.1494  0.0724
  322MPD2    H7 4847   2.740   4.130  13.635 -0.1487 -0.1655  2.4113
  323TMC3    C1 4848   2.789   3.997  13.866  0.0859 -0.0255  0.1425
  323TMC3    C2 4849   2.902   4.072  13.859  0.3836 -0.4976  0.1842
  323TMC3    C3 4850   2.961   4.092  13.978 -0.1268 -0.3120  0.5233
  323TMC3    C4 4851   2.743   3.939  13.978  0.0464 -0.3277  0.3135
  323TMC3    C5 4852   2.807   3.962  14.096 -0.4517  0.2024 -0.7808
  323TMC3    C6 4853   2.923   4.029  14.094  0.6267 -0.0337  0.0160
  323TMC3     C 4854   2.751   3.941  13.739 -0.6511  0.4812  0.1890
  323TMC3     O 4855   2.729   3.819  13.739  0.2159 -0.7343  0.1976
  323TMC3     H 4856   2.942   4.090  13.760  0.3426  2.1060  0.6344
  323TMC3    H1 4857   2.659   3.872  13.965  0.0386 -0.8239  2.9503
  323TMC3    H2 4858   2.985   4.034  14.183  1.9350 -2.1233 -0.7823
  323TMC3    C7 4859   2.786   3.864  14.197 -0.5091 -0.5366 -0.3538
  323TMC3    C8 4860   3.082   4.180  13.980  0.2073 -0.4254 -0.2370
  323TMC3    O1 4861   2.739   3.761  14.166 -0.3372 -0.3942 -0.0019
  323TMC3    O2 4862   3.171   4.162  14.064  0.3833  0.2979  0.0336
  324MPD2     C 4863   4.164   4.544  14.181  0.0685 -0.0092  0.2601
  324MPD2    C1 4864   4.188   4.670  14.139  0.5489 -0.5923  0.1120
  324MPD2    C2 4865   4.084   0.020  14.077  0.7336  0.0212 -0.2179
  324MPD2    C3 4866   3.953   4.704  14.076 -0.0537 -0.1695  0.3446
  324MPD2    C4 4867   3.924   4.576  14.133 -0.5271  0.1400 -0.5857
  324MPD2    C5 4868   4.030   4.502  14.178  0.1290  0.5543 -0.5269
  324MPD2     H 4869   4.111   0.115  14.032 -2.0679  1.7041  1.6369
  324MPD2    H1 4870   3.834   4.516  14.119 -0.6544  0.1356  0.2296
  324MPD2    H2 4871   4.245   4.487  14.226 -0.4379 -0.9868 -0.0727
  324MPD2    H3 4872   3.999   4.403  14.209 -1.4402  1.2020  0.0201
  324MPD2     N 4873   3.853   0.056  14.010 -0.7398  0.3383 -0.5214
  324MPD2    H5 4874   3.760   0.016  14.017 -1.2455  1.2672 -1.8823
  324MPD2    N1 4875   4.316   4.722  14.121 -0.4566  0.4095  0.0328
  324MPD2    H7 4876   4.316   0.089  14.075 -0.7852  0.1204 -0.5381
  325TMC3    C1 4877   3.770   0.227  13.873 -0.6498  0.1857 -0.2000
  325TMC3    C2 4878   3.637   0.202  13.919  0.4779  0.0038  0.1015
  325TMC3    C3 4879   3.539   0.295  13.894 -0.1310 -0.1555 -0.4379
  325TMC3    C4 4880   3.807   0.338  13.800 -0.3475  0.6254  1.0146
  325TMC3    C5 4881   3.703   0.422  13.778  0.0589  0.3089 -0.0793
  325TMC3    C6 4882   3.573   0.406  13.823 -0.0136 -0.5490 -0.8762
  325TMC3     C 4883   3.880   0.161  13.926  0.6442 -0.3153  0.1438
  325TMC3     O 4884   3.987   0.201  13.884  0.1873  0.2346  0.2366
  325TMC3     H 4885   3.614   0.112  13.975 -0.0074  1.5429  2.3809
  325TMC3    H1 4886   3.908   0.375  13.782 -0.1757 -0.0759  0.5439
  325TMC3    H2 4887   3.502   0.487  13.808  0.5469  0.3617  1.3408
  325TMC3    C7 4888   3.737   0.548  13.714  0.9709 -0.1088  0.8043
  325TMC3    C8 4889   3.410   0.235  13.868 -0.3896  0.0860  0.9652
  325TMC3    O1 4890   3.828   0.539  13.632 -0.4622 -0.1353  0.3977
  325TMC3    O2 4891   3.405   0.120  13.838  0.6492  0.0738 -1.0546
  326MPD2     C 4892   1.033   1.264  11.093  0.0252  0.9716 -0.4060
  326MPD2    C1 4893   1.046   1.317  10.966  0.3231  0.1113  0.5041
  326MPD2    C2 4894   1.128   1.425  10.938  0.0334 -0.0448  0.3336
  326MPD2    C3 4895   1.196   1.489  11.039  0.8836  0.1473 -0.1086
  326MPD2    C4 4896   1.179   1.445  11.168  0.3171 -0.4692  0.4410
  326MPD2    C5 4897   1.096   1.338  11.194  0.0680 -0.6857 -0.3569
  326MPD2     H 4898   1.140   1.454  10.834 -0.3504  0.2538  0.3696
  326MPD2    H1 4899   1.210   1.503  11.254  0.6881 -1.8353  1.2245
  326MPD2    H2 4900   0.968   1.184  11.124 -0.4153  1.5717  0.2272
  326MPD2    H3 4901   1.066   1.316  11.296  0.2681  0.1052 -0.1215
  326MPD2     N 4902   1.283   1.593  11.021  0.1088 -0.2437  0.1984
  326MPD2    H5 4903   1.338   1.628  11.099 -0.1750  0.7072 -0.0305
  326MPD2    N1 4904   0.978   1.258  10.853 -0.4797 -0.0355 -0.3189
  326MPD2    H7 4905   0.990   1.307  10.765  3.3114 -0.9563 -0.2880
  327TMC3    C1 4906   0.850   1.111  10.739 -0.2699 -0.5032  0.0779
  327TMC3    C2 4907   0.769   1.206  10.677 -0.1463 -0.2681 -0.5347
  327TMC3    C3 4908   0.775   1.218  10.544  0.5775 -0.1297  0.2182
  327TMC3    C4 4909   0.934   1.028  10.675  0.4592  0.5628 -0.7515
  327TMC3    C5 4910   0.943   1.048  10.538 -0.2498 -0.1363 -0.3198
  327TMC3    C6 4911   0.861   1.139  10.476  0.5976  0.8218 -0.2171
  327TMC3     C 4912   0.897   1.146  10.864 -0.4836 -0.6641  0.6298
  327TMC3     O 4913   0.908   1.053  10.942 -0.7369 -0.9117 -0.0080
  327TMC3     H 4914   0.711   1.276  10.736 -0.9875  0.7238 -2.5228
  327TMC3    H1 4915   1.008   0.969  10.728  0.3362  0.0887 -1.1020
  327TMC3    H2 4916   0.885   1.163  10.374  0.1881  2.0222 -0.0261
  327TMC3    C7 4917   1.081   1.079  10.498  0.4487  0.1990  0.0827
  327TMC3    C8 4918   0.732   1.350  10.499  0.2711  0.0480 -0.5892
  327TMC3    O1 4919   1.108   1.084  10.380  0.1982  0.2624  0.0063
  327TMC3    O2 4920   0.811   1.424  10.441  0.1231 -0.0529 -0.5627
  328MPD2     C 4921   2.949   0.694  16.689 -0.7094 -0.8169 -0.9282
  328MPD2    C1 4922   2.832   0.705  16.614  0.1319 -0.0568  0.1721
  328MPD2    C2 4923   2.733   0.794  16.644 -0.4127  0.0804  0.3740
  328MPD2    C3 4924   2.747   0.884  16.749 -0.1421  0.4109 -0.4956
  328MPD2    C4 4925   2.871   0.874  16.811  0.4076 -0.1214 -0.3083
  328MPD2    C5 4926   2.966   0.784  16.787 -0.4180 -0.1268  0.8748
  328MPD2     H 4927   2.639   0.795  16.589  0.4898 -0.7648 -1.1739
  328MPD2    H1 4928   2.893   0.956  16.878  0.3777  0.6588 -1.2515
  328MPD2    H2 4929   3.026   0.624  16.659  0.3545 -0.4384  0.9494
  328MPD2    H3 4930   3.054   0.788  16.850  1.1467 -0.4105 -1.2805
  328MPD2     N 4931   2.647   0.975  16.794  0.2107  0.5716  0.2127
  328MPD2    H5 4932   2.671   1.026  16.878 -1.4699  0.3144  0.8433
  328MPD2    N1 4933   2.795   0.607  16.522 -0.0085 -0.2194 -1.0897
  328MPD2    H7 4934   2.703   0.616  16.482 -1.0260 -0.6548  1.1140
  329TMC3    C1 4935   2.774   0.398  16.628  0.9592 -0.5316  0.0850
  329TMC3    C2 4936   2.657   0.453  16.671  0.2122 -0.1422  0.1682
  329TMC3    C3 4937   2.624   0.444  16.805 -0.0566  0.2063  0.4988
  329TMC3    C4 4938   2.846   0.313  16.720  0.7508  0.4368  0.0277
  329TMC3    C5 4939   2.788   0.288  16.845  0.1135 -0.2099  0.2311
  329TMC3    C6 4940   2.688   0.367  16.894  0.8492  0.4085  0.1216
  329TMC3     C 4941   2.848   0.477  16.528 -0.2280 -0.2416  0.0862
  329TMC3     O 4942   2.967   0.449  16.519 -0.7867  0.2027 -0.2168
  329TMC3     H 4943   2.598   0.519  16.609  1.2258 -1.3548 -2.1191
  329TMC3    H1 4944   2.944   0.275  16.695  0.5292 -0.4412  0.4679
  329TMC3    H2 4945   2.651   0.361  16.996  0.7849 -2.1860 -0.0525
  329TMC3    C7 4946   2.864   0.213  16.938  0.0096  0.1582  0.0521
  329TMC3    C8 4947   2.528   0.538  16.859 -0.4261  0.0039 -0.4912
  329TMC3    O1 4948   2.840   0.227  17.058  0.5609 -0.0889 -0.1728
  329TMC3    O2 4949   2.433   0.557  16.785  0.4917  0.3751 -0.3098
  330TMC3    C1 4950   1.797   0.802   8.975  0.0694 -0.3385 -0.0437
  330TMC3    C2 4951   1.680   0.820   9.047  0.4202  0.3092  0.1264
  330TMC3    C3 4952   1.641   0.713   9.126  0.0436  0.4312 -0.7723
  330TMC3    C4 4953   1.866   0.685   8.968 -0.0991  0.2402  0.3855
  330TMC3    C5 4954   1.817   0.580   9.045  0.0628 -0.3680  0.0655
  330TMC3    C6 4955   1.707   0.591   9.121 -0.2111  0.1266 -0.0208
  330TMC3     C 4956   1.874   0.908   8.911 -0.0091  0.8130 -1.3665
  330TMC3     O 4957   1.994   0.889   8.902 -0.2310  0.6209  0.0103
  330TMC3     H 4958   1.640   0.919   9.063  0.0247 -0.0074  1.0987
  330TMC3    H1 4959   1.955   0.678   8.907  0.7789 -1.2343  1.8273
  330TMC3    H2 4960   1.672   0.517   9.192 -1.8300  2.9909  2.1285
  330TMC3    C7 4961   1.903   0.462   9.047 -0.2134  0.2430 -0.0359
  330TMC3    C8 4962   1.546   0.724   9.230  0.1557  0.1573  0.0765
  330TMC3    O1 4963   2.002   0.460   8.972  0.2884  0.1903 -0.6390
  330TMC3    O2 4964   1.563   0.821   9.303 -0.2261  0.4358 -0.2124
  331MPD2     C 4965   3.698   4.397  12.655  0.0127 -0.0384 -0.0458
  331MPD2    C1 4966   3.719   4.480  12.547 -0.1533  0.1236  0.5545
  331MPD2    C2 4967   3.744   4.430  12.422 -0.6758 -0.5887  0.5990
  331MPD2    C3 4968   3.762   4.291  12.412 -0.3832 -0.6598  0.2507
  331MPD2    C4 4969   3.755   4.212  12.524 -1.2096 -0.1491  0.0337
  331MPD2    C5 4970   3.708   4.264  12.640  0.5257 -0.5140  0.5357
  331MPD2     H 4971   3.753   4.492  12.333 -1.1198 -2.1462 -0.5179
  331MPD2    H1 4972   3.794   4.112  12.531 -0.1598  0.0307 -3.4406
  331MPD2    H2 4973   3.667   4.440  12.750 -0.1548 -0.9639  0.3217
  331MPD2    H3 4974   3.708   4.206  12.731 -1.4674  1.2739  1.6777
  331MPD2     N 4975   3.807   4.230  12.295  0.0637 -0.5590 -0.2274
  331MPD2    H5 4976   3.827   4.132  12.314 -0.4442 -0.8234 -1.0453
  331MPD2    N1 4977   3.712   4.621  12.572 -0.4741  0.0372  0.5637
  331MPD2    H7 4978   3.699   4.656  12.667 -0.1061 -1.1904  1.0720
  332TMC3    C1 4979   3.905   4.198  12.074 -0.2496  0.0049 -0.2908
  332TMC3    C2 4980   3.954   4.268  11.963  0.3062  0.2202 -0.3663
  332TMC3    C3 4981   4.060   4.207  11.896 -0.4520  0.6084  0.1415
  332TMC3    C4 4982   3.947   4.076  12.107 -0.5082  0.8015  0.6029
  332TMC3    C5 4983   4.062   4.033  12.048 -0.4019 -0.2039 -0.8306
  332TMC3    C6 4984   4.116   4.096  11.943 -0.0140 -0.8489 -0.5503
  332TMC3     C 4985   3.831   4.287  12.169 -0.1601  0.1909  0.8221
  332TMC3     O 4986   3.795   4.397  12.130 -0.5080  0.1634 -0.2985
  332TMC3     H 4987   3.942   4.374  11.949 -3.1491  0.0293  1.1054
  332TMC3    H1 4988   3.918   4.035  12.203 -1.6294  1.2245  0.4378
  332TMC3    H2 4989   4.207   4.063  11.895  0.6925 -0.6006  0.6270
  332TMC3    C7 4990   4.145   3.947  12.137  0.2550  0.3329  0.2085
  332TMC3    C8 4991   4.150   4.302  11.838 -0.1142 -0.0267  0.4816
  332TMC3    O1 4992   4.092   3.881  12.224  0.7427 -0.3557  0.4010
  332TMC3    O2 4993   4.266   4.293  11.880  0.1190  0.2480 -0.7069
  333MPD2     C 4994   4.320   0.320  11.108 -0.4595  0.0478  0.3449
  333MPD2    C1 4995   4.362   0.245  11.002  0.0582  1.0153  0.2286
  333MPD2    C2 4996   4.311   0.118  10.994  0.4695 -0.3458  0.3569
  333MPD2    C3 4997   4.218   0.073  11.079 -0.4569 -0.3742 -0.3698
  333MPD2    C4 4998   4.178   0.153  11.180 -0.7427  0.6237 -0.6618
  333MPD2    C5 4999   4.227   0.276  11.201  1.0581  0.9310  0.0589
  333MPD2     H 5000   4.346   0.053  10.915  1.3158  2.6437 -1.7127
  333MPD2    H1 5001   4.103   0.120  11.251  0.7314  2.1352  1.5698
  333MPD2    H2 5002   4.362   0.420  11.120  0.8416 -0.4499 -0.0454
  333MPD2    H3 5003   4.188   0.337  11.282 -1.4414  3.0588 -2.7174
  333MPD2     N 5004   4.178   4.660  11.060 -0.9570 -0.2204  0.6459
  333MPD2    H5 5005   4.220   4.606  10.985  1.2633  3.1256 -0.5617
  333MPD2    N1 5006   4.468   0.289  10.925 -0.0288 -0.0507 -0.0098
  333MPD2    H7 5007   4.523   0.365  10.962  3.2336 -1.6687 -1.4996
  334TMC3    C1 5008   4.633   0.322  10.757 -0.6016  0.2230 -0.1157
  334TMC3    C2 5009   0.003   0.257  10.685 -0.2772  0.3573 -0.3593
  334TMC3    C3 5010   0.100   0.335  10.629  0.4282  0.0760 -0.8573
  334TMC3    C4 5011   4.627   0.454  10.787 -0.7042 -0.3076 -0.3706
  334TMC3    C5 5012   0.004   0.531  10.725  0.2576 -0.3645 -0.1509
  334TMC3    C6 5013   0.095   0.473  10.641  0.7295 -0.9404  0.1582
  334TMC3     C 5014   4.523   0.236  10.814 -0.7947 -0.1763 -0.0896
  334TMC3     O 5015   4.502   0.126  10.759  0.0266  0.8328  0.0201
  334TMC3     H 5016   0.009   0.149  10.676  1.1977  0.4219 -0.1502
  334TMC3    H1 5017   4.551   0.505  10.845 -1.4250 -0.0887 -1.4975
  334TMC3    H2 5018   0.170   0.533  10.589 -0.0751 -0.1997 -0.1484
  334TMC3    C7 5019   0.003   0.674  10.732 -0.2004 -0.2386 -0.1708
  334TMC3    C8 5020   0.179   0.269  10.523 -0.2611 -0.4090  0.0682
  334TMC3    O1 5021   0.085   0.742  10.670  0.2987  0.6749  0.7330
  334TMC3    O2 5022   0.131   0.158  10.489 -0.2145 -0.4372  0.2266
  335TMC3    C1 5023   3.438   1.123  17.074 -0.5494  0.4677 -0.6496
  335TMC3    C2 5024   3.386   1.092  16.951 -0.0589 -0.9058 -0.9881
  335TMC3    C3 5025   3.479   1.074  16.851 -0.3905 -0.3087 -0.2774
  335TMC3    C4 5026   3.571   1.145  17.099 -0.0334 -0.1083 -0.1158
  335TMC3    C5 5027   3.655   1.145  16.989 -0.3716  0.2315 -0.0218
  335TMC3    C6 5028   3.612   1.098  16.865  0.2917 -0.6428 -0.0998
  335TMC3     C 5029   3.350   1.074  17.175 -0.2742  0.1060 -0.2429
  335TMC3     O 5030   3.252   1.002  17.151 -0.1477  0.0467  0.2837
  335TMC3     H 5031   3.279   1.082  16.937 -0.2689  2.6212 -1.8767
  335TMC3    H1 5032   3.608   1.176  17.196  0.6266  1.4860 -0.8758
  335TMC3    H2 5033   3.678   1.086  16.780  1.7767 -0.1875  0.9969
  335TMC3    C7 5034   3.799   1.130  17.010 -0.8229  0.8468 -0.4245
  335TMC3    C8 5035   3.442   0.969  16.767 -0.5228 -0.6724 -0.5526
  335TMC3    O1 5036   3.859   1.142  16.906 -0.5219  0.4252 -0.5021
  335TMC3    O2 5037   3.502   0.955  16.661  0.1704  0.1246  0.5895
  336MPD2     C 5038   3.670   3.503  15.966  0.6479 -0.3528 -0.2852
  336MPD2    C1 5039   3.590   3.464  15.862 -0.7208 -0.1064  0.3915
  336MPD2    C2 5040   3.566   3.327  15.838  1.1467 -0.4035 -0.6932
  336MPD2    C3 5041   3.607   3.235  15.936  0.2213 -0.4555 -0.3612
  336MPD2    C4 5042   3.687   3.277  16.042  0.2949  0.1394 -0.1872
  336MPD2    C5 5043   3.713   3.407  16.052 -0.8913  0.2499 -0.1943
  336MPD2     H 5044   3.502   3.288  15.760  0.7856 -0.9809 -0.1173
  336MPD2    H1 5045   3.724   3.205  16.114  0.8930  0.9218  0.2867
  336MPD2    H2 5046   3.696   3.606  15.990 -2.0159  0.5618 -1.2474
  336MPD2    H3 5047   3.771   3.443  16.136 -0.8293 -0.2320 -0.0353
  336MPD2     N 5048   3.593   3.095  15.930 -0.3286 -0.3848  0.0728
  336MPD2    H5 5049   3.633   3.054  16.013 -0.2121 -1.5784 -0.5693
  336MPD2    N1 5050   3.529   3.551  15.770  0.8538 -0.4709  0.4555
  336MPD2    H7 5051   3.462   3.517  15.701  2.0100 -2.6083  0.3910
  337TMC3    C1 5052   3.441   3.760  15.698  0.3540  0.0219 -0.7445
  337TMC3    C2 5053   3.322   3.697  15.651  0.3051 -0.5923 -0.0760
  337TMC3    C3 5054   3.222   3.774  15.594  0.3597 -0.1912 -0.2414
  337TMC3    C4 5055   3.450   3.896  15.689  0.2500  0.5386  0.0094
  337TMC3    C5 5056   3.347   3.969  15.627 -0.1727 -0.0342  0.1519
  337TMC3    C6 5057   3.231   3.905  15.589 -0.2846  0.1217  0.2366
  337TMC3     C 5058   3.534   3.690  15.786  0.2782  0.2149  0.5383
  337TMC3     O 5059   3.595   3.767  15.858  0.6231 -0.1053 -0.4319
  337TMC3     H 5060   3.316   3.588  15.650 -2.8757 -0.4371  2.0793
  337TMC3    H1 5061   3.538   3.949  15.724 -0.2615  0.9995  0.5840
  337TMC3    H2 5062   3.151   3.963  15.545 -0.6876  0.2571  1.1482
  337TMC3    C7 5063   3.331   4.109  15.669  0.5601 -0.4820 -0.6431
  337TMC3    C8 5064   3.091   3.713  15.601  0.9294  0.3187  0.3778
  337TMC3    O1 5065   3.215   4.139  15.684  0.1393 -0.6912 -0.4899
  337TMC3    O2 5066   3.089   3.598  15.646 -0.3115  0.0030 -0.3965
  338MPD2     C 5067   3.994   2.598   0.494 -0.1679  0.1977  0.5786
  338MPD2    C1 5068   3.927   2.638   0.379 -0.3421 -0.6195 -0.0858
  338MPD2    C2 5069   3.842   2.749   0.394  0.4948  0.4049 -0.8641
  338MPD2    C3 5070   3.813   2.802   0.518  0.5372 -0.0260  0.1116
  338MPD2    C4 5071   3.886   2.764   0.619 -0.4725  0.1164 -0.8378
  338MPD2    C5 5072   3.969   2.664   0.613  0.8907 -0.2879  0.0385
  338MPD2     H 5073   3.781   2.783   0.311 -0.0865  0.7779 -0.2823
  338MPD2    H1 5074   3.880   2.811   0.716 -0.8782 -1.1113 -0.2757
  338MPD2    H2 5075   4.055   2.508   0.495 -2.4673 -1.3830 -1.0615
  338MPD2    H3 5076   4.020   2.631   0.703  0.1886  0.2058  0.6174
  338MPD2     N 5077   3.705   2.890   0.532 -0.4138  0.2159  0.4741
  338MPD2    H5 5078   3.660   2.922   0.447 -0.1494  0.6659  0.5063
  338MPD2    N1 5079   3.936   2.568   0.253  0.7350  0.0557  0.3334
  338MPD2    H7 5080   3.870   2.609   0.188  0.0137 -1.1305  0.3106
  339TMC3    C1 5081   3.532   3.020   0.633  0.1871  1.6407 -0.2188
  339TMC3    C2 5082   3.442   3.027   0.742  0.4616 -0.2657  0.2643
  339TMC3    C3 5083   3.334   3.117   0.732  0.1995  1.0088 -0.6316
  339TMC3    C4 5084   3.517   3.103   0.516 -0.1289  0.4642 -0.3006
  339TMC3    C5 5085   3.405   3.183   0.517  0.1284  0.6115  0.1594
  339TMC3    C6 5086   3.311   3.189   0.616  0.1878 -0.0048 -0.4101
  339TMC3     C 5087   3.643   2.929   0.651  0.0603 -0.6581  1.0016
  339TMC3     O 5088   3.667   2.881   0.757 -0.0630 -0.1370 -0.4180
  339TMC3     H 5089   3.462   2.974   0.834 -0.3956 -1.1127 -0.0434
  339TMC3    H1 5090   3.604   3.103   0.452 -1.5464 -0.6845 -2.2181
  339TMC3    H2 5091   3.225   3.252   0.601  0.3153  0.2732  0.0367
  339TMC3    C7 5092   3.371   3.269   0.400  0.0164  0.0994 -0.0813
  339TMC3    C8 5093   3.237   3.149   0.833 -0.1374  0.3071 -0.0269
  339TMC3    O1 5094   3.271   3.337   0.397 -0.0433 -0.6724  0.2119
  339TMC3    O2 5095   3.138   3.212   0.795 -0.2694 -0.0764 -0.0586
  340MPD2     C 5096   4.178   1.362   9.911  0.3980 -0.0981  0.4942
  340MPD2    C1 5097   4.134   1.229   9.933  0.0207 -0.4793  0.1239
  340MPD2    C2 5098   4.123   1.188  10.063  0.3528  0.8867  0.0147
  340MPD2    C3 5099   4.149   1.271  10.167 -0.4924 -0.0494  0.2634
  340MPD2    C4 5100   4.188   1.401  10.142 -0.6954  0.5334 -0.0266
  340MPD2    C5 5101   4.199   1.445  10.013  0.4550 -0.0824 -0.5044
  340MPD2     H 5102   4.094   1.084  10.079  1.7309  0.3679 -0.7985
  340MPD2    H1 5103   4.224   1.472  10.215  1.6158  0.9440 -1.5471
  340MPD2    H2 5104   4.186   1.406   9.813 -0.0694  1.2415  1.0573
  340MPD2    H3 5105   4.225   1.547   9.986 -1.2792  0.6981  0.8013
  340MPD2     N 5106   4.141   1.229  10.303  0.3809 -0.2368 -0.3886
  340MPD2    H5 5107   4.150   1.300  10.375 -2.4405  0.3001 -0.5489
  340MPD2    N1 5108   4.116   1.155   9.812 -0.0619  0.0606 -0.4743
  340MPD2    H7 5109   4.152   1.195   9.726  1.3146  0.1623  0.1541
  341TMC3    C1 5110   4.072   0.960   9.671  0.1999 -0.2366  0.0088
  341TMC3    C2 5111   3.996   0.846   9.653  0.7429  0.5508  0.0744
  341TMC3    C3 5112   4.010   0.782   9.533 -0.5281 -0.2800 -0.3888
  341TMC3    C4 5113   4.123   1.022   9.563 -0.1870  0.0001 -0.7844
  341TMC3    C5 5114   4.129   0.964   9.436  0.1145 -0.1334 -0.2252
  341TMC3    C6 5115   4.079   0.839   9.426  0.7226  0.5063  0.7863
  341TMC3     C 5116   4.066   1.026   9.807 -0.6262  0.4899  0.9595
  341TMC3     O 5117   4.035   0.958   9.900 -0.5195  0.2223  0.1878
  341TMC3     H 5118   3.951   0.802   9.740  1.1747 -0.1634 -0.0645
  341TMC3    H1 5119   4.176   1.117   9.557 -1.5734  0.7473 -1.1962
  341TMC3    H2 5120   4.077   0.788   9.330 -1.5170  0.5460  0.8180
  341TMC3    C7 5121   4.231   0.997   9.334 -0.1758 -0.4392  0.2151
  341TMC3    C8 5122   3.972   0.640   9.543 -0.4960  1.0408  0.8625
  341TMC3    O1 5123   4.304   0.904   9.292  0.1345 -0.3784 -0.4590
  341TMC3    O2 5124   3.929   0.587   9.441  0.2394 -0.4037  0.2759
  342MPD2     C 5125   1.914   3.847  16.714  0.1833 -0.2447 -0.4195
  342MPD2    C1 5126   1.872   3.782  16.833  0.1497  0.6249  0.4815
  342MPD2    C2 5127   1.780   3.846  16.918  0.4496 -0.2586  0.3935
  342MPD2    C3 5128   1.750   3.983  16.897 -0.0903 -0.9656  0.2345
  342MPD2    C4 5129   1.790   4.042  16.776 -0.2056  1.1405 -0.3906
  342MPD2    C5 5130   1.866   3.974  16.689 -0.4386 -0.0470  0.3526
  342MPD2     H 5131   1.743   3.790  17.004  0.2680  2.4518  2.0721
  342MPD2    H1 5132   1.765   4.146  16.762 -0.6743  1.2735  1.4005
  342MPD2    H2 5133   1.971   3.802  16.633  0.9543  1.7739 -0.9834
  342MPD2    H3 5134   1.876   4.009  16.587  1.6363 -0.5162  0.3983
  342MPD2     N 5135   1.694   4.063  16.986 -0.0713  0.5948  0.0324
  342MPD2    H5 5136   1.692   4.162  16.962  2.3573  0.3427 -1.1400
  342MPD2    N1 5137   1.917   3.651  16.866  0.5442 -0.1951 -0.4523
  342MPD2    H7 5138   1.866   3.608  16.943 -0.6881 -0.3569 -1.3727
  343TMC3    C1 5139   2.043   3.449  16.843  0.2065  0.4614 -1.0116
  343TMC3    C2 5140   2.172   3.397  16.823  0.1878 -0.8241 -0.3778
  343TMC3    C3 5141   2.175   3.262  16.837 -0.0979  0.4783  0.3146
  343TMC3    C4 5142   1.927   3.389  16.889 -0.2271  0.3473  0.3789
  343TMC3    C5 5143   1.946   3.257  16.920  0.1408 -0.3464  0.2415
  343TMC3    C6 5144   2.065   3.193  16.884  0.3922 -1.0518 -0.5896
  343TMC3     C 5145   2.028   3.587  16.810 -0.2812 -0.2814  0.5867
  343TMC3     O 5146   2.116   3.634  16.737  0.8054  0.8597  0.0022
  343TMC3     H 5147   2.253   3.458  16.786  0.2961 -2.1751 -2.3669
  343TMC3    H1 5148   1.829   3.431  16.906 -0.0891  1.4565 -1.5464
  343TMC3    H2 5149   2.080   3.090  16.915  2.3775 -0.3005  0.9682
  343TMC3    C7 5150   1.864   3.195  17.027 -0.0599 -0.3321  0.4799
  343TMC3    C8 5151   2.283   3.188  16.774 -0.3382  0.0402  0.0784
  343TMC3    O1 5152   1.757   3.245  17.052 -0.0652 -0.4366 -0.6130
  343TMC3    O2 5153   2.257   3.077  16.733  0.3675  0.3027 -0.3457
  344MPD2     C 5154   2.636   3.555   9.892 -0.4406  0.2428 -0.0934
  344MPD2    C1 5155   2.733   3.572   9.988 -0.2920  0.1491 -0.1537
  344MPD2    C2 5156   2.816   3.682   9.976 -0.0010  0.0092 -0.1716
  344MPD2    C3 5157   2.809   3.777   9.875  0.3633  0.5824 -0.6168
  344MPD2    C4 5158   2.705   3.759   9.788  0.5728  0.0184  0.3348
  344MPD2    C5 5159   2.625   3.649   9.791 -0.4428 -0.6018 -0.1038
  344MPD2     H 5160   2.892   3.696  10.053  1.2079 -0.1233 -1.3395
  344MPD2    H1 5161   2.693   3.831   9.708  1.6130 -0.8601 -0.6172
  344MPD2    H2 5162   2.571   3.469   9.886 -0.0444  0.0852 -1.9823
  344MPD2    H3 5163   2.540   3.632   9.726  0.7492  0.7851 -2.0166
  344MPD2     N 5164   2.897   3.886   9.861  0.8106 -0.1311 -0.7175
  344MPD2    H5 5165   2.865   3.947   9.787 -1.1806  0.2863  0.4836
  344MPD2    N1 5166   2.753   3.475  10.088 -0.0574 -0.8966  0.1805
  344MPD2    H7 5167   2.848   3.464  10.122 -0.9182  0.2217  2.9444
  345TMC3    C1 5168   3.089   4.015   9.899  0.5725 -0.3154 -0.3177
  345TMC3    C2 5169   3.228   4.005   9.917 -0.3808  0.0775 -0.0567
  345TMC3    C3 5170   3.315   4.104   9.870  0.2972  0.0265 -0.3153
  345TMC3    C4 5171   3.040   4.113   9.809  0.8544 -0.3006  0.3636
  345TMC3    C5 5172   3.126   4.204   9.763 -0.2735  0.1182  0.7059
  345TMC3    C6 5173   3.261   4.212   9.794 -0.5832  0.2704  0.5075
  345TMC3     C 5174   3.019   3.890   9.926 -0.1909  0.4402  0.1342
  345TMC3     O 5175   3.076   3.808   9.999  0.3388 -0.2831 -0.3936
  345TMC3     H 5176   3.274   3.926   9.976 -1.3846 -1.1541 -0.9262
  345TMC3    H1 5177   2.932   4.118   9.801  1.0137 -1.7105 -2.5066
  345TMC3    H2 5178   3.324   4.292   9.757 -1.9622  0.6275 -1.0405
  345TMC3    C7 5179   3.088   4.334   9.716 -0.0620  0.4813 -0.2011
  345TMC3    C8 5180   3.454   4.092   9.909 -0.1602  0.1951  0.2624
  345TMC3    O1 5181   3.149   4.435   9.737  0.0482  0.0059 -0.4793
  345TMC3    O2 5182   3.476   4.014  10.000 -0.0679 -0.3752 -0.1157
  346MPD2     C 5183   2.942   0.936  14.192 -0.3694 -0.1070  0.6908
  346MPD2    C1 5184   3.026   0.944  14.086  0.4313  0.2231  0.4043
  346MPD2    C2 5185   3.153   0.983  14.111 -0.0087  0.5460  0.6231
  346MPD2    C3 5186   3.201   1.014  14.235 -0.0476  0.8455  0.5188
  346MPD2    C4 5187   3.110   1.011  14.344 -0.0898 -0.2619  0.0383
  346MPD2    C5 5188   2.986   0.967  14.317  0.0106  0.3220  0.4867
  346MPD2     H 5189   3.219   1.001  14.026 -2.0474 -0.9632 -1.2911
  346MPD2    H1 5190   3.141   1.046  14.442 -1.7256 -0.3295  0.5833
  346MPD2    H2 5191   2.836   0.917  14.178 -0.5124  0.9604  0.3226
  346MPD2    H3 5192   2.912   0.961  14.395 -0.7468 -1.0767 -0.3493
  346MPD2     N 5193   3.331   1.059  14.249 -0.2527  0.0243  0.9170
  346MPD2    H5 5194   3.385   1.066  14.163 -0.4105 -1.7358  0.6679
  346MPD2    N1 5195   2.984   0.923  13.949  0.7659 -0.3023 -0.5846
  346MPD2    H7 5196   3.056   0.931  13.878 -0.2027  1.1574 -1.4008
  347TMC3    C1 5197   3.537   1.112  14.331  0.3818 -0.0949 -0.0633
  347TMC3    C2 5198   3.566   1.171  14.216  0.3906 -0.1500  0.1862
  347TMC3    C3 5199   3.678   1.162  14.140 -0.2773 -0.2527  0.0256
  347TMC3    C4 5200   3.633   1.030  14.382 -0.1773 -0.7037  0.1118
  347TMC3    C5 5201   3.757   1.021  14.309  0.5024  0.2580 -0.1545
  347TMC3    C6 5202   3.778   1.087  14.194  0.4666  0.1709 -0.0385
  347TMC3     C 5203   3.405   1.065  14.364  0.3755 -0.8744 -1.5979
  347TMC3     O 5204   3.386   0.998  14.465 -0.5252  0.1976 -0.0925
  347TMC3     H 5205   3.485   1.229  14.173  0.4198  0.2376  0.6524
  347TMC3    H1 5206   3.622   0.984  14.480  0.7483  1.7995  1.3941
  347TMC3    H2 5207   3.869   1.076  14.136  0.4185  0.2464 -0.1292
  347TMC3    C7 5208   3.837   0.903  14.345  0.1681  0.0448  0.2833
  347TMC3    C8 5209   3.642   1.104  14.016 -0.1719  0.6182 -0.2467
  347TMC3    O1 5210   3.783   0.822  14.417  0.2402 -0.3478  0.2147
  347TMC3    O2 5211   3.528   1.058  14.002  0.4414  0.5315  0.1128
  348MPD2     C 5212   1.888   0.408  11.804 -0.2875 -0.1126  0.1910
  348MPD2    C1 5213   2.010   0.469  11.777 -0.5485 -0.2521  0.5743
  348MPD2    C2 5214   2.023   0.565  11.672  0.1951  0.2274  0.6759
  348MPD2    C3 5215   1.914   0.606  11.600 -0.0440  0.0485 -0.1984
  348MPD2    C4 5216   1.795   0.555  11.635 -0.3944  0.2414  0.7870
  348MPD2    C5 5217   1.783   0.457  11.729 -0.8552  0.3478  0.2247
  348MPD2     H 5218   2.120   0.603  11.643 -0.8132  2.7967  0.6913
  348MPD2    H1 5219   1.707   0.598  11.589  0.0630  1.3354  0.9342
  348MPD2    H2 5220   1.863   0.342  11.886  1.5322  0.7259  1.4296
  348MPD2    H3 5221   1.687   0.412  11.752 -0.3430  0.9426  3.5478
  348MPD2     N 5222   1.928   0.687  11.488  0.2182  0.1096  0.7012
  348MPD2    H5 5223   2.022   0.723  11.473 -1.1585  3.5314  0.3850
  348MPD2    N1 5224   2.126   0.425  11.848  0.4577 -0.3663 -0.4159
  348MPD2    H7 5225   2.211   0.460  11.805 -0.6370  2.2715 -0.4583
  349TMC3    C1 5226   2.261   0.323  11.989  0.7424  0.0541  0.1879
  349TMC3    C2 5227   2.274   0.187  11.983  0.0755  0.1324  0.2871
  349TMC3    C3 5228   2.368   0.128  11.907  0.1089 -0.1494 -0.7041
  349TMC3    C4 5229   2.345   0.400  11.915 -0.7983 -0.3338 -0.1398
  349TMC3    C5 5230   2.438   0.334  11.835 -0.1475  0.0007  0.4900
  349TMC3    C6 5231   2.459   0.202  11.831 -0.3520  0.4315  0.5856
  349TMC3     C 5232   2.129   0.362  11.970 -0.0511  0.5615  0.1773
  349TMC3     O 5233   2.044   0.339  12.051  0.1793  0.0902  0.2756
  349TMC3     H 5234   2.187   0.133  12.018 -0.8813  0.9231 -0.8668
  349TMC3    H1 5235   2.338   0.507  11.903 -1.8410 -0.0797  2.7071
  349TMC3    H2 5236   2.535   0.162  11.766 -1.3742  0.2113 -0.4822
  349TMC3    C7 5237   2.441   0.406  11.710 -0.6825 -0.0300 -0.2460
  349TMC3    C8 5238   2.387   4.710  11.921 -0.0668  0.2160 -0.9448
  349TMC3    O1 5239   2.461   0.527  11.724 -0.0443  0.0707  0.3478
  349TMC3    O2 5240   2.319   4.657  12.009  0.1525  0.1231 -0.3527
  350MPD2     C 5241   0.815   3.094   9.705  0.1374 -0.3530  0.0065
  350MPD2    C1 5242   0.942   3.065   9.753 -0.0225  0.0695 -0.4215
  350MPD2    C2 5243   1.025   3.163   9.792  0.0511  0.6992 -0.3543
  350MPD2    C3 5244   0.987   3.290   9.768 -0.1827 -0.0396 -0.1635
  350MPD2    C4 5245   0.861   3.326   9.733  0.3241  0.0408  0.8967
  350MPD2    C5 5246   0.771   3.224   9.700  0.0300  0.2068  0.5602
  350MPD2     H 5247   1.126   3.138   9.821  0.0119  0.3330 -0.5316
  350MPD2    H1 5248   0.817   3.425   9.741 -1.4856 -0.5759 -1.3861
  350MPD2    H2 5249   0.751   3.012   9.675 -0.9264 -0.0602  1.5352
  350MPD2    H3 5250   0.674   3.245   9.656  1.3777  0.3944 -2.3206
  350MPD2     N 5251   1.083   3.388   9.798  0.2863  0.0329 -0.3011
  350MPD2    H5 5252   1.167   3.357   9.846  1.1639  1.3735 -0.9710
  350MPD2    N1 5253   0.994   2.935   9.783 -0.0539  1.0924 -0.2568
  350MPD2    H7 5254   1.092   2.924   9.806 -0.5944 -1.4122  0.8092
  351TMC3    C1 5255   0.994   2.706   9.814 -0.3123  0.4273  0.4212
  351TMC3    C2 5256   1.135   2.700   9.788 -0.0558 -0.0673 -0.9560
  351TMC3    C3 5257   1.195   2.588   9.815 -0.1976  0.7510  0.1778
  351TMC3    C4 5258   0.924   2.599   9.857  0.0833 -1.1779  0.0993
  351TMC3    C5 5259   1.000   2.489   9.878 -0.3559 -0.3509 -0.2393
  351TMC3    C6 5260   1.133   2.475   9.852 -0.2800 -0.3063  0.4110
  351TMC3     C 5261   0.914   2.821   9.795  0.3194  0.3822 -0.4553
  351TMC3     O 5262   0.790   2.819   9.794 -0.2790  0.3366 -0.0860
  351TMC3     H 5263   1.191   2.777   9.737 -0.6457  1.9757  1.4738
  351TMC3    H1 5264   0.816   2.594   9.866 -0.0823 -0.2566 -1.3668
  351TMC3    H2 5265   1.185   2.380   9.845  0.9483  0.3803  0.2314
  351TMC3    C7 5266   0.924   2.365   9.919 -0.2155 -0.7699  0.0790
  351TMC3    C8 5267   1.334   2.576   9.785 -0.1262 -0.3278 -0.2917
  351TMC3    O1 5268   0.978   2.256   9.890  0.5392 -0.2515  0.2876
  351TMC3    O2 5269   1.381   2.620   9.679  0.1548 -0.0692  0.1913
  352MPD2     C 5270   3.053   4.499   1.495  0.2188 -0.1975  0.2516
  352MPD2    C1 5271   3.160   4.472   1.412  0.2590 -0.6906 -0.8438
  352MPD2    C2 5272   3.236   4.363   1.450  0.2712 -0.1276 -0.4016
  352MPD2    C3 5273   3.208   4.294   1.564  1.5028 -0.7941 -0.3941
  352MPD2    C4 5274   3.107   4.333   1.647  0.1053 -0.7794 -0.2183
  352MPD2    C5 5275   3.027   4.432   1.612  1.2274 -0.2136 -0.3959
  352MPD2     H 5276   3.314   4.328   1.383  0.2700 -0.9657  0.0512
  352MPD2    H1 5277   3.081   4.280   1.738  2.1090 -0.2225  0.6745
  352MPD2    H2 5278   2.979   4.570   1.460 -0.1537 -1.6772 -1.9852
  352MPD2    H3 5279   2.935   4.457   1.663  0.7858 -0.5724 -1.0148
  352MPD2     N 5280   3.281   4.190   1.627 -0.5282 -0.1717 -0.0088
  352MPD2    H5 5281   3.239   4.148   1.710 -0.8568 -1.6800 -0.9454
  352MPD2    N1 5282   3.168   4.540   1.290  0.3972 -0.8988  0.9136
  352MPD2    H7 5283   3.091   4.602   1.265  1.5648  0.5277  0.8965
  353TMC3    C1 5284   3.426   4.004   1.639  0.4481  0.4520 -0.1184
  353TMC3    C2 5285   3.554   3.960   1.627  0.0616  0.3552 -0.3646
  353TMC3    C3 5286   3.585   3.835   1.583 -0.3903  0.1523 -0.0307
  353TMC3    C4 5287   3.326   3.912   1.618 -0.2702 -0.2329  0.1754
  353TMC3    C5 5288   3.354   3.781   1.599  0.0014 -0.0417  0.1625
  353TMC3    C6 5289   3.483   3.739   1.574  0.4392 -0.3397  0.1479
  353TMC3     C 5290   3.396   4.131   1.578 -0.3501 -0.5652 -0.2137
  353TMC3     O 5291   3.465   4.175   1.486 -0.0802  0.1221  0.6695
  353TMC3     H 5292   3.628   4.037   1.609 -0.8144  1.7302  1.8300
  353TMC3    H1 5293   3.222   3.940   1.617 -0.1257  0.3509  1.4518
  353TMC3    H2 5294   3.493   3.635   1.546  0.2018 -0.0165 -1.1098
  353TMC3    C7 5295   3.262   3.722   1.498 -0.1174  0.5512 -0.2139
  353TMC3    C8 5296   3.725   3.787   1.567  0.9181  0.1578  0.3175
  353TMC3    O1 5297   3.214   3.803   1.416 -0.4404  0.4487 -0.7712
  353TMC3    O2 5298   3.815   3.844   1.629  0.5168 -0.2404  0.6719
  354TMC3    C1 5299   1.196   1.590  13.475 -0.3232  0.0838 -0.7909
  354TMC3    C2 5300   1.180   1.727  13.479 -0.2710 -0.1475 -0.6063
  354TMC3    C3 5301   1.196   1.802  13.364  0.0275 -0.3583 -0.5320
  354TMC3    C4 5302   1.191   1.521  13.356 -0.0077  0.3714 -0.1169
  354TMC3    C5 5303   1.187   1.597  13.240 -0.5848  0.3411  0.8190
  354TMC3    C6 5304   1.198   1.733  13.244 -0.1447 -1.2750 -0.4037
  354TMC3     C 5305   1.176   1.523  13.596  0.7569 -0.6881 -0.0925
  354TMC3     O 5306   1.137   1.583  13.696 -0.3642  0.2677  0.1955
  354TMC3     H 5307   1.184   1.779  13.575 -1.6110 -0.9265 -0.1361
  354TMC3    H1 5308   1.159   1.418  13.351  0.7430  0.1418 -0.2564
  354TMC3    H2 5309   1.206   1.783  13.148 -0.0574 -1.1568 -0.3352
  354TMC3    C7 5310   1.153   1.522  13.120 -0.0602  0.4079  0.1249
  354TMC3    C8 5311   1.211   1.945  13.372 -0.1993  0.5186  0.3397
  354TMC3    O1 5312   1.112   1.406  13.141  0.3259 -0.1155 -0.3770
  354TMC3    O2 5313   1.211   1.998  13.484 -0.0188  0.9165  0.7606
  355MPD2     C 5314   1.504   2.335  11.918 -0.5218  0.7551 -0.2974
  355MPD2    C1 5315   1.456   2.397  11.809  0.1949 -0.2508  0.8411
  355MPD2    C2 5316   1.550   2.441  11.718 -0.3566  0.1539  0.2743
  355MPD2    C3 5317   1.683   2.446  11.750 -0.1323  0.6903  0.1308
  355MPD2    C4 5318   1.732   2.387  11.864  0.8811  0.0541  0.1856
  355MPD2    C5 5319   1.639   2.328  11.945 -0.1997 -0.1973  0.3644
  355MPD2     H 5320   1.517   2.484  11.624 -1.0428 -1.4879 -0.2249
  355MPD2    H1 5321   1.838   2.389  11.887  0.7585  0.1457  0.7314
  355MPD2    H2 5322   1.428   2.284  11.976 -1.0314  0.0295 -1.6091
  355MPD2    H3 5323   1.688   2.285  12.032  0.9071  1.2885  0.4854
  355MPD2     N 5324   1.771   2.519  11.665  0.4873  0.3907  0.0677
  355MPD2    H5 5325   1.866   2.523  11.700  0.6605  0.1296 -0.3622
  355MPD2    N1 5326   1.316   2.389  11.792 -0.4121  0.0802 -0.1270
  355MPD2    H7 5327   1.269   2.322  11.852  3.0009 -2.4271 -0.2689
  356TMC3    C1 5328   1.849   2.688  11.535 -0.2231  0.5306 -0.3185
  356TMC3    C2 5329   1.872   2.729  11.410  0.4707 -1.5874  0.3284
  356TMC3    C3 5330   1.910   2.854  11.377 -0.6947  0.4478 -0.9981
  356TMC3    C4 5331   1.856   2.785  11.632  0.1615 -0.1242 -0.3904
  356TMC3    C5 5332   1.893   2.916  11.600  0.7259  0.5163 -0.3378
  356TMC3    C6 5333   1.915   2.952  11.478 -0.6439 -0.6380  0.2067
  356TMC3     C 5334   1.746   2.590  11.554 -0.0181 -0.2205  0.2350
  356TMC3     O 5335   1.654   2.575  11.472 -0.7894  0.0684  0.3836
  356TMC3     H 5336   1.850   2.657  11.333 -0.5726  0.2465 -1.1002
  356TMC3    H1 5337   1.842   2.749  11.733 -0.9386  0.7519 -0.2198
  356TMC3    H2 5338   1.943   3.055  11.458 -0.8069 -0.4166  1.1466
  356TMC3    C7 5339   1.906   3.005  11.712  0.3068 -0.1322  0.3285
  356TMC3    C8 5340   1.946   2.880  11.237 -0.4949  0.2642 -0.5072
  356TMC3    O1 5341   1.846   2.968  11.813 -0.2369  0.3408 -0.5650
  356TMC3    O2 5342   1.917   2.795  11.152  0.5153  0.0298 -0.2129
  357MPD2     C 5343   0.600   1.954   0.584 -0.9657  0.7894  0.4807
  357MPD2    C1 5344   0.632   1.833   0.639 -0.2127 -0.3991 -0.3352
  357MPD2    C2 5345   0.575   1.804   0.765  0.2436  0.1992  0.2055
  357MPD2    C3 5346   0.493   1.894   0.834 -0.0686  0.0059  0.2334
  357MPD2    C4 5347   0.472   2.019   0.780  0.9270  0.2265 -0.6102
  357MPD2    C5 5348   0.525   2.046   0.654  0.2375  0.1348  0.3721
  357MPD2     H 5349   0.590   1.704   0.805  3.7175  1.2600  1.5515
  357MPD2    H1 5350   0.426   2.100   0.836 -0.0169 -1.2784  0.8427
  357MPD2    H2 5351   0.644   1.979   0.489 -0.1069 -0.0523  0.6521
  357MPD2    H3 5352   0.508   2.144   0.609  0.5928 -1.2051 -2.6577
  357MPD2     N 5353   0.440   1.863   0.964  0.2763 -0.0661 -0.0352
  357MPD2    H5 5354   0.367   1.927   0.995 -0.6760 -0.4499 -1.5057
  357MPD2    N1 5355   0.716   1.750   0.567 -0.3476  0.1785 -0.2875
  357MPD2    H7 5356   0.766   1.783   0.484  0.7732 -2.6539 -0.7312
  358TMC3    C1 5357   0.844   1.563   0.512  0.5559 -0.6763 -0.2732
  358TMC3    C2 5358   0.860   1.623   0.387 -0.3870  0.4421  0.3100
  358TMC3    C3 5359   0.971   1.593   0.314  0.0002  0.0823  0.3457
  358TMC3    C4 5360   0.926   1.466   0.560  0.1234  0.3156  0.2935
  358TMC3    C5 5361   1.038   1.445   0.487  0.8333 -0.2138  0.0238
  358TMC3    C6 5362   1.065   1.513   0.375 -0.0349  0.4588 -0.8645
  358TMC3     C 5363   0.756   1.624   0.609  0.7430  0.8974  0.3659
  358TMC3     O 5364   0.717   1.559   0.704  0.1388 -0.1576 -0.2581
  358TMC3     H 5365   0.781   1.683   0.343  1.5381  2.1670 -0.7588
  358TMC3    H1 5366   0.903   1.428   0.659 -1.5516  3.3506  1.0860
  358TMC3    H2 5367   1.145   1.470   0.316 -0.9930 -2.2736 -0.1870
  358TMC3    C7 5368   1.123   1.343   0.545  0.1517  0.0824 -0.7260
  358TMC3    C8 5369   1.004   1.663   0.196 -0.1773  0.1462 -0.2532
  358TMC3    O1 5370   1.242   1.338   0.515 -0.3824 -0.3402  0.6427
  358TMC3    O2 5371   0.906   1.692   0.130 -0.1953 -0.2904 -0.2421
  359MPD2     C 5372   1.406   0.737  12.592 -0.2069  0.1339  1.0717
  359MPD2    C1 5373   1.384   0.846  12.507  0.2395 -0.6900  0.7571
  359MPD2    C2 5374   1.264   0.909  12.518  0.2513 -0.1405 -0.8506
  359MPD2    C3 5375   1.169   0.866  12.608 -0.4680  0.4544  0.1161
  359MPD2    C4 5376   1.187   0.750  12.678  0.1381  0.0938 -0.1324
  359MPD2    C5 5377   1.309   0.688  12.677  0.5591 -0.3120 -0.7003
  359MPD2     H 5378   1.258   1.006  12.469 -1.7073  1.5552  2.7552
  359MPD2    H1 5379   1.103   0.706  12.730 -0.9714  0.4903 -1.5741
  359MPD2    H2 5380   1.495   0.677  12.579  0.5489  1.4840 -0.1267
  359MPD2    H3 5381   1.308   0.603  12.745 -1.1238  1.6046  1.6543
  359MPD2     N 5382   1.042   0.920  12.642 -0.1209  0.1257 -0.0845
  359MPD2    H5 5383   1.003   0.883  12.728 -0.0508  0.9050  0.2841
  359MPD2    N1 5384   1.478   0.891  12.406 -0.0554 -0.0636  0.2756
  359MPD2    H7 5385   1.458   0.970  12.345 -0.3735  1.5174  2.4031
  360TMC3    C1 5386   1.672   0.933  12.293 -0.0338  0.3218 -0.3628
  360TMC3    C2 5387   1.788   0.984  12.343 -0.4027 -0.8109 -0.0954
  360TMC3    C3 5388   1.859   1.052  12.251 -0.4879 -0.4576 -0.5507
  360TMC3    C4 5389   1.617   0.953  12.169  0.2388  0.6263  0.7435
  360TMC3    C5 5390   1.688   1.037  12.085 -0.3093  0.0122  0.4936
  360TMC3    C6 5391   1.813   1.086  12.126  0.7826  0.2909 -0.4368
  360TMC3     C 5392   1.603   0.845  12.388 -0.3947  0.8003 -0.7373
  360TMC3     O 5393   1.675   0.782  12.461  0.2995  0.1497 -0.0415
  360TMC3     H 5394   1.845   0.942  12.425  1.1728  0.6899 -0.4034
  360TMC3    H1 5395   1.520   0.911  12.145  1.8252 -0.3858 -3.8977
  360TMC3    H2 5396   1.863   1.165  12.072  0.2449  1.4891  0.8169
  360TMC3    C7 5397   1.663   1.054  11.940 -0.4178  0.4957 -0.1319
  360TMC3    C8 5398   2.004   1.068  12.275  1.0794 -0.3864 -0.0444
  360TMC3    O1 5399   1.701   1.162  11.895 -0.5182  0.3910  0.2492
  360TMC3    O2 5400   2.028   1.078  12.396 -0.4917 -0.6915  0.1447
  361MPD2     C 5401   2.851   4.376  16.207  0.0681 -0.2901  0.0145
  361MPD2    C1 5402   2.860   4.424  16.337  0.8354 -0.5715  0.2531
  361MPD2    C2 5403   2.943   4.360  16.428 -0.1876 -0.0773 -0.2012
  361MPD2    C3 5404   3.027   4.258  16.386 -0.0108 -0.3849 -0.7338
  361MPD2    C4 5405   3.023   4.224  16.256 -0.3268  0.7133 -0.4076
  361MPD2    C5 5406   2.942   4.279  16.170 -0.4699  0.2335  0.3504
  361MPD2     H 5407   2.940   4.390  16.532  0.5366 -1.5141  0.2350
  361MPD2    H1 5408   3.088   4.151  16.211 -1.3890  0.2949 -1.2629
  361MPD2    H2 5409   2.782   4.418  16.135  0.9996  2.1205  0.5275
  361MPD2    H3 5410   2.938   4.239  16.069 -0.5177 -1.1995  0.9273
  361MPD2     N 5411   3.112   4.180  16.470  0.1229  0.4708  0.1871
  361MPD2    H5 5412   3.152   4.095  16.431  0.9436  0.6362  0.6588
  361MPD2    N1 5413   2.780   4.536  16.379 -0.3077 -0.3602  0.5693
  361MPD2    H7 5414   2.794   4.564  16.475  0.6385  1.0094  0.0465
  362TMC3    C1 5415   2.643   0.006  16.382 -0.1250  0.4224  0.2578
  362TMC3    C2 5416   2.594   4.714  16.506  1.1298 -0.4544 -0.4959
  362TMC3    C3 5417   2.524   0.086  16.571 -0.7702 -0.4547 -0.7907
  362TMC3    C4 5418   2.612   0.122  16.314 -0.2849 -0.0234 -0.5751
  362TMC3    C5 5419   2.547   0.227  16.383  0.2366 -0.1725 -0.8458
  362TMC3    C6 5420   2.503   0.209  16.516  0.1387  0.3189 -0.3212
  362TMC3     C 5421   2.703   4.625  16.306 -0.4819 -0.1247 -0.0690
  362TMC3     O 5422   2.702   4.636  16.183 -0.3889 -0.2282  0.4403
  362TMC3     H 5423   2.629   4.630  16.564 -0.5205 -1.7373 -1.3494
  362TMC3    H1 5424   2.660   0.127  16.217 -0.3854 -1.9105 -0.7241
  362TMC3    H2 5425   2.447   0.291  16.558  0.0933 -1.3631  2.9374
  362TMC3    C7 5426   2.530   0.358  16.316 -0.0363  0.1765 -0.2069
  362TMC3    C8 5427   2.508   0.072  16.718 -0.8461 -0.5722  0.6294
  362TMC3    O1 5428   2.447   0.428  16.366  0.5750 -0.0570 -0.5702
  362TMC3    O2 5429   2.531   4.684  16.758 -0.0154 -0.5291 -0.5404
  363TMC3    C1 5430   2.429   3.009   9.288  0.6012 -0.1488 -1.0318
  363TMC3    C2 5431   2.398   2.905   9.367 -0.4694  0.5134  0.5430
  363TMC3    C3 5432   2.268   2.897   9.411  0.4244  0.1946 -0.3586
  363TMC3    C4 5433   2.345   3.114   9.261  0.6639  0.9676  0.0373
  363TMC3    C5 5434   2.223   3.111   9.324  0.5345  0.0801 -0.3748
  363TMC3    C6 5435   2.180   3.000   9.391  0.6442 -0.1865 -0.7520
  363TMC3     C 5436   2.562   3.015   9.234  1.0628 -0.1331 -0.5680
  363TMC3     O 5437   2.621   2.911   9.237 -0.1518  0.4833  0.0055
  363TMC3     H 5438   2.466   2.824   9.390  0.2426  0.6035 -1.2329
  363TMC3    H1 5439   2.365   3.187   9.184 -0.1276  1.6278  0.4547
  363TMC3    H2 5440   2.077   2.988   9.425  1.8670 -1.7914  2.3683
  363TMC3    C7 5441   2.135   3.213   9.298  0.5102  0.1578 -0.1455
  363TMC3    C8 5442   2.229   2.805   9.526  0.4690 -0.0272  0.4617
  363TMC3    O1 5443   2.020   3.174   9.286 -0.0189  0.1290 -0.4541
  363TMC3    O2 5444   2.138   2.845   9.596  0.7573 -0.0880 -0.3293
  364MPD2     C 5445   0.391   1.732  10.536  0.2046  0.1730 -0.4123
  364MPD2    C1 5446   0.525   1.735  10.511  1.2085 -0.0718  0.3872
  364MPD2    C2 5447   0.591   1.612  10.501  0.2843  0.5650  0.4301
  364MPD2    C3 5448   0.534   1.490  10.535 -0.0937 -0.4907  0.4902
  364MPD2    C4 5449   0.397   1.493  10.564 -0.1333  0.6372  0.2502
  364MPD2    C5 5450   0.326   1.607  10.554 -0.0507 -0.2653  0.4625
  364MPD2     H 5451   0.694   1.614  10.467 -0.0915  2.4120 -0.5711
  364MPD2    H1 5452   0.334   1.407  10.587  0.3014 -0.4956 -2.9073
  364MPD2    H2 5453   0.340   1.827  10.547  1.1411  0.7351 -0.9080
  364MPD2    H3 5454   0.220   1.597  10.573  0.0818 -0.4927  1.0657
  364MPD2     N 5455   0.606   1.371  10.541 -0.1995 -0.3726  0.3515
  364MPD2    H5 5456   0.559   1.285  10.566 -0.1220 -0.1103  1.4181
  364MPD2    N1 5457   0.584   1.860  10.492 -0.2554  0.4763  0.0915
  364MPD2    H7 5458   0.534   1.943  10.522  1.6309  1.2875  1.0222
  365TMC3    C1 5459   0.749   2.020  10.424 -0.0011  0.2577  0.3171
  365TMC3    C2 5460   0.875   2.037  10.371  0.3928 -0.3053 -0.3404
  365TMC3    C3 5461   0.910   2.163  10.338 -0.1133 -0.8199  0.6922
  365TMC3    C4 5462   0.671   2.124  10.448 -1.0409  0.2569  0.0212
  365TMC3    C5 5463   0.719   2.251  10.420 -0.4653  1.3085  0.1292
  365TMC3    C6 5464   0.836   2.272  10.353 -0.5547 -0.3780  0.0897
  365TMC3     C 5465   0.709   1.881  10.435 -0.3044 -0.3415 -0.6262
  365TMC3     O 5466   0.773   1.800  10.369 -0.1459 -0.6842  0.1831
  365TMC3     H 5467   0.949   1.957  10.371 -0.9941 -1.5964  0.7277
  365TMC3    H1 5468   0.574   2.101  10.491 -0.5606  1.2086  1.5951
  365TMC3    H2 5469   0.888   2.363  10.323 -1.3251 -0.4375 -1.4576
  365TMC3    C7 5470   0.643   2.363  10.466 -0.1679 -0.0697  0.0153
  365TMC3    C8 5471   1.021   2.163  10.249 -0.1283  0.0672 -0.8629
  365TMC3    O1 5472   0.673   2.475  10.432 -0.4031 -0.3232 -0.2826
  365TMC3    O2 5473   1.086   2.265  10.246  0.4542  0.0633 -0.2612
  366MPD2     C 5474   2.919   2.432  15.214  0.1036 -0.2385  0.2508
  366MPD2    C1 5475   3.022   2.517  15.176 -0.4167 -0.8475  0.3305
  366MPD2    C2 5476   3.126   2.477  15.094  0.6021 -0.8360 -0.3500
  366MPD2    C3 5477   3.127   2.341  15.058 -0.1328 -0.8374 -0.0285
  366MPD2    C4 5478   3.025   2.253  15.093  0.1906  0.3111 -0.8000
  366MPD2    C5 5479   2.923   2.304  15.170  0.4600 -0.8548 -0.2155
  366MPD2     H 5480   3.210   2.540  15.066 -2.5861  4.0023  0.9219
  366MPD2    H1 5481   3.017   2.150  15.059  1.2832  0.6267 -1.9975
  366MPD2    H2 5482   2.832   2.465  15.270 -0.5088  0.0169 -0.8489
  366MPD2    H3 5483   2.841   2.235  15.186 -0.1624  0.0655  0.5701
  366MPD2     N 5484   3.236   2.303  14.985 -0.3701 -0.3427  0.2363
  366MPD2    H5 5485   3.291   2.380  14.950 -0.8742  0.7130  1.7447
  366MPD2    N1 5486   3.030   2.650  15.214 -0.1185 -0.0582  0.3839
  366MPD2    H7 5487   3.114   2.701  15.187 -0.2551  0.0867  0.2363
  367TMC3    C1 5488   2.949   2.866  15.235 -0.0636  0.2116 -0.0619
  367TMC3    C2 5489   3.083   2.895  15.270  0.1925 -0.1510  0.4263
  367TMC3    C3 5490   3.146   3.002  15.209  0.6329  0.2009 -0.1301
  367TMC3    C4 5491   2.890   2.936  15.136  0.0035 -0.1829 -0.5433
  367TMC3    C5 5492   2.952   3.043  15.083 -0.0644 -0.3367 -0.5749
  367TMC3    C6 5493   3.082   3.079  15.114  0.1603 -0.8772  0.4578
  367TMC3     C 5494   2.923   2.729  15.244 -0.3788  0.4337 -0.3919
  367TMC3     O 5495   2.803   2.702  15.259 -0.7588 -0.5185  0.2260
  367TMC3     H 5496   3.137   2.837  15.343  1.6745  0.3812 -0.2462
  367TMC3    H1 5497   2.783   2.923  15.129 -0.1371  2.1626 -2.4072
  367TMC3    H2 5498   3.138   3.156  15.062 -1.1031 -1.0827 -1.2504
  367TMC3    C7 5499   2.883   3.131  14.995  0.3430 -1.2035 -0.7840
  367TMC3    C8 5500   3.267   3.046  15.274 -0.5757  0.4106  0.5842
  367TMC3    O1 5501   2.916   3.246  15.006  0.5260 -0.0316  0.0654
  367TMC3    O2 5502   3.275   3.027  15.392 -0.0326 -0.0134  0.0873
  368MPD2     C 5503   4.399   4.603  12.900  0.3675 -0.1280 -0.4585
  368MPD2    C1 5504   4.426   0.002  12.953  0.2554  0.1240  0.1813
  368MPD2    C2 5505   4.556   0.033  12.970 -0.0624 -0.4388 -0.1652
  368MPD2    C3 5506   4.658   4.667  12.944  0.3758  0.3067 -0.2511
  368MPD2    C4 5507   4.627   4.547  12.878 -0.7708  0.0383  0.3443
  368MPD2    C5 5508   4.496   4.516  12.863 -0.6181  0.2431  0.1861
  368MPD2     H 5509   4.574   0.134  13.004  1.6723 -0.7688 -0.0835
  368MPD2    H1 5510   4.702   4.474  12.849 -0.9057 -0.5531  1.4738
  368MPD2    H2 5511   4.297   4.569  12.883  0.0510  0.2834  0.6367
  368MPD2    H3 5512   4.463   4.419  12.829 -0.3438 -0.7092  2.6064
  368MPD2     N 5513   0.069   4.697  12.964  0.8431 -0.2229  0.3699
  368MPD2    H5 5514   0.136   4.641  12.913  1.8381 -1.0445  2.5859
  368MPD2    N1 5515   4.327   0.102  12.958 -0.0645  0.1705  0.0841
  368MPD2    H7 5516   4.251   0.088  12.892  0.8423 -0.9520 -0.7214
  369TMC3    C1 5517   4.247   0.327  12.959  0.0051  0.3272  0.3258
  369TMC3    C2 5518   4.298   0.456  12.966  0.5505  0.4296 -0.2375
  369TMC3    C3 5519   4.201   0.554  12.955  0.2138  0.0046 -0.1457
  369TMC3    C4 5520   4.116   0.295  12.939 -0.4514  0.2732 -0.0970
  369TMC3    C5 5521   4.027   0.400  12.925 -0.2648  0.2021  0.6118
  369TMC3    C6 5522   4.067   0.533  12.928 -0.4765  0.0850 -0.3726
  369TMC3     C 5523   4.339   0.225  13.013  0.7507 -0.2286  0.2185
  369TMC3     O 5524   4.418   0.260  13.094  0.0238 -0.1973 -0.4021
  369TMC3     H 5525   4.398   0.476  13.001  0.6765 -1.9741  0.7918
  369TMC3    H1 5526   4.070   0.198  12.954 -1.9045  0.9038 -0.4473
  369TMC3    H2 5527   4.000   0.616  12.946  0.3150  0.5647  0.3830
  369TMC3    C7 5528   3.893   0.365  12.890 -0.4951  0.1393 -0.0517
  369TMC3    C8 5529   4.241   0.679  12.899 -0.0252  0.4394 -0.1606
  369TMC3    O1 5530   3.858   0.250  12.882 -0.0787  0.1283 -0.2375
  369TMC3    O2 5531   4.173   0.779  12.924  0.2573 -0.1523  0.7862
  370TMC3    C1 5532   3.739   0.709  16.208  0.2507 -0.0335  0.2657
  370TMC3    C2 5533   3.678   0.629  16.311 -0.9305 -0.4976  0.4555
  370TMC3    C3 5534   3.665   0.494  16.284  0.4368 -0.3381 -0.2967
  370TMC3    C4 5535   3.782   0.649  16.088 -0.3080  0.2611 -0.0629
  370TMC3    C5 5536   3.748   0.517  16.059  0.2225 -0.3830 -0.0741
  370TMC3    C6 5537   3.705   0.439  16.163 -0.3234 -0.4774 -0.7167
  370TMC3     C 5538   3.790   0.828  16.264  0.4747 -0.1299  0.5477
  370TMC3     O 5539   3.783   0.838  16.384  0.0106 -0.0250  0.3779
  370TMC3     H 5540   3.642   0.669  16.405  0.3903  1.1876  0.2431
  370TMC3    H1 5541   3.818   0.710  16.007 -0.7627  0.4315 -0.1363
  370TMC3    H2 5542   3.710   0.334  16.139  1.4647 -0.7128  0.7257
  370TMC3    C7 5543   3.788   0.473  15.926 -0.4399  0.5286  0.0135
  370TMC3    C8 5544   3.621   0.393  16.384 -0.2519 -0.5620  1.0771
  370TMC3    O1 5545   3.797   0.559  15.840 -0.2038 -0.3277  0.2152
  370TMC3    O2 5546   3.630   0.277  16.350  0.2648 -0.3029 -0.1835
  371TMC3    C1 5547   0.497   3.546  15.551 -0.1676 -0.0787  0.2255
  371TMC3    C2 5548   0.371   3.566  15.595 -0.0484  0.8883  0.4863
  371TMC3    C3 5549   0.313   3.680  15.557 -0.0350  0.8004 -0.8226
  371TMC3    C4 5550   0.563   3.621  15.457  0.2021 -0.3558 -0.8315
  371TMC3    C5 5551   0.496   3.734  15.415  0.7356 -0.0825  0.1010
  371TMC3    C6 5552   0.379   3.771  15.471 -0.1817  0.0255  0.0077
  371TMC3     C 5553   0.571   3.423  15.594  0.4642  0.3112  0.3245
  371TMC3     O 5554   0.688   3.411  15.565  0.1123 -0.0204 -0.8085
  371TMC3     H 5555   0.320   3.516  15.676 -1.6413 -0.4782 -1.3589
  371TMC3    H1 5556   0.664   3.599  15.425  1.8122  1.1105  3.1895
  371TMC3    H2 5557   0.335   3.861  15.429  0.1542  0.2039  0.0367
  371TMC3    C7 5558   0.559   3.826  15.325  0.1039 -0.7257  0.5944
  371TMC3    C8 5559   0.175   3.699  15.585 -0.2193 -0.3791  0.1710
  371TMC3    O1 5560   0.518   3.938  15.325  0.3088  0.4005  0.5259
  371TMC3    O2 5561   0.114   3.598  15.611  0.0827 -0.1701 -0.1874
  372MPD2     C 5562   0.787   0.540  13.642 -0.4519 -0.0896 -0.1998
  372MPD2    C1 5563   0.832   0.412  13.609  0.6824  0.0610 -0.3219
  372MPD2    C2 5564   0.732   0.324  13.562 -0.0414 -0.8148  0.6346
  372MPD2    C3 5565   0.594   0.364  13.564 -0.5318  0.5622 -0.5445
  372MPD2    C4 5566   0.560   0.494  13.592  0.1166  0.2338 -0.6006
  372MPD2    C5 5567   0.658   0.577  13.633  0.2051  0.6086 -0.0461
  372MPD2     H 5568   0.759   0.220  13.551 -3.1039 -1.3530 -1.7344
  372MPD2    H1 5569   0.461   0.539  13.587 -2.1584 -4.3933  3.0669
  372MPD2    H2 5570   0.856   0.623  13.656  0.5176 -0.8788 -0.3176
  372MPD2    H3 5571   0.636   0.683  13.636  5.1565  1.5760  2.0652
  372MPD2     N 5572   0.500   0.264  13.539 -0.2710  0.7456  0.7074
  372MPD2    H5 5573   0.540   0.173  13.516  1.3422  1.8567 -0.8766
  372MPD2    N1 5574   0.968   0.371  13.631 -0.3250 -0.0576 -0.4870
  372MPD2    H7 5575   0.996   0.277  13.607 -0.2271  0.2011 -1.3836
  373TMC3    C1 5576   0.288   0.156  13.515  0.1548  0.1816  0.1099
  373TMC3    C2 5577   0.163   0.142  13.574  0.1355  0.5586  0.0461
  373TMC3    C3 5578   0.084   0.049  13.515  0.6755 -0.0599 -0.4118
  373TMC3    C4 5579   0.334   0.091  13.408 -0.1467  0.2521 -0.1407
  373TMC3    C5 5580   0.255   4.713  13.364  0.0727 -0.4565  0.4632
  373TMC3    C6 5581   0.122   4.710  13.394  1.1080  0.4054  0.2313
  373TMC3     C 5582   0.363   0.278  13.548 -0.2478  0.8599 -0.2317
  373TMC3     O 5583   0.301   0.376  13.587  0.1064 -0.2130  0.2073
  373TMC3     H 5584   0.147   0.198  13.666  0.6364  1.6756 -0.5389
  373TMC3    H1 5585   0.434   0.090  13.365 -0.4959  1.4910 -0.9863
  373TMC3    H2 5586   0.054   4.637  13.351  0.0397  1.2735  0.4466
  373TMC3    C7 5587   0.305   4.588  13.321 -0.1730  0.5327  0.0172
  373TMC3    C8 5588   0.019   4.676  13.600 -0.5267 -0.3842 -0.1289
  373TMC3    O1 5589   0.222   4.511  13.280 -0.2498 -0.4821 -0.4016
  373TMC3    O2 5590   4.669   4.592  13.552 -0.4976  0.0388  0.5284
  374TMC3    C1 5591   0.978   0.838   9.642 -0.3825 -0.0851  0.7367
  374TMC3    C2 5592   1.090   0.908   9.683 -0.0767  0.7473  0.1471
  374TMC3    C3 5593   1.182   0.943   9.593 -0.5276 -0.0870 -0.5354
  374TMC3    C4 5594   0.958   0.811   9.508  0.3166 -0.5677  0.0049
  374TMC3    C5 5595   1.051   0.844   9.416 -0.2092 -0.0146  0.3439
  374TMC3    C6 5596   1.166   0.913   9.458 -0.6779 -0.0585 -0.3410
  374TMC3     C 5597   0.896   0.768   9.734 -0.1800  1.1704 -0.5344
  374TMC3     O 5598   0.824   0.682   9.687 -0.0505  0.1638  0.5658
  374TMC3     H 5599   1.112   0.918   9.789  1.3009 -0.0763 -0.0606
  374TMC3    H1 5600   0.871   0.755   9.476 -1.8353  1.8594  1.5299
  374TMC3    H2 5601   1.252   0.926   9.393 -0.0605  0.7553  0.6356
  374TMC3    C7 5602   1.035   0.791   9.281  0.4916  0.4980 -0.3148
  374TMC3    C8 5603   1.299   1.011   9.650 -0.6865  0.0600  0.7014
  374TMC3    O1 5604   0.935   0.721   9.263 -0.2288 -0.1040 -0.1626
  374TMC3    O2 5605   1.318   0.982   9.767 -0.8307 -0.6388 -0.1926
  375MPD2     C 5606   0.374   0.569  16.932  0.4550 -0.2495  0.0224
  375MPD2    C1 5607   0.316   0.631  16.821  0.4867  0.1100 -0.6726
  375MPD2    C2 5608   0.395   0.645  16.709 -0.9093  0.0999 -0.2013
  375MPD2    C3 5609   0.528   0.619  16.714 -0.1249  0.2446  0.7392
  375MPD2    C4 5610   0.582   0.563  16.824 -0.7521  0.4219 -0.3364
  375MPD2    C5 5611   0.510   0.540  16.930 -0.5019 -0.1267 -0.3804
  375MPD2     H 5612   0.337   0.676  16.623 -0.3235 -0.3969 -0.7805
  375MPD2    H1 5613   0.688   0.537  16.827 -0.7075  0.4685 -1.5924
  375MPD2    H2 5614   0.330   0.564  17.031 -0.6217  0.0184 -0.4411
  375MPD2    H3 5615   0.552   0.493  17.018 -1.0998  0.6812  0.3339
  375MPD2     N 5616   0.617   0.646  16.606 -0.0050 -0.5912  0.7036
  375MPD2    H5 5617   0.716   0.626  16.615  0.3110 -0.6577 -2.9309
  375MPD2    N1 5618   0.182   0.675  16.815 -0.2370 -0.0813  0.3245
  375MPD2    H7 5619   0.163   0.736  16.737  0.6703 -0.7090 -0.3855
  376TMC3    C1 5620   0.684   0.641  16.380 -0.0237  1.1629 -0.1693
  376TMC3    C2 5621   0.805   0.698  16.415  0.2015  0.5193 -0.5566
  376TMC3    C3 5622   0.896   0.711  16.310  0.4409 -0.5123 -0.5254
  376TMC3    C4 5623   0.661   0.597  16.251  0.2125 -0.3008  0.9064
  376TMC3    C5 5624   0.754   0.614  16.154  0.6595  0.1139  0.1277
  376TMC3    C6 5625   0.877   0.671  16.182  0.0482 -0.0330  0.5682
  376TMC3     C 5626   0.577   0.631  16.477 -0.0347 -0.0566 -0.0715
  376TMC3     O 5627   0.464   0.632  16.431 -0.1306 -0.4484 -0.6685
  376TMC3     H 5628   0.828   0.740  16.512  0.3044  1.0519 -0.8124
  376TMC3    H1 5629   0.561   0.568  16.223  1.5335  0.2279 -4.2071
  376TMC3    H2 5630   0.958   0.672  16.111 -1.8756  0.4452 -1.6174
  376TMC3    C7 5631   0.741   0.587  16.005 -0.0199 -0.3196  0.1174
  376TMC3    C8 5632   1.014   0.794  16.325  0.1963  0.0349 -0.1584
  376TMC3    O1 5633   0.839   0.613  15.935 -0.0687  0.1328  0.3104
  376TMC3    O2 5634   1.047   0.845  16.223 -0.4521  0.5265 -0.2881
  377MPD2     C 5635   3.466   1.011  12.294 -0.5158 -0.8344 -0.1104
  377MPD2    C1 5636   3.512   0.913  12.374 -0.4230  0.0280 -0.2923
  377MPD2    C2 5637   3.424   0.810  12.415  0.9453  0.0171  0.2219
  377MPD2    C3 5638   3.287   0.828  12.397  0.3956  0.1844  0.5392
  377MPD2    C4 5639   3.246   0.938  12.319  0.6415 -0.7911 -0.1539
  377MPD2    C5 5640   3.335   1.030  12.264  0.2458 -0.4253 -0.7663
  377MPD2     H 5641   3.462   0.733  12.481 -1.4451 -0.7522  0.6842
  377MPD2    H1 5642   3.142   0.961  12.301  1.0665  1.8737  0.7295
  377MPD2    H2 5643   3.532   1.084  12.250 -0.3363 -1.6116 -1.1390
  377MPD2    H3 5644   3.313   1.109  12.194  0.1440  1.7401  1.6963
  377MPD2     N 5645   3.187   0.733  12.438  0.3220 -0.2732  0.6856
  377MPD2    H5 5646   3.088   0.746  12.420  0.8126  2.3493 -0.0453
  377MPD2    N1 5647   3.651   0.911  12.400 -0.5695 -0.1124  0.6204
  377MPD2    H7 5648   3.701   0.994  12.370 -0.3311 -0.1254  0.9876
  378TMC3    C1 5649   4.045   0.870  12.301  0.2193  0.0284 -0.7465
  378TMC3    C2 5650   3.915   0.888  12.336  0.4506  0.5499 -1.3036
  378TMC3    C3 5651   3.866   0.824  12.447  0.6278  0.1935  0.5115
  378TMC3    C4 5652   4.108   0.759  12.346 -0.3710  0.2260  0.0533
  378TMC3    C5 5653   4.053   0.689  12.447  0.2301 -0.3796 -0.9500
  378TMC3    C6 5654   3.933   0.715  12.496 -0.8663 -0.3716  0.5108
  378TMC3     C 5655   4.100   0.955  12.193  0.6518  0.6093 -0.9555
  378TMC3     O 5656   4.028   1.045  12.144 -0.1316 -0.2668 -0.1240
  378TMC3     H 5657   3.855   0.963  12.286  1.8581  2.6352  0.1977
  378TMC3    H1 5658   4.212   0.742  12.320 -0.6020 -2.0241  0.6395
  378TMC3    H2 5659   3.906   0.656  12.583  0.6377  0.9359  1.8860
  378TMC3    C7 5660   4.140   0.592  12.521 -0.0390  0.2002  0.2859
  378TMC3    C8 5661   3.718   0.807  12.461  0.1730  0.6321  0.5539
  378TMC3    O1 5662   4.095   0.547  12.625  0.1026  0.6739  0.3839
  378TMC3    O2 5663   3.683   0.708  12.524 -0.3733  0.1855  0.3009
  379MPD2     C 5664   4.418   3.373  15.825 -0.5365  0.2267  0.7061
  379MPD2    C1 5665   4.346   3.293  15.914 -0.7333  0.0725  0.6508
  379MPD2    C2 5666   4.423   3.226  16.011  0.4060  0.7387  0.6596
  379MPD2    C3 5667   4.558   3.238  16.028 -0.0881 -0.2151 -0.6212
  379MPD2    C4 5668   4.621   3.307  15.928 -0.5205  0.3058 -0.1721
  379MPD2    C5 5669   4.550   3.380  15.838  0.4128  0.4597 -0.7452
  379MPD2     H 5670   4.377   3.154  16.078 -2.7559  1.8127 -0.3591
  379MPD2    H1 5671   0.007   3.311  15.928 -0.4915 -0.4271  0.2971
  379MPD2    H2 5672   4.367   3.416  15.739 -1.7342 -1.0516  0.7663
  379MPD2    H3 5673   4.606   3.423  15.755 -1.9877  0.8644 -2.1716
  379MPD2     N 5674   4.623   3.178  16.138  0.6949  0.5440 -0.4697
  379MPD2    H5 5675   4.723   3.194  16.126  1.3111 -0.9426  2.8272
  379MPD2    N1 5676   4.208   3.283  15.896  0.3714 -0.0907 -0.0831
  379MPD2    H7 5677   4.169   3.341  15.822  1.4037  0.0946 -0.4768
  380TMC3    C1 5678   4.003   3.158  15.895  0.5091  0.0682  0.3460
  380TMC3    C2 5679   3.960   3.029  15.930 -0.7850  0.4827 -0.2158
  380TMC3    C3 5680   3.891   2.956  15.832 -0.6556 -0.1914 -0.0706
  380TMC3    C4 5681   3.954   3.216  15.780 -0.1628 -0.1646  0.5146
  380TMC3    C5 5682   3.868   3.143  15.701  0.8964  0.8567  0.5822
  380TMC3    C6 5683   3.831   3.012  15.723 -1.0490 -0.1978  0.3480
  380TMC3     C 5684   4.119   3.202  15.972  0.3656 -0.1593 -0.7844
  380TMC3     O 5685   4.156   3.135  16.073  0.3719  0.1109 -0.1097
  380TMC3     H 5686   4.006   2.986  16.018 -0.1485 -0.0802 -0.8150
  380TMC3    H1 5687   3.980   3.317  15.751  1.9978 -0.5487  1.1048
  380TMC3    H2 5688   3.789   2.943  15.650  2.4056 -0.4386 -1.3799
  380TMC3    C7 5689   3.824   3.216  15.582 -0.1722 -0.4079  0.9212
  380TMC3    C8 5690   3.907   2.813  15.836  0.3814 -0.4599 -0.0070
  380TMC3    O1 5691   3.885   3.316  15.547 -0.0965 -0.2947  0.0197
  380TMC3    O2 5692   3.805   2.751  15.820 -0.0095  0.0201 -0.1038
  381TMC3    C1 5693   3.701   4.366  16.119 -0.0878 -0.4355 -0.1459
  381TMC3    C2 5694   3.759   4.489  16.094  0.3174  0.0106  1.0603
  381TMC3    C3 5695   3.754   4.591  16.188  0.2037  0.2422 -0.7544
  381TMC3    C4 5696   3.634   4.351  16.239 -0.2092  0.0558 -0.5134
  381TMC3    C5 5697   3.623   4.455  16.329 -0.4809 -0.0542  0.1706
  381TMC3    C6 5698   3.691   4.574  16.308 -0.3915  0.2830  0.6850
  381TMC3     C 5699   3.722   4.245  16.040 -0.0271  0.2098  0.4432
  381TMC3     O 5700   3.669   4.146  16.080 -0.1018  0.0590 -0.7266
  381TMC3     H 5701   3.814   4.506  16.003 -2.2686  3.8931  0.2438
  381TMC3    H1 5702   3.598   4.257  16.279 -0.6776  0.5597  0.2604
  381TMC3    H2 5703   3.682   4.651  16.383 -1.1110 -0.4406  1.3455
  381TMC3    C7 5704   3.612   4.410  16.463  0.0997  0.4211 -0.7805
  381TMC3    C8 5705   3.840   4.705  16.159 -0.9782  0.0274  0.4657
  381TMC3    O1 5706   3.669   4.304  16.484  0.2276 -0.2261  0.4225
  381TMC3    O2 5707   3.894   4.718  16.048  0.8724  0.4634 -0.3139
  382MPD2     C 5708   3.129   1.960   0.417  0.1357  0.3160 -0.2173
  382MPD2    C1 5709   3.181   2.040   0.316  0.6210  0.2138  0.5746
  382MPD2    C2 5710   3.142   2.022   0.184  0.1022  0.1493 -0.1679
  382MPD2    C3 5711   3.051   1.923   0.151  0.2967 -0.3637  0.2686
  382MPD2    C4 5712   3.010   1.839   0.249 -0.5641  0.0730 -1.1792
  382MPD2    C5 5713   3.047   1.858   0.378  0.0573  0.2856  0.2417
  382MPD2     H 5714   3.188   2.087   0.111  0.0685 -1.3588 -1.5309
  382MPD2    H1 5715   2.943   1.754   0.236 -0.2512 -0.3879  0.1636
  382MPD2    H2 5716   3.147   1.971   0.523 -0.7865  1.0187 -0.1346
  382MPD2    H3 5717   3.019   1.786   0.454 -1.7626  0.5455 -0.1817
  382MPD2     N 5718   2.991   1.899   0.027  0.1322 -0.1663  0.7648
  382MPD2    H5 5719   2.939   1.811   0.023 -1.8843  1.0536  0.1727
  382MPD2    N1 5720   3.273   2.146   0.344  0.2636 -0.0996 -0.7253
  382MPD2    H7 5721   3.292   2.208   0.266 -0.7386 -0.0157 -0.9027
  383TMC3    C1 5722   2.980   1.903  17.488 -0.0514 -0.2328  0.4070
  383TMC3    C2 5723   2.857   1.847  17.479  0.3425 -0.4988  0.3521
  383TMC3    C3 5724   2.827   1.781  17.361 -0.8178 -0.5700  1.1001
  383TMC3    C4 5725   3.069   1.898  17.390  1.2002 -0.4713  0.3952
  383TMC3    C5 5726   3.040   1.833  17.273 -0.2263 -0.1305  0.4076
  383TMC3    C6 5727   2.917   1.780  17.254  0.2196  0.3571 -0.1773
  383TMC3     C 5728   3.033   1.959  17.610  0.9478  0.8067  0.8296
  383TMC3     O 5729   3.092   2.067  17.591 -0.1466 -0.2124  0.5377
  383TMC3     H 5730   2.775   1.864  17.547 -0.3929 -0.4643 -0.5439
  383TMC3    H1 5731   3.167   1.943  17.401  0.7000  0.3728  1.4228
  383TMC3    H2 5732   2.896   1.734  17.157 -1.0096 -1.7642  1.0791
  383TMC3    C7 5733   3.141   1.841  17.165 -0.1242 -0.0793 -0.1537
  383TMC3    C8 5734   2.701   1.712  17.334  0.2868 -0.6995  0.8561
  383TMC3    O1 5735   3.097   1.831  17.053 -0.4474 -0.0079 -0.5371
  383TMC3    O2 5736   2.604   1.774  17.362 -0.0688 -0.0959 -0.4675
  384MPD2     C 5737   0.174   3.566  11.657  0.3124 -0.4510  0.1883
  384MPD2    C1 5738   0.179   3.522  11.789 -0.2017  0.1368  0.5013
  384MPD2    C2 5739   0.272   3.441  11.833 -0.6004 -0.3518 -0.4093
  384MPD2    C3 5740   0.366   3.382  11.755 -0.0760  0.6767  0.2719
  384MPD2    C4 5741   0.362   3.426  11.621  0.0330 -0.1279  0.4169
  384MPD2    C5 5742   0.261   3.509  11.575  0.6559  0.2742 -0.2586
  384MPD2     H 5743   0.275   3.415  11.939 -2.1812 -0.0772 -0.2874
  384MPD2    H1 5744   0.433   3.391  11.547  1.6513  0.2187  1.8187
  384MPD2    H2 5745   0.088   3.624  11.624  1.2495  0.5931 -0.3860
  384MPD2    H3 5746   0.260   3.533  11.469  0.1126 -0.3400 -0.3955
  384MPD2     N 5747   0.464   3.296  11.811 -0.0099  0.0760  0.0728
  384MPD2    H5 5748   0.463   3.296  11.912  3.0888  0.2518  0.0862
  384MPD2    N1 5749   0.091   3.566  11.893 -0.8533 -0.6305  0.1145
  384MPD2    H7 5750   0.105   3.534  11.988  0.4863 -0.6939 -0.1037
  385TMC3    C1 5751   0.624   3.131  11.835 -0.4552  0.3101  0.3517
  385TMC3    C2 5752   0.592   2.996  11.831 -0.2002 -0.0394  0.1978
  385TMC3    C3 5753   0.591   2.917  11.944 -0.1741  0.4410  0.0868
  385TMC3    C4 5754   0.647   3.184  11.959  0.5210  0.1450 -0.2935
  385TMC3    C5 5755   0.616   3.113  12.076  0.0791 -0.0848  0.6569
  385TMC3    C6 5756   0.600   2.978  12.063 -0.5303 -0.0392 -0.1120
  385TMC3     C 5757   0.551   3.210  11.743 -0.6980 -0.2902 -0.1745
  385TMC3     O 5758   0.565   3.200  11.625 -0.0454  0.7135  0.4111
  385TMC3     H 5759   0.577   2.949  11.734  1.1487 -0.0928  0.0132
  385TMC3    H1 5760   0.668   3.290  11.969 -0.4243  0.2852  0.1653
  385TMC3    H2 5761   0.579   2.916  12.150  0.0921  2.8767  2.1383
  385TMC3    C7 5762   0.513   3.186  12.144  0.5899  0.1989 -0.5229
  385TMC3    C8 5763   0.612   2.775  11.945  0.2632 -0.7157  0.4153
  385TMC3    O1 5764   0.464   3.279  12.076 -0.0389  0.3499  0.4949
  385TMC3    O2 5765   0.667   2.733  12.047 -0.0698  0.1471  0.4894
  386TMC3    C1 5766   0.301   1.021  11.958 -0.4058  0.5597 -0.3778
  386TMC3    C2 5767   0.347   1.031  11.831  0.2344 -0.1389  0.1279
  386TMC3    C3 5768   0.302   1.143  11.768 -0.8586  0.1119  0.2613
  386TMC3    C4 5769   0.196   1.098  12.006  0.5454  0.1618  0.0822
  386TMC3    C5 5770   0.151   1.204  11.938  0.1355 -0.1155  0.0832
  386TMC3    C6 5771   0.194   1.228  11.812 -0.2910  0.2001 -0.1299
  386TMC3     C 5772   0.366   0.937  12.054  0.2938 -0.0389  0.2297
  386TMC3     O 5773   0.301   0.924  12.159  0.4246 -1.4145 -0.0685
  386TMC3     H 5774   0.419   0.959  11.792  0.4961 -1.0708  2.3095
  386TMC3    H1 5775   0.154   1.091  12.106 -2.3048  0.0899 -1.1119
  386TMC3    H2 5776   0.154   1.309  11.751  0.0762  0.3582 -0.1635
  386TMC3    C7 5777   0.025   1.264  11.984 -0.5036 -0.5485 -0.0207
  386TMC3    C8 5778   0.339   1.156  11.632 -0.3975  0.2520 -0.6280
  386TMC3    O1 5779   0.001   1.255  12.106 -0.1194  0.0420 -0.5480
  386TMC3    O2 5780   0.261   1.226  11.564 -0.3793  0.4870  0.0047
  387MPD2     C 5781   2.863   1.188   9.546  0.1847  0.2970  0.3153
  387MPD2    C1 5782   2.996   1.145   9.537  0.0370 -0.4376  0.7164
  387MPD2    C2 5783   3.016   1.014   9.503  0.5321 -0.1012 -0.2414
  387MPD2    C3 5784   2.913   0.923   9.496  0.6192  0.6581  0.6665
  387MPD2    C4 5785   2.784   0.964   9.495 -0.8475  0.7852  0.5084
  387MPD2    C5 5786   2.760   1.098   9.521  0.5316  0.1308  0.0887
  387MPD2     H 5787   3.116   0.973   9.506  0.8794  0.8102  0.4227
  387MPD2    H1 5788   2.699   0.899   9.475  0.5755 -0.6339 -0.8862
  387MPD2    H2 5789   2.843   1.288   9.582 -0.5912  0.4700 -0.5827
  387MPD2    H3 5790   2.659   1.138   9.523 -0.5237 -2.4631 -1.4259
  387MPD2     N 5791   2.943   0.780   9.502  0.2712  0.2333  0.4380
  387MPD2    H5 5792   3.040   0.753   9.509  0.6599  1.7791  0.9098
  387MPD2    N1 5793   3.108   1.221   9.583  0.2575 -0.6106 -0.2097
  387MPD2    H7 5794   3.196   1.170   9.589 -0.3796 -1.5453  1.1252
  388TMC3    C1 5795   3.219   1.360   9.733  0.0939 -0.2113 -0.2361
  388TMC3    C2 5796   3.212   1.467   9.815 -0.0558  0.5152  0.1449
  388TMC3    C3 5797   3.312   1.475   9.906  0.0643 -0.3593  0.3079
  388TMC3    C4 5798   3.296   1.248   9.767  0.8314  0.2627  0.0399
  388TMC3    C5 5799   3.399   1.265   9.851 -0.4779 -0.6696  0.2141
  388TMC3    C6 5800   3.411   1.384   9.919  0.2087 -0.8682  0.6913
  388TMC3     C 5801   3.099   1.337   9.656  0.1494 -0.4667  0.0693
  388TMC3     O 5802   3.003   1.416   9.661  0.0095 -0.4393  0.1734
  388TMC3     H 5803   3.147   1.547   9.784  0.8065  1.1772  0.0424
  388TMC3    H1 5804   3.277   1.149   9.727  1.1370  0.4871 -0.6782
  388TMC3    H2 5805   3.485   1.398   9.997 -0.9022  0.3274  1.5256
  388TMC3    C7 5806   3.443   1.144   9.924 -0.6444 -0.0100  0.5167
  388TMC3    C8 5807   3.317   1.589   9.997 -0.7502 -0.0102 -0.5314
  388TMC3    O1 5808   3.461   1.154  10.046 -0.2155  0.0997  0.3148
  388TMC3    O2 5809   3.412   1.621  10.066 -0.0412  0.2686 -0.4376
  389MPD2     C 5810   2.355   3.801  10.675 -0.1407 -0.5560 -0.6100
  389MPD2    C1 5811   2.274   3.715  10.602 -0.2905  0.0424 -0.1535
  389MPD2    C2 5812   2.183   3.642  10.669  0.4670 -0.2474 -0.8928
  389MPD2    C3 5813   2.153   3.655  10.801  0.5172  0.0415 -0.3430
  389MPD2    C4 5814   2.228   3.751  10.868 -0.4972 -0.2328  0.4095
  389MPD2    C5 5815   2.343   3.810  10.810  0.0946  0.1889  0.2178
  389MPD2     H 5816   2.113   3.580  10.615 -0.1265  1.1073 -1.6807
  389MPD2    H1 5817   2.218   3.770  10.974  0.9417  0.4407  0.4199
  389MPD2    H2 5818   2.431   3.862  10.628  0.8443 -0.9345  0.4933
  389MPD2    H3 5819   2.394   3.882  10.874 -1.4465 -0.2410  1.9439
  389MPD2     N 5820   2.069   3.565  10.873 -0.3800 -0.2114 -0.3673
  389MPD2    H5 5821   2.056   3.600  10.967 -0.3712  0.5906 -0.6641
  389MPD2    N1 5822   2.287   3.727  10.465  0.2135  1.1328  0.1866
  389MPD2    H7 5823   2.357   3.788  10.425  0.4109  0.2576 -0.7882
  390TMC3    C1 5824   1.906   3.395  10.911 -0.1823 -0.0152 -0.6119
  390TMC3    C2 5825   1.909   3.407  11.048 -0.3886 -0.2133  0.4754
  390TMC3    C3 5826   1.794   3.386  11.119 -0.6858 -0.4154 -0.0680
  390TMC3    C4 5827   1.800   3.332  10.851 -0.6748  0.3142  0.1735
  390TMC3    C5 5828   1.691   3.315  10.923  0.4929  0.5414  0.1387
  390TMC3    C6 5829   1.681   3.344  11.058 -0.0888 -0.1371 -0.2839
  390TMC3     C 5830   1.998   3.454  10.825 -0.3740  0.3633 -0.0934
  390TMC3     O 5831   1.995   3.412  10.712 -0.4868  0.1059  0.2980
  390TMC3     H 5832   1.999   3.440  11.099 -1.0459  0.9011  0.9007
  390TMC3    H1 5833   1.790   3.310  10.746 -0.9048  1.6405 -0.0825
  390TMC3    H2 5834   1.590   3.318  11.112  0.3538 -0.2791  0.3965
  390TMC3    C7 5835   1.583   3.230  10.868 -0.0931  0.3962  0.4994
  390TMC3    C8 5836   1.797   3.379  11.262 -0.2554  0.0121  0.6980
  390TMC3    O1 5837   1.598   3.167  10.763 -0.2512  0.2773 -0.4562
  390TMC3    O2 5838   1.837   3.472  11.335 -0.4888  0.5815  0.3168
  391MPD2     C 5839   1.617   0.598  10.734  0.0318  0.0737  0.0648
  391MPD2    C1 5840   1.749   0.640  10.754 -0.7315  0.7196  0.3860
  391MPD2    C2 5841   1.825   0.657  10.640  0.4365 -0.0105  0.4123
  391MPD2    C3 5842   1.764   0.660  10.517  0.4227 -0.1253  0.5504
  391MPD2    C4 5843   1.642   0.603  10.500 -0.9827  0.4632 -0.0850
  391MPD2    C5 5844   1.568   0.575  10.608  0.1344  0.5679 -0.8719
  391MPD2     H 5845   1.929   0.690  10.644  0.0812  1.1188  0.2689
  391MPD2    H1 5846   1.596   0.594  10.402 -0.2935  0.1722 -0.3846
  391MPD2    H2 5847   1.548   0.580  10.815  0.6706  1.6615  0.9553
  391MPD2    H3 5848   1.467   0.537  10.596  0.1712 -0.3330  1.6756
  391MPD2     N 5849   1.831   0.732  10.415 -0.1026 -0.2831  0.3758
  391MPD2    H5 5850   1.922   0.764  10.444  0.1727 -0.6299 -0.0992
  391MPD2    N1 5851   1.797   0.666  10.889  0.1073  0.4983 -0.0119
  391MPD2    H7 5852   1.725   0.663  10.960  1.7609  0.8450  1.6569
  392TMC3    C1 5853   1.861   0.851  10.210  0.3846 -0.0636  0.0091
  392TMC3    C2 5854   1.813   0.866  10.081  0.1441 -0.1164 -0.0223
  392TMC3    C3 5855   1.820   0.988  10.016  0.1260  0.5687  0.6091
  392TMC3    C4 5856   1.936   0.949  10.262 -0.3684 -0.4262 -0.6060
  392TMC3    C5 5857   1.945   1.067  10.197 -0.1797  0.5818 -0.8789
  392TMC3    C6 5858   1.878   1.090  10.082  0.7389  0.0022  0.4836
  392TMC3     C 5859   1.782   0.762  10.289  0.6049 -0.4638  0.1819
  392TMC3     O 5860   1.687   0.720  10.219  0.2827  0.2292 -0.1629
  392TMC3     H 5861   1.780   0.783  10.020  0.9639 -0.9004  0.5811
  392TMC3    H1 5862   1.987   0.947  10.358 -1.4774 -0.1330 -0.0158
  392TMC3    H2 5863   1.876   1.193  10.049  0.0056 -0.6614 -1.5582
  392TMC3    C7 5864   2.029   1.172  10.262  0.0351  0.6592  0.2012
  392TMC3    C8 5865   1.756   0.992   9.889 -0.4985 -1.1277 -0.1753
  392TMC3    O1 5866   2.054   1.168  10.382 -0.3338 -0.4095 -0.0674
  392TMC3    O2 5867   1.678   0.908   9.857 -0.3683 -0.2810 -0.5971
  393TMC3    C1 5868   0.590   3.194  10.016  0.1303 -1.5393 -0.5139
  393TMC3    C2 5869   0.494   3.105  10.050  0.0438 -0.1819 -0.0826
  393TMC3    C3 5870   0.534   3.004  10.126  0.5772  0.5573 -0.3532
  393TMC3    C4 5871   0.722   3.174  10.035 -0.4354 -0.1796 -0.2985
  393TMC3    C5 5872   0.759   3.062  10.106 -0.5884 -0.7662  0.4357
  393TMC3    C6 5873   0.664   2.980  10.155  0.1324 -0.2692  0.0810
  393TMC3     C 5874   0.550   3.313   9.940 -0.3837 -0.9043  0.0411
  393TMC3     O 5875   0.603   3.420   9.960  0.0025 -0.4886 -0.6418
  393TMC3     H 5876   0.391   3.137  10.063  0.0491 -0.0633 -0.3266
  393TMC3    H1 5877   0.801   3.235   9.993  0.9691 -1.0444  1.0721
  393TMC3    H2 5878   0.682   2.891  10.214 -1.9055  0.3942  1.7120
  393TMC3    C7 5879   0.895   3.011  10.117  0.5769  0.0597 -0.9651
  393TMC3    C8 5880   0.439   2.975  10.236 -0.4158  0.2250 -0.3547
  393TMC3    O1 5881   0.906   2.893  10.139 -0.3272 -0.0025  0.0502
  393TMC3    O2 5882   0.325   2.943  10.200  0.0892  0.5095 -0.8605
  394TMC3    C1 5883   2.235   3.689  10.230 -0.6373 -0.6784  0.0108
  394TMC3    C2 5884   2.149   3.626  10.139 -0.3906 -0.5122 -1.0427
  394TMC3    C3 5885   2.173   3.649  10.011  0.1654 -0.2679  0.2756
  394TMC3    C4 5886   2.347   3.761  10.194  0.2412 -0.3685  0.1376
  394TMC3    C5 5887   2.368   3.773  10.056  0.3021 -0.4714  0.6737
  394TMC3    C6 5888   2.281   3.722   9.963  0.2898 -0.1383 -0.4215
  394TMC3     C 5889   2.221   3.649  10.374 -0.4207 -0.7627  0.7162
  394TMC3     O 5890   2.144   3.558  10.392  0.2761 -0.5736  0.1033
  394TMC3     H 5891   2.075   3.558  10.178 -2.5876  2.3547 -0.1875
  394TMC3    H1 5892   2.430   3.778  10.262 -0.9697  0.1478  1.4904
  394TMC3    H2 5893   2.297   3.722   9.856 -0.7008 -0.7086 -0.5663
  394TMC3    C7 5894   2.446   3.879  10.018 -0.0537 -0.4123  0.1795
  394TMC3    C8 5895   2.092   3.568   9.918 -0.5933 -0.1879  0.1932
  394TMC3    O1 5896   2.515   3.929  10.106 -0.4198 -0.3163  0.3125
  394TMC3    O2 5897   2.034   3.632   9.832 -0.1962  0.3200  0.1678
  395TMC3    C1 5898   1.887   0.799  14.529 -0.0624 -0.2398  0.4868
  395TMC3    C2 5899   1.899   0.718  14.422 -0.1206  0.0779 -0.0598
  395TMC3    C3 5900   2.002   0.738  14.330  0.0907  0.4269 -0.3370
  395TMC3    C4 5901   1.984   0.896  14.548 -0.1643 -0.0280  0.4724
  395TMC3    C5 5902   2.086   0.911  14.460  0.0197 -0.0710 -0.4191
  395TMC3    C6 5903   2.094   0.844  14.343  0.5290 -0.6305 -0.0963
  395TMC3     C 5904   1.762   0.822  14.596 -0.6371  0.1239 -0.1215
  395TMC3     O 5905   1.768   0.910  14.682  0.3461  0.0406 -0.3668
  395TMC3     H 5906   1.828   0.638  14.406 -0.4397  0.3106  0.2031
  395TMC3    H1 5907   1.974   0.982  14.613  1.0276 -0.2515  0.9497
  395TMC3    H2 5908   2.168   0.868  14.268 -1.0337  0.2272 -1.3801
  395TMC3    C7 5909   2.182   1.016  14.491  0.0556 -0.0119 -0.0962
  395TMC3    C8 5910   2.005   0.666  14.205 -0.6324 -0.5667  0.4964
  395TMC3    O1 5911   2.148   1.108  14.560 -0.0550 -0.5932 -0.2131
  395TMC3    O2 5912   2.077   0.712  14.121  0.0717 -0.1171 -0.1012
  396MPD2     C 5913   0.989   1.625  17.148  0.3849 -0.0951 -0.1229
  396MPD2    C1 5914   1.104   1.666  17.219  0.7160  0.9979 -0.1711
  396MPD2    C2 5915   1.173   1.779  17.178  1.1316 -0.7434  0.3678
  396MPD2    C3 5916   1.134   1.847  17.070 -0.6634  0.3264 -0.6763
  396MPD2    C4 5917   1.021   1.804  17.000  0.2971  0.6957 -0.2473
  396MPD2    C5 5918   0.958   1.690  17.039 -0.2850  0.2938 -0.2661
  396MPD2     H 5919   1.254   1.825  17.233 -0.8454  0.4934  2.2237
  396MPD2    H1 5920   0.993   1.859  16.911 -0.1302 -0.3553 -0.7494
  396MPD2    H2 5921   0.930   1.538  17.176  1.5242 -1.2028 -1.1636
  396MPD2    H3 5922   0.870   1.662  16.983  1.8151 -0.7115 -3.0306
  396MPD2     N 5923   1.204   1.966  17.037  0.1354 -0.3124 -0.1331
  396MPD2    H5 5924   1.283   1.981  17.100 -0.4777 -0.9453  0.7990
  396MPD2    N1 5925   1.139   1.584  17.323  0.6408 -0.0838  0.2929
  396MPD2    H7 5926   1.067   1.518  17.350  1.7785 -1.5445 -0.2441
  397TMC3    C1 5927   1.283   1.502  17.502 -0.5928 -0.3151 -0.4366
  397TMC3    C2 5928   1.408   1.536  17.564 -0.8429 -0.4249 -0.2856
  397TMC3    C3 5929   1.510   1.451  17.560  0.0783 -0.1473  0.3597
  397TMC3    C4 5930   1.270   1.368  17.462 -0.9305 -0.8162 -0.2286
  397TMC3    C5 5931   1.374   1.280  17.479 -0.1157  0.2486 -0.0633
  397TMC3    C6 5932   1.495   1.316  17.537  0.7404 -0.2866 -0.0505
  397TMC3     C 5933   1.259   1.597  17.392  0.2550  0.2702  0.1894
  397TMC3     O 5934   1.357   1.667  17.365 -0.3857  0.2834 -0.3151
  397TMC3     H 5935   1.431   1.642  17.571  0.4431 -0.8324  1.6702
  397TMC3    H1 5936   1.187   1.325  17.407 -1.2874 -2.0331  1.2551
  397TMC3    H2 5937   1.583   1.255  17.521  1.0183 -0.1595  0.9488
  397TMC3    C7 5938   1.337   1.141  17.472  0.4149 -0.7334 -0.2926
  397TMC3    C8 5939   1.638   1.499  17.493 -0.2788 -0.2024  0.3757
  397TMC3    O1 5940   1.256   1.116  17.386  0.2961 -0.1588 -0.2218
  397TMC3    O2 5941   1.744   1.468  17.543 -0.0559 -0.1495 -0.1938
  398MPD2     C 5942   4.227   1.972  17.690 -0.0592 -0.5217  0.5159
  398MPD2    C1 5943   4.171   1.956   0.117 -0.3608 -0.6302  0.4996
  398MPD2    C2 5944   4.235   2.017   0.226 -0.4476 -0.1847 -0.6356
  398MPD2    C3 5945   4.356   2.082   0.208  0.5779 -0.2737  0.6411
  398MPD2    C4 5946   4.406   2.108   0.084 -0.8990  0.5128  0.7556
  398MPD2    C5 5947   4.340   2.049  17.672 -0.2577  0.6572 -0.4373
  398MPD2     H 5948   4.187   2.026   0.323  0.5129  0.5004 -0.2318
  398MPD2    H1 5949   4.493   2.170   0.061 -0.5995  1.3444  4.1166
  398MPD2    H2 5950   4.185   1.916  17.607 -0.1379 -0.1594  0.3115
  398MPD2    H3 5951   4.373   2.056  17.569  3.1391  2.2258  0.7642
  398MPD2     N 5952   4.423   2.117   0.325  0.7570  0.1515 -0.4120
  398MPD2    H5 5953   4.375   2.097   0.412 -1.9274 -1.6805 -2.3090
  398MPD2    N1 5954   4.053   1.876   0.140 -0.3116 -0.3385 -0.0733
  398MPD2    H7 5955   4.010   1.892   0.231 -2.6782  1.1658 -1.4652
  399TMC3    C1 5956   3.900   1.710   0.124  0.4269  0.2147 -0.1353
  399TMC3    C2 5957   3.909   1.698   0.253  0.1666 -0.1806 -0.4998
  399TMC3    C3 5958   3.822   1.605   0.312  0.7386 -0.7245 -0.2860
  399TMC3    C4 5959   3.820   1.632   0.038 -1.2393  0.0092 -0.7140
  399TMC3    C5 5960   3.729   1.540   0.098 -0.2595 -0.5714 -0.2404
  399TMC3    C6 5961   3.729   1.538   0.236  0.3009 -0.1933 -0.1269
  399TMC3     C 5962   4.005   1.784   0.057  0.1294  0.7326  0.2958
  399TMC3     O 5963   4.041   1.747  17.642 -0.1150  0.6369  0.8726
  399TMC3     H 5964   3.971   1.756   0.321 -0.5957 -1.5823  1.3624
  399TMC3    H1 5965   3.838   1.631  17.625 -1.8295  1.4932 -0.8275
  399TMC3    H2 5966   3.666   1.461   0.279  1.4522 -0.4525  1.0896
  399TMC3    C7 5967   3.613   1.494   0.018  0.0112 -0.1906 -0.2343
  399TMC3    C8 5968   3.817   1.598   0.456  0.1364  0.6337 -0.4113
  399TMC3    O1 5969   3.528   1.439   0.092 -0.1509  0.0034 -0.0754
  399TMC3    O2 5970   3.897   1.675   0.514  0.0275  0.7206  0.5251
  400TMC3    C1 5971   2.467   1.128  16.791  0.1137  0.3710  0.5074
  400TMC3    C2 5972   2.345   1.153  16.733  0.1430 -0.0880  0.9802
  400TMC3    C3 5973   2.307   1.282  16.721 -0.3769  0.5185 -0.4530
  400TMC3    C4 5974   2.558   1.224  16.803  0.5060 -0.0769 -0.0664
  400TMC3    C5 5975   2.518   1.351  16.770 -0.5092  0.4973  0.5176
  400TMC3    C6 5976   2.394   1.383  16.738  0.4502 -0.2468 -0.4921
  400TMC3     C 5977   2.522   1.003  16.740 -0.2064 -0.3448 -0.2115
  400TMC3     O 5978   2.474   0.970  16.632 -0.8818 -0.4561 -0.1775
  400TMC3     H 5979   2.270   1.074  16.732  1.5805 -1.3901 -4.9121
  400TMC3    H1 5980   2.655   1.216  16.851  0.4050 -1.0042 -0.0212
  400TMC3    H2 5981   2.359   1.486  16.739  1.9179  0.2609 -2.2445
  400TMC3    C7 5982   2.610   1.467  16.782  0.0814 -0.2451  0.3248
  400TMC3    C8 5983   2.167   1.311  16.678  0.1671  0.1925 -0.2922
  400TMC3    O1 5984   2.697   1.470  16.869 -0.1786 -0.0136 -0.0075
  400TMC3    O2 5985   2.139   1.431  16.672  0.2543 -0.5112 -0.0557
  401MPD2     C 5986   0.919   4.483   1.022  0.5053  0.3411 -0.2590
  401MPD2    C1 5987   1.024   4.508   0.944  0.3721 -0.2143 -0.0438
  401MPD2    C2 5988   1.022   4.450   0.820 -0.3595  0.7730 -0.1380
  401MPD2    C3 5989   0.907   4.386   0.766  0.6646 -0.0889 -0.4104
  401MPD2    C4 5990   0.792   4.366   0.843 -0.5118 -0.0896 -0.2462
  401MPD2    C5 5991   0.804   4.418   0.975 -0.4129  0.5498 -0.4901
  401MPD2     H 5992   1.106   4.459   0.752  0.9596  2.2109  1.6968
  401MPD2    H1 5993   0.712   4.298   0.818 -2.1379  1.2268  1.3078
  401MPD2    H2 5994   0.909   4.515   1.125 -0.0018 -0.6290 -0.0060
  401MPD2    H3 5995   0.727   4.395   1.048  0.1394 -0.7906 -0.3153
  401MPD2     N 5996   0.916   4.310   0.648 -0.1746  0.3876  0.1450
  401MPD2    H5 5997   0.823   4.280   0.618  0.2990 -0.5242 -0.4136
  401MPD2    N1 5998   1.128   4.594   0.988 -0.6592 -0.0279 -0.4344
  401MPD2    H7 5999   1.203   4.619   0.924  0.8786 -0.1946  1.2815
  402TMC3    C1 6000   0.983   4.229   0.447 -0.1595  0.2084 -0.2776
  402TMC3    C2 6001   0.884   4.138   0.458 -0.1244 -0.0570 -0.0658
  402TMC3    C3 6002   0.891   4.026   0.380 -0.3136 -0.1603 -0.2797
  402TMC3    C4 6003   1.068   4.230   0.341 -0.4095  0.4406  0.8597
  402TMC3    C5 6004   1.062   4.115   0.264  0.1651  0.0493  0.0814
  402TMC3    C6 6005   0.986   4.010   0.287  0.3884 -0.2343 -0.1942
  402TMC3     C 6006   1.022   4.291   0.567  0.1209 -0.2209  0.3189
  402TMC3     O 6007   1.142   4.318   0.577 -0.2947 -0.0139 -0.4222
  402TMC3     H 6008   0.816   4.134   0.543 -0.0238 -1.2983 -0.0464
  402TMC3    H1 6009   1.145   4.307   0.342  2.9891 -2.9377  1.1107
  402TMC3    H2 6010   1.006   3.919   0.233  1.7698  0.2415 -0.5054
  402TMC3    C7 6011   1.179   4.089   0.182  0.2250  0.2741  0.0350
  402TMC3    C8 6012   0.834   3.900   0.424  0.8722  0.0052  0.2641
  402TMC3    O1 6013   1.204   4.169   0.088 -0.5732  0.5456 -0.1296
  402TMC3    O2 6014   0.827   3.894   0.548 -0.0155  0.0493 -0.3256
  403MPD2     C 6015   4.332   3.720  13.425 -0.3708 -0.8669 -0.2308
  403MPD2    C1 6016   4.353   3.588  13.452 -0.0434  0.6011 -0.1739
  403MPD2    C2 6017   4.455   3.559  13.536 -0.4453  0.4385  0.2987
  403MPD2    C3 6018   4.524   3.658  13.610 -0.0402  0.0124  0.1863
  403MPD2    C4 6019   4.477   3.783  13.598  1.0575 -0.1155  0.4275
  403MPD2    C5 6020   4.390   3.818  13.501  0.9121 -0.1373  0.2313
  403MPD2     H 6021   4.485   3.455  13.537  1.6033  1.0153 -1.1093
  403MPD2    H1 6022   4.519   3.864  13.657 -1.6477  1.9005 -0.4120
  403MPD2    H2 6023   4.264   3.748  13.345 -0.0220 -0.0213 -0.2302
  403MPD2    H3 6024   4.364   3.922  13.487  0.4915 -0.2418  0.2231
  403MPD2     N 6025   4.625   3.619  13.704  0.4035 -0.1366  0.0211
  403MPD2    H5 6026   4.637   3.519  13.708  1.0489  0.0296  2.1251
  403MPD2    N1 6027   4.293   3.490  13.372  0.0237 -0.0959 -0.0666
  403MPD2    H7 6028   4.235   3.521  13.295 -0.4716  0.5937  0.5821
  404TMC3    C1 6029   4.208   3.281  13.294  0.5904  0.2745 -0.1130
  404TMC3    C2 6030   4.148   3.168  13.337  0.0109 -0.0231 -0.3683
  404TMC3    C3 6031   4.115   3.078  13.243 -0.2314 -0.0546  0.0440
  404TMC3    C4 6032   4.233   3.305  13.159  0.2323 -0.3851  0.9470
  404TMC3    C5 6033   4.197   3.213  13.068 -0.3745  0.0325  0.5274
  404TMC3    C6 6034   4.136   3.095  13.105 -0.5197  0.0385  0.9192
  404TMC3     C 6035   4.283   3.356  13.403  0.1301 -0.2677  0.0416
  404TMC3     O 6036   4.311   3.297  13.503  0.1610  0.3037  0.2106
  404TMC3     H 6037   4.148   3.139  13.441 -4.6990  0.2483 -0.2880
  404TMC3    H1 6038   4.286   3.394  13.129 -0.9856  0.3999  1.1205
  404TMC3    H2 6039   4.102   3.019  13.034 -1.6905 -1.0277  2.6335
  404TMC3    C7 6040   4.280   3.215  12.945  0.3876  0.4441  0.5101
  404TMC3    C8 6041   4.101   2.935  13.271 -0.0125  0.4427  0.3961
  404TMC3    O1 6042   4.359   3.310  12.924 -0.7291  0.4417 -0.4441
  404TMC3    O2 6043   4.146   2.865  13.182 -1.1335 -0.2167  0.2817
  405MPD2     C 6044   4.669   3.470  14.354  0.6629 -0.2893  0.2589
  405MPD2    C1 6045   4.605   3.349  14.364  1.4248 -0.6490  0.2898
  405MPD2    C2 6046   4.483   3.319  14.299 -0.1995 -0.0605 -0.5617
  405MPD2    C3 6047   4.423   3.422  14.236 -0.0137  0.3639 -0.2598
  405MPD2    C4 6048   4.483   3.547  14.228  0.3524  0.2625 -0.1871
  405MPD2    C5 6049   4.601   3.570  14.284  0.3653 -0.5482 -0.3817
  405MPD2     H 6050   4.431   3.227  14.323 -1.3212  0.1547 -2.1473
  405MPD2    H1 6051   4.432   3.634  14.188  1.3612  0.2652 -1.4573
  405MPD2    H2 6052   0.034   3.504  14.407 -0.0269  0.5792  0.8419
  405MPD2    H3 6053   4.645   3.669  14.276 -0.8016 -0.2290 -2.7888
  405MPD2     N 6054   4.293   3.400  14.187 -0.3354 -0.2503  0.0864
  405MPD2    H5 6055   4.264   3.303  14.193 -1.8826  0.1769 -0.3714
  405MPD2    N1 6056   4.663   3.258  14.454 -0.3298  0.5056 -0.7410
  405MPD2    H7 6057   0.000   3.298  14.525 -1.5569 -0.0593  0.6224
  406TMC3    C1 6058   3.852   3.508  14.104  0.0851 -0.0709 -0.7266
  406TMC3    C2 6059   3.809   3.455  14.227 -0.3993  0.0320 -0.2635
  406TMC3    C3 6060   3.907   3.399  14.302  0.5403 -0.1790  0.5820
  406TMC3    C4 6061   3.982   3.506  14.058 -0.3748  0.2434  0.4189
  406TMC3    C5 6062   4.070   3.436  14.136 -0.1635 -0.2634  0.1332
  406TMC3    C6 6063   4.031   3.388  14.251  0.0225 -1.2443  0.4304
  406TMC3     C 6064   3.776   3.615  14.054  0.5434  0.1675  0.6670
  406TMC3     O 6065   3.832   3.708  13.991  0.2724  0.1526  0.2289
  406TMC3     H 6066   3.710   3.457  14.271  0.9738 -1.8694  2.9587
  406TMC3    H1 6067   4.010   3.565  13.972 -1.2905 -0.6114 -0.4531
  406TMC3    H2 6068   4.110   3.346  14.313 -0.1698  2.1316  2.9739
  406TMC3    C7 6069   4.206   3.492  14.136 -0.3315  0.5272  1.1751
  406TMC3    C8 6070   3.861   3.338  14.430  0.0909 -0.1522  0.2365
  406TMC3    O1 6071   4.223   3.604  14.082 -0.1541  0.5199  0.2878
  406TMC3    O2 6072   3.775   3.393  14.497  0.2978 -0.2547  0.0396
  407MPD2     C 6073   2.293   0.420   9.509  0.5384  0.7447  0.5261
  407MPD2    C1 6074   2.410   0.492   9.502  0.5636 -0.0647  0.1999
  407MPD2    C2 6075   2.426   0.597   9.588 -0.3180 -0.0911  0.6970
  407MPD2    C3 6076   2.338   0.627   9.687  0.3415 -0.8007 -0.2735
  407MPD2    C4 6077   2.219   0.555   9.695  0.1875  0.3506 -0.2571
  407MPD2    C5 6078   2.202   0.454   9.606 -0.8929  0.3306  0.3227
  407MPD2     H 6079   2.520   0.649   9.572  0.1757 -1.0785  0.3477
  407MPD2    H1 6080   2.143   0.568   9.772  0.8182 -1.7144  0.7036
  407MPD2    H2 6081   2.280   0.337   9.441 -1.0299 -0.1844  1.9444
  407MPD2    H3 6082   2.104   0.407   9.605  0.2683 -2.0964  0.0235
  407MPD2     N 6083   2.368   0.732   9.775  0.2105  0.1586  0.0182
  407MPD2    H5 6084   2.326   0.739   9.867 -3.3213 -2.9574 -1.3277
  407MPD2    N1 6085   2.510   0.469   9.402  0.0608  0.0377 -0.0121
  407MPD2    H7 6086   2.583   0.539   9.404  0.3997 -0.3057 -0.3963
  408TMC3    C1 6087   2.603   0.418   9.189  0.2177  0.4280 -0.3207
  408TMC3    C2 6088   2.681   0.318   9.141  0.0428  0.1229  0.3618
  408TMC3    C3 6089   2.808   0.349   9.113  0.6690 -0.1555  0.2100
  408TMC3    C4 6090   2.638   0.548   9.192  0.2627  0.6540 -0.0790
  408TMC3    C5 6091   2.759   0.576   9.138 -0.1261  0.3606  1.0211
  408TMC3    C6 6092   2.854   0.478   9.119 -0.1156  0.1676 -0.0530
  408TMC3     C 6093   2.503   0.385   9.294 -0.2693  0.6853  0.0103
  408TMC3     O 6094   2.440   0.279   9.281  0.2194 -0.4264  0.5331
  408TMC3     H 6095   2.665   0.216   9.175 -1.4233  0.4013  0.5351
  408TMC3    H1 6096   2.573   0.629   9.222  0.6329 -0.1623  2.9571
  408TMC3    H2 6097   2.954   0.501   9.085  0.4227 -2.2957 -0.1321
  408TMC3    C7 6098   2.810   0.710   9.153 -0.2142  0.5421 -0.3863
  408TMC3    C8 6099   2.900   0.232   9.121  0.2526 -0.1587 -0.1790
  408TMC3    O1 6100   2.929   0.718   9.184 -0.6712  0.1492 -0.1470
  408TMC3    O2 6101   2.863   0.119   9.082 -0.1049  0.2604  0.5943
  409MPD2     C 6102   1.595   0.969  17.130 -0.1257  0.1050  0.2467
  409MPD2    C1 6103   1.724   0.998  17.150  0.1315  0.3029 -0.2015
  409MPD2    C2 6104   1.771   1.123  17.120  0.5751 -0.0705 -0.1089
  409MPD2    C3 6105   1.692   1.222  17.067 -0.0463 -0.3696  0.4830
  409MPD2    C4 6106   1.563   1.191  17.031  0.3857  0.2921  0.0277
  409MPD2    C5 6107   1.513   1.068  17.071  0.4866 -0.1364 -0.1528
  409MPD2     H 6108   1.879   1.132  17.134  0.5965 -0.6120  0.0426
  409MPD2    H1 6109   1.492   1.259  16.986 -1.0441 -1.6491 -0.6683
  409MPD2    H2 6110   1.551   0.876  17.165  0.9968 -1.0923 -1.5281
  409MPD2    H3 6111   1.410   1.039  17.056  1.2674 -2.2169 -1.6603
  409MPD2     N 6112   1.751   1.344  17.022 -0.9357  0.1961 -0.0782
  409MPD2    H5 6113   1.690   1.403  16.966 -0.8479 -1.1671 -1.6333
  409MPD2    N1 6114   1.817   0.910  17.211  0.1326 -1.1188  0.0867
  409MPD2    H7 6115   1.897   0.952  17.257  0.3347 -1.2289 -0.1653
  410TMC3    C1 6116   1.916   1.511  17.032  0.7292 -0.7685 -0.6885
  410TMC3    C2 6117   2.034   1.548  17.084 -0.5433  0.1580  0.1486
  410TMC3    C3 6118   2.104   1.636  17.014 -0.8483  0.3096 -0.1746
  410TMC3    C4 6119   1.880   1.537  16.900 -0.3788 -0.6802 -0.0398
  410TMC3    C5 6120   1.966   1.622  16.830 -0.1324 -0.5742 -0.0871
  410TMC3    C6 6121   2.066   1.696  16.893 -0.1896 -0.2984 -0.7588
  410TMC3     C 6122   1.859   1.397  17.092  0.2885  0.0255 -0.2043
  410TMC3     O 6123   1.920   1.350  17.188  0.5980  0.5000  0.7309
  410TMC3     H 6124   2.067   1.509  17.180 -0.2487 -1.7054 -0.6998
  410TMC3    H1 6125   1.784   1.514  16.856  0.1528  0.4695 -1.7926
  410TMC3    H2 6126   2.140   1.760  16.845 -0.6630  1.9050  1.4333
  410TMC3    C7 6127   1.924   1.667  16.702 -0.3948 -0.1288 -0.5208
  410TMC3    C8 6128   2.243   1.636  17.058  0.1593 -0.6469  0.1036
  410TMC3    O1 6129   1.821   1.612  16.665 -0.4203 -0.2143 -0.6082
  410TMC3    O2 6130   2.298   1.739  17.094  0.0682 -0.0669  0.5516
  411MPD2     C 6131   2.595   2.001  14.152  0.3162  0.3312  0.4756
  411MPD2    C1 6132   2.493   1.970  14.242  0.0012  0.1514 -0.5648
  411MPD2    C2 6133   2.440   1.838  14.245 -0.6613 -0.0724 -0.1179
  411MPD2    C3 6134   2.503   1.740  14.167  0.0976  0.7979 -0.5227
  411MPD2    C4 6135   2.618   1.766  14.097  0.0037 -0.0550 -0.1489
  411MPD2    C5 6136   2.660   1.898  14.085 -0.0858 -0.7920 -0.3996
  411MPD2     H 6137   2.349   1.818  14.300 -0.5021 -1.3029 -0.2977
  411MPD2    H1 6138   2.661   1.698  14.025  0.0488  3.3331 -3.3076
  411MPD2    H2 6139   2.635   2.101  14.140 -1.1767  0.9101  0.2997
  411MPD2    H3 6140   2.745   1.919  14.021 -1.0940  1.7924 -0.8718
  411MPD2     N 6141   2.452   1.614  14.148  0.2899 -0.5882  0.2185
  411MPD2    H5 6142   2.507   1.549  14.092  0.6482 -1.8849  2.0782
  411MPD2    N1 6143   2.435   2.072  14.314 -0.1863  0.1970 -0.6903
  411MPD2    H7 6144   2.435   2.165  14.273  1.5127  0.3538 -0.3547
  412TMC3    C1 6145   2.319   1.417  14.164  0.1722 -0.5024  0.3054
  412TMC3    C2 6146   2.240   1.344  14.245 -0.3830  0.4726  0.9525
  412TMC3    C3 6147   2.210   1.219  14.201 -0.4238 -0.2124 -0.8700
  412TMC3    C4 6148   2.381   1.372  14.051 -0.0531  0.6447 -0.0801
  412TMC3    C5 6149   2.362   1.245  14.016 -0.4382 -0.3181 -0.3137
  412TMC3    C6 6150   2.279   1.167  14.095  0.4083  0.3745 -0.0975
  412TMC3     C 6151   2.345   1.554  14.207 -0.1348  0.1594 -0.4430
  412TMC3     O 6152   2.278   1.602  14.297 -0.2365  0.1531  0.3079
  412TMC3     H 6153   2.186   1.396  14.324 -1.6407  2.1689 -1.0212
  412TMC3    H1 6154   2.448   1.428  13.986  0.0940  0.8632  0.2555
  412TMC3    H2 6155   2.271   1.061  14.074 -2.3393  0.4548  0.5268
  412TMC3    C7 6156   2.317   1.252  13.883  0.0906  0.4188  0.4004
  412TMC3    C8 6157   2.073   1.177  14.207  0.3900 -0.1863 -0.1405
  412TMC3    O1 6158   2.388   1.287  13.789  0.6564 -0.0884 -0.2667
  412TMC3    O2 6159   2.041   1.125  14.100  0.4822 -0.4043  0.0458
  413MPD2     C 6160   3.320   0.065  15.417 -0.2112 -0.1891  0.0003
  413MPD2    C1 6161   3.327   0.077  15.280 -0.3098  0.1462  0.6080
  413MPD2    C2 6162   3.381   4.703  15.198  0.2544  0.3144 -0.6206
  413MPD2    C3 6163   3.427   4.588  15.258 -0.5133 -0.4933 -0.1475
  413MPD2    C4 6164   3.417   4.575  15.395 -0.5446 -0.1483  0.6106
  413MPD2    C5 6165   3.362   4.671  15.470  0.1136  0.0572 -0.6063
  413MPD2     H 6166   3.396   4.709  15.091 -0.7445 -0.2530 -0.7879
  413MPD2    H1 6167   3.453   4.484  15.442 -1.2056  0.2182  1.8150
  413MPD2    H2 6168   3.273   0.142  15.477 -0.4904  0.2511 -0.7732
  413MPD2    H3 6169   3.354   4.658  15.577  0.2310  0.7036 -0.5201
  413MPD2     N 6170   3.476   4.487  15.175 -0.4896  0.0424 -0.1852
  413MPD2    H5 6171   3.494   4.516  15.080 -0.2400 -1.5692 -0.6400
  413MPD2    N1 6172   3.259   0.185  15.220  0.0158 -0.2431 -0.0636
  413MPD2    H7 6173   3.205   0.242  15.285  0.7986 -1.0301  1.2677
  414TMC3    C1 6174   3.602   4.295  15.120  0.1168  0.0118  0.0497
  414TMC3    C2 6175   3.644   4.170  15.157 -0.4623  1.2937 -0.5815
  414TMC3    C3 6176   3.714   4.100  15.058 -0.4289 -0.3925 -0.4060
  414TMC3    C4 6177   3.642   4.362  15.013 -0.0248  0.9096  0.9414
  414TMC3    C5 6178   3.707   4.290  14.917  0.1628 -0.2420 -0.2144
  414TMC3    C6 6179   3.741   4.160  14.940  0.8105 -0.1399 -0.4023
  414TMC3     C 6180   3.519   4.363  15.216  0.0154  0.2734 -0.1531
  414TMC3     O 6181   3.509   4.311  15.326  0.2953  0.3866  0.4101
  414TMC3     H 6182   3.610   4.132  15.253 -2.1744 -2.9337 -2.8412
  414TMC3    H1 6183   3.619   4.466  14.996  0.9929  0.8557 -0.8312
  414TMC3    H2 6184   3.807   4.106  14.873  0.9274 -1.4491  0.7925
  414TMC3    C7 6185   3.798   4.358  14.824  0.5802 -0.2917 -0.2663
  414TMC3    C8 6186   3.797   3.993  15.104 -0.3072 -0.3980  0.0877
  414TMC3    O1 6187   3.839   4.467  14.859  0.8579  0.1066  0.3298
  414TMC3    O2 6188   3.813   3.884  15.042 -0.2200  0.5422  0.0525
  415TMC3    C1 6189   0.387   2.357   9.605  0.6468  0.8939 -0.3068
  415TMC3    C2 6190   0.520   2.388   9.588 -0.0840 -0.1904 -0.5243
  415TMC3    C3 6191   0.622   2.298   9.627  0.7739  0.4664 -0.2652
  415TMC3    C4 6192   0.350   2.235   9.664  0.1444  0.0707  0.3117
  415TMC3    C5 6193   0.457   2.157   9.705  0.2249 -0.5676  0.0205
  415TMC3    C6 6194   0.589   2.181   9.685  0.7806  0.1120 -0.0996
  415TMC3     C 6195   0.282   2.457   9.607 -0.9802 -0.1036  0.1210
  415TMC3     O 6196   0.203   2.453   9.699 -0.3022 -0.1925 -0.2170
  415TMC3     H 6197   0.543   2.481   9.538 -2.9688  1.7463  1.8275
  415TMC3    H1 6198   0.249   2.197   9.667  0.6003 -0.8494  3.7812
  415TMC3    H2 6199   0.665   2.114   9.724  1.5410  0.3871 -1.1115
  415TMC3    C7 6200   0.425   2.030   9.773 -0.3572  0.1661  0.1272
  415TMC3    C8 6201   0.762   2.323   9.598 -0.0208  0.1421 -0.1812
  415TMC3    O1 6202   0.502   1.936   9.756 -0.3420 -0.5003  0.4048
  415TMC3    O2 6203   0.837   2.229   9.618  0.0004  0.3234 -0.0146
  416MPD2     C 6204   1.689   2.048  11.077 -0.1021  0.5672 -0.0076
  416MPD2    C1 6205   1.636   1.973  11.179  0.3121  0.4586 -0.2013
  416MPD2    C2 6206   1.675   1.840  11.192  0.4814 -0.9850 -0.5678
  416MPD2    C3 6207   1.751   1.779  11.095  0.5851 -0.1600 -0.3239
  416MPD2    C4 6208   1.788   1.848  10.982 -0.1318  0.2317  0.4611
  416MPD2    C5 6209   1.770   1.983  10.983  0.2565  0.5610  0.3461
  416MPD2     H 6210   1.648   1.786  11.282 -0.6875  0.2706 -0.1599
  416MPD2    H1 6211   1.868   1.811  10.920 -0.0246 -1.6355  1.7151
  416MPD2    H2 6212   1.681   2.155  11.064 -0.3565  0.8988  2.9411
  416MPD2    H3 6213   1.815   2.047  10.907 -1.9056  1.4655 -0.1819
  416MPD2     N 6214   1.777   1.644  11.101 -0.2568  0.2369  0.3076
  416MPD2    H5 6215   1.790   1.592  11.015 -0.9218  2.7337 -1.2741
  416MPD2    N1 6216   1.564   2.047  11.277 -0.1402  0.6238 -0.3241
  416MPD2    H7 6217   1.545   2.147  11.272  0.3781  0.7061 -0.5877
  417TMC3    C1 6218   1.418   2.075  11.461  0.0433  0.3065 -0.4799
  417TMC3    C2 6219   1.400   2.043  11.592  0.5796 -0.1688  0.8696
  417TMC3    C3 6220   1.276   2.034  11.649  0.1696 -0.3141  0.7140
  417TMC3    C4 6221   1.310   2.106  11.383  0.2745  0.0207  0.3112
  417TMC3    C5 6222   1.185   2.111  11.448 -0.2386  0.3670  0.2773
  417TMC3    C6 6223   1.164   2.074  11.577 -0.2289 -0.4181  0.3701
  417TMC3     C 6224   1.528   2.001  11.403 -0.4706  0.5868  0.4497
  417TMC3     O 6225   1.549   1.893  11.454 -0.4522  0.4172 -0.4276
  417TMC3     H 6226   1.489   2.017  11.647  0.6031 -0.1578  0.8366
  417TMC3    H1 6227   1.306   2.105  11.274 -2.0961  1.9900  0.3933
  417TMC3    H2 6228   1.065   2.072  11.620  0.6267 -3.8263  2.2417
  417TMC3    C7 6229   1.079   2.179  11.382 -0.9105 -0.1881 -0.1574
  417TMC3    C8 6230   1.267   2.061  11.789 -0.9277  0.1136 -0.1700
  417TMC3    O1 6231   1.089   2.202  11.264  0.6819 -0.1985  0.5600
  417TMC3    O2 6232   1.166   2.122  11.830 -0.2586 -0.4697  0.4777
  418TMC3    C1 6233   0.016   2.084   0.640 -0.1573  0.0478  0.1124
  418TMC3    C2 6234   4.717   2.101   0.500  0.5514 -0.3119 -0.4482
  418TMC3    C3 6235   4.594   2.159   0.472  0.1033  0.2035 -0.1577
  418TMC3    C4 6236   4.665   2.141   0.735  0.7179 -0.0974  0.5704
  418TMC3    C5 6237   4.546   2.195   0.701 -0.5359  0.0904  0.5272
  418TMC3    C6 6238   4.503   2.194   0.568 -0.3010 -0.9119  0.5779
  418TMC3     C 6239   0.085   1.965   0.673 -0.2538  0.1867  0.2615
  418TMC3     O 6240   0.172   1.923   0.594  0.3689  0.2914 -0.6671
  418TMC3     H 6241   0.046   2.038   0.429 -1.2554 -1.5761 -0.6229
  418TMC3    H1 6242   4.701   2.135   0.837 -0.8090 -0.7265  1.0784
  418TMC3    H2 6243   4.420   2.257   0.537  1.7326  0.5369 -1.9714
  418TMC3    C7 6244   4.460   2.236   0.802 -0.9490 -0.6314  0.4111
  418TMC3    C8 6245   4.556   2.150   0.331 -0.1016  0.7368 -0.1929
  418TMC3    O1 6246   4.508   2.282   0.908  0.6685 -0.0467  0.6286
  418TMC3    O2 6247   4.641   2.169   0.244 -0.1062 -0.4162 -0.9262
  419MPD2     C 6248   3.686   1.603  11.885  0.3789  0.2346 -0.2642
  419MPD2    C1 6249   3.706   1.740  11.903  0.5419 -0.4990 -0.0947
  419MPD2    C2 6250   3.706   1.789  12.029 -0.2852 -0.4176  0.1426
  419MPD2    C3 6251   3.680   1.711  12.143  0.3065  0.8270 -0.8019
  419MPD2    C4 6252   3.666   1.581  12.123  0.2667  0.0132  0.4976
  419MPD2    C5 6253   3.673   1.527  11.999  0.4529  0.1484  0.8236
  419MPD2     H 6254   3.723   1.896  12.029  0.7717 -0.5900 -0.2446
  419MPD2    H1 6255   3.640   1.508  12.200 -0.6627 -2.5483 -2.2610
  419MPD2    H2 6256   3.676   1.557  11.788 -1.1898 -1.6181  0.7855
  419MPD2    H3 6257   3.647   1.425  11.976 -0.8222  0.1275  2.3883
  419MPD2     N 6258   3.660   1.771  12.271 -0.0068  0.0305  0.2653
  419MPD2    H5 6259   3.671   1.872  12.273 -0.6652  0.1392 -1.5011
  419MPD2    N1 6260   3.727   1.835  11.795 -0.0397 -0.0232  0.0898
  419MPD2    H7 6261   3.754   1.931  11.816  2.2240 -0.6570 -0.0069
  420TMC3    C1 6262   3.623   1.812  12.494 -0.4036  0.0930 -0.7126
  420TMC3    C2 6263   3.598   1.944  12.460 -0.3221  0.3314 -0.1306
  420TMC3    C3 6264   3.639   2.031  12.557  0.3175  0.6447 -0.1902
  420TMC3    C4 6265   3.648   1.770  12.615 -0.2740  0.2170 -0.1112
  420TMC3    C5 6266   3.666   1.861  12.714 -0.6377 -0.4290 -0.0597
  420TMC3    C6 6267   3.669   1.996  12.681 -0.1806 -0.0395 -0.5143
  420TMC3     C 6268   3.630   1.711  12.392 -0.0900  0.2487 -0.2126
  420TMC3     O 6269   3.628   1.592  12.419 -0.3079 -0.1822 -0.0108
  420TMC3     H 6270   3.580   1.971  12.357 -1.7587  0.0594  0.0469
  420TMC3    H1 6271   3.662   1.666  12.640  1.6986  0.8482  1.4478
  420TMC3    H2 6272   3.679   2.064  12.765  1.1650  1.1691 -1.6355
  420TMC3    C7 6273   3.677   1.822  12.850  0.8700 -0.0774  0.6354
  420TMC3    C8 6274   3.586   2.166  12.539  0.5862 -0.5840  0.1141
  420TMC3    O1 6275   3.607   1.726  12.881 -0.1469  0.1126 -0.2186
  420TMC3    O2 6276   3.490   2.189  12.465 -0.1796  0.2699 -0.2164
  421TMC3    C1 6277   0.068   3.657  13.865 -0.1829  0.9316 -0.3571
  421TMC3    C2 6278   0.188   3.719  13.873 -0.0293 -0.2088 -0.1137
  421TMC3    C3 6279   0.287   3.652  13.934  0.2223 -0.1518 -0.1160
  421TMC3    C4 6280   0.039   3.537  13.933  0.0550 -0.6076 -0.3922
  421TMC3    C5 6281   0.147   3.475  13.993  0.4702 -0.2043  0.5778
  421TMC3    C6 6282   0.274   3.524  13.986 -0.2015  0.7574  0.5287
  421TMC3     C 6283   4.697   3.713  13.773  0.1968  0.5027  1.0688
  421TMC3     O 6284   4.706   3.834  13.754  0.3539  0.0612 -0.1171
  421TMC3     H 6285   0.211   3.813  13.824  1.4774 -0.4895  0.0514
  421TMC3    H1 6286   4.661   3.500  13.947  0.8240 -3.4860 -2.5146
  421TMC3    H2 6287   0.358   3.487  14.043  0.3049  0.8048 -0.1888
  421TMC3    C7 6288   0.148   3.336  14.031  0.2812 -0.3677 -0.1095
  421TMC3    C8 6289   0.412   3.719  13.960 -0.5069  0.3019 -0.5302
  421TMC3    O1 6290   0.250   3.292  14.083  0.5730  0.1924 -0.4271
  421TMC3    O2 6291   0.513   3.673  13.907  0.5866 -0.1780 -0.2820
  422TMC3    C1 6292   2.534   4.629  12.270  0.1108  0.0336 -0.2906
  422TMC3    C2 6293   2.483   0.021  12.305  0.3892 -0.4811  0.2271
  422TMC3    C3 6294   2.352   0.028  12.340  0.1146  0.5801 -0.1082
  422TMC3    C4 6295   2.466   4.513  12.290  0.1147  0.2077  0.1959
  422TMC3    C5 6296   2.334   4.521  12.330 -0.3278  0.5540 -0.2138
  422TMC3    C6 6297   2.270   4.640  12.348  0.0096 -0.1248 -0.6179
  422TMC3     C 6298   2.653   4.641  12.187 -0.7468  0.4687  0.3433
  422TMC3     O 6299   2.668   0.025  12.133 -0.3144  0.5874  0.6562
  422TMC3     H 6300   2.544   0.111  12.308 -1.7369  0.9499  0.7625
  422TMC3    H1 6301   2.506   4.414  12.271 -1.9810 -0.7290  0.7115
  422TMC3    H2 6302   2.164   4.643  12.368 -0.3223  0.1464 -2.4398
  422TMC3    C7 6303   2.252   4.404  12.301 -0.2217 -0.4356 -0.3266
  422TMC3    C8 6304   2.305   0.161  12.379 -0.4522 -0.2210 -0.4291
  422TMC3    O1 6305   2.309   4.324  12.229 -0.0834  0.4185 -1.1095
  422TMC3    O2 6306   2.373   0.258  12.343 -0.5555  0.0252 -0.0659
  423MPD2     C 6307   3.597   0.251   0.651  0.1755 -0.8005 -0.1953
  423MPD2    C1 6308   3.492   0.176   0.609 -0.3784  0.0659 -0.3173
  423MPD2    C2 6309   3.463   0.172   0.473  0.2508  0.9037 -0.1945
  423MPD2    C3 6310   3.541   0.231   0.372 -0.1698  0.5132 -0.2215
  423MPD2    C4 6311   3.643   0.307   0.424 -0.8083 -0.1269  0.0509
  423MPD2    C5 6312   3.672   0.313   0.557  0.4940 -0.3664  0.2075
  423MPD2     H 6313   3.380   0.105   0.450  0.4886  0.1468  1.1539
  423MPD2    H1 6314   3.715   0.359   0.362  1.3114 -0.5766  2.1264
  423MPD2    H2 6315   3.630   0.261   0.754 -1.4348 -4.6351  0.6783
  423MPD2    H3 6316   3.762   0.367   0.582  1.1406 -1.8339  1.0681
  423MPD2     N 6317   3.543   0.196   0.230 -0.4559 -0.0994  0.5765
  423MPD2    H5 6318   3.607   0.248   0.170 -0.6021  0.1552  0.6396
  423MPD2    N1 6319   3.408   0.107   0.696 -0.3240 -0.1140 -0.1096
  423MPD2    H7 6320   3.336   0.051   0.650  0.6030 -0.5799 -1.0094
  424TMC3    C1 6321   3.314   0.026   0.898  0.3228 -0.5445 -0.2948
  424TMC3    C2 6322   3.334   4.688   1.023  0.2740 -0.5437 -0.4973
  424TMC3    C3 6323   3.228   4.626   1.091  0.0109 -0.5875  0.2592
  424TMC3    C4 6324   3.186   0.024   0.841  0.3820  0.1856 -0.4677
  424TMC3    C5 6325   3.087   4.686   0.910 -0.1545  0.3169  0.2823
  424TMC3    C6 6326   3.107   4.624   1.032 -0.0325 -0.0070 -1.1088
  424TMC3     C 6327   3.418   0.099   0.832 -0.2372 -0.2665  0.6065
  424TMC3     O 6328   3.518   0.121   0.902 -0.1922  0.3091  0.2295
  424TMC3     H 6329   3.434   4.685   1.064 -0.2809 -0.9413  0.7969
  424TMC3    H1 6330   3.172   0.078   0.748 -0.5441 -0.3997 -0.6591
  424TMC3    H2 6331   3.030   4.557   1.068  0.3036  0.0022 -0.3823
  424TMC3    C7 6332   2.946   0.013   0.873  0.4407 -0.5490 -0.1034
  424TMC3    C8 6333   3.267   4.535   1.193  0.2215  0.2190  0.2128
  424TMC3    O1 6334   2.925   0.026   0.757  0.3082 -0.1004  0.0583
  424TMC3    O2 6335   3.378   4.485   1.196  0.2517  0.2694 -0.1473
  425MPD2     C 6336   2.241   4.639  16.945  0.3925  0.1195  0.2705
  425MPD2    C1 6337   2.278   4.505  16.951  0.5709  0.9104 -0.2366
  425MPD2    C2 6338   2.207   4.416  17.027 -0.4644 -0.8623 -0.7528
  425MPD2    C3 6339   2.095   4.464  17.103 -0.7660  0.6018  0.9327
  425MPD2    C4 6340   2.068   4.600  17.098 -0.2543 -0.4772 -0.3198
  425MPD2    C5 6341   2.140   4.683  17.017  0.9874 -0.5067 -0.4204
  425MPD2     H 6342   2.225   4.310  17.043  0.4437 -1.0112 -2.7455
  425MPD2    H1 6343   1.983   4.640  17.153 -0.6895 -0.8895 -0.6839
  425MPD2    H2 6344   2.283   4.700  16.866 -1.2010 -0.2404 -0.8416
  425MPD2    H3 6345   2.114   0.065  17.012  0.0595 -0.6939  0.4272
  425MPD2     N 6346   2.007   4.376  17.169 -0.6771  0.3008  0.3727
  425MPD2    H5 6347   2.017   4.277  17.148 -0.4642  0.4473 -0.2150
  425MPD2    N1 6348   2.394   4.469  16.879  0.2476  0.1269 -0.0853
  425MPD2    H7 6349   2.440   4.545  16.831  3.2573 -1.4010  0.3649
  426TMC3    C1 6350   2.568   4.341  16.807  0.0083 -0.1837 -0.9022
  426TMC3    C2 6351   2.594   4.259  16.696  0.5727  0.3933  0.1432
  426TMC3    C3 6352   2.718   4.204  16.682 -0.0264 -0.5678  0.2110
  426TMC3    C4 6353   2.669   4.360  16.904 -0.1009 -0.6692 -0.2145
  426TMC3    C5 6354   2.789   4.289  16.888 -0.2595  0.1066 -0.5606
  426TMC3    C6 6355   2.809   4.201  16.785 -0.0161 -0.4037  0.8122
  426TMC3     C 6356   2.442   4.337  16.864 -0.6538 -0.6334  0.2554
  426TMC3     O 6357   2.390   4.230  16.884 -0.6067  0.2036 -0.0198
  426TMC3     H 6358   2.519   4.250  16.618  1.5754 -2.5874 -0.4437
  426TMC3    H1 6359   2.654   4.422  16.992  0.9228 -4.8845  2.9385
  426TMC3    H2 6360   2.901   4.142  16.787  0.8445  0.8479 -1.4213
  426TMC3    C7 6361   2.858   4.251  17.008 -0.2702  0.1811 -0.3090
  426TMC3    C8 6362   2.710   4.081  16.614 -0.1359 -0.0156 -0.7310
  426TMC3    O1 6363   2.969   4.199  16.993 -0.5614  0.5034  0.2940
  426TMC3    O2 6364   2.816   4.040  16.571  0.5016 -0.0295 -0.2666
  427MPD2     C 6365   1.223   2.374  15.368 -0.2257  0.0226 -0.6661
  427MPD2    C1 6366   1.202   2.236  15.362 -0.6270 -0.6020  0.5865
  427MPD2    C2 6367   1.064   2.194  15.370 -0.2737 -0.1599 -0.4839
  427MPD2    C3 6368   0.958   2.279  15.387 -0.4630  0.8603 -0.9656
  427MPD2    C4 6369   0.984   2.413  15.387 -0.1009 -0.0399 -0.5115
  427MPD2    C5 6370   1.115   2.457  15.375  0.3874  0.8485  0.8247
  427MPD2     H 6371   1.045   2.088  15.376 -0.7758  0.0030  0.8525
  427MPD2    H1 6372   0.914   2.495  15.386 -0.9160 -0.7470 -0.9679
  427MPD2    H2 6373   1.323   2.413  15.355 -0.0462 -0.7001 -1.3853
  427MPD2    H3 6374   1.142   2.561  15.381  3.0513  0.2053 -0.2292
  427MPD2     N 6375   0.821   2.237  15.391  0.0817 -0.3070 -0.0182
  427MPD2    H5 6376   0.752   2.311  15.395 -0.5577 -0.9924  1.7444
  427MPD2    N1 6377   1.301   2.133  15.371 -1.0648 -0.3237  0.1708
  427MPD2    H7 6378   1.277   2.035  15.369 -0.8474 -0.3811  0.3736
  428TMC3    C1 6379   1.499   2.016  15.364 -0.3357  0.2915 -0.6549
  428TMC3    C2 6380   1.447   1.917  15.445  0.1317 -0.0203 -0.4414
  428TMC3    C3 6381   1.524   1.805  15.481 -0.1860 -0.9657  0.0740
  428TMC3    C4 6382   1.624   2.011  15.321 -0.1089  0.0347 -0.5301
  428TMC3    C5 6383   1.694   1.905  15.354 -0.6862 -0.2540 -0.0434
  428TMC3    C6 6384   1.655   1.804  15.439 -0.0606 -0.0343  0.1435
  428TMC3     C 6385   1.433   2.149  15.358  0.2612 -0.7274 -0.0113
  428TMC3     O 6386   1.496   2.250  15.345  0.2215  0.1895  0.1172
  428TMC3     H 6387   1.345   1.927  15.481  0.3948  0.6277  0.1130
  428TMC3    H1 6388   1.667   2.082  15.251 -1.1094  2.0158  0.8564
  428TMC3    H2 6389   1.722   1.726  15.473 -2.0479 -2.0277 -0.4382
  428TMC3    C7 6390   1.842   1.917  15.346 -0.6131 -0.0292 -0.4626
  428TMC3    C8 6391   1.476   1.708  15.574 -0.1851  0.8800  0.7818
  428TMC3    O1 6392   1.909   1.879  15.440 -0.0607 -0.2564  0.2365
  428TMC3    O2 6393   1.428   1.756  15.673  0.1279 -0.2277 -0.3276
  429MPD2     C 6394   2.410   2.043   0.052  0.4641  0.0139 -0.2330
  429MPD2    C1 6395   2.384   1.978  17.625  0.3135  0.7079  0.3851
  429MPD2    C2 6396   2.474   2.003  17.523 -0.3538 -0.5880 -0.2151
  429MPD2    C3 6397   2.579   2.088  17.533  0.2989  0.6149  0.0056
  429MPD2    C4 6398   2.592   2.167  17.642 -0.2126 -0.0006 -0.5414
  429MPD2    C5 6399   2.514   2.136   0.055 -0.2449 -0.5921 -0.8304
  429MPD2     H 6400   2.462   1.957  17.426  1.7486 -0.0751 -0.7091
  429MPD2    H1 6401   2.661   2.250  17.649 -0.6263  0.2404  0.5374
  429MPD2    H2 6402   2.363   2.012   0.145 -0.5126  2.5922  0.1476
  429MPD2    H3 6403   2.517   2.184   0.152  2.5889 -1.2049 -0.6216
  429MPD2     N 6404   2.653   2.104  17.421 -0.1393  0.6464 -0.2050
  429MPD2    H5 6405   2.626   2.053  17.337 -0.2666 -1.9581  1.4148
  429MPD2    N1 6406   2.281   1.889  17.609  0.2645  0.0695  0.2949
  429MPD2    H7 6407   2.275   1.820  17.536 -0.8456 -0.8252  1.2351
  430TMC3    C1 6408   2.810   2.182  17.272 -0.0884 -0.1700 -0.3483
  430TMC3    C2 6409   2.885   2.286  17.217  0.6844  0.6365  0.3887
  430TMC3    C3 6410   2.892   2.288  17.084  0.1680  0.0004 -0.4090
  430TMC3    C4 6411   2.771   2.070  17.199  0.3210 -0.8064 -0.3933
  430TMC3    C5 6412   2.801   2.068  17.065  0.7190  0.3916 -0.1460
  430TMC3    C6 6413   2.851   2.179  17.004  0.2528  0.5518  0.0858
  430TMC3     C 6414   2.760   2.186  17.408 -0.2266 -0.5780 -0.2815
  430TMC3     O 6415   2.817   2.259  17.485  0.3257  0.2425  0.4767
  430TMC3     H 6416   2.905   2.378  17.271  1.3233 -0.9090  2.7930
  430TMC3    H1 6417   2.722   1.982  17.239  1.4189 -0.7872  1.0094
  430TMC3    H2 6418   2.892   2.169  16.904 -1.7843 -0.1877 -0.6746
  430TMC3    C7 6419   2.773   1.946  16.994  0.1537 -0.0184 -0.6263
  430TMC3    C8 6420   2.847   2.415  17.037 -0.7345  0.1558  0.7451
  430TMC3    O1 6421   2.701   1.863  17.050 -0.4314 -0.4998 -0.5959
  430TMC3    O2 6422   2.884   2.518  17.094 -0.6167 -0.2310  0.1189
  431MPD2     C 6423   3.540   2.586  12.062 -0.2558 -0.1752 -0.1394
  431MPD2    C1 6424   3.647   2.617  11.980 -1.4445 -0.5359  0.4307
  431MPD2    C2 6425   3.676   2.515  11.885 -0.2160  0.4122 -0.1001
  431MPD2    C3 6426   3.623   2.391  11.875  0.0369 -0.3298 -0.3123
  431MPD2    C4 6427   3.529   2.368  11.971 -0.4080 -0.2808  0.4293
  431MPD2    C5 6428   3.482   2.463  12.055 -0.1963 -0.7191 -0.3816
  431MPD2     H 6429   3.760   2.532  11.818  1.2900  2.0311  2.2165
  431MPD2    H1 6430   3.482   2.271  11.982 -1.2353  0.1212  0.4043
  431MPD2    H2 6431   3.510   2.645  12.149 -2.6412 -0.9725 -0.4192
  431MPD2    H3 6432   3.409   2.430  12.128  0.1109  0.3389  0.4133
  431MPD2     N 6433   3.676   2.282  11.800  0.4405 -0.6097  0.0779
  431MPD2    H5 6434   3.630   2.193  11.819 -0.1818 -0.5767 -1.2472
  431MPD2    N1 6435   3.724   2.735  11.994  0.2073  0.1682  0.1869
  431MPD2    H7 6436   3.790   2.746  11.918 -0.6539 -1.0569 -0.7197
  432TMC3    C1 6437   3.794   2.161  11.632  0.6616 -0.4464  0.3264
  432TMC3    C2 6438   3.894   2.161  11.533 -0.5469 -0.2889  0.0977
  432TMC3    C3 6439   3.909   2.040  11.467  0.0572  0.3441  0.6219
  432TMC3    C4 6440   3.722   2.048  11.669  0.6449  0.5131 -0.0260
  432TMC3    C5 6441   3.750   1.934  11.596 -0.1306 -0.3903 -0.4714
  432TMC3    C6 6442   3.838   1.928  11.495 -0.3148  0.0309 -0.0805
  432TMC3     C 6443   3.782   2.286  11.708 -0.8361 -0.6003  0.4866
  432TMC3     O 6444   3.859   2.378  11.681 -0.6815 -0.7938  0.3628
  432TMC3     H 6445   3.948   2.251  11.502 -0.7010  0.0029  0.6828
  432TMC3    H1 6446   3.647   2.050  11.748  1.4800 -2.2024  0.8050
  432TMC3    H2 6447   3.854   1.834  11.444 -1.4110 -0.4887  0.5499
  432TMC3    C7 6448   3.729   1.809  11.662  0.3538 -0.4367  0.1808
  432TMC3    C8 6449   4.022   2.016  11.390  0.1242 -0.5505  0.3538
  432TMC3    O1 6450   3.723   1.698  11.604 -0.3136 -0.3996 -0.4753
  432TMC3    O2 6451   4.005   1.953  11.283  0.2373  0.2699 -0.1127
  433MPD2     C 6452   2.370   1.121  11.022 -0.3015 -0.3186 -0.5179
  433MPD2    C1 6453   2.423   0.994  11.025 -0.0249 -0.3513  0.1871
  433MPD2    C2 6454   2.486   0.958  11.137  0.3210  0.3382  0.0193
  433MPD2    C3 6455   2.515   1.053  11.233 -0.5147  0.9835 -0.3774
  433MPD2    C4 6456   2.476   1.183  11.227  0.0461 -0.5604  0.6177
  433MPD2    C5 6457   2.400   1.213  11.119 -0.1596  0.4943 -0.5322
  433MPD2     H 6458   2.522   0.858  11.160  0.9624  0.3974 -0.7391
  433MPD2    H1 6459   2.470   1.246  11.314  1.4613 -1.4033  1.3243
  433MPD2    H2 6460   2.300   1.141  10.941 -0.0992 -0.6480 -0.7748
  433MPD2    H3 6461   2.352   1.310  11.111 -1.6862  0.0344  2.8373
  433MPD2     N 6462   2.582   1.003  11.351  0.2445  0.1302  0.3470
  433MPD2    H5 6463   2.610   0.907  11.336  0.7947  0.1462  1.2986
  433MPD2    N1 6464   2.398   0.903  10.918  0.1116 -0.4297  0.6759
  433MPD2    H7 6465   2.354   0.947  10.838  0.0150  1.9290  2.0419
  434TMC3    C1 6466   2.451   0.735  10.765  0.2467  0.0030 -0.8005
  434TMC3    C2 6467   2.473   0.602  10.762  0.2822 -0.3857 -0.3811
  434TMC3    C3 6468   2.528   0.548  10.649  0.0885  0.2031  0.6332
  434TMC3    C4 6469   2.481   0.824  10.659  0.5144 -0.1184  0.0549
  434TMC3    C5 6470   2.514   0.761  10.541 -0.6051  0.3074  0.5851
  434TMC3    C6 6471   2.548   0.626  10.544  0.6138 -0.4445 -0.1039
  434TMC3     C 6472   2.458   0.781  10.900  0.0884  0.1671  0.2005
  434TMC3     O 6473   2.484   0.700  10.989 -0.0004  0.3358 -0.1521
  434TMC3     H 6474   2.448   0.539  10.846  2.8651 -0.1454  0.5572
  434TMC3    H1 6475   2.453   0.929  10.653 -0.5963 -0.3719  0.9263
  434TMC3    H2 6476   2.574   0.573  10.453 -0.3018  1.0393 -1.2389
  434TMC3    C7 6477   2.432   0.797  10.424  0.8940  0.1753 -0.6172
  434TMC3    C8 6478   2.625   0.446  10.674  0.0549 -1.2663 -0.7523
  434TMC3    O1 6479   2.357   0.893  10.420  0.0056 -0.2811  0.0327
  434TMC3    O2 6480   2.613   0.401  10.787  0.0682 -0.3764  0.5467
  435MPD2     C 6481   3.966   0.606  15.338  0.4718  0.0044  0.0087
  435MPD2    C1 6482   3.943   0.620  15.472 -0.2117  0.2928  0.2435
  435MPD2    C2 6483   4.044   0.584  15.565  0.1248  0.3406 -0.9748
  435MPD2    C3 6484   4.159   0.527  15.519  0.1110  0.2561 -0.0955
  435MPD2    C4 6485   4.187   0.517  15.385 -0.0126  0.3430  0.8405
  435MPD2    C5 6486   4.091   0.561  15.294  0.1547 -0.0755  0.2611
  435MPD2     H 6487   4.022   0.593  15.671 -1.1051  2.0351 -1.3789
  435MPD2    H1 6488   4.286   0.492  15.351  0.1337  0.9292  0.8270
  435MPD2    H2 6489   3.898   0.639  15.261 -1.5964 -0.8831  1.4427
  435MPD2    H3 6490   4.113   0.565  15.188 -1.7212 -0.1023 -0.1300
  435MPD2     N 6491   4.259   0.493  15.615  0.2868 -0.0963 -0.3725
  435MPD2    H5 6492   4.245   0.526  15.710 -0.6168  0.4891 -0.7189
  435MPD2    N1 6493   3.814   0.659  15.522 -0.4330 -0.3366 -0.1130
  435MPD2    H7 6494   3.798   0.663  15.622 -1.1712 -0.7209 -0.2139
  436TMC3    C1 6495   3.516   0.832  15.733 -0.0784  0.5248 -0.3092
  436TMC3    C2 6496   3.619   0.773  15.661  0.1322 -0.0251 -0.5543
  436TMC3    C3 6497   3.597   0.739  15.531 -0.3662 -0.0411  0.1975
  436TMC3    C4 6498   3.400   0.882  15.672 -0.1509 -0.5927  0.0521
  436TMC3    C5 6499   3.384   0.855  15.537  0.9860 -0.5075 -0.3299
  436TMC3    C6 6500   3.475   0.784  15.470 -0.1199  0.9226 -0.2680
  436TMC3     C 6501   3.550   0.884  15.867 -0.0441 -0.3405 -0.7347
  436TMC3     O 6502   3.666   0.906  15.894  0.2867  0.1260  0.2757
  436TMC3     H 6503   3.712   0.763  15.715 -0.3452  3.7046  0.9763
  436TMC3    H1 6504   3.314   0.925  15.723  0.0044 -3.0506  2.3764
  436TMC3    H2 6505   3.462   0.771  15.363  0.5125  1.0431 -0.3633
  436TMC3    C7 6506   3.261   0.879  15.475  0.4862  0.5815  0.1459
  436TMC3    C8 6507   3.714   0.718  15.448  0.7700  0.4986 -0.5143
  436TMC3    O1 6508   3.165   0.870  15.549  0.2216  0.0616 -0.1084
  436TMC3    O2 6509   3.707   0.747  15.329  0.8573 -0.1413 -0.2934
  437TMC3    C1 6510   2.778   2.792  12.833  0.2142  0.3156  0.0118
  437TMC3    C2 6511   2.672   2.846  12.901  0.0435 -0.0867  0.1270
  437TMC3    C3 6512   2.643   2.977  12.895  0.4337 -0.0416  0.5204
  437TMC3    C4 6513   2.853   2.869  12.746 -0.8522 -0.9922 -0.0285
  437TMC3    C5 6514   2.821   3.000  12.744  0.3112 -0.1953 -0.6068
  437TMC3    C6 6515   2.723   3.055  12.817  0.4452 -0.4200 -0.4500
  437TMC3     C 6516   2.803   2.654  12.864 -1.8625  0.4557 -0.0449
  437TMC3     O 6517   2.754   2.601  12.963 -0.1117  0.0117  0.1367
  437TMC3     H 6518   2.628   2.781  12.976 -2.2105  0.5316 -0.6499
  437TMC3    H1 6519   2.917   2.833  12.666  1.2163 -0.0913  1.2280
  437TMC3    H2 6520   2.697   3.160  12.814  0.5860 -0.3121  2.1342
  437TMC3    C7 6521   2.887   3.099  12.659  0.5286 -0.0083 -0.4987
  437TMC3    C8 6522   2.556   3.046  12.989 -0.3499 -0.3068 -0.1809
  437TMC3    O1 6523   2.835   3.206  12.635 -0.5446  0.2592  0.3810
  437TMC3    O2 6524   2.564   3.168  13.001 -0.9162 -0.2813  0.1750
  438MPD2     C 6525   0.010   3.677  16.745  0.1385 -0.0037  0.0726
  438MPD2    C1 6526   0.105   3.641  16.841 -0.1714  0.4846 -0.0585
  438MPD2    C2 6527   0.061   3.608  16.967  0.1899 -0.4581 -0.0743
  438MPD2    C3 6528   4.649   3.610  17.004  0.1844 -0.5459  0.4125
  438MPD2    C4 6529   4.561   3.644  16.904 -0.1299 -0.2154 -0.1377
  438MPD2    C5 6530   4.604   3.663  16.773 -0.1798  0.7208  0.4946
  438MPD2     H 6531   0.131   3.572  17.041 -0.1171 -1.1787 -0.1343
  438MPD2    H1 6532   4.456   3.665  16.925 -0.6152 -1.4221 -1.3265
  438MPD2    H2 6533   0.035   3.690  16.640  0.2715  0.6481  0.1872
  438MPD2    H3 6534   4.531   3.684  16.696 -1.5175  0.2023  1.6274
  438MPD2     N 6535   4.599   3.582  17.133 -0.9121  0.0685  0.8896
  438MPD2    H5 6536   4.499   3.600  17.140 -0.6489  1.9569 -0.4157
  438MPD2    N1 6537   0.242   3.624  16.823  0.3614  0.4686  0.3065
  438MPD2    H7 6538   0.284   3.580  16.904  0.9601  2.3309  1.0053
  439TMC3    C1 6539   0.429   3.564  16.691  0.1781 -0.3479 -0.0991
  439TMC3    C2 6540   0.475   3.530  16.570 -0.0503 -0.2831 -0.6299
  439TMC3    C3 6541   0.602   3.477  16.563  0.1874 -0.5464  0.0640
  439TMC3    C4 6542   0.507   3.556  16.802  0.6617  0.3731  0.2506
  439TMC3    C5 6543   0.636   3.514  16.794 -0.0325 -0.5136 -0.4806
  439TMC3    C6 6544   0.684   3.476  16.668 -0.6129 -0.0978  0.4977
  439TMC3     C 6545   0.300   3.631  16.698 -0.0470 -0.2383 -0.2347
  439TMC3     O 6546   0.254   3.672  16.593  0.4129  0.2897 -0.3812
  439TMC3     H 6547   0.414   3.536  16.481 -0.2945 -2.1653 -0.6047
  439TMC3    H1 6548   0.483   3.592  16.901  0.8844 -0.0827  0.4715
  439TMC3    H2 6549   0.782   3.430  16.659  0.4845  2.7883 -2.2162
  439TMC3    C7 6550   0.700   3.451  16.911 -0.4283 -0.1062  0.2209
  439TMC3    C8 6551   0.650   3.411  16.442 -0.2006  0.6426  0.5890
  439TMC3    O1 6552   0.816   3.413  16.895  0.7011 -0.0273 -0.6270
  439TMC3    O2 6553   0.748   3.338  16.456  1.0351  0.3498  0.2161
  440MPD2     C 6554   4.218   3.468  14.561 -0.1972  1.2447  0.1518
  440MPD2    C1 6555   4.117   3.529  14.629  0.2336 -0.2147  0.1995
  440MPD2    C2 6556   4.094   3.495  14.758  0.1279  0.0191 -0.7155
  440MPD2    C3 6557   4.172   3.403  14.825 -0.2274  0.1348 -0.2501
  440MPD2    C4 6558   4.288   3.359  14.766 -0.3104  0.0034 -0.7306
  440MPD2    C5 6559   4.304   3.382  14.632  0.2630  1.1197 -0.1267
  440MPD2     H 6560   4.012   3.534  14.816 -0.3159 -0.2314 -1.1830
  440MPD2    H1 6561   4.364   3.298  14.815  1.1595  1.6429 -0.9803
  440MPD2    H2 6562   4.239   3.492  14.458 -2.1506  0.1545 -0.5042
  440MPD2    H3 6563   4.387   3.337  14.579 -1.2808  0.5636 -2.0577
  440MPD2     N 6564   4.146   3.382  14.959  0.3144 -0.5787  0.1853
  440MPD2    H5 6565   4.069   3.434  15.001 -1.6555 -2.0360 -1.6456
  440MPD2    N1 6566   4.028   3.621  14.569 -0.2974 -0.1717 -0.2769
  440MPD2    H7 6567   3.960   3.654  14.637 -0.0400 -0.2339  0.0113
  441TMC3    C1 6568   4.154   3.289  15.176 -0.0857 -0.4053  0.1760
  441TMC3    C2 6569   4.161   3.416  15.225 -0.4372 -0.7406 -0.1369
  441TMC3    C3 6570   4.187   3.430  15.353  0.0209  0.0110 -0.2205
  441TMC3    C4 6571   4.157   3.178  15.255 -0.0430 -0.0324  0.0179
  441TMC3    C5 6572   4.196   3.202  15.383  0.4181 -0.7967  0.2326
  441TMC3    C6 6573   4.202   3.327  15.439  0.6345  0.8215 -0.5301
  441TMC3     C 6574   4.205   3.287  15.043 -0.4838 -0.2148  0.2132
  441TMC3     O 6575   4.273   3.189  15.019 -0.0858  0.0192 -0.1300
  441TMC3     H 6576   4.165   3.503  15.160  1.0872 -1.8520 -1.5566
  441TMC3    H1 6577   4.172   3.081  15.210 -4.1908  0.8095 -3.1803
  441TMC3    H2 6578   4.226   3.340  15.544 -1.0011  2.8604 -0.4110
  441TMC3    C7 6579   4.192   3.081  15.470 -0.2336 -0.4364  0.3743
  441TMC3    C8 6580   4.176   3.565  15.408 -0.0027  0.1044  0.2271
  441TMC3    O1 6581   4.120   2.992  15.423 -0.0503 -0.1460 -0.2473
  441TMC3    O2 6582   4.226   3.588  15.517  0.1860 -0.3105  0.0253
  442MPD2     C 6583   2.346   4.422  16.449  0.0242 -0.0094  0.4887
  442MPD2    C1 6584   2.244   4.352  16.504 -0.3999  0.1729  0.8688
  442MPD2    C2 6585   2.230   4.212  16.479  0.0024  0.1784 -1.1078
  442MPD2    C3 6586   2.314   4.149  16.385 -0.2811 -0.5436 -0.5445
  442MPD2    C4 6587   2.415   4.225  16.332 -0.5070 -0.8395  0.1298
  442MPD2    C5 6588   2.429   4.358  16.361  0.0733  0.1130  0.2030
  442MPD2     H 6589   2.147   4.158  16.522  1.3327 -0.3267  0.8400
  442MPD2    H1 6590   2.486   4.181  16.262  0.4700 -0.9577  1.1876
  442MPD2    H2 6591   2.365   4.528  16.458 -2.1000  0.5213 -1.3505
  442MPD2    H3 6592   2.516   4.406  16.318  1.1584 -0.2955  1.9340
  442MPD2     N 6593   2.298   4.014  16.353  0.2455 -0.3503 -0.3097
  442MPD2    H5 6594   2.366   3.989  16.282  1.5487  0.0355  0.8004
  442MPD2    N1 6595   2.150   4.423  16.587 -0.4354 -0.2525 -0.4685
  442MPD2    H7 6596   2.081   4.364  16.632 -0.2352 -2.0462 -2.5420
  443TMC3    C1 6597   2.030   4.603  16.688 -0.1532  0.1817  0.0736
  443TMC3    C2 6598   2.013   0.014  16.680  0.2207  0.1312 -0.7668
  443TMC3    C3 6599   1.902   0.060  16.735  0.0961 -0.3747  0.1324
  443TMC3    C4 6600   1.945   4.515  16.750  0.0728  0.3721 -0.7819
  443TMC3    C5 6601   1.833   4.573  16.801 -0.6902 -0.0564  0.7876
  443TMC3    C6 6602   1.813   4.710  16.797  0.0193 -0.1514 -0.0248
  443TMC3     C 6603   2.155   4.557  16.619 -0.3057  0.5482  0.2093
  443TMC3     O 6604   2.239   4.642  16.585  0.3487 -0.3268 -0.4359
  443TMC3     H 6605   2.084   0.086  16.641 -0.2936 -0.0371 -1.9799
  443TMC3    H1 6606   1.975   4.411  16.757  1.0652  0.7267  0.3525
  443TMC3    H2 6607   1.727   0.031  16.848 -0.3764 -0.4460 -0.4337
  443TMC3    C7 6608   1.736   4.492  16.869  0.2180 -0.1438  0.7383
  443TMC3    C8 6609   1.843   0.181  16.691  0.5016 -0.2551 -0.1909
  443TMC3    O1 6610   1.720   4.379  16.825  0.8987  0.7555 -0.3602
  443TMC3    O2 6611   1.799   0.251  16.782  0.2904 -0.3685 -0.1007
  444MPD2     C 6612   2.641   3.237  16.833  0.3218  0.5052  0.0700
  444MPD2    C1 6613   2.531   3.187  16.771 -0.5535  0.4113 -0.7589
  444MPD2    C2 6614   2.545   3.073  16.686  0.2438 -0.0356  0.4688
  444MPD2    C3 6615   2.663   3.011  16.660 -0.6935 -0.9627 -0.4404
  444MPD2    C4 6616   2.770   3.068  16.729  0.3032 -0.3121  0.9212
  444MPD2    C5 6617   2.765   3.182  16.805 -0.6607  0.0743  0.6869
  444MPD2     H 6618   2.453   3.036  16.642  0.5249 -1.5626  1.1474
  444MPD2    H1 6619   2.874   3.039  16.723  0.4128  0.4081 -0.6548
  444MPD2    H2 6620   2.640   3.320  16.903  0.7745 -1.5675  2.5288
  444MPD2    H3 6621   2.858   3.221  16.846 -1.8011 -0.6293  3.9135
  444MPD2     N 6622   2.669   2.909  16.562 -0.2222  0.4263  0.8165
  444MPD2    H5 6623   2.587   2.886  16.507  1.0444  2.5112 -1.9089
  444MPD2    N1 6624   2.404   3.244  16.806  0.6409 -0.0251 -0.0772
  444MPD2    H7 6625   2.399   3.322  16.871  1.2358  0.3105 -0.4316
  445TMC3    C1 6626   2.762   2.726  16.452 -0.0469  0.1711 -0.3806
  445TMC3    C2 6627   2.648   2.710  16.372  0.1174 -0.1771 -0.0703
  445TMC3    C3 6628   2.651   2.598  16.286 -0.3851  0.0966  0.1245
  445TMC3    C4 6629   2.863   2.634  16.454  0.2231 -0.3860 -0.4011
  445TMC3    C5 6630   2.857   2.522  16.375  0.4360 -0.2022 -0.1750
  445TMC3    C6 6631   2.750   2.499  16.292  0.3938  0.0680 -0.4584
  445TMC3     C 6632   2.783   2.839  16.545  0.4033  0.2305  0.2997
  445TMC3     O 6633   2.902   2.867  16.570 -0.1029 -0.2643 -0.5739
  445TMC3     H 6634   2.591   2.796  16.339  1.3213  0.5965 -0.1485
  445TMC3    H1 6635   2.948   2.666  16.514  1.4838 -2.0562 -1.2907
  445TMC3    H2 6636   2.745   2.404  16.241 -1.7387 -0.0828  0.0019
  445TMC3    C7 6637   2.984   2.466  16.337  0.1486  0.1703 -0.3229
  445TMC3    C8 6638   2.544   2.591  16.188 -0.4460  0.6518 -0.3626
  445TMC3    O1 6639   2.994   2.444  16.213 -0.0569 -0.8515  0.2194
  445TMC3    O2 6640   2.461   2.681  16.187 -0.1283 -0.1839 -0.2333
  446MPD2     C 6641   2.377   0.155  11.205  0.1622  0.2981  0.1992
  446MPD2    C1 6642   2.367   0.213  11.086 -0.1572 -0.1901  0.1040
  446MPD2    C2 6643   2.465   0.299  11.041  0.3272  0.6000 -0.4199
  446MPD2    C3 6644   2.575   0.330  11.120 -0.2510 -0.4372  0.2821
  446MPD2    C4 6645   2.588   0.273  11.247  0.2116  0.7586 -0.1024
  446MPD2    C5 6646   2.481   0.197  11.287 -0.0760  0.2131 -0.0605
  446MPD2     H 6647   2.443   0.339  10.943  1.0435 -0.1221 -0.8643
  446MPD2    H1 6648   2.669   0.287  11.318 -2.4969  0.1850  3.1215
  446MPD2    H2 6649   2.308   0.083  11.249 -2.8846  1.2240 -3.1066
  446MPD2    H3 6650   2.478   0.155  11.387  1.8759  0.4660  0.0959
  446MPD2     N 6651   2.670   0.432  11.078  0.0734 -0.4689 -0.2802
  446MPD2    H5 6652   2.652   0.457  10.981 -2.6300 -0.5347  0.2118
  446MPD2    N1 6653   2.260   0.180  10.995 -0.2752 -0.2999  0.2028
  446MPD2    H7 6654   2.254   0.227  10.905 -0.1236  0.7110  0.7203
  447TMC3    C1 6655   2.888   0.529  11.050 -0.5766 -0.1997 -0.8984
  447TMC3    C2 6656   2.844   0.605  10.938  0.5162 -0.1424 -0.0336
  447TMC3    C3 6657   2.938   0.665  10.859 -0.4531 -0.1989  0.0435
  447TMC3    C4 6658   3.018   0.528  11.095  0.6931  1.1582 -0.2289
  447TMC3    C5 6659   3.102   0.589  11.014  0.3221 -0.8424  0.3903
  447TMC3    C6 6660   3.072   0.659  10.901 -0.3631  0.3581  0.3412
  447TMC3     C 6661   2.790   0.450  11.129 -0.2929  0.0168 -0.6816
  447TMC3     O 6662   2.835   0.391  11.226  0.2722 -0.3836  0.0805
  447TMC3     H 6663   2.738   0.609  10.913  0.4347 -2.0767  0.0682
  447TMC3    H1 6664   3.053   0.471  11.180 -0.8401 -0.4171 -0.6620
  447TMC3    H2 6665   3.152   0.716  10.855 -1.8025 -0.6094 -3.3587
  447TMC3    C7 6666   3.243   0.553  11.035 -0.5927 -0.2351 -0.0733
  447TMC3    C8 6667   2.901   0.743  10.742 -0.3419  0.3666 -0.1307
  447TMC3    O1 6668   3.314   0.545  10.934 -0.4149 -0.1390  0.2623
  447TMC3    O2 6669   2.781   0.777  10.731  0.1072  0.2070 -0.4255
  448TMC3    C1 6670   4.449   4.088  17.392  0.7219  0.6439  0.4904
  448TMC3    C2 6671   4.549   4.112  17.302  0.0859  0.4619 -0.1966
  448TMC3    C3 6672   4.587   4.017  17.212  0.0046 -0.4915  0.2543
  448TMC3    C4 6673   4.367   3.984  17.389 -0.5482  0.3115  0.2695
  448TMC3    C5 6674   4.402   3.884  17.300  0.8154 -0.4908 -0.5639
  448TMC3    C6 6675   4.505   3.903  17.204  0.3012 -0.3654 -0.6026
  448TMC3     C 6676   4.406   4.189  17.482  0.0710  0.2425  0.2463
  448TMC3     O 6677   4.345   4.157  17.583  0.5280  0.3617  1.0312
  448TMC3     H 6678   4.609   4.199  17.322  0.8335  0.0055 -0.4682
  448TMC3    H1 6679   4.268   3.983  17.434 -0.7460 -1.2620 -0.2010
  448TMC3    H2 6680   4.527   3.829  17.129  3.1135 -0.1245 -0.0306
  448TMC3    C7 6681   4.328   3.761  17.303  0.0231  0.5798  0.3354
  448TMC3    C8 6682   4.657   4.054  17.095  0.4102 -0.4738  0.0831
  448TMC3    O1 6683   4.351   3.684  17.215  0.1632  0.0921 -0.1122
  448TMC3    O2 6684   0.023   4.133  17.113 -0.8314 -0.0723  0.4177
  449MPD2     C 6685   1.800   3.197  13.574 -0.3170  0.1246 -0.1386
  449MPD2    C1 6686   1.808   3.179  13.435 -0.5305  0.3894  0.1548
  449MPD2    C2 6687   1.728   3.079  13.384 -0.3544 -0.3472  0.0865
  449MPD2    C3 6688   1.646   2.995  13.461 -0.0864  0.0017  0.8792
  449MPD2    C4 6689   1.634   3.017  13.592  0.1746 -0.1300 -0.3708
  449MPD2    C5 6690   1.714   3.116  13.653  0.0477 -0.1372  0.3112
  449MPD2     H 6691   1.719   3.066  13.276 -1.7078  1.6503 -0.0215
  449MPD2    H1 6692   1.574   2.958  13.661  2.0770  0.9598  2.2304
  449MPD2    H2 6693   1.855   3.274  13.627 -0.7121 -0.5246  1.2204
  449MPD2    H3 6694   1.691   3.127  13.758 -0.2705  0.8728  0.1371
  449MPD2     N 6695   1.576   2.901  13.383  0.2452 -0.1406  0.0450
  449MPD2    H5 6696   1.574   2.898  13.282 -0.8897 -0.0449  0.0627
  449MPD2    N1 6697   1.858   3.272  13.338  0.5547  0.3630  0.4220
  449MPD2    H7 6698   1.853   3.239  13.242  1.4672  2.1341 -0.2275
  450TMC3    C1 6699   1.979   3.441  13.230  0.6310  0.3044  0.0338
  450TMC3    C2 6700   2.092   3.516  13.233 -0.2889  0.2643 -0.3957
  450TMC3    C3 6701   2.144   3.545  13.110  0.4555 -0.4011  1.0103
  450TMC3    C4 6702   1.923   3.393  13.114 -0.0939 -0.4353 -0.3187
  450TMC3    C5 6703   1.980   3.420  12.996  0.1124  0.5944 -0.5025
  450TMC3    C6 6704   2.096   3.497  12.990  0.2457 -0.2950  0.5020
  450TMC3     C 6705   1.927   3.389  13.356 -0.8095  0.1947  0.0428
  450TMC3     O 6706   1.971   3.445  13.455 -0.0185 -0.0718  0.4932
  450TMC3     H 6707   2.133   3.554  13.326  2.4894 -0.6142 -1.2678
  450TMC3    H1 6708   1.821   3.356  13.115 -0.6673  1.1354 -0.2302
  450TMC3    H2 6709   2.144   3.510  12.894 -0.1908 -2.9867 -0.0840
  450TMC3    C7 6710   1.927   3.367  12.865  0.1200 -0.4605 -0.4942
  450TMC3    C8 6711   2.225   3.658  13.107 -0.2908 -0.5486  0.8361
  450TMC3    O1 6712   1.917   3.434  12.762  0.4260  0.2828 -0.3146
  450TMC3    O2 6713   2.207   3.744  13.193  0.7877  0.0986 -0.0042
  451MPD2     C 6714   2.252   1.479   1.034  0.2445 -0.5971  0.2989
  451MPD2    C1 6715   2.362   1.476   1.123 -0.2921  0.5342 -0.5111
  451MPD2    C2 6716   2.467   1.400   1.082 -0.5419  0.0351 -0.5110
  451MPD2    C3 6717   2.466   1.315   0.971  0.2676 -0.2717  0.6412
  451MPD2    C4 6718   2.363   1.333   0.881  0.1659  0.1439 -0.0255
  451MPD2    C5 6719   2.255   1.414   0.916  0.3319 -0.4231  0.3256
  451MPD2     H 6720   2.548   1.385   1.153 -0.9794  1.5466  0.3146
  451MPD2    H1 6721   2.344   1.273   0.793 -3.0075 -0.0747  0.7964
  451MPD2    H2 6722   2.166   1.538   1.063  0.4051  0.0027 -0.4358
  451MPD2    H3 6723   2.174   1.435   0.847  0.0078  1.0876  1.1774
  451MPD2     N 6724   2.559   1.215   0.947  0.1272  0.7704 -0.6211
  451MPD2    H5 6725   2.543   1.154   0.867  2.4087  0.3639 -0.7612
  451MPD2    N1 6726   2.368   1.557   1.238  0.0057 -0.2147  0.2350
  451MPD2    H7 6727   2.288   1.617   1.254 -0.4466 -0.1834 -2.0841
  452TMC3    C1 6728   2.756   1.085   0.974 -0.2851  0.5067 -1.0141
  452TMC3    C2 6729   2.844   1.020   1.066 -0.6546 -0.3854 -0.0736
  452TMC3    C3 6730   2.953   0.952   1.019  0.5577 -0.4779 -0.2177
  452TMC3    C4 6731   2.775   1.065   0.840  0.2481  0.1710 -0.2475
  452TMC3    C5 6732   2.876   0.985   0.802  0.2193 -0.7629 -0.1572
  452TMC3    C6 6733   2.958   0.920   0.886  0.0661 -0.1594  0.0949
  452TMC3     C 6734   2.675   1.190   1.022  0.1695 -0.1694  0.1094
  452TMC3     O 6735   2.719   1.248   1.123 -0.4207 -0.2197  0.9618
  452TMC3     H 6736   2.850   1.046   1.171  2.1293  1.0913 -0.5872
  452TMC3    H1 6737   2.715   1.120   0.768 -0.3017  1.1065  0.9323
  452TMC3    H2 6738   3.038   0.863   0.840  0.1830 -1.5545  2.0255
  452TMC3    C7 6739   2.906   0.980   0.660  0.3098 -0.6573  0.1632
  452TMC3    C8 6740   3.027   0.869   1.109  0.6451  0.2677  0.1348
  452TMC3    O1 6741   2.868   1.069   0.590 -0.0260  0.1089  0.8486
  452TMC3    O2 6742   2.969   0.815   1.202  0.5198  0.1673  0.5555
  453TMC3    C1 6743   4.519   4.212  11.728 -0.3910 -0.6720 -0.0257
  453TMC3    C2 6744   4.459   4.094  11.742  0.4093 -0.1631 -0.3243
  453TMC3    C3 6745   4.370   4.071  11.635 -0.1619  0.1261  0.5310
  453TMC3    C4 6746   4.490   4.310  11.637 -0.0276 -0.5207  0.1904
  453TMC3    C5 6747   4.402   4.280  11.536  0.0394  0.3878 -0.5997
  453TMC3    C6 6748   4.352   4.161  11.531  0.1581  0.6973 -0.4135
  453TMC3     C 6749   4.647   4.237  11.802  0.1163 -0.8025  0.4733
  453TMC3     O 6750   4.682   4.350  11.826  0.3871 -0.5584 -0.0991
  453TMC3     H 6751   4.497   4.024  11.815 -0.0690 -1.3061 -1.1856
  453TMC3    H1 6752   4.550   4.400  11.633  0.3415 -0.8561 -2.1982
  453TMC3    H2 6753   4.288   4.133  11.449 -0.3591 -1.2186  0.6487
  453TMC3    C7 6754   4.408   4.345  11.403  0.5584  0.0610  0.3330
  453TMC3    C8 6755   4.302   3.936  11.646  0.0696 -0.2003  0.1957
  453TMC3    O1 6756   4.363   4.285  11.307  0.2755 -0.3599  0.4702
  453TMC3    O2 6757   4.318   3.875  11.748  0.3709  0.8878 -0.5686
  454MPD2     C 6758   3.307   2.897  16.295 -0.7750 -0.6496  0.4692
  454MPD2    C1 6759   3.265   3.029  16.276 -0.0863  0.2506  0.0612
  454MPD2    C2 6760   3.240   3.114  16.384  0.1603  1.0131  0.4678
  454MPD2    C3 6761   3.241   3.061  16.514  0.1913  0.3200  0.0266
  454MPD2    C4 6762   3.289   2.934  16.532 -0.5766 -0.0868  0.0970
  454MPD2    C5 6763   3.320   2.853  16.427 -0.2115  0.5264  0.6014
  454MPD2     H 6764   3.220   3.217  16.356  0.3631  0.5489 -1.4333
  454MPD2    H1 6765   3.307   2.895  16.631  0.0009 -0.6887 -0.2460
  454MPD2    H2 6766   3.337   2.830  16.216 -0.5381  0.5844 -0.4856
  454MPD2    H3 6767   3.366   2.756  16.443 -1.2762  0.0336  0.6958
  454MPD2     N 6768   3.214   3.140  16.627  0.1987 -0.0072 -0.4682
  454MPD2    H5 6769   3.246   3.090  16.710 -0.1748 -1.1981 -1.0454
  454MPD2    N1 6770   3.255   3.083  16.146 -0.3892  0.2307 -0.3396
  454MPD2    H7 6771   3.249   3.184  16.135  1.2296  0.1374 -2.0530
  455TMC3    C1 6772   3.049   3.300  16.538 -0.7910  0.2940 -0.0040
  455TMC3    C2 6773   3.011   3.430  16.519 -0.3960  0.4001  0.2213
  455TMC3    C3 6774   2.920   3.465  16.425  0.3335 -0.6214 -0.0735
  455TMC3    C4 6775   2.970   3.204  16.477 -0.1967 -0.3580 -0.6567
  455TMC3    C5 6776   2.870   3.246  16.385  0.8440  0.0702  0.2083
  455TMC3    C6 6777   2.845   3.375  16.353 -0.5599 -0.1112 -0.0489
  455TMC3     C 6778   3.164   3.268  16.632  0.6026  0.0508 -0.1329
  455TMC3     O 6779   3.170   3.339  16.732 -0.6224  0.7329  0.3828
  455TMC3     H 6780   3.067   3.505  16.573  0.7521  0.1279 -0.5916
  455TMC3    H1 6781   2.989   3.101  16.504  0.0475 -0.0186  0.4764
  455TMC3    H2 6782   2.768   3.406  16.283  0.6667  1.7729 -0.5741
  455TMC3    C7 6783   2.819   3.145  16.286  0.0116  0.0246  0.6193
  455TMC3    C8 6784   2.861   3.589  16.460  0.9385  0.0945  0.1847
  455TMC3    O1 6785   2.734   3.188  16.208 -0.7204 -0.1282  0.2364
  455TMC3    O2 6786   2.932   3.688  16.490  0.3988  0.3510 -0.6364
  456MPD2     C 6787   0.890   3.738  16.084  0.9544  1.0761  0.7394
  456MPD2    C1 6788   0.928   3.677  16.201  0.4152  0.3571 -0.2097
  456MPD2    C2 6789   0.884   3.723  16.322 -0.1019 -0.3685 -0.1588
  456MPD2    C3 6790   0.809   3.842  16.327 -0.6959 -0.2407  0.0282
  456MPD2    C4 6791   0.771   3.893  16.204 -0.4490 -0.1903 -0.0781
  456MPD2    C5 6792   0.802   3.840  16.084 -0.3038  0.0051  0.1089
  456MPD2     H 6793   0.902   3.679  16.419 -0.0211 -0.3569 -0.1682
  456MPD2    H1 6794   0.700   3.975  16.206 -0.7338 -0.4302 -0.2723
  456MPD2    H2 6795   0.913   3.704  15.984 -0.1208  1.1740  0.4553
  456MPD2    H3 6796   0.766   3.894  15.997 -0.7352 -1.1452 -0.4266
  456MPD2     N 6797   0.761   3.882  16.454 -0.1942 -0.0034 -0.0265
  456MPD2    H5 6798   0.797   3.836  16.537  1.4132  0.2967 -0.5555
  456MPD2    N1 6799   0.999   3.558  16.190 -0.3724 -0.1193 -0.0139
  456MPD2    H7 6800   1.032   3.545  16.095  2.6624  0.1976  1.0119
  457TMC3    C1 6801   0.594   3.968  16.600 -0.4623 -0.2939  0.4121
  457TMC3    C2 6802   0.496   4.064  16.618 -0.3293 -0.4361 -1.2448
  457TMC3    C3 6803   0.475   4.091  16.747 -0.5540 -0.5720 -0.5241
  457TMC3    C4 6804   0.656   3.896  16.699  0.3809  0.4798  0.4884
  457TMC3    C5 6805   0.630   3.943  16.829  0.2178  0.1019  0.8930
  457TMC3    C6 6806   0.549   4.045  16.854 -0.2046  0.4371 -0.1626
  457TMC3     C 6807   0.663   3.983  16.474 -0.4616 -0.0674 -0.6206
  457TMC3     O 6808   0.624   4.067  16.396 -0.2947  0.2175 -0.5175
  457TMC3     H 6809   0.438   4.107  16.537  1.6944  1.4515 -1.7328
  457TMC3    H1 6810   0.738   3.827  16.683  0.7244  1.2198 -0.9436
  457TMC3    H2 6811   0.512   4.068  16.953 -0.4373  2.6248 -0.7589
  457TMC3    C7 6812   0.729   3.910  16.932  0.1814  0.3949  0.4366
  457TMC3    C8 6813   0.339   4.134  16.785  0.6942 -0.2793  0.1619
  457TMC3    O1 6814   0.788   3.797  16.936 -0.0891 -0.0718  0.1019
  457TMC3    O2 6815   0.316   4.175  16.901  0.3184  0.1541  0.4795
  458MPD2     C 6816   3.298   3.263  12.385 -0.0394  0.0087 -0.1455
  458MPD2    C1 6817   3.337   3.158  12.457 -0.3332 -0.6232  0.4071
  458MPD2    C2 6818   3.247   3.090  12.543  0.7563 -0.4363  0.5034
  458MPD2    C3 6819   3.110   3.129  12.551 -0.9654 -0.3313 -0.6128
  458MPD2    C4 6820   3.082   3.247  12.485 -0.3606 -0.0968 -0.0165
  458MPD2    C5 6821   3.169   3.309  12.396  0.5358  0.0957  0.5308
  458MPD2     H 6822   3.275   3.002  12.601  2.0978 -1.5319 -1.8177
  458MPD2    H1 6823   2.989   3.302  12.494  0.3534  1.1516 -0.2672
  458MPD2    H2 6824   3.364   3.311  12.313  1.2426 -0.5830  0.6478
  458MPD2    H3 6825   3.136   3.403  12.355  1.9957  0.6053  0.5342
  458MPD2     N 6826   3.023   3.053  12.640 -0.0026  0.1138 -0.0379
  458MPD2    H5 6827   3.056   2.973  12.693 -0.7496 -1.0371 -1.2850
  458MPD2    N1 6828   3.471   3.138  12.465 -0.1747  0.2425  0.2671
  458MPD2    H7 6829   3.518   3.215  12.417 -0.9945  0.0402 -0.8613
  459TMC3    C1 6830   3.674   3.031  12.523  0.0800 -0.3689 -0.6259
  459TMC3    C2 6831   3.731   3.127  12.451 -0.4861  0.0444  0.4207
  459TMC3    C3 6832   3.851   3.179  12.505  0.1798 -0.5930  0.6632
  459TMC3    C4 6833   3.722   2.981  12.646  0.1629  0.2466 -0.5659
  459TMC3    C5 6834   3.842   3.029  12.683  0.2197 -0.0442  0.4908
  459TMC3    C6 6835   3.912   3.121  12.614 -0.2656  0.4020 -0.2049
  459TMC3     C 6836   3.533   3.038  12.535  0.3455 -0.4386  0.1070
  459TMC3     O 6837   3.494   2.928  12.578  0.4076  0.0666  0.2698
  459TMC3     H 6838   3.676   3.168  12.367 -1.1061  0.2827  0.9478
  459TMC3    H1 6839   3.664   2.911  12.706 -0.9552  2.6620  1.1325
  459TMC3    H2 6840   4.011   3.150  12.648 -0.6340  2.0326 -0.5188
  459TMC3    C7 6841   3.892   2.981  12.815 -0.5563 -0.1332 -0.3710
  459TMC3    C8 6842   3.933   3.264  12.422 -0.0157  0.9450  0.0249
  459TMC3    O1 6843   4.010   2.945  12.820 -0.0148 -0.3549 -0.2271
  459TMC3    O2 6844   4.032   3.316  12.470 -0.0801  0.0751 -0.1400
  460MPD2     C 6845   3.118   0.751  10.450 -0.4786 -0.6393 -0.1382
  460MPD2    C1 6846   3.001   0.773  10.514 -0.3651 -0.7087 -0.8219
  460MPD2    C2 6847   2.887   0.810  10.449  0.1554  0.3290  0.1959
  460MPD2    C3 6848   2.889   0.823  10.314  0.4646 -0.0651  1.1572
  460MPD2    C4 6849   3.014   0.813  10.246 -0.0202  0.0608 -0.0516
  460MPD2    C5 6850   3.125   0.773  10.315  0.2342  0.4191  0.3036
  460MPD2     H 6851   2.796   0.834  10.504 -0.0140  1.6292 -0.6492
  460MPD2    H1 6852   3.012   0.834  10.139 -2.7510 -0.6217 -0.1520
  460MPD2    H2 6853   3.203   0.721  10.511 -1.1951 -1.9319  0.2222
  460MPD2    H3 6854   3.219   0.759  10.264  0.3129 -1.7137  1.0258
  460MPD2     N 6855   2.772   0.865  10.251  0.2155 -0.4351 -0.1224
  460MPD2    H5 6856   2.703   0.913  10.307  1.6179  2.1358 -0.6225
  460MPD2    N1 6857   3.007   0.742  10.655 -0.7730 -0.6481 -0.5055
  460MPD2    H7 6858   3.096   0.706  10.690 -1.4790 -1.2574  0.6816
  461TMC3    C1 6859   2.619   0.894  10.068 -0.1606 -0.4695  0.2617
  461TMC3    C2 6860   2.573   0.837   9.951 -0.0112 -0.2196 -0.0540
  461TMC3    C3 6861   2.490   0.901   9.873  0.2237 -0.1732  0.4243
  461TMC3    C4 6862   2.588   1.026  10.093  0.5601  0.1484 -0.1835
  461TMC3    C5 6863   2.510   1.091  10.000  0.3125 -0.2221 -0.2222
  461TMC3    C6 6864   2.454   1.031   9.890 -0.7305  0.7344 -0.2934
  461TMC3     C 6865   2.750   0.850  10.119  1.0151  0.0427 -0.6130
  461TMC3     O 6866   2.821   0.796  10.036 -0.3046  0.0576  0.2804
  461TMC3     H 6867   2.605   0.737   9.925 -4.1638 -1.4447 -0.4520
  461TMC3    H1 6868   2.642   1.075  10.173 -1.9356  2.5622  0.0313
  461TMC3    H2 6869   2.392   1.093   9.825 -2.6344  0.1025  0.9278
  461TMC3    C7 6870   2.528   1.236   9.993  0.8517  0.1332  0.0154
  461TMC3    C8 6871   2.449   0.834   9.754  0.8368 -0.5310 -0.4620
  461TMC3    O1 6872   2.536   1.275   9.880 -0.4398 -0.5785 -0.0886
  461TMC3    O2 6873   2.511   0.861   9.651 -0.7251 -0.1548 -0.1898
  462TMC3    C1 6874   2.567   1.142   0.072 -0.0775 -0.6195 -0.1293
  462TMC3    C2 6875   2.560   1.138  17.628  0.1011 -0.4591 -0.6468
  462TMC3    C3 6876   2.577   1.020  17.555  0.7030 -0.3338  0.5003
  462TMC3    C4 6877   2.587   1.023   0.135  0.5310 -0.3998 -0.0721
  462TMC3    C5 6878   2.587   0.903   0.059  0.1993  0.2142  0.8434
  462TMC3    C6 6879   2.584   0.901  17.620  0.2133  0.5584  0.1417
  462TMC3     C 6880   2.559   1.264   0.154  0.2334  0.3852  0.2794
  462TMC3     O 6881   2.550   1.241   0.274 -0.2433 -0.1464 -0.0682
  462TMC3     H 6882   2.557   1.230  17.572  1.2983 -1.0220 -1.6319
  462TMC3    H1 6883   2.608   1.018   0.241 -0.0782  2.3395  0.1854
  462TMC3    H2 6884   2.541   0.815  17.572 -0.8794  0.3978  1.4184
  462TMC3    C7 6885   2.559   0.776   0.129  0.1077  0.2161 -0.2193
  462TMC3    C8 6886   2.505   1.020  17.428  0.2448  0.4210 -0.0917
  462TMC3    O1 6887   2.502   0.772   0.238  0.2962 -0.5409  0.4025
  462TMC3    O2 6888   2.427   1.107  17.399 -0.2920  0.1919 -0.4330
  463MPD2     C 6889   2.453   4.481   2.168  0.0419 -0.4912 -0.1058
  463MPD2    C1 6890   2.440   4.490   2.028 -0.0168 -0.2870 -0.1192
  463MPD2    C2 6891   2.547   4.539   1.954 -0.6878 -0.4595  0.1000
  463MPD2    C3 6892   2.665   4.577   2.026  0.5885 -0.1382 -0.3134
  463MPD2    C4 6893   2.679   4.550   2.158  0.0219  0.2475 -0.2474
  463MPD2    C5 6894   2.572   4.505   2.232  0.4639  0.4943 -0.1672
  463MPD2     H 6895   2.545   4.534   1.846 -0.0254 -0.7921  0.1046
  463MPD2    H1 6896   2.774   4.568   2.208 -0.4320 -0.1691  0.7739
  463MPD2    H2 6897   2.372   4.440   2.227 -0.1670 -0.7218 -0.5493
  463MPD2    H3 6898   2.582   4.490   2.338 -2.1436  2.2412  0.3144
  463MPD2     N 6899   2.779   4.625   1.957  0.1334 -0.1359  0.1534
  463MPD2    H5 6900   2.853   4.659   2.016 -0.6250 -1.4401  1.8806
  463MPD2    N1 6901   2.316   4.463   1.961 -0.0060  0.3832  0.1163
  463MPD2    H7 6902   2.315   4.493   1.864 -2.2274 -1.4335 -0.4205
  464TMC3    C1 6903   2.088   4.424   1.933  0.1550  0.9811 -0.2394
  464TMC3    C2 6904   2.049   4.548   1.891  0.1563  0.0953 -0.5251
  464TMC3    C3 6905   1.922   4.580   1.902  0.0984 -0.2465  0.5239
  464TMC3    C4 6906   1.991   4.336   1.974  0.2947  0.3847  0.4462
  464TMC3    C5 6907   1.861   4.376   1.982 -0.0621 -0.0684  0.5851
  464TMC3    C6 6908   1.824   4.503   1.956 -0.2465  0.4174 -0.4975
  464TMC3     C 6909   2.196   4.432   2.025  0.8215 -0.5636 -0.5024
  464TMC3     O 6910   2.178   4.375   2.130 -0.3484 -0.3368 -0.0722
  464TMC3     H 6911   2.122   4.616   1.850  1.4234  0.3531  2.1637
  464TMC3    H1 6912   2.019   4.237   2.008  1.8122 -0.0876 -2.1992
  464TMC3    H2 6913   1.722   4.538   1.955  0.2154  1.7819  0.2227
  464TMC3    C7 6914   1.752   4.285   2.008  0.2970 -0.4888 -0.2885
  464TMC3    C8 6915   1.879   4.701   1.839 -0.3745 -0.1071 -0.9704
  464TMC3    O1 6916   1.655   4.342   2.065 -0.3885 -0.0562  0.0793
  464TMC3    O2 6917   1.784   0.031   1.891 -0.4289  0.8567  0.2349
  465MPD2     C 6918   0.116   3.441  16.392  0.1755 -0.1296  0.3606
  465MPD2    C1 6919   4.714   3.429  16.443  0.0191  0.0990 -0.2551
  465MPD2    C2 6920   4.613   3.466  16.364 -0.2867 -0.9810  0.1504
  465MPD2    C3 6921   4.634   3.508  16.232  0.6953 -0.2391  0.5558
  465MPD2    C4 6922   0.041   3.510  16.185  0.2011  0.3144  0.3310
  465MPD2    C5 6923   0.143   3.481  16.267  0.5434 -0.0472 -0.9235
  465MPD2     H 6924   4.512   3.449  16.397 -0.7845  2.3621  0.3246
  465MPD2    H1 6925   0.069   3.545  16.086 -3.1322  0.6601 -0.4868
  465MPD2    H2 6926   0.201   3.422  16.456  0.3370  0.0184  0.1903
  465MPD2    H3 6927   0.247   3.490  16.238  0.9493 -0.4111  0.4202
  465MPD2     N 6928   4.522   3.549  16.158  0.7389 -0.1229 -0.1033
  465MPD2    H5 6929   4.430   3.529  16.195  0.6848 -0.1731 -0.2622
  465MPD2    N1 6930   4.673   3.379  16.566  0.6243 -0.4545  0.2930
  465MPD2    H7 6931   4.577   3.394  16.594  0.8364  1.0092  0.1909
  466TMC3    C1 6932   4.173   3.681  16.026 -0.1468 -0.5750  0.3914
  466TMC3    C2 6933   4.175   3.806  15.983 -0.3049 -0.0299  0.5803
  466TMC3    C3 6934   4.291   3.876  15.968  0.0658  0.2855 -0.0004
  466TMC3    C4 6935   4.293   3.613  16.043  0.6515  0.0146 -0.1632
  466TMC3    C5 6936   4.402   3.675  16.003  0.8187  0.1617 -0.4931
  466TMC3    C6 6937   4.405   3.805  15.955  0.0435 -0.3077 -0.6551
  466TMC3     C 6938   4.081   3.651  16.130 -0.2118 -0.2572 -0.2905
  466TMC3     O 6939   4.121   3.572  16.212 -0.0385  0.0442 -0.1329
  466TMC3     H 6940   4.083   3.863  15.982 -0.1464  0.2218 -0.3679
  466TMC3    H1 6941   4.298   3.508  16.070  3.7922  0.7010  2.0090
  466TMC3    H2 6942   4.499   3.857  15.939 -0.9876  2.0537  0.9572
  466TMC3    C7 6943   4.529   3.625  16.045  0.2355 -0.4398 -0.0125
  466TMC3    C8 6944   4.290   4.023  15.983  0.8356  0.0865  0.1930
  466TMC3    O1 6945   4.622   3.682  15.991  0.1927 -0.1829  0.0334
  466TMC3    O2 6946   4.372   4.091  15.926 -0.3875 -0.1699  0.3628
  467TMC3    C1 6947   0.949   2.435  13.815  0.0681 -0.1876  0.1787
  467TMC3    C2 6948   0.913   2.391  13.690 -0.4347  0.8736 -0.2085
  467TMC3    C3 6949   0.784   2.392  13.658  0.8279  0.1662  0.3541
  467TMC3    C4 6950   0.856   2.476  13.908  0.8110  0.1099 -1.0423
  467TMC3    C5 6951   0.725   2.459  13.875  0.1616  0.2522 -0.1832
  467TMC3    C6 6952   0.686   2.423  13.751  0.2840  0.0806  0.1433
  467TMC3     C 6953   1.087   2.432  13.845  0.0502  0.0325  0.5649
  467TMC3     O 6954   1.131   2.522  13.908 -0.0634  0.0626  0.2072
  467TMC3     H 6955   0.995   2.372  13.621 -1.4233 -0.7789 -0.9430
  467TMC3    H1 6956   0.887   2.489  14.011 -0.0626 -0.2570 -0.7330
  467TMC3    H2 6957   0.584   2.416  13.714  1.2074  2.0444 -2.8241
  467TMC3    C7 6958   0.636   2.513  13.969 -0.1991  0.7452 -0.2141
  467TMC3    C8 6959   0.759   2.401  13.512 -0.4434 -0.5269 -0.3447
  467TMC3    O1 6960   0.671   2.614  14.034  0.0276 -0.2624  0.0888
  467TMC3    O2 6961   0.661   2.461  13.476 -0.0339  0.5090  0.0010
  468MPD2     C 6962   4.561   1.115  10.937 -0.2043  0.6253 -0.9637
  468MPD2    C1 6963   4.673   1.088  10.865 -1.0245 -0.1200  0.7765
  468MPD2    C2 6964   4.686   0.959  10.817 -0.9110 -0.6500 -0.5543
  468MPD2    C3 6965   4.593   0.860  10.834  0.3533 -0.8131  0.0979
  468MPD2    C4 6966   4.483   0.888  10.910  0.0441 -0.7266  0.0708
  468MPD2    C5 6967   4.458   1.020  10.956 -0.4657 -0.0661 -0.3652
  468MPD2     H 6968   0.050   0.942  10.754  0.7158  2.0912  0.9759
  468MPD2    H1 6969   4.410   0.811  10.934  0.0035 -1.2816 -1.8240
  468MPD2    H2 6970   4.538   1.216  10.969  1.9656  0.1960  1.9475
  468MPD2    H3 6971   4.371   1.037  11.018 -0.7329 -0.0502 -0.7433
  468MPD2     N 6972   4.614   0.722  10.796 -0.2819  0.3855  0.4589
  468MPD2    H5 6973   4.535   0.662  10.819 -1.2781  1.7386  0.5425
  468MPD2    N1 6974   0.051   1.177  10.839  0.2640  0.0237  0.6366
  468MPD2    H7 6975   0.131   1.140  10.788 -0.5909 -1.8164  0.6218
  469TMC3    C1 6976   0.189   1.358  10.878 -0.5308  0.0641  0.5663
  469TMC3    C2 6977   0.293   1.275  10.918  0.2675 -0.2832  0.6525
  469TMC3    C3 6978   0.424   1.319  10.922  0.8869 -0.2765 -0.5941
  469TMC3    C4 6979   0.206   1.498  10.867  0.5927 -0.8866 -0.4798
  469TMC3    C5 6980   0.337   1.540  10.898  0.2361 -0.7171 -0.5353
  469TMC3    C6 6981   0.440   1.455  10.915  0.1632 -0.0938  0.2035
  469TMC3     C 6982   0.057   1.304  10.880  0.6891 -0.3009  0.2840
  469TMC3     O 6983   4.689   1.383  10.900 -0.1888  0.0411 -0.3866
  469TMC3     H 6984   0.283   1.167  10.909 -0.9358 -0.2656  1.7721
  469TMC3    H1 6985   0.119   1.559  10.848  0.6989 -0.8862 -0.9543
  469TMC3    H2 6986   0.541   1.494  10.924 -1.2748  3.6040  0.3263
  469TMC3    C7 6987   0.325   1.642  10.993  0.7990  0.4715 -0.3867
  469TMC3    C8 6988   0.524   1.256  11.002 -0.2410 -0.2333 -0.3730
  469TMC3    O1 6989   0.218   1.694  11.010 -0.6037 -0.3435  0.4768
  469TMC3    O2 6990   0.638   1.270  10.959 -0.1358  0.3023 -0.1008
  470TMC3    C1 6991   1.920   1.179   0.386  0.2452 -0.6937 -0.7905
  470TMC3    C2 6992   1.867   1.296   0.431 -0.3749 -0.7956 -0.1491
  470TMC3    C3 6993   1.905   1.341   0.556 -0.0561  0.7102 -0.3990
  470TMC3    C4 6994   2.020   1.114   0.450 -0.8506 -0.5761 -0.0273
  470TMC3    C5 6995   2.045   1.160   0.578 -1.2095  0.1354 -0.4630
  470TMC3    C6 6996   1.998   1.277   0.634 -0.2471 -0.0565 -0.3672
  470TMC3     C 6997   1.883   1.141   0.254  0.0850 -0.1643 -0.3018
  470TMC3     O 6998   1.827   1.225   0.187  0.4850 -0.2619  0.3035
  470TMC3     H 6999   1.776   1.336   0.388 -0.8790  0.2789  1.9142
  470TMC3    H1 7000   2.061   1.020   0.415 -1.0072  0.5605 -3.2497
  470TMC3    H2 7001   2.034   1.316   0.729  2.1685  1.1368 -1.7632
  470TMC3    C7 7002   2.160   1.092   0.635  0.6174  0.1391  0.3538
  470TMC3    C8 7003   1.856   1.472   0.601  0.4573  0.7644  0.1600
  470TMC3    O1 7004   2.235   1.031   0.557 -0.0868  0.3285 -0.0019
  470TMC3    O2 7005   1.871   1.497   0.723 -0.0002  0.2159 -0.0774
  471MPD2     C 7006   2.516   2.703  16.771  0.0508 -0.1372  0.7334
  471MPD2    C1 7007   2.522   2.575  16.715 -0.7107  0.3414 -0.3572
  471MPD2    C2 7008   2.610   2.476  16.770 -0.7651  0.1893 -0.7461
  471MPD2    C3 7009   2.697   2.508  16.872  0.0528 -0.0254 -0.1511
  471MPD2    C4 7010   2.697   2.639  16.919 -0.2774  0.0710 -0.5053
  471MPD2    C5 7011   2.609   2.733  16.869  0.3802  0.1853  0.2183
  471MPD2     H 7012   2.595   2.374  16.738  0.4514  0.1605 -1.2291
  471MPD2    H1 7013   2.764   2.673  16.997  2.0216  1.5385 -3.1357
  471MPD2    H2 7014   2.464   2.791  16.735  1.0753  0.1487 -0.0517
  471MPD2    H3 7015   2.632   2.836  16.894 -0.2979  0.6385 -1.0145
  471MPD2     N 7016   2.772   2.400  16.924 -0.2072  0.2975  0.1040
  471MPD2    H5 7017   2.755   2.304  16.895 -1.3522  0.6146 -0.2814
  471MPD2    N1 7018   2.435   2.531  16.619  0.2973  0.1803 -0.2128
  471MPD2    H7 7019   2.443   2.432  16.597  1.2539  1.0908 -4.0105
  472TMC3    C1 7020   2.267   2.530  16.444 -0.5920 -0.2415  1.0603
  472TMC3    C2 7021   2.179   2.600  16.369  0.0254 -0.3252  0.0164
  472TMC3    C3 7022   2.098   2.533  16.286  0.1966 -0.2279  0.0970
  472TMC3    C4 7023   2.278   2.397  16.441 -0.2173 -0.5628 -0.0690
  472TMC3    C5 7024   2.195   2.332  16.359 -0.1293  0.1366 -0.3019
  472TMC3    C6 7025   2.106   2.399  16.269 -0.5334 -0.2394  0.2174
  472TMC3     C 7026   2.341   2.606  16.548  0.2102 -0.1625 -0.1741
  472TMC3     O 7027   2.319   2.727  16.561  1.1450  0.2098 -0.3497
  472TMC3     H 7028   2.166   2.706  16.392 -1.5525 -0.3059 -0.9332
  472TMC3    H1 7029   2.342   2.346  16.512 -1.0881 -0.6557  0.6514
  472TMC3    H2 7030   2.036   2.348  16.203  0.0834 -0.7868 -0.0220
  472TMC3    C7 7031   2.169   2.196  16.395 -0.3967  0.3075 -0.2505
  472TMC3    C8 7032   1.958   2.563  16.286 -0.7444  0.1111  0.0817
  472TMC3    O1 7033   2.244   2.144  16.481  0.4394 -0.0233 -0.4974
  472TMC3    O2 7034   1.912   2.664  16.237  0.0267 -0.1390  0.0500
  473MPD2     C 7035   2.191   4.556  13.456 -0.7270  0.2037 -0.3094
  473MPD2    C1 7036   2.174   4.663  13.368 -0.4647 -0.4378 -0.3384
  473MPD2    C2 7037   2.230   0.061  13.402 -0.5090  0.2111  0.1387
  473MPD2    C3 7038   2.292   0.076  13.524 -0.1297  0.3438 -0.3942
  473MPD2    C4 7039   2.314   4.693  13.608 -0.0350 -0.0568 -0.1089
  473MPD2    C5 7040   2.257   4.574  13.578  0.2584  0.1105 -1.1652
  473MPD2     H 7041   2.204   0.151  13.349 -0.9806 -0.4443 -0.7330
  473MPD2    H1 7042   2.373   4.705  13.699  0.6594  0.5173 -0.6434
  473MPD2    H2 7043   2.154   4.456  13.438 -1.1900  0.0805  1.3621
  473MPD2    H3 7044   2.260   4.485  13.640 -0.3177 -0.5250 -2.0480
  473MPD2     N 7045   2.336   0.204  13.557  0.1938  0.2366  0.2680
  473MPD2    H5 7046   2.310   0.274  13.488 -1.3238  0.9940  1.5917
  473MPD2    N1 7047   2.097   4.664  13.253  0.4083 -0.1691  0.3184
  473MPD2    H7 7048   2.112   0.020  13.191  1.8201 -1.7635 -1.3785
  474TMC3    C1 7049   2.448   0.380  13.670  0.5203 -0.6740  0.0170
  474TMC3    C2 7050   2.434   0.455  13.551 -0.6105  0.3693  0.2003
  474TMC3    C3 7051   2.477   0.578  13.556  0.5674  0.2506  0.7219
  474TMC3    C4 7052   2.496   0.437  13.787 -0.0301 -0.1953  0.0362
  474TMC3    C5 7053   2.542   0.569  13.780 -0.0680  0.2545 -0.2139
  474TMC3    C6 7054   2.537   0.642  13.665 -0.1964 -0.3869 -0.6672
  474TMC3     C 7055   2.398   0.248  13.672 -0.6776  0.5716  0.5297
  474TMC3     O 7056   2.416   0.181  13.775  0.2990  0.0291  0.2622
  474TMC3     H 7057   2.414   0.401  13.459  2.8065 -0.7772  0.1243
  474TMC3    H1 7058   2.510   0.382  13.879 -2.3839  0.0470  0.5353
  474TMC3    H2 7059   2.583   0.740  13.656  0.2024 -0.4567  0.5641
  474TMC3    C7 7060   2.663   0.594  13.849  0.6359 -0.5462 -0.8163
  474TMC3    C8 7061   2.446   0.654  13.434 -0.2594  0.1189 -0.3917
  474TMC3    O1 7062   2.753   0.647  13.788 -0.6154 -0.2973 -0.3984
  474TMC3    O2 7063   2.399   0.592  13.341 -0.4719  0.2370 -0.0962
  475MPD2     C 7064   1.397   3.083  10.085  0.2484  0.2670 -1.0112
  475MPD2    C1 7065   1.349   3.205  10.107  0.0885 -1.2891 -0.8756
  475MPD2    C2 7066   1.208   3.217  10.120  0.5932 -0.0930  0.8349
  475MPD2    C3 7067   1.128   3.103  10.113 -0.3098 -0.4432  0.6138
  475MPD2    C4 7068   1.192   2.982  10.096 -0.4851 -0.2014  0.2945
  475MPD2    C5 7069   1.320   2.976  10.077  0.3772  0.7179  0.2644
  475MPD2     H 7070   1.168   3.317  10.128  2.1374  0.5925  0.1338
  475MPD2    H1 7071   1.136   2.889  10.089  0.8977 -0.9050 -1.4234
  475MPD2    H2 7072   1.504   3.072  10.068  0.3719  0.2064 -0.2310
  475MPD2    H3 7073   1.353   2.876  10.053 -2.7073  0.0311 -1.1506
  475MPD2     N 7074   0.988   3.112  10.117  0.3325 -0.1094  0.7307
  475MPD2    H5 7075   0.958   3.208  10.127  1.2414  0.2938 -0.4492
  475MPD2    N1 7076   1.443   3.311  10.105  0.0652  0.2126 -0.1068
  475MPD2    H7 7077   1.540   3.281  10.099 -0.6080 -1.9599 -0.2262
  476TMC3    C1 7078   1.305   3.511  10.078 -0.2335  0.5499  0.0964
  476TMC3    C2 7079   1.257   3.481   9.948 -0.1919  0.3082  0.4306
  476TMC3    C3 7080   1.159   3.575   9.904  0.4082 -0.7360 -0.1722
  476TMC3    C4 7081   1.246   3.609  10.155  0.1105 -0.1234  0.3174
  476TMC3    C5 7082   1.138   3.672  10.116 -1.0823 -0.1569  0.3287
  476TMC3    C6 7083   1.094   3.663   9.987 -0.4047  0.1370  0.5650
  476TMC3     C 7084   1.420   3.447  10.139  0.4551  0.2181 -0.3017
  476TMC3     O 7085   1.500   3.529  10.180 -0.7243 -0.4187 -0.3970
  476TMC3     H 7086   1.318   3.427   9.876  0.4740 -1.0813  2.0598
  476TMC3    H1 7087   1.287   3.621  10.255 -2.2070 -1.0395  1.3814
  476TMC3    H2 7088   1.000   3.712   9.964 -0.1019  1.0055  1.1755
  476TMC3    C7 7089   1.037   3.674  10.217 -0.2982  0.2961  0.6132
  476TMC3    C8 7090   1.069   3.524   9.800 -0.2061  0.2708  0.4501
  476TMC3    O1 7091   0.928   3.642  10.173 -0.6723 -0.1153  0.0148
  476TMC3    O2 7092   0.973   3.592   9.765 -0.5452  0.8583  0.2527
  477MPD2     C 7093   3.497   0.273  11.520  0.5300 -0.0889 -0.6018
  477MPD2    C1 7094   3.483   0.142  11.488  0.2134 -0.7022  0.8234
  477MPD2    C2 7095   3.499   0.041  11.581 -0.1070  0.4208  0.0933
  477MPD2    C3 7096   3.512   0.066  11.714 -0.5991 -0.4964  0.4242
  477MPD2    C4 7097   3.511   0.201  11.751  0.5074 -0.0971  0.6621
  477MPD2    C5 7098   3.517   0.291  11.649  0.0585  0.7492 -0.0885
  477MPD2     H 7099   3.492   4.658  11.561 -0.9576  0.7707 -1.5114
  477MPD2    H1 7100   3.525   0.236  11.853 -0.2895 -2.3943  1.5625
  477MPD2    H2 7101   3.483   0.358  11.454  0.3697 -0.6958 -1.3525
  477MPD2    H3 7102   3.542   0.393  11.676 -1.6362  1.1162  0.0686
  477MPD2     N 7103   3.506   4.679  11.803 -0.2888  0.0453  0.1206
  477MPD2    H5 7104   3.512   4.587  11.762 -0.5238 -1.0734  2.6321
  477MPD2    N1 7105   3.441   0.121  11.357 -0.8408  0.1407 -0.6301
  477MPD2    H7 7106   3.414   0.204  11.305 -1.3824 -0.0994 -0.7359
  478TMC3    C1 7107   3.273   0.012  11.229 -0.2831 -0.1999  0.8372
  478TMC3    C2 7108   3.157   4.701  11.291  0.4033  0.0285  0.5837
  478TMC3    C3 7109   3.043   0.049  11.266 -0.6530 -0.4605 -0.3421
  478TMC3    C4 7110   3.284   0.114  11.138 -0.1848 -0.2281  0.2583
  478TMC3    C5 7111   3.164   0.167  11.101  0.5906  0.7649  0.0217
  478TMC3    C6 7112   3.042   0.136  11.159  0.0329 -0.0914 -0.3299
  478TMC3     C 7113   3.387   4.720  11.317 -0.5878 -0.7476  0.4902
  478TMC3     O 7114   3.402   4.604  11.360  0.0609  0.1313 -0.1392
  478TMC3     H 7115   3.155   4.625  11.369 -1.4524  0.1890  0.6850
  478TMC3    H1 7116   3.380   0.134  11.092  0.1026 -0.7042  0.6520
  478TMC3    H2 7117   2.947   0.184  11.136 -0.1501 -0.6999 -0.8287
  478TMC3    C7 7118   3.162   0.213  10.962  0.2783  0.0420 -0.1770
  478TMC3    C8 7119   2.940   0.041  11.370 -0.8751  0.1543  0.1667
  478TMC3    O1 7120   3.271   0.235  10.906 -0.3599  0.2092 -0.0194
  478TMC3    O2 7121   2.934   4.655  11.426  0.0717 -0.6304 -0.1791
  479MPD2     C 7122   2.056   1.967  15.052  0.4235  0.3125 -0.2456
  479MPD2    C1 7123   2.025   1.937  15.180 -0.4140 -0.0061 -0.2792
  479MPD2    C2 7124   2.127   1.943  15.273  0.3506 -0.1963 -0.7235
  479MPD2    C3 7125   2.255   1.964  15.247 -0.1827 -0.3159 -0.0642
  479MPD2    C4 7126   2.288   1.965  15.118 -0.2114 -0.3030 -0.6610
  479MPD2    C5 7127   2.189   1.971  15.018  0.6579 -0.0974  0.3250
  479MPD2     H 7128   2.111   1.922  15.378  0.6595 -0.2858 -0.6917
  479MPD2    H1 7129   2.394   1.963  15.097 -0.0802  0.4285 -0.0642
  479MPD2    H2 7130   1.977   1.980  14.979  0.2643  0.0701 -0.1173
  479MPD2    H3 7131   2.229   1.972  14.917  1.8394 -2.8993  0.7559
  479MPD2     N 7132   2.353   1.979  15.351  0.4004  0.0313  0.3015
  479MPD2    H5 7133   2.451   1.968  15.328 -0.0865 -0.7727 -1.3823
  479MPD2    N1 7134   1.890   1.935  15.217  0.6692 -0.7680  0.3858
  479MPD2    H7 7135   1.819   1.935  15.145 -0.3905 -0.1207  1.4356
  480TMC3    C1 7136   2.066   2.106  15.713 -0.2798 -0.4779 -0.1431
  480TMC3    C2 7137   2.000   2.198  15.637 -0.4096 -0.4176 -0.5372
  480TMC3    C3 7138   2.048   2.230  15.515 -0.0468 -0.2943  0.1919
  480TMC3    C4 7139   2.178   2.039  15.675  0.1804  0.4862  0.0323
  480TMC3    C5 7140   2.220   2.064  15.547 -0.0817 -0.2525 -0.5649
  480TMC3    C6 7141   2.161   2.166  15.466  0.1430  0.0846 -0.1463
  480TMC3     C 7142   1.996   2.034  15.822  0.4476  0.2960  0.3874
  480TMC3     O 7143   2.018   1.913  15.843  0.1587  0.2950  0.7535
  480TMC3     H 7144   1.903   2.241  15.657  1.2966  2.4727  1.4842
  480TMC3    H1 7145   2.223   1.972  15.747 -0.3306 -0.6138 -0.6713
  480TMC3    H2 7146   2.192   2.185  15.364  1.2647  0.4095  0.2619
  480TMC3    C7 7147   2.332   1.988  15.493 -0.1024 -0.0824 -0.3926
  480TMC3    C8 7148   1.943   2.271  15.415  0.5053 -0.4441 -0.3692
  480TMC3    O1 7149   2.409   1.945  15.577  0.6766  0.0064  0.2138
  480TMC3    O2 7150   1.827   2.269  15.454  0.0862  0.0143  0.2681
  481MPD2     C 7151   3.820   1.783  14.134 -0.2585  0.1108  0.1320
  481MPD2    C1 7152   3.702   1.715  14.107  0.2649 -0.0438  0.9885
  481MPD2    C2 7153   3.658   1.617  14.200 -0.3796 -0.0266  0.4362
  481MPD2    C3 7154   3.736   1.585  14.313  0.7527 -1.5059  0.7087
  481MPD2    C4 7155   3.863   1.643  14.326  0.8484 -0.6685 -0.1933
  481MPD2    C5 7156   3.899   1.738  14.239  0.2138 -0.6751  0.0096
  481MPD2     H 7157   3.561   1.568  14.199 -0.1037 -0.5851  0.5316
  481MPD2    H1 7158   3.924   1.608  14.408  0.2747 -1.8176 -0.2558
  481MPD2    H2 7159   3.856   1.858  14.065 -2.5395  2.5464  1.5835
  481MPD2    H3 7160   4.001   1.774  14.246  0.4376 -1.3991  0.4111
  481MPD2     N 7161   3.706   1.496  14.418 -0.0495  0.2494  0.3006
  481MPD2    H5 7162   3.779   1.474  14.485 -0.6130 -2.0723  0.1460
  481MPD2    N1 7163   3.638   1.736  13.985 -0.0341  1.0577 -0.0029
  481MPD2    H7 7164   3.682   1.805  13.925  0.6020  1.1541  0.5755
  482TMC3    C1 7165   3.490   1.728  13.810  0.4452 -1.1205  0.2190
  482TMC3    C2 7166   3.359   1.732  13.767 -0.5491 -0.4461  0.1903
  482TMC3    C3 7167   3.336   1.741  13.631 -0.7205  0.3541 -0.1271
  482TMC3    C4 7168   3.594   1.750  13.720  0.1420 -0.3514  0.2320
  482TMC3    C5 7169   3.564   1.776  13.588 -0.0815 -0.7590 -0.3028
  482TMC3    C6 7170   3.435   1.773  13.539 -0.6394 -0.2290 -0.1010
  482TMC3     C 7171   3.520   1.676  13.943 -0.3400 -0.5259 -0.4315
  482TMC3     O 7172   3.435   1.615  14.008 -0.2767  0.8008 -0.0348
  482TMC3     H 7173   3.285   1.711  13.843 -2.3545  1.6078 -1.0165
  482TMC3    H1 7174   3.699   1.756  13.748  0.6453 -1.3803 -1.3839
  482TMC3    H2 7175   3.406   1.797  13.437  0.9214  1.4330 -0.1625
  482TMC3    C7 7176   3.682   1.798  13.498  0.4085 -0.2891  0.2556
  482TMC3    C8 7177   3.234   1.643  13.593 -0.9956  0.0590 -0.4417
  482TMC3    O1 7178   3.788   1.789  13.555  0.0980 -0.1210 -0.1496
  482TMC3    O2 7179   3.267   1.529  13.625 -0.2619  0.5562 -0.5747
  483TMC3    C1 7180   1.253   0.016   1.122 -0.4498 -0.3902 -0.6412
  483TMC3    C2 7181   1.286   0.104   1.018  1.0559  0.1449 -0.6173
  483TMC3    C3 7182   1.403   0.167   1.034 -0.9120 -0.6466 -0.7048
  483TMC3    C4 7183   1.312   0.006   1.249  0.2872  0.7903 -0.0847
  483TMC3    C5 7184   1.434   0.058   1.240 -0.6813 -0.5399  0.3015
  483TMC3    C6 7185   1.477   0.141   1.143  0.2842 -0.9684  0.0652
  483TMC3     C 7186   1.130   4.670   1.107 -0.3706  0.6192 -0.0857
  483TMC3     O 7187   1.050   4.666   1.199 -0.3151 -0.1178 -0.1636
  483TMC3     H 7188   1.227   0.118   0.928 -0.2777 -0.7663  0.1021
  483TMC3    H1 7189   1.286   4.643   1.309 -1.0330  1.7507  0.7206
  483TMC3    H2 7190   1.583   0.165   1.135  0.5655 -1.6690  1.8157
  483TMC3    C7 7191   1.544   4.691   1.278  0.1544 -0.0882  0.4221
  483TMC3    C8 7192   1.467   0.228   0.919 -0.1916 -0.1075 -0.3224
  483TMC3    O1 7193   1.597   4.640   1.179  0.1013 -0.0290 -0.0267
  483TMC3    O2 7194   1.425   0.199   0.806  0.0752  0.2501 -0.9560
  484MPD2     C 7195   3.907   3.273  12.056  0.0866  0.3403  0.7935
  484MPD2    C1 7196   3.963   3.307  12.179  0.1741 -0.2096  0.0902
  484MPD2    C2 7197   4.086   3.367  12.180 -0.1717 -0.6358 -0.0706
  484MPD2    C3 7198   4.154   3.406  12.064 -0.3810  0.0896 -0.1083
  484MPD2    C4 7199   4.091   3.374  11.943 -0.6126 -0.7137  0.1872
  484MPD2    C5 7200   3.966   3.314  11.941  0.3939 -0.2094  0.7607
  484MPD2     H 7201   4.131   3.393  12.275  0.6440 -1.0888 -0.3341
  484MPD2    H1 7202   4.143   3.388  11.849  0.6643  2.0612  1.3215
  484MPD2    H2 7203   3.809   3.227  12.047 -0.5400  1.8695 -0.2785
  484MPD2    H3 7204   3.921   3.297  11.844  1.0742  1.0472  0.2317
  484MPD2     N 7205   4.279   3.468  12.052 -0.4911 -0.2721  0.5345
  484MPD2    H5 7206   4.316   3.502  11.964  0.1564 -1.4794  0.3325
  484MPD2    N1 7207   3.887   3.263  12.293 -0.8633 -0.1434 -0.6126
  484MPD2    H7 7208   3.800   3.216  12.274 -0.6745  0.1819 -2.3242
  485TMC3    C1 7209   4.506   3.532  12.132 -0.1918 -0.1582  0.1258
  485TMC3    C2 7210   4.604   3.518  12.225 -0.6897 -0.5455 -0.1425
  485TMC3    C3 7211   4.718   3.584  12.206 -0.4189 -0.0326 -0.2434
  485TMC3    C4 7212   4.527   3.609  12.018 -0.5092  0.0846  0.2880
  485TMC3    C5 7213   4.644   3.677  12.006  0.3761  0.0917  0.4658
  485TMC3    C6 7214   0.024   3.666  12.100  0.0609  0.1616  0.1166
  485TMC3     C 7215   4.376   3.469  12.160 -0.2768  0.4152  0.5470
  485TMC3     O 7216   4.375   3.416  12.273 -0.0570 -0.6015  0.3239
  485TMC3     H 7217   4.593   3.449  12.308  1.4972 -1.7395 -0.8238
  485TMC3    H1 7218   4.460   3.600  11.933 -1.5355  1.0176  0.9900
  485TMC3    H2 7219   0.112   3.729  12.090  0.9075 -1.5525 -3.2768
  485TMC3    C7 7220   4.703   3.649  11.878  0.2360 -0.0402 -0.4577
  485TMC3    C8 7221   0.113   3.502  12.239  0.2119 -0.7581 -0.5756
  485TMC3    O1 7222   4.646   3.697  11.777  0.0505 -0.5395  0.0633
  485TMC3    O2 7223   0.194   3.504  12.158 -0.2464 -0.2039  0.4125
  486MPD2     C 7224   1.589   2.440  12.877  0.0663 -0.1046 -0.2200
  486MPD2    C1 7225   1.551   2.364  12.772 -0.2319  0.1938  0.7438
  486MPD2    C2 7226   1.541   2.433  12.647 -0.0260  1.0813  0.0892
  486MPD2    C3 7227   1.571   2.568  12.635 -0.4378  0.6032  0.3074
  486MPD2    C4 7228   1.606   2.638  12.750 -0.3238  0.5281  0.2915
  486MPD2    C5 7229   1.620   2.570  12.865 -0.3454  0.5288 -0.6893
  486MPD2     H 7230   1.512   2.387  12.554 -0.4681 -0.0624  0.7943
  486MPD2    H1 7231   1.649   2.737  12.738 -0.1322  0.3302 -0.6815
  486MPD2    H2 7232   1.585   2.397  12.976  2.1447  0.4464  0.1000
  486MPD2    H3 7233   1.653   2.626  12.952  0.0951  0.2884 -0.7012
  486MPD2     N 7234   1.557   2.632  12.507  0.0063 -0.4466  0.7794
  486MPD2    H5 7235   1.520   2.568  12.438  0.7716 -1.2565  1.1173
  486MPD2    N1 7236   1.518   2.222  12.802 -1.3614  0.0422  0.1920
  486MPD2    H7 7237   1.548   2.182  12.891 -1.3315  0.7850  0.5193
  487TMC3    C1 7238   1.479   1.995  12.746  0.1794 -0.0481 -1.3369
  487TMC3    C2 7239   1.468   1.903  12.647 -0.9688 -0.1549 -1.2482
  487TMC3    C3 7240   1.482   1.769  12.684 -0.2864 -0.1972  0.9408
  487TMC3    C4 7241   1.507   1.958  12.875 -0.4908 -0.0519 -0.1048
  487TMC3    C5 7242   1.527   1.828  12.908 -0.1597  0.2074 -0.0317
  487TMC3    C6 7243   1.532   1.731  12.807 -0.3954 -0.3115  0.1318
  487TMC3     C 7244   1.482   2.131  12.703 -0.0797 -0.1786 -0.2831
  487TMC3     O 7245   1.453   2.163  12.589  0.0522 -0.1539 -0.0895
  487TMC3     H 7246   1.447   1.934  12.546  1.0187  0.2593 -1.5313
  487TMC3    H1 7247   1.503   2.031  12.956  0.3149 -0.8443  0.6494
  487TMC3    H2 7248   1.543   1.629  12.840  1.2181 -0.7440 -1.6878
  487TMC3    C7 7249   1.531   1.785  13.049  0.3565 -0.2850  0.2599
  487TMC3    C8 7250   1.492   1.680  12.570  0.0402  0.0828 -0.7463
  487TMC3    O1 7251   1.494   1.670  13.067  0.3282 -0.0495 -0.1233
  487TMC3    O2 7252   1.537   1.732  12.466  0.0800 -0.6742 -0.0003
  488MPD2     C 7253   1.715   3.734  16.478  0.3032 -0.1739  0.2232
  488MPD2    C1 7254   1.661   3.863  16.483  0.1389  0.9594  0.6955
  488MPD2    C2 7255   1.553   3.882  16.573  0.0340 -0.1156 -0.5970
  488MPD2    C3 7256   1.503   3.784  16.661 -0.3612  0.6188 -1.0456
  488MPD2    C4 7257   1.567   3.659  16.655  0.2111  0.1557  0.2275
  488MPD2    C5 7258   1.671   3.640  16.567  0.1702  0.2844  0.1836
  488MPD2     H 7259   1.504   3.978  16.574 -0.3655 -0.3181 -0.6981
  488MPD2    H1 7260   1.533   3.573  16.711 -2.6883  1.0129 -0.2353
  488MPD2    H2 7261   1.796   3.696  16.416  0.2119 -0.5899  0.3533
  488MPD2    H3 7262   1.712   3.540  16.564 -0.6429 -0.0391 -0.2484
  488MPD2     N 7263   1.399   3.817  16.747 -0.4585 -0.3826 -0.6788
  488MPD2    H5 7264   1.382   3.917  16.744  1.5565 -0.0437 -0.8135
  488MPD2    N1 7265   1.709   3.967  16.399 -0.6799 -0.3284  0.1020
  488MPD2    H7 7266   1.686   4.055  16.442 -1.9672 -0.7519  0.2790
  489TMC3    C1 7267   1.266   3.823  16.933  0.2436  0.0765 -0.7006
  489TMC3    C2 7268   1.256   3.958  16.916 -0.1869 -0.2494  0.1667
  489TMC3    C3 7269   1.261   4.039  17.029 -0.2901 -0.1791 -0.4077
  489TMC3    C4 7270   1.255   3.773  17.054  0.7501 -0.1326  0.0792
  489TMC3    C5 7271   1.245   3.852  17.162  0.0724  0.3335 -0.4591
  489TMC3    C6 7272   1.258   3.987  17.159 -0.0948  0.1274 -0.7538
  489TMC3     C 7273   1.336   3.736  16.837  0.1388  0.0318 -0.6917
  489TMC3     O 7274   1.356   3.615  16.853  0.0311 -0.0211 -0.4553
  489TMC3     H 7275   1.262   4.009  16.820 -0.7429 -0.2721  0.1194
  489TMC3    H1 7276   1.277   3.668  17.072 -0.5754 -0.7251 -1.7395
  489TMC3    H2 7277   1.263   4.044  17.251 -0.4741 -2.3114  0.7969
  489TMC3    C7 7278   1.239   3.803  17.300  0.0335 -0.7027 -0.5833
  489TMC3    C8 7279   1.329   4.165  17.002 -0.3135  0.5288 -0.6721
  489TMC3    O1 7280   1.302   3.864  17.382  0.2681  0.4162 -0.7132
  489TMC3    O2 7281   1.390   4.180  16.897  0.8715  0.5017 -0.5088
  490MPD2     C 7282   2.662   2.654  17.336 -0.3818 -0.1191 -0.2838
  490MPD2    C1 7283   2.611   2.635  17.461 -0.0027  0.3640 -0.7526
  490MPD2    C2 7284   2.640   2.717  17.568 -0.6102  0.1673  0.8535
  490MPD2    C3 7285   2.729   2.828  17.546  0.2795 -0.5669  0.2679
  490MPD2    C4 7286   2.776   2.849  17.416  1.0442  0.2687 -0.4417
  490MPD2    C5 7287   2.742   2.767  17.315  0.2753  0.0335 -0.0516
  490MPD2     H 7288   2.598   2.699  17.666  0.3326 -0.6198  1.1033
  490MPD2    H1 7289   2.847   2.927  17.393  2.2207  0.2867  3.3505
  490MPD2    H2 7290   2.656   2.586  17.252 -0.2985  1.3700 -1.4931
  490MPD2    H3 7291   2.780   2.801  17.219  0.6898 -1.6583 -0.4774
  490MPD2     N 7292   2.789   2.906  17.653 -0.0727 -0.0264 -0.1451
  490MPD2    H5 7293   2.867   2.963  17.624 -1.9723  2.9576  0.5498
  490MPD2    N1 7294   2.513   2.529  17.490 -0.0877  0.7698  0.0615
  490MPD2    H7 7295   2.476   2.523  17.584  2.0139 -2.9913  0.6249
  491TMC3    C1 7296   2.360   2.359  17.445  0.9026 -0.9064  0.2096
  491TMC3    C2 7297   2.326   2.365  17.577  0.2643 -0.4663 -0.5199
  491TMC3    C3 7298   2.221   2.284  17.608 -0.3527  1.2130  0.6883
  491TMC3    C4 7299   2.300   2.279  17.354  0.5506 -0.2916  0.1615
  491TMC3    C5 7300   2.197   2.203  17.388 -0.4154  0.0157 -0.3583
  491TMC3    C6 7301   2.159   2.200  17.521 -0.0032  0.5547 -0.0340
  491TMC3     C 7302   2.454   2.455  17.390  0.3507 -0.4507  0.2113
  491TMC3     O 7303   2.453   2.470  17.271  0.1937  0.5384  1.1406
  491TMC3     H 7304   2.346   2.448  17.643 -0.5887  0.2530 -1.1685
  491TMC3    H1 7305   2.310   2.304  17.249 -0.9675  2.0071  0.5381
  491TMC3    H2 7306   2.069   2.147  17.551 -0.6617  1.2479 -0.7753
  491TMC3    C7 7307   2.098   2.141  17.297  0.6648 -0.5981 -0.3122
  491TMC3    C8 7308   2.154   2.298   0.041 -0.3382 -0.4028 -0.2450
  491TMC3    O1 7309   1.981   2.140  17.328  0.2341  0.7325  0.8557
  491TMC3    O2 7310   2.034   2.282   0.052  0.3120 -0.2260 -0.2476
  492MPD2     C 7311   3.027   3.532  10.700  1.1338 -0.1123  0.6664
  492MPD2    C1 7312   2.947   3.422  10.694 -0.5689 -0.2402  0.1909
  492MPD2    C2 7313   2.901   3.362  10.815 -0.1727  0.4797  0.0207
  492MPD2    C3 7314   2.929   3.425  10.935  0.1678  0.1978  0.1281
  492MPD2    C4 7315   3.015   3.528  10.941  0.2024  0.5485  0.0363
  492MPD2    C5 7316   3.061   3.585  10.823 -0.7613 -0.3438  0.0263
  492MPD2     H 7317   2.836   3.276  10.803  0.6262  0.1664 -2.0834
  492MPD2    H1 7318   3.033   3.580  11.035 -0.6121 -2.0760  1.6312
  492MPD2    H2 7319   3.067   3.582  10.613 -0.4094  1.8772  1.0955
  492MPD2    H3 7320   3.135   3.664  10.834 -0.2461 -0.8955  0.4788
  492MPD2     N 7321   2.865   3.385  11.052 -0.2331  0.7184  0.3494
  492MPD2    H5 7322   2.882   3.441  11.134 -1.2023  1.8232 -0.1962
  492MPD2    N1 7323   2.927   3.377  10.564 -0.1757 -0.3244 -0.6338
  492MPD2    H7 7324   2.951   3.445  10.493  0.3526 -0.5794 -0.7008
  493TMC3    C1 7325   2.835   3.223  10.403 -0.1780  0.1044 -1.0979
  493TMC3    C2 7326   2.801   3.319  10.313 -0.4812  0.3350  0.4518
  493TMC3    C3 7327   2.716   3.279  10.214 -0.1438  0.1648 -0.2087
  493TMC3    C4 7328   2.781   3.097  10.396 -0.3854  0.0033  0.1245
  493TMC3    C5 7329   2.692   3.066  10.297 -0.3203  0.1438  0.7299
  493TMC3    C6 7330   2.665   3.155  10.207  0.0045 -0.3263 -0.0387
  493TMC3     C 7331   2.868   3.255  10.540 -0.5950  0.1090  0.4409
  493TMC3     O 7332   2.852   3.165  10.617 -0.1638 -0.1659  0.3681
  493TMC3     H 7333   2.833   3.421  10.330 -0.0411  0.4552 -1.0376
  493TMC3    H1 7334   2.802   3.016  10.465  0.1065 -0.0128 -0.0446
  493TMC3    H2 7335   2.589   3.129  10.134  1.7074 -1.4768 -1.3974
  493TMC3    C7 7336   2.593   2.959  10.321 -0.4293 -0.2371  0.1736
  493TMC3    C8 7337   2.667   3.373  10.118  1.0141  0.1428 -0.1291
  493TMC3    O1 7338   2.531   2.916  10.226  0.6206  0.4556 -0.0083
  493TMC3    O2 7339   2.545   3.359  10.089 -0.2433 -0.0423  0.2680
  494TMC3    C1 7340   2.635   4.672   0.437 -0.1584 -0.1272 -0.3733
  494TMC3    C2 7341   2.664   4.555   0.498  0.3942 -0.3721  0.2103
  494TMC3    C3 7342   2.779   4.490   0.470 -0.1249 -1.0465 -0.5354
  494TMC3    C4 7343   2.702   4.710   0.329 -0.0486  0.3202 -0.2156
  494TMC3    C5 7344   2.807   4.628   0.292  0.4720  0.1478 -0.2912
  494TMC3    C6 7345   2.855   4.527   0.362  0.2952 -0.6627 -0.1619
  494TMC3     C 7346   2.504   0.012   0.461 -0.4061  0.0397 -0.4853
  494TMC3     O 7347   2.409   4.667   0.500  0.1639 -0.7863  0.2296
  494TMC3     H 7348   2.601   4.530   0.583  0.8653  2.5803  1.4399
  494TMC3    H1 7349   2.672   0.076   0.276  1.3069  0.7362 -0.2777
  494TMC3    H2 7350   2.945   4.473   0.337  1.0218  0.3376  0.2910
  494TMC3    C7 7351   2.864   4.636   0.155  0.0929 -0.3719  0.3658
  494TMC3    C8 7352   2.837   4.401   0.569  0.0564 -0.2954  0.6337
  494TMC3    O1 7353   2.985   4.651   0.140  0.4152 -0.1303  0.1538
  494TMC3    O2 7354   2.921   4.319   0.538  0.4426 -0.2999  0.3061
  495TMC3    C1 7355   2.268   2.175  14.452 -0.2174  0.2637  0.0385
  495TMC3    C2 7356   2.174   2.206  14.360 -0.6198 -0.4652 -0.4087
  495TMC3    C3 7357   2.067   2.276  14.408  0.5019 -0.0346  0.1990
  495TMC3    C4 7358   2.257   2.187  14.589  0.1291 -0.3860  0.1977
  495TMC3    C5 7359   2.147   2.260  14.634  0.1885  0.3020 -0.4333
  495TMC3    C6 7360   2.056   2.305  14.539 -0.1279 -0.3715 -0.1424
  495TMC3     C 7361   2.341   2.055  14.420 -0.6505 -0.3246  0.4217
  495TMC3     O 7362   2.327   1.955  14.495 -0.2077  0.5672 -0.2712
  495TMC3     H 7363   2.201   2.174  14.260 -1.3843 -0.5765 -0.5816
  495TMC3    H1 7364   2.331   2.150  14.658  0.9806 -0.4971 -0.7790
  495TMC3    H2 7365   1.981   2.376  14.574  1.4937  0.3825  1.8260
  495TMC3    C7 7366   2.127   2.279  14.774 -0.3695  0.0887  0.4186
  495TMC3    C8 7367   1.943   2.282  14.344  0.3014  0.4207  0.7319
  495TMC3    O1 7368   2.223   2.278  14.849  0.1037  0.4061  0.4364
  495TMC3    O2 7369   1.846   2.333  14.397 -0.0620 -0.1718 -0.3495
  496MPD2     C 7370   3.947   1.834  15.430  0.5486 -0.4061 -0.4111
  496MPD2    C1 7371   3.859   1.758  15.363 -0.0190  0.3299 -1.0078
  496MPD2    C2 7372   3.732   1.731  15.423  0.5187 -0.0504 -0.4147
  496MPD2    C3 7373   3.710   1.795  15.548  0.4803 -0.6810 -0.6444
  496MPD2    C4 7374   3.805   1.860  15.621 -0.1528 -0.1827 -0.4404
  496MPD2    C5 7375   3.922   1.879  15.561  0.1793  0.4090 -0.1032
  496MPD2     H 7376   3.644   1.687  15.379 -1.3639  0.3352  2.9353
  496MPD2    H1 7377   3.788   1.899  15.721  2.3001  2.4101 -1.0360
  496MPD2    H2 7378   4.044   1.850  15.386  1.0769 -1.6457  0.2963
  496MPD2    H3 7379   3.999   1.931  15.617  1.5353 -0.3889 -1.2157
  496MPD2     N 7380   3.587   1.786  15.618 -0.5130 -0.4578 -0.2347
  496MPD2    H5 7381   3.584   1.816  15.715 -0.6899 -0.9427 -0.0941
  496MPD2    N1 7382   3.906   1.705  15.243  0.1089 -0.1950  0.1979
  496MPD2    H7 7383   4.002   1.719  15.213  0.1574  0.2551  0.5565
  497TMC3    C1 7384   3.362   1.769  15.672 -0.4621 -0.9118 -0.3875
  497TMC3    C2 7385   3.239   1.818  15.631 -0.0948 -1.0184 -0.0458
  497TMC3    C3 7386   3.149   1.843  15.731 -0.1451  0.1001  1.0909
  497TMC3    C4 7387   3.402   1.781  15.804 -0.0020 -0.1421 -0.3746
  497TMC3    C5 7388   3.307   1.794  15.902 -0.1999  0.2301 -0.2639
  497TMC3    C6 7389   3.182   1.826  15.859 -0.0000 -0.8169 -0.0635
  497TMC3     C 7390   3.463   1.749  15.569 -0.6870 -0.8236 -0.4064
  497TMC3     O 7391   3.428   1.722  15.453  0.6156 -0.9783  0.2697
  497TMC3     H 7392   3.214   1.826  15.526 -1.1512  0.8009  0.3403
  497TMC3    H1 7393   3.499   1.748  15.839 -0.3261  0.7566  1.3345
  497TMC3    H2 7394   3.104   1.846  15.931  0.2823  0.9853 -0.2780
  497TMC3    C7 7395   3.323   1.752  16.037 -0.3910 -0.5309  1.0480
  497TMC3    C8 7396   3.055   1.949  15.711 -0.7281 -0.4247  0.0116
  497TMC3    O1 7397   3.227   1.692  16.086 -0.2786 -0.1167  0.3627
  497TMC3    O2 7398   3.062   2.039  15.791  0.1226  0.4931 -0.6953
  498MPD2     C 7399   1.120   2.655   9.464  0.1638  0.5299 -0.7475
  498MPD2    C1 7400   1.001   2.725   9.468  0.6145 -0.1508 -0.4343
  498MPD2    C2 7401   0.891   2.652   9.502 -0.0940  0.0156 -0.6731
  498MPD2    C3 7402   0.898   2.515   9.518  0.1597 -0.6418  0.3684
  498MPD2    C4 7403   1.012   2.438   9.494  0.1686 -0.3195 -0.3715
  498MPD2    C5 7404   1.125   2.518   9.476  0.5296  0.7183  0.7014
  498MPD2     H 7405   0.791   2.693   9.510  0.5016  1.1050  1.2382
  498MPD2    H1 7406   1.016   2.330   9.506 -2.8308 -0.5677 -1.5201
  498MPD2    H2 7407   1.217   2.703   9.456  0.3022 -0.0851 -2.6861
  498MPD2    H3 7408   1.222   2.473   9.460  0.3171  0.3471  0.4548
  498MPD2     N 7409   0.775   2.453   9.552  0.1402 -0.0699 -0.3637
  498MPD2    H5 7410   0.692   2.507   9.532  0.1245  0.3057  0.7158
  498MPD2    N1 7411   0.991   2.869   9.463 -0.5757  0.2292 -0.0042
  498MPD2    H7 7412   0.901   2.915   9.474 -1.2934 -1.6128  1.8380
  499TMC3    C1 7413   1.045   3.093   9.419 -0.3781  0.3897 -0.0206
  499TMC3    C2 7414   1.128   3.198   9.441  0.6134 -0.3774  0.0359
  499TMC3    C3 7415   1.089   3.327   9.411  0.4877  0.2338 -0.5897
  499TMC3    C4 7416   0.916   3.121   9.383 -0.5628  0.0735 -0.2518
  499TMC3    C5 7417   0.876   3.256   9.352 -1.0319  0.5592  0.0053
  499TMC3    C6 7418   0.966   3.368   9.367  0.2559  0.3597  0.4477
  499TMC3     C 7419   1.096   2.956   9.438 -0.1593 -0.2633  0.3765
  499TMC3     O 7420   1.216   2.948   9.430  0.1902  0.4986  0.1728
  499TMC3     H 7421   1.232   3.181   9.467  0.2767 -0.9555  1.0017
  499TMC3    H1 7422   0.855   3.042   9.341  0.3789 -1.0588  0.5075
  499TMC3    H2 7423   0.942   3.469   9.337 -0.8096  0.2763  1.0271
  499TMC3    C7 7424   0.737   3.276   9.326  0.0889  0.0113 -0.0319
  499TMC3    C8 7425   1.186   3.435   9.435 -0.5363  0.3324  0.3357
  499TMC3    O1 7426   0.667   3.179   9.291  0.7829  0.0918 -0.1404
  499TMC3    O2 7427   1.144   3.550   9.440 -0.4534  0.3439 -0.2368
  500MPD2     C 7428   1.768   4.648  10.362 -0.5015  0.5051 -0.0368
  500MPD2    C1 7429   1.758   4.708  10.235  0.4263 -0.3574 -0.0395
  500MPD2    C2 7430   1.625   0.006  10.195  0.3466  0.5572 -0.9957
  500MPD2    C3 7431   1.512   4.683  10.263  0.4314  0.7561 -0.1080
  500MPD2    C4 7432   1.532   4.631  10.390  0.4457  0.3464 -0.2960
  500MPD2    C5 7433   1.661   4.614  10.437 -0.2072  0.8748  0.3037
  500MPD2     H 7434   1.620   0.044  10.093  0.1508  1.5956 -0.5998
  500MPD2    H1 7435   1.449   4.597  10.451  0.4859 -1.1615 -1.1002
  500MPD2    H2 7436   1.859   4.615  10.411 -0.7871  0.7780  0.6715
  500MPD2    H3 7437   1.681   4.574  10.536 -2.5964  1.2433  0.9283
  500MPD2     N 7438   1.378   4.689  10.210  0.3578 -0.3960  0.1476
  500MPD2    H5 7439   1.310   4.644  10.270 -0.0827 -1.3011 -1.0359
  500MPD2    N1 7440   1.866   0.010  10.151 -0.4721  0.1593 -0.5317
  500MPD2    H7 7441   1.847   0.060  10.064  0.7861 -1.5142 -1.7725
  501TMC3    C1 7442   2.087   4.720  10.059  0.2326 -0.2262 -0.3272
  501TMC3    C2 7443   2.093   0.134  10.024  0.5921  0.2411  0.7448
  501TMC3    C3 7444   2.204   0.180   9.964  0.5455  0.0546  0.5803
  501TMC3    C4 7445   2.190   4.632  10.045 -0.3663 -0.3618 -0.5421
  501TMC3    C5 7446   2.305   4.695   9.989 -0.5852  0.0113  0.3731
  501TMC3    C6 7447   2.309   0.099   9.942 -0.3795  0.3719  1.0516
  501TMC3     C 7448   1.993   4.684  10.165 -0.0967  0.0515  0.1025
  501TMC3     O 7449   2.033   4.609  10.250  0.2971  0.6920  0.2636
  501TMC3     H 7450   2.011   0.196  10.060 -0.2097 -1.3869  1.7174
  501TMC3    H1 7451   2.184   4.531  10.084 -1.4162 -0.4213 -0.8349
  501TMC3    H2 7452   2.397   0.136   9.890 -0.8612 -2.6530 -1.8991
  501TMC3    C7 7453   2.428   4.656  10.047  0.2263 -0.2975  0.0484
  501TMC3    C8 7454   2.255   0.299  10.029  0.2543  0.1817  0.3082
  501TMC3    O1 7455   2.421   4.545  10.103 -0.0282  0.1358  0.4057
  501TMC3    O2 7456   2.365   0.284  10.083 -0.4320 -0.3678 -0.3477
  502TMC3    C1 7457   1.410   2.962  15.138 -0.0409 -0.0065 -0.2058
  502TMC3    C2 7458   1.405   3.094  15.103 -0.1459 -0.1837 -0.0534
  502TMC3    C3 7459   1.289   3.166  15.120  0.3399 -0.4044  0.2050
  502TMC3    C4 7460   1.287   2.902  15.162  0.0841 -0.0383  0.4294
  502TMC3    C5 7461   1.174   2.974  15.165 -0.1216 -0.6688 -1.1630
  502TMC3    C6 7462   1.167   3.108  15.143 -0.0243 -0.2526 -0.0418
  502TMC3     C 7463   1.509   2.933  15.237  0.0728  0.4518  0.3267
  502TMC3     O 7464   1.628   2.967  15.222 -0.2071  0.1506  0.1046
  502TMC3     H 7465   1.496   3.150  15.088 -1.7074  2.6366  1.0525
  502TMC3    H1 7466   1.288   2.800  15.200 -1.7728  0.1584  1.0042
  502TMC3    H2 7467   1.073   3.159  15.158  0.3950  1.2968 -2.7294
  502TMC3    C7 7468   1.076   2.912  15.257  0.6090  0.0779  0.6165
  502TMC3    C8 7469   1.295   3.311  15.086 -0.3391  0.4747 -0.5013
  502TMC3    O1 7470   1.123   2.838  15.344 -0.5086  0.7516  0.6198
  502TMC3    O2 7471   1.398   3.365  15.047 -0.0059  0.3714  0.3527
  503MPD2     C 7472   3.427   3.534  16.415  0.7826 -0.3509 -0.1412
  503MPD2    C1 7473   3.433   3.545  16.550 -0.2297  0.2294  0.1569
  503MPD2    C2 7474   3.476   3.429  16.616  0.4018 -0.3520  0.1797
  503MPD2    C3 7475   3.509   3.308  16.550  0.0670  0.3974 -0.4304
  503MPD2    C4 7476   3.498   3.303  16.416 -0.4559  0.0709 -0.2512
  503MPD2    C5 7477   3.462   3.417  16.348  0.3768 -0.3501 -0.2408
  503MPD2     H 7478   3.486   3.432  16.724 -0.5441 -1.4729  0.2923
  503MPD2    H1 7479   3.521   3.217  16.353 -1.4167 -1.3966  1.3981
  503MPD2    H2 7480   3.388   3.618  16.359 -1.0545 -1.6841 -0.8578
  503MPD2    H3 7481   3.469   3.418  16.240  0.7009  0.2191 -0.2156
  503MPD2     N 7482   3.540   3.194  16.631 -0.5632  0.1840 -0.1498
  503MPD2    H5 7483   3.547   3.209  16.731 -2.5201 -2.9992  0.4672
  503MPD2    N1 7484   3.385   3.660  16.626  0.2156  0.4470 -0.7468
  503MPD2    H7 7485   3.393   3.654  16.727  1.9748  0.4930 -0.8801
  504TMC3    C1 7486   3.627   2.979  16.676 -0.0575  0.5835  0.0646
  504TMC3    C2 7487   3.568   2.970  16.795  0.3823  0.0180 -0.1622
  504TMC3    C3 7488   3.621   2.887  16.885  0.3651  0.7224 -0.3911
  504TMC3    C4 7489   3.746   2.923  16.650  0.4901  0.6168  0.2299
  504TMC3    C5 7490   3.800   2.849  16.748  0.0191  0.1683 -0.2149
  504TMC3    C6 7491   3.744   2.837  16.871 -0.4267  0.3698 -0.0539
  504TMC3     C 7492   3.587   3.076  16.576 -0.0366 -0.0455  0.3719
  504TMC3     O 7493   3.619   3.041  16.462 -0.1442 -0.3725 -0.0334
  504TMC3     H 7494   3.464   2.996  16.809  0.6928  0.1283  1.9498
  504TMC3    H1 7495   3.813   2.949  16.569  0.3008 -1.3000 -0.5481
  504TMC3    H2 7496   3.787   2.756  16.929 -1.3173 -0.2491 -0.2432
  504TMC3    C7 7497   3.947   2.866  16.742 -0.3250 -0.0324 -0.3234
  504TMC3    C8 7498   3.533   2.843  16.990  0.0360  0.8468 -0.3231
  504TMC3    O1 7499   4.004   2.861  16.633 -0.1949 -0.2709 -0.1737
  504TMC3    O2 7500   3.411   2.850  16.982  0.1299  0.1491  0.0022
  505MPD2     C 7501   4.316   2.168   9.842  0.3057  0.4888  0.3809
  505MPD2    C1 7502   4.337   2.238   9.957 -0.3967 -0.6724  0.4199
  505MPD2    C2 7503   4.318   2.372   9.956 -0.0367 -0.1104 -0.3711
  505MPD2    C3 7504   4.288   2.442   9.839  0.0409  0.1091 -0.3860
  505MPD2    C4 7505   4.262   2.368   9.722 -0.7415 -0.0134 -0.2205
  505MPD2    C5 7506   4.281   2.232   9.727 -0.1630 -0.5905  0.2298
  505MPD2     H 7507   4.335   2.423  10.050  1.3704  0.7476 -1.0994
  505MPD2    H1 7508   4.239   2.417   9.628  0.8408  2.6900  0.8104
  505MPD2    H2 7509   4.321   2.060   9.836 -0.1062  0.3903  1.6682
  505MPD2    H3 7510   4.262   2.174   9.638  1.5417 -1.0649  0.1837
  505MPD2     N 7511   4.278   2.583   9.848 -0.6886 -0.3793 -0.0681
  505MPD2    H5 7512   4.295   2.615   9.943 -0.2259 -0.0805 -0.2463
  505MPD2    N1 7513   4.362   2.161  10.077 -0.0479  0.4777 -0.3534
  505MPD2    H7 7514   4.397   2.067  10.065  3.0088  1.9015 -2.6011
  506TMC3    C1 7515   4.386   2.114  10.304  0.1235 -0.0857 -0.0102
  506TMC3    C2 7516   4.493   2.033  10.275 -0.5706  0.2849  0.0488
  506TMC3    C3 7517   4.575   1.997  10.380  0.2044  0.7393 -0.1630
  506TMC3    C4 7518   4.372   2.167  10.435 -0.3998 -0.4332  0.3901
  506TMC3    C5 7519   4.467   2.141  10.531  0.1720  0.2834  0.2400
  506TMC3    C6 7520   4.565   2.049  10.505  0.4950 -0.3119  0.0457
  506TMC3     C 7521   4.350   2.209  10.203 -0.1511  0.4261 -0.1662
  506TMC3     O 7522   4.318   2.320  10.252  1.3019 -0.2532  0.3900
  506TMC3     H 7523   4.513   1.988  10.179  2.1919  0.4038  0.5783
  506TMC3    H1 7524   4.278   2.220  10.451  0.1314  0.1002  1.7127
  506TMC3    H2 7525   4.643   2.026  10.578  1.4648  3.2346  0.1093
  506TMC3    C7 7526   4.541   2.256  10.562  0.0113 -0.1943 -0.3844
  506TMC3    C8 7527   4.694   1.925  10.337 -0.4000  0.2268 -0.1424
  506TMC3    O1 7528   4.641   2.250  10.629 -0.1409 -0.2500  0.4127
  506TMC3    O2 7529   0.036   1.863  10.420 -0.6375  0.0611 -0.5184
  507TMC3    C1 7530   4.593   3.154  14.825 -0.4472  0.3114  0.4500
  507TMC3    C2 7531   4.490   3.064  14.842 -1.0468  0.5246  0.1237
  507TMC3    C3 7532   4.453   2.985  14.738  0.4709  0.1187 -0.4785
  507TMC3    C4 7533   4.655   3.168  14.703 -0.4828 -0.2976 -0.1693
  507TMC3    C5 7534   4.625   3.078  14.601 -0.0098  0.2081 -1.4015
  507TMC3    C6 7535   4.525   2.987  14.620  0.1666  0.1751  0.1727
  507TMC3     C 7536   4.626   3.253  14.926 -0.2221 -0.6250  0.2961
  507TMC3     O 7537   0.006   3.314  14.902 -0.3211 -0.0932  0.1667
  507TMC3     H 7538   4.465   3.031  14.943 -1.4162 -1.7846 -0.7128
  507TMC3    H1 7539   0.010   3.243  14.691  0.4699 -1.1604  0.5569
  507TMC3    H2 7540   4.506   2.917  14.540  2.0979  1.3185 -1.2862
  507TMC3    C7 7541   4.616   3.128  14.467  0.3116 -0.5905  0.5140
  507TMC3    C8 7542   4.314   2.960  14.717  0.3283  0.4202 -0.2304
  507TMC3    O1 7543   4.571   3.058  14.377  0.8148  0.4426 -0.0095
  507TMC3    O2 7544   4.281   2.904  14.612  0.3724 -0.0006 -0.1319
  508MPD2     C 7545   0.453   0.443  15.815 -0.4311  1.0985  0.3851
  508MPD2    C1 7546   0.563   0.522  15.830 -0.1584  0.7353 -0.2037
  508MPD2    C2 7547   0.609   0.598  15.725 -0.3540  0.4544  0.0010
  508MPD2    C3 7548   0.546   0.593  15.602 -0.0261  0.2526  0.6498
  508MPD2    C4 7549   0.436   0.512  15.589 -0.2630 -0.6566 -0.0029
  508MPD2    C5 7550   0.391   0.439  15.690 -0.0957 -0.1310  0.2279
  508MPD2     H 7551   0.697   0.661  15.735  0.2961 -0.4973  0.1934
  508MPD2    H1 7552   0.392   0.494  15.492  1.4837 -1.3045 -0.6774
  508MPD2    H2 7553   0.418   0.382  15.897 -0.8423  0.6552 -0.1247
  508MPD2    H3 7554   0.301   0.383  15.668 -0.9771  0.8010  1.4727
  508MPD2     N 7555   0.580   0.681  15.499 -0.4652  0.9091 -0.0095
  508MPD2    H5 7556   0.516   0.687  15.420 -0.1023 -1.1046 -0.4823
  508MPD2    N1 7557   0.615   0.536  15.962 -0.2836 -0.2962  0.3683
  508MPD2    H7 7558   0.559   0.490  16.033 -2.3708 -0.8180 -1.6004
  509TMC3    C1 7559   0.570   1.084  15.380 -0.5249  0.2805 -0.1333
  509TMC3    C2 7560   0.684   1.150  15.350 -0.4217 -0.4026 -0.1797
  509TMC3    C3 7561   0.798   1.073  15.367 -0.4640 -0.9221 -0.4687
  509TMC3    C4 7562   0.570   0.951  15.417  0.2783  0.4425 -0.4652
  509TMC3    C5 7563   0.687   0.875  15.416 -0.7429 -0.3581  0.2773
  509TMC3    C6 7564   0.800   0.940  15.390 -0.2165 -0.4847  0.0886
  509TMC3     C 7565   0.444   1.148  15.364  0.2690 -0.1439  0.0898
  509TMC3     O 7566   0.343   1.077  15.378 -0.8279  0.2626  0.3728
  509TMC3     H 7567   0.679   1.250  15.307  1.9837  0.6203  1.9341
  509TMC3    H1 7568   0.477   0.915  15.458  1.4401  0.1586  1.9563
  509TMC3    H2 7569   0.899   0.898  15.404  1.2246  2.0129 -2.7734
  509TMC3    C7 7570   0.692   0.757  15.494  0.0191 -0.0710  0.2635
  509TMC3    C8 7571   0.917   1.145  15.350 -0.1415 -0.2496 -0.4372
  509TMC3    O1 7572   0.797   0.738  15.557  0.5341 -0.5014 -0.0751
  509TMC3    O2 7573   1.013   1.094  15.289 -0.2427 -0.6272 -0.0650
  510MPD2     C 7574   3.125   2.741  14.333 -0.4317  0.2416 -0.6574
  510MPD2    C1 7575   3.194   2.643  14.401 -0.1132  0.0726  0.1791
  510MPD2    C2 7576   3.325   2.630  14.369 -0.7816 -0.1243 -0.6176
  510MPD2    C3 7577   3.387   2.695  14.267 -0.4986 -0.3635 -1.1766
  510MPD2    C4 7578   3.318   2.788  14.199  0.2895  0.5421 -0.0003
  510MPD2    C5 7579   3.191   2.816  14.240  0.2230 -0.2473 -0.2553
  510MPD2     H 7580   3.394   2.583  14.438 -3.2013 -2.1460  0.4074
  510MPD2    H1 7581   3.356   2.835  14.110 -0.2825 -1.2907 -1.2178
  510MPD2    H2 7582   3.022   2.769  14.352 -1.2487 -1.8553 -1.9621
  510MPD2    H3 7583   3.135   2.892  14.186  0.8574  1.0912  0.9795
  510MPD2     N 7584   3.521   2.657  14.234  0.2798  0.0485 -0.3708
  510MPD2    H5 7585   3.555   2.581  14.292  0.3609 -0.6241 -1.3084
  510MPD2    N1 7586   3.124   2.558  14.492  0.1320  0.0611  0.0938
  510MPD2    H7 7587   3.024   2.573  14.499  0.4216  1.1958  1.7937
  511TMC3    C1 7588   3.083   2.354  14.605 -0.9095  0.3326  0.0240
  511TMC3    C2 7589   2.985   2.411  14.686 -0.0961  0.0705  0.1144
  511TMC3    C3 7590   2.919   2.329  14.773 -0.1736 -0.4480  0.4721
  511TMC3    C4 7591   3.120   2.226  14.624 -0.6732 -0.0580  0.2885
  511TMC3    C5 7592   3.049   2.143  14.714 -0.6275  0.0718 -0.1757
  511TMC3    C6 7593   2.941   2.194  14.788  0.0866 -0.1847 -0.2118
  511TMC3     C 7594   3.176   2.440  14.539  0.4385 -0.0728  0.1179
  511TMC3     O 7595   3.285   2.388  14.524  0.0428 -0.3642 -0.7731
  511TMC3     H 7596   2.950   2.513  14.672 -2.7019 -0.8001  0.2266
  511TMC3    H1 7597   3.196   2.181  14.561 -1.6876 -0.9938 -0.2584
  511TMC3    H2 7598   2.887   2.126  14.852 -0.0972  2.1946  2.1491
  511TMC3    C7 7599   3.061   2.002  14.692  0.4128 -0.7907  0.2738
  511TMC3    C8 7600   2.828   2.405  14.858  0.3491 -0.6696 -0.2416
  511TMC3    O1 7601   3.052   1.966  14.577  0.6361 -0.3275 -0.0502
  511TMC3    O2 7602   2.860   2.516  14.897  0.0329 -0.7807 -0.8040
  512TMC3    C1 7603   1.954   2.117  12.939 -0.1597  0.2358 -0.3346
  512TMC3    C2 7604   2.072   2.099  13.008 -0.8994  0.2070 -0.3601
  512TMC3    C3 7605   2.142   1.986  12.984 -0.3108 -0.1289  0.4170
  512TMC3    C4 7606   1.912   2.035  12.843  0.6093 -0.0769  0.2443
  512TMC3    C5 7607   1.989   1.921  12.813 -0.4580  0.6621 -0.6778
  512TMC3    C6 7608   2.102   1.896  12.886 -0.4486 -0.1376  0.4977
  512TMC3     C 7609   1.843   2.170  13.024 -0.3554  0.1377 -0.2910
  512TMC3     O 7610   1.737   2.110  13.027 -0.9079 -0.1568  0.4864
  512TMC3     H 7611   2.090   2.157  13.097 -0.1651 -2.1691  1.0431
  512TMC3    H1 7612   1.811   2.058  12.813 -0.4833 -3.4009  1.4812
  512TMC3    H2 7613   2.158   1.808  12.854 -0.0348  0.5364 -0.6120
  512TMC3    C7 7614   1.916   1.821  12.736 -0.5442 -0.2832  0.1673
  512TMC3    C8 7615   2.268   1.960  13.048  0.6640 -0.5173 -0.0986
  512TMC3    O1 7616   1.819   1.853  12.674 -0.2400  0.0572  0.4693
  512TMC3    O2 7617   2.298   1.840  13.064  0.1771 -0.0208 -0.6652
  513MPD2     C 7618   4.122   1.693  12.755  0.3494  0.3292 -0.2369
  513MPD2    C1 7619   4.248   1.727  12.712 -0.4929 -0.1010 -0.1797
  513MPD2    C2 7620   4.343   1.777  12.805  0.2214 -0.0026  0.0199
  513MPD2    C3 7621   4.311   1.779  12.943 -0.3683 -0.2633  0.0980
  513MPD2    C4 7622   4.189   1.732  12.989 -0.5792  0.1236 -0.1198
  513MPD2    C5 7623   4.096   1.695  12.891  0.5597 -0.0358  0.1245
  513MPD2     H 7624   4.443   1.805  12.774  0.1148 -0.8171 -1.0775
  513MPD2    H1 7625   4.150   1.724  13.090  0.8003  0.4522  0.4259
  513MPD2    H2 7626   4.047   1.671  12.680  0.1463  0.6649 -0.1291
  513MPD2    H3 7627   4.001   1.655  12.924 -0.2534 -0.1406 -2.2761
  513MPD2     N 7628   4.418   1.827  13.025  0.3869 -0.0575  0.5831
  513MPD2    H5 7629   4.502   1.870  12.987 -0.4009 -0.1929 -1.3501
  513MPD2    N1 7630   4.279   1.692  12.575 -0.1725 -0.0704  0.4553
  513MPD2    H7 7631   4.211   1.667  12.504 -0.5927  0.7902  0.5506
  514TMC3    C1 7632   4.423   1.583  12.418 -0.0268 -0.3801 -0.5090
  514TMC3    C2 7633   4.391   1.647  12.305 -0.4562  0.3483  0.2013
  514TMC3    C3 7634   4.480   1.639  12.202  0.2028 -0.1877  0.3150
  514TMC3    C4 7635   4.538   1.508  12.421  0.0724 -0.2583  0.1121
  514TMC3    C5 7636   4.619   1.497  12.310  1.2075  0.0392 -1.2562
  514TMC3    C6 7637   4.601   1.568  12.200  0.3673  0.4695  1.0066
  514TMC3     C 7638   4.410   1.663  12.536 -0.1938 -0.0722 -0.2793
  514TMC3     O 7639   4.508   1.678  12.609 -0.0654 -0.3804 -0.2006
  514TMC3     H 7640   4.306   1.712  12.293 -0.7177  0.3666  2.1183
  514TMC3    H1 7641   4.558   1.467  12.519 -0.1183 -1.0968 -0.1927
  514TMC3    H2 7642   4.662   1.541  12.114 -0.3515 -1.8504  1.2178
  514TMC3    C7 7643   0.037   1.523  12.347  0.5363 -0.3383 -0.0417
  514TMC3    C8 7644   4.451   1.709  12.083  0.1875  0.5904  0.2308
  514TMC3    O1 7645   0.125   1.523  12.267  0.2082 -0.2012  0.5744
  514TMC3    O2 7646   4.335   1.751  12.073  0.1748  0.1544 -0.4482
  515MPD2     C 7647   1.600   3.801  14.957  0.5859  0.9085  0.0705
  515MPD2    C1 7648   1.663   3.692  14.900 -0.1131  0.4587 -0.4605
  515MPD2    C2 7649   1.801   3.670  14.918 -0.5025  0.1498  0.0575
  515MPD2    C3 7650   1.878   3.764  14.981 -0.7038 -0.1304  0.1358
  515MPD2    C4 7651   1.812   3.875  15.032 -0.2666  0.0842 -0.1391
  515MPD2    C5 7652   1.677   3.885  15.029 -0.4049 -0.3234 -0.1385
  515MPD2     H 7653   1.848   3.581  14.879 -0.7206  0.6340 -1.3042
  515MPD2    H1 7654   1.862   3.963  15.071  0.8384 -1.1963  1.3042
  515MPD2    H2 7655   1.494   3.814  14.941  0.3940 -0.7649 -0.0517
  515MPD2    H3 7656   1.634   3.973  15.077  3.3318  1.5487 -0.2304
  515MPD2     N 7657   2.021   3.769  14.994  0.5757  0.4239  0.2846
  515MPD2    H5 7658   2.066   3.826  15.065 -1.3029  1.8673  0.3199
  515MPD2    N1 7659   1.607   3.592  14.817 -0.1354 -0.4863 -0.5126
  515MPD2    H7 7660   1.677   3.526  14.784  2.7533  1.4369  1.7046
  516TMC3    C1 7661   1.468   3.461  14.692  0.4880  0.5182  0.1624
  516TMC3    C2 7662   1.413   3.472  14.566  0.1051  0.1392 -0.4807
  516TMC3    C3 7663   1.402   3.352  14.499 -0.7939 -0.3782  0.0688
  516TMC3    C4 7664   1.504   3.343  14.757  0.5490  0.8232 -0.5691
  516TMC3    C5 7665   1.477   3.229  14.684  0.7791 -0.0159 -0.2702
  516TMC3    C6 7666   1.418   3.229  14.555  0.3735 -1.1416 -0.6211
  516TMC3     C 7667   1.480   3.582  14.766 -0.1101 -0.2211 -0.1376
  516TMC3     O 7668   1.391   3.664  14.773  0.5768  0.5830 -0.2772
  516TMC3     H 7669   1.390   3.570  14.528  0.6222  0.4762  0.0821
  516TMC3    H1 7670   1.527   3.338  14.863  0.9913 -1.6984 -0.7821
  516TMC3    H2 7671   1.423   3.142  14.492 -1.0863 -1.9583  0.3676
  516TMC3    C7 7672   1.480   3.110  14.762  0.3416  0.2246 -0.4103
  516TMC3    C8 7673   1.431   3.357  14.358  0.0292 -0.2640 -0.3960
  516TMC3    O1 7674   1.574   3.099  14.842  0.0641 -0.2476  0.3178
  516TMC3    O2 7675   1.402   3.260  14.289  0.1912  0.3833 -0.4230
  517MPD2     C 7676   1.450   4.412   0.079  0.3535  0.6276  0.6212
  517MPD2    C1 7677   1.582   4.401   0.037  0.7741 -0.0808  0.0399
  517MPD2    C2 7678   1.678   4.479   0.101 -0.0743 -0.1753 -0.1535
  517MPD2    C3 7679   1.642   4.576   0.196 -0.0403 -0.5909 -1.5674
  517MPD2    C4 7680   1.511   4.584   0.246  0.0801  0.6877  0.6576
  517MPD2    C5 7681   1.426   4.500   0.179 -0.1357 -0.2686 -0.3275
  517MPD2     H 7682   1.779   4.487   0.062 -0.8144  0.0429 -2.0200
  517MPD2    H1 7683   1.476   4.647   0.326 -1.8087  1.6694 -0.9320
  517MPD2    H2 7684   1.364   4.365   0.032  0.5616  1.7996 -0.9125
  517MPD2    H3 7685   1.323   4.503   0.212  0.2696 -0.1610  0.9505
  517MPD2     N 7686   1.736   4.672   0.247  0.0096 -0.8347  0.4498
  517MPD2    H5 7687   1.699   0.028   0.297 -0.4136 -0.7651  0.0258
  517MPD2    N1 7688   1.629   4.328  17.626 -0.4838 -0.2344 -0.4950
  517MPD2    H7 7689   1.730   4.333  17.612 -0.7039  1.4592 -1.4647
  518TMC3    C1 7690   1.652   4.224  17.426 -0.1105  0.4915  0.1573
  518TMC3    C2 7691   1.617   4.135  17.333 -0.1121  0.3851 -0.9016
  518TMC3    C3 7692   1.679   4.137  17.209 -0.3614  0.0677 -0.3220
  518TMC3    C4 7693   1.758   4.314  17.402  1.1580  0.5891 -0.8173
  518TMC3    C5 7694   1.832   4.293  17.293 -0.0335 -0.2386  0.0558
  518TMC3    C6 7695   1.798   4.201  17.192  0.3877  0.2721 -0.5545
  518TMC3     C 7696   1.568   4.236  17.547  0.1888  0.7458 -0.0434
  518TMC3     O 7697   1.451   4.200  17.542  0.7320 -0.1146  0.5409
  518TMC3     H 7698   1.535   4.072  17.367  1.3464  0.0623  2.0002
  518TMC3    H1 7699   1.784   4.392  17.473  0.5544 -0.4658  0.5413
  518TMC3    H2 7700   1.858   4.192  17.102 -0.0849 -1.3023 -0.7025
  518TMC3    C7 7701   1.919   4.406  17.262 -0.3592 -0.4344 -0.5191
  518TMC3    C8 7702   1.656   4.034  17.113 -0.0084 -0.0910  0.1030
  518TMC3    O1 7703   1.906   4.510  17.331 -0.3315 -0.1850  0.2702
  518TMC3    O2 7704   1.612   3.925  17.161 -0.6160 -0.3073 -0.0455
  519MPD2     C 7705   3.248   3.426  14.268  0.5491  0.0991 -0.0133
  519MPD2    C1 7706   3.306   3.477  14.155 -0.4359 -0.2861  0.0558
  519MPD2    C2 7707   3.415   3.426  14.093  0.3434 -0.1113 -0.5976
  519MPD2    C3 7708   3.465   3.310  14.141  0.1156 -0.9184  0.1506
  519MPD2    C4 7709   3.410   3.252  14.259  0.1767  0.5766  0.2888
  519MPD2    C5 7710   3.304   3.317  14.317 -0.4477 -0.1475  0.0357
  519MPD2     H 7711   3.464   3.476  14.010  1.4976 -1.5236 -0.7880
  519MPD2    H1 7712   3.438   3.155  14.299  1.6223  0.5381 -0.8209
  519MPD2    H2 7713   3.168   3.475  14.322  0.0585 -0.4494 -0.2557
  519MPD2    H3 7714   3.263   3.283  14.412 -0.0157  1.1903  0.6934
  519MPD2     N 7715   3.560   3.246  14.065  0.3598 -0.0795  0.1707
  519MPD2    H5 7716   3.580   3.283  13.973  2.7516 -1.4592  0.1163
  519MPD2    N1 7717   3.256   3.598  14.092  0.8631 -0.0511  0.5572
  519MPD2    H7 7718   3.306   3.634  14.011 -0.4726  0.7456  0.0901
  520TMC3    C1 7719   3.718   3.088  14.011  0.0981  0.1801  0.9947
  520TMC3    C2 7720   3.724   3.133  13.881 -0.2592 -0.8599  0.6021
  520TMC3    C3 7721   3.828   3.098  13.795 -0.3703 -0.0460  0.1241
  520TMC3    C4 7722   3.823   3.015  14.057  0.3990  0.1134 -0.1355
  520TMC3    C5 7723   3.933   2.994  13.970 -0.0192 -0.2272 -0.1426
  520TMC3    C6 7724   3.939   3.033  13.839 -0.4283 -0.2503 -0.2567
  520TMC3     C 7725   3.626   3.138  14.111  0.1336  0.4466 -1.1671
  520TMC3     O 7726   3.628   3.086  14.221 -0.0896 -0.3038  0.2282
  520TMC3     H 7727   3.629   3.162  13.839  1.3529  2.2222 -0.9091
  520TMC3    H1 7728   3.827   2.990  14.162 -1.3999  2.2891  0.4541
  520TMC3    H2 7729   4.023   3.032  13.771  0.0761  1.0192  0.3385
  520TMC3    C7 7730   4.036   2.890  14.017 -0.3479 -0.0875  0.2421
  520TMC3    C8 7731   3.827   3.116  13.642 -0.3237  0.4845  0.4594
  520TMC3    O1 7732   4.031   2.850  14.131 -0.0620 -0.1054 -0.3358
  520TMC3    O2 7733   3.925   3.078  13.586 -0.1832 -0.2225  0.2135
  521MPD2     C 7734   4.003   1.060  17.301  0.1808 -0.5943 -0.3596
  521MPD2    C1 7735   3.974   1.076  17.174  0.1769  0.7045 -0.3246
  521MPD2    C2 7736   4.072   1.034  17.078 -0.5565  0.0856 -0.0986
  521MPD2    C3 7737   4.192   0.978  17.120  0.1854 -0.3138  0.5214
  521MPD2    C4 7738   4.213   0.952  17.257  0.1653 -1.2405  0.6695
  521MPD2    C5 7739   4.120   0.995  17.346 -1.0066  0.2120 -0.1943
  521MPD2     H 7740   4.051   1.032  16.972  0.1166  0.9343 -0.2458
  521MPD2    H1 7741   4.302   0.908  17.301  0.7086  0.1538  0.9588
  521MPD2    H2 7742   3.931   1.087  17.378  2.8841  1.5312  1.3948
  521MPD2    H3 7743   4.129   0.991  17.454  1.2029 -3.1622 -0.5113
  521MPD2     N 7744   4.283   0.936  17.020 -0.8428  0.5192  0.1159
  521MPD2    H5 7745   4.268   0.972  16.926 -2.5326  0.2060  0.2648
  521MPD2    N1 7746   3.842   1.109  17.141  0.0595  0.1928 -0.0120
  521MPD2    H7 7747   3.782   1.137  17.218 -0.2761 -2.7078  0.7836
  522TMC3    C1 7748   4.469   0.792  16.933  0.4601 -0.6464  0.1032
  522TMC3    C2 7749   4.575   0.707  16.952  0.3623 -0.1032 -0.3342
  522TMC3    C3 7750   4.676   0.703  16.859  0.1541  0.3505 -0.8925
  522TMC3    C4 7751   4.453   0.853  16.810 -0.0388 -0.4068  0.2876
  522TMC3    C5 7752   4.545   0.833  16.711  0.0096 -0.0293  0.0343
  522TMC3    C6 7753   4.661   0.763  16.735 -0.0316 -0.4959  0.1691
  522TMC3     C 7754   4.377   0.828  17.041 -0.4717  0.2471 -0.2358
  522TMC3     O 7755   4.397   0.763  17.142 -0.4290 -0.4378 -0.6037
  522TMC3     H 7756   4.584   0.682  17.057 -1.8144  2.4196  0.4806
  522TMC3    H1 7757   4.357   0.899  16.787  0.2086 -0.8156 -1.5965
  522TMC3    H2 7758   0.019   0.747  16.665 -0.2636 -1.3523  0.1039
  522TMC3    C7 7759   4.562   0.935  16.608 -0.3720 -0.4719 -0.0309
  522TMC3    C8 7760   0.079   0.648  16.907 -0.3038 -0.1337  0.2509
  522TMC3    O1 7761   4.645   0.918  16.516  0.7659  0.0678  0.2912
  522TMC3    O2 7762   0.085   0.585  17.016  0.3058 -0.2979  0.3093
  523MPD2     C 7763   2.597   1.488  10.255  0.7215  0.6628  0.1583
  523MPD2    C1 7764   2.588   1.442  10.130 -0.4340 -0.1530 -0.6441
  523MPD2    C2 7765   2.620   1.527  10.028 -0.9323  0.5272 -0.6242
  523MPD2    C3 7766   2.646   1.662  10.054 -0.3151 -0.1889  1.2173
  523MPD2    C4 7767   2.637   1.702  10.182  0.2266  0.3040  0.3826
  523MPD2    C5 7768   2.623   1.621  10.286 -0.3938 -0.3368 -0.8433
  523MPD2     H 7769   2.619   1.481   9.930 -2.3993 -2.8217  0.9460
  523MPD2    H1 7770   2.659   1.806  10.205 -1.2444  0.9271 -1.0105
  523MPD2    H2 7771   2.584   1.415  10.334  0.8790  1.0345  0.5298
  523MPD2    H3 7772   2.630   1.658  10.388  1.6916  1.0962 -1.5123
  523MPD2     N 7773   2.675   1.768   9.966  0.1651  0.1497 -0.6339
  523MPD2    H5 7774   2.693   1.862   9.998  0.8976  0.6633 -2.5660
  523MPD2    N1 7775   2.547   1.305  10.112 -0.7973  0.8340  0.0244
  523MPD2    H7 7776   2.515   1.260  10.197 -0.2180 -1.3404 -0.9037
  524TMC3    C1 7777   2.680   1.883   9.750 -0.3874  0.3181 -0.3526
  524TMC3    C2 7778   2.704   1.875   9.614 -0.6578 -1.0416 -0.1829
  524TMC3    C3 7779   2.649   1.971   9.532 -0.3600 -0.3494 -0.0907
  524TMC3    C4 7780   2.624   1.988   9.811  1.3404  0.0479  1.0721
  524TMC3    C5 7781   2.580   2.081   9.725 -0.4684  0.0438 -0.1124
  524TMC3    C6 7782   2.584   2.077   9.584  0.6872  0.2288 -0.5547
  524TMC3     C 7783   2.684   1.755   9.825  0.4247  0.1335 -0.1045
  524TMC3     O 7784   2.700   1.652   9.760  0.1737  0.2247  0.0771
  524TMC3     H 7785   2.740   1.776   9.587  0.5740 -1.0636  1.5107
  524TMC3    H1 7786   2.605   1.983   9.917 -1.2626  1.0061  0.6761
  524TMC3    H2 7787   2.535   2.148   9.519 -0.5220 -1.6079 -1.6409
  524TMC3    C7 7788   2.505   2.184   9.784 -0.4885  0.4654  0.3227
  524TMC3    C8 7789   2.720   2.005   9.406  0.2779 -0.5125 -0.2827
  524TMC3    O1 7790   2.456   2.159   9.891 -0.1463  0.6483  0.0951
  524TMC3    O2 7791   2.660   2.071   9.325 -0.6641 -0.1338  0.0317
  525MPD2     C 7792   0.138   2.809  14.480  0.5891  0.3516 -0.2289
  525MPD2    C1 7793   0.244   2.867  14.543 -0.1136  0.3749  0.2217
  525MPD2    C2 7794   0.317   2.962  14.482  0.8356 -0.0958  0.7512
  525MPD2    C3 7795   0.273   3.010  14.359 -0.6996 -0.2920 -0.1266
  525MPD2    C4 7796   0.152   2.967  14.303  0.2845  0.4355  0.0641
  525MPD2    C5 7797   0.093   2.858  14.361 -0.1233  0.1852  0.3692
  525MPD2     H 7798   0.408   3.003  14.524  1.1472 -0.5338  0.5122
  525MPD2    H1 7799   0.123   2.994  14.202 -0.1554  0.3346  0.1627
  525MPD2    H2 7800   0.084   2.728  14.528  0.3615 -0.4308 -1.8371
  525MPD2    H3 7801   0.000   2.824  14.316 -0.9402  1.0074  1.4115
  525MPD2     N 7802   0.317   3.138  14.307 -0.6049 -0.1819  0.3942
  525MPD2    H5 7803   0.260   3.171  14.229  0.3663 -1.3194 -0.8120
  525MPD2    N1 7804   0.288   2.813  14.669  0.6023 -0.1119  0.2716
  525MPD2    H7 7805   0.376   2.847  14.705  0.4497  0.4071  0.1574
  526TMC3    C1 7806   0.295   2.681  14.868  0.3044 -0.5928  0.0142
  526TMC3    C2 7807   0.223   2.627  14.977  1.1021 -0.8709 -0.2764
  526TMC3    C3 7808   0.291   2.579  15.075 -0.5571  0.2912  0.9110
  526TMC3    C4 7809   0.433   2.667  14.853 -0.5797 -0.1716 -0.1030
  526TMC3    C5 7810   0.489   2.603  14.960  0.1317 -0.4496 -0.3428
  526TMC3    C6 7811   0.423   2.555  15.067  0.0856 -0.0257  0.2336
  526TMC3     C 7812   0.214   2.736  14.759  0.6069 -0.1900  0.6199
  526TMC3     O 7813   0.095   2.704  14.756 -0.2687 -0.5870 -0.0565
  526TMC3     H 7814   0.115   2.623  14.985  1.1029 -0.2359  0.0544
  526TMC3    H1 7815   0.491   2.700  14.767 -1.0091  0.3807 -0.1813
  526TMC3    H2 7816   0.470   2.504  15.150 -1.7576 -1.5312  0.3533
  526TMC3    C7 7817   0.633   2.603  14.970  0.2850  0.6788  0.3270
  526TMC3    C8 7818   0.238   2.577  15.209 -0.3469  0.8424 -0.5943
  526TMC3    O1 7819   0.676   2.605  15.084 -0.0006  0.2494 -0.5926
  526TMC3    O2 7820   0.317   2.586  15.303 -0.5347 -0.4461 -0.0027
  527MPD2     C 7821   2.436   0.065   0.939  0.4609 -0.0083  0.0296
  527MPD2    C1 7822   2.495   0.049   1.065 -0.4693  1.3926 -0.5218
  527MPD2    C2 7823   2.635   0.035   1.066 -0.4183  0.8869  0.8176
  527MPD2    C3 7824   2.714   0.024   0.958  0.5144  0.0709 -0.6416
  527MPD2    C4 7825   2.653   0.033   0.832  0.0084  0.4159 -0.3734
  527MPD2    C5 7826   2.516   0.050   0.830  0.7276 -0.8370 -0.2918
  527MPD2     H 7827   2.680   0.029   1.165  1.6115  0.2433 -0.1402
  527MPD2    H1 7828   2.700   0.058   0.737  1.1988 -0.7741 -0.1090
  527MPD2    H2 7829   2.333   0.096   0.929 -0.1150 -2.1791 -0.7568
  527MPD2    H3 7830   2.474   0.058   0.730 -0.7524 -0.8796  0.3385
  527MPD2     N 7831   2.854   0.019   0.975 -0.0858 -0.8489 -0.0953
  527MPD2    H5 7832   2.883   0.018   1.073 -0.9618  3.2287  0.2198
  527MPD2    N1 7833   2.427   0.053   1.187  0.5934  0.2603 -0.9191
  527MPD2    H7 7834   2.478   0.023   1.269 -0.4156  0.6209 -0.1738
  528TMC3    C1 7835   2.266   0.142   1.337  0.2371  0.1428  0.0412
  528TMC3    C2 7836   2.352   0.115   1.447 -0.1061  0.6727 -0.2672
  528TMC3    C3 7837   2.354   0.203   1.553 -0.0735  0.9428 -0.8120
  528TMC3    C4 7838   2.180   0.250   1.345 -0.6263 -0.5276 -0.4341
  528TMC3    C5 7839   2.181   0.332   1.459  0.2363  0.5259 -0.3828
  528TMC3    C6 7840   2.269   0.310   1.563  0.1733  1.0390 -0.1354
  528TMC3     C 7841   2.305   0.111   1.203 -0.5746  0.3168 -0.2768
  528TMC3     O 7842   2.232   0.163   1.121 -0.4043 -0.0682  0.1048
  528TMC3     H 7843   2.429   0.040   1.434  0.4687  1.2184 -0.0402
  528TMC3    H1 7844   2.125   0.285   1.258 -1.5366 -0.1734  0.2924
  528TMC3    H2 7845   2.290   0.388   1.634 -1.6031  0.6523  0.8263
  528TMC3    C7 7846   2.090   0.434   1.486 -0.0377 -0.8462 -0.6090
  528TMC3    C8 7847   2.478   0.211   1.610  0.2947 -0.6847 -0.1984
  528TMC3    O1 7848   2.089   0.486   1.600 -0.3084 -0.3994 -0.5694
  528TMC3    O2 7849   2.583   0.188   1.553 -0.4538  0.5546  0.1038
  529MPD2     C 7850   4.313   3.489   1.117 -0.3763 -0.6569  1.2482
  529MPD2    C1 7851   4.383   3.452   1.006 -0.3582 -0.3216 -0.0208
  529MPD2    C2 7852   4.322   3.442   0.882 -0.3988  0.7876 -0.2216
  529MPD2    C3 7853   4.185   3.461   0.877  0.2680 -0.5315 -0.3106
  529MPD2    C4 7854   4.114   3.497   0.990 -0.0712  0.7741 -0.1907
  529MPD2    C5 7855   4.180   3.511   1.104 -0.2754  0.1416 -0.3964
  529MPD2     H 7856   4.371   3.413   0.789 -0.1522 -1.0535  0.4757
  529MPD2    H1 7857   4.009   3.523   0.998  0.3400  2.9138 -1.7972
  529MPD2    H2 7858   4.360   3.509   1.213 -1.0084 -1.1501  1.6571
  529MPD2    H3 7859   4.119   3.551   1.184 -0.1904  1.0269 -0.7803
  529MPD2     N 7860   4.123   3.478   0.751 -0.0222 -0.4048 -0.1857
  529MPD2    H5 7861   4.034   3.527   0.757  0.5439  0.7268 -1.0293
  529MPD2    N1 7862   4.530   3.431   0.999  0.2201 -0.4640  0.7966
  529MPD2    H7 7863   4.571   3.399   0.912 -1.1115 -1.4734  0.5441
  530TMC3    C1 7864   0.033   3.424   1.070 -0.0628 -0.2254  0.3553
  530TMC3    C2 7865   0.114   3.436   1.181  0.0175 -0.0387 -0.0173
  530TMC3    C3 7866   0.247   3.438   1.160 -0.1355 -0.2566  0.7240
  530TMC3    C4 7867   0.077   3.408   0.944  0.4360 -0.0861  0.0795
  530TMC3    C5 7868   0.214   3.408   0.932  0.1846 -0.1367 -0.2555
  530TMC3    C6 7869   0.304   3.419   1.039  0.1227 -0.5782  0.5275
  530TMC3     C 7870   4.618   3.448   1.108  0.4768  0.1500 -0.0059
  530TMC3     O 7871   4.591   3.499   1.218 -0.3301  0.0666  0.4948
  530TMC3     H 7872   0.083   3.459   1.282 -1.7229 -1.0582 -0.3146
  530TMC3    H1 7873   0.018   3.390   0.855 -0.5346 -0.8395  0.8680
  530TMC3    H2 7874   0.412   3.422   1.029  0.0876 -1.5598 -0.1119
  530TMC3    C7 7875   0.268   3.405   0.797  0.9080  0.3688  0.3471
  530TMC3    C8 7876   0.323   3.485   1.266  0.4764 -0.0872  0.0776
  530TMC3    O1 7877   0.357   3.479   0.762  0.8397 -0.0425 -0.2983
  530TMC3    O2 7878   0.269   3.554   1.354  0.6167 -0.1409 -0.0067
  531MPD2     C 7879   0.329   1.676  12.745 -0.1385 -0.6129 -0.0639
  531MPD2    C1 7880   0.198   1.694  12.771  1.2158  0.1569  0.4408
  531MPD2    C2 7881   0.099   1.662  12.678  0.0248  0.5506  0.2939
  531MPD2    C3 7882   0.133   1.629  12.549  0.0040 -0.6049  0.4362
  531MPD2    C4 7883   0.265   1.613  12.522 -0.0167 -0.0793 -0.6179
  531MPD2    C5 7884   0.363   1.639  12.618  0.4828 -0.1286  0.3661
  531MPD2     H 7885   4.716   1.667  12.701 -0.2674  1.9065 -1.3687
  531MPD2    H1 7886   0.301   1.569  12.430 -2.4460 -1.6970 -0.7741
  531MPD2    H2 7887   0.404   1.701  12.819  1.6201 -4.4669 -0.5824
  531MPD2    H3 7888   0.469   1.630  12.599  0.3291  2.5050 -1.7285
  531MPD2     N 7889   0.033   1.578  12.472  0.1375  0.1075  0.4490
  531MPD2    H5 7890   4.666   1.586  12.519 -1.4518 -1.2076 -2.3515
  531MPD2    N1 7891   0.168   1.755  12.899 -0.2582 -0.3163 -0.0187
  531MPD2    H7 7892   0.237   1.741  12.972  0.8147 -2.2256 -1.3719
  532TMC3    C1 7893   0.030   1.816  13.081  0.3682  1.0562 -0.6971
  532TMC3    C2 7894   4.639   1.888  13.114  0.3239  0.3077  0.4741
  532TMC3    C3 7895   4.564   1.833  13.211  0.4539  0.2964 -0.2550
  532TMC3    C4 7896   0.073   1.709  13.148 -0.4491  0.2293  0.5807
  532TMC3    C5 7897   0.007   1.679  13.261 -0.0233 -0.1302 -0.1702
  532TMC3    C6 7898   4.615   1.738  13.300  0.3130  0.5476 -0.1308
  532TMC3     C 7899   0.047   1.806  12.937 -0.1574  0.0222  0.2401
  532TMC3     O 7900   4.680   1.847  12.866  0.2341 -0.3306 -0.3758
  532TMC3     H 7901   4.596   1.968  13.055  0.0573  0.7668  1.2986
  532TMC3    H1 7902   0.169   1.664  13.124 -0.1333  1.3111 -0.2205
  532TMC3    H2 7903   4.560   1.707  13.387  2.4797  0.9070  1.3774
  532TMC3    C7 7904   0.044   1.555  13.330 -1.4686 -0.1889 -0.5021
  532TMC3    C8 7905   4.424   1.807  13.164 -0.5832  0.3744 -0.1530
  532TMC3    O1 7906   4.701   1.522  13.429 -0.2530 -0.1481  0.4973
  532TMC3    O2 7907   4.340   1.750  13.231 -0.2121 -0.0271  0.0861
  533TMC3    C1 7908   0.428   3.358  14.325 -0.2401 -0.3601 -0.0648
  533TMC3    C2 7909   0.549   3.412  14.324 -0.2153  0.7539  0.4582
  533TMC3    C3 7910   0.557   3.540  14.372  0.0911  0.2264 -0.3677
  533TMC3    C4 7911   0.318   3.421  14.383 -0.1846  0.2985  0.1986
  533TMC3    C5 7912   0.334   3.534  14.454  0.0189  0.2893  0.0386
  533TMC3    C6 7913   0.449   3.600  14.436  0.0426  0.0424  0.0811
  533TMC3     C 7914   0.431   3.209  14.337  0.0891 -0.0784  0.7206
  533TMC3     O 7915   0.533   3.167  14.388  0.1146 -0.5602 -0.1511
  533TMC3     H 7916   0.632   3.361  14.278 -0.8865 -0.0492  0.1313
  533TMC3    H1 7917   0.230   3.357  14.385 -0.1833  0.2213 -2.1591
  533TMC3    H2 7918   0.469   3.695  14.485 -1.6777  0.2227  0.4592
  533TMC3    C7 7919   0.269   3.527  14.581  0.2493 -0.0958  0.1781
  533TMC3    C8 7920   0.695   3.577  14.405  0.4980  0.0414  0.4782
  533TMC3    O1 7921   0.194   3.432  14.599 -0.0799  0.1887  0.5628
  533TMC3    O2 7922   0.716   3.627  14.516  0.1092  0.8305 -0.1280
  534MPD2     C 7923   1.560   4.035   2.032 -0.0550  0.0935  1.0275
  534MPD2    C1 7924   1.664   4.054   1.946  0.8213 -0.5793 -0.4516
  534MPD2    C2 7925   1.690   3.954   1.856  0.0167 -0.1085 -0.4738
  534MPD2    C3 7926   1.614   3.842   1.849 -0.4948  0.3461 -0.1486
  534MPD2    C4 7927   1.504   3.831   1.934  0.2191  0.6628  0.5131
  534MPD2    C5 7928   1.482   3.923   2.025  0.8701  0.5590 -0.4529
  534MPD2     H 7929   1.780   3.967   1.797  0.3469  0.3041  0.1257
  534MPD2    H1 7930   1.431   3.753   1.916  1.1413 -0.1829  0.3959
  534MPD2    H2 7931   1.544   4.107   2.111 -0.5630  1.5321 -0.4071
  534MPD2    H3 7932   1.402   3.915   2.098 -0.7959  1.0415 -2.2054
  534MPD2     N 7933   1.635   3.738   1.755 -0.3040  0.0976 -0.0623
  534MPD2    H5 7934   1.556   3.679   1.731 -0.1976  0.0314 -0.2491
  534MPD2    N1 7935   1.758   4.163   1.940 -0.7892  0.5730  0.6557
  534MPD2    H7 7936   1.834   4.158   1.872 -0.6581 -0.1512  0.8500
  535TMC3    C1 7937   1.751   3.642   1.574  0.4075  0.1506 -0.4776
  535TMC3    C2 7938   1.631   3.608   1.513  0.2802 -0.0216 -0.2014
  535TMC3    C3 7939   1.636   3.573   1.388 -0.2094 -0.2715 -0.1816
  535TMC3    C4 7940   1.864   3.651   1.502 -0.8034  0.8682  0.6488
  535TMC3    C5 7941   1.863   3.613   1.371  0.0605 -0.5223 -0.3156
  535TMC3    C6 7942   1.748   3.568   1.311 -0.5378 -0.0936  0.1168
  535TMC3     C 7943   1.758   3.719   1.700  0.8547 -0.3564  0.6200
  535TMC3     O 7944   1.869   3.760   1.730  0.3866 -0.2070  0.0913
  535TMC3     H 7945   1.546   3.597   1.579 -1.4223  3.1922 -1.8361
  535TMC3    H1 7946   1.959   3.661   1.554 -0.1518  1.1005 -0.5868
  535TMC3    H2 7947   1.758   3.514   1.217  1.6572  0.6197 -0.0544
  535TMC3    C7 7948   1.963   3.663   1.286 -0.1379 -0.2436  0.0108
  535TMC3    C8 7949   1.510   3.532   1.317  0.1348  0.3982  0.0549
  535TMC3    O1 7950   1.974   3.598   1.182  0.3244  1.0970  0.5402
  535TMC3    O2 7951   1.518   3.488   1.203  0.0642  0.2561 -0.6126
  536MPD2     C 7952   1.663   2.644  16.557 -0.8452 -0.5808  0.3431
  536MPD2    C1 7953   1.535   2.586  16.574  0.5651  0.2075 -0.1108
  536MPD2    C2 7954   1.434   2.630  16.487 -0.7254 -0.4943 -0.7768
  536MPD2    C3 7955   1.465   2.723  16.389 -0.1860  0.1526  0.2015
  536MPD2    C4 7956   1.594   2.770  16.372 -0.9232 -0.5752  0.2308
  536MPD2    C5 7957   1.690   2.729  16.455 -0.1530 -0.0039  1.2066
  536MPD2     H 7958   1.335   2.585  16.494 -0.5814 -0.6706  0.1301
  536MPD2    H1 7959   1.611   2.853  16.304 -0.4012  1.1109  2.4091
  536MPD2    H2 7960   1.745   2.604  16.616  0.9435 -0.9191 -2.3696
  536MPD2    H3 7961   1.791   2.749  16.423 -1.0817  2.0892 -0.4045
  536MPD2     N 7962   1.377   2.773  16.297  0.0590  0.7513  0.2680
  536MPD2    H5 7963   1.420   2.837  16.230  1.1350 -1.4190 -1.1094
  536MPD2    N1 7964   1.513   2.479  16.666 -0.3224  0.2595  0.0844
  536MPD2    H7 7965   1.590   2.448  16.725 -0.4154 -0.3191 -0.0935
  537TMC3    C1 7966   1.404   2.314  16.796 -0.2472  0.2497  0.3893
  537TMC3    C2 7967   1.529   2.290  16.854  0.0349 -0.5041 -0.1477
  537TMC3    C3 7968   1.530   2.186  16.938 -0.3308  0.0082  0.7318
  537TMC3    C4 7969   1.299   2.228  16.817  0.5339 -0.2942 -0.3636
  537TMC3    C5 7970   1.310   2.125  16.905  0.8059 -0.2489 -0.1765
  537TMC3    C6 7971   1.429   2.108  16.970  0.2406 -0.1125  0.5960
  537TMC3     C 7972   1.388   2.417  16.696  0.1804  0.0396 -0.2903
  537TMC3     O 7973   1.280   2.424  16.641 -0.0425  0.2219 -0.3434
  537TMC3     H 7974   1.609   2.363  16.858 -1.7071  1.2699  2.3905
  537TMC3    H1 7975   1.209   2.245  16.760  0.2741 -0.1234  0.0937
  537TMC3    H2 7976   1.444   2.026  17.039  0.2072 -1.3747 -0.9082
  537TMC3    C7 7977   1.188   2.039  16.922  0.2433 -0.7732 -0.1015
  537TMC3    C8 7978   1.656   2.156  17.001 -1.0402  0.5560  0.1842
  537TMC3    O1 7979   1.104   2.034  16.833  0.8285 -0.2467 -0.3443
  537TMC3    O2 7980   1.657   2.117  17.117 -0.3095 -0.4244  0.0894
  538TMC3    C1 7981   3.185   1.051  11.010  0.6137  0.0903  0.6210
  538TMC3    C2 7982   3.252   0.976  10.913 -0.2795 -0.0586  0.0005
  538TMC3    C3 7983   3.250   1.038  10.795  0.5081 -0.1585  1.0349
  538TMC3    C4 7984   3.089   1.147  10.982  0.1433 -0.0583  0.0249
  538TMC3    C5 7985   3.081   1.189  10.850 -0.9193 -0.2078 -0.2933
  538TMC3    C6 7986   3.169   1.136  10.760  0.6214 -0.0122  0.5789
  538TMC3     C 7987   3.213   1.021  11.152  0.4808  1.0401  0.1667
  538TMC3     O 7988   3.136   1.063  11.239 -0.6302  0.1064  0.0327
  538TMC3     H 7989   3.322   0.896  10.933 -1.3090 -0.8856  0.2600
  538TMC3    H1 7990   3.028   1.193  11.059 -0.6874 -1.1580  0.0281
  538TMC3    H2 7991   3.163   1.153  10.653 -0.6392 -1.1146  0.4829
  538TMC3    C7 7992   3.021   1.319  10.824 -0.3600  0.0128  0.1620
  538TMC3    C8 7993   3.321   0.958  10.690  0.4723  0.1267  0.4330
  538TMC3    O1 7994   2.941   1.368  10.906  0.2159  0.0705  0.1590
  538TMC3    O2 7995   3.322   0.834  10.704 -0.7999 -0.4476 -0.4353
  539MPD2     C 7996   2.834   0.112  11.640  0.3754  0.0897  0.4772
  539MPD2    C1 7997   2.855   0.204  11.534  0.0010  0.2356  0.5914
  539MPD2    C2 7998   2.834   0.336  11.546  0.5858  0.2593  0.0961
  539MPD2    C3 7999   2.810   0.391  11.671 -0.6997  0.0397  0.2045
  539MPD2    C4 8000   2.790   0.305  11.775  0.4870 -0.4674 -0.8073
  539MPD2    C5 8001   2.801   0.174  11.762  0.2020 -0.5393  0.1377
  539MPD2     H 8002   2.841   0.401  11.460  2.5481 -0.5112 -0.3376
  539MPD2    H1 8003   2.773   0.348  11.873 -0.3474 -0.5374 -0.9212
  539MPD2    H2 8004   2.851   0.005  11.631 -0.4955 -0.0371  0.3267
  539MPD2    H3 8005   2.802   0.122  11.857  0.4126 -4.3311 -1.9617
  539MPD2     N 8006   2.775   0.526  11.693  0.0211  0.0734 -0.4121
  539MPD2    H5 8007   2.735   0.550  11.783  0.0726  0.2282 -0.4318
  539MPD2    N1 8008   2.904   0.165  11.410  0.4313  0.1550 -0.1089
  539MPD2    H7 8009   2.928   0.237  11.343 -1.4728 -0.0042 -0.9660
  540TMC3    C1 8010   2.736   0.761  11.646 -0.1640 -0.9049 -0.8445
  540TMC3    C2 8011   2.712   0.849  11.550  0.4559 -0.3240 -0.3156
  540TMC3    C3 8012   2.650   0.966  11.574  0.2774  0.1687  0.7708
  540TMC3    C4 8013   2.706   0.788  11.772  0.0540  0.2147  0.0437
  540TMC3    C5 8014   2.638   0.903  11.793 -0.1723 -0.0550 -0.9471
  540TMC3    C6 8015   2.608   0.991  11.698 -0.9786 -0.0400  0.0730
  540TMC3     C 8016   2.787   0.626  11.598  0.0182 -0.1344  0.5152
  540TMC3     O 8017   2.851   0.625  11.492  0.5220 -0.1361 -0.6928
  540TMC3     H 8018   2.747   0.825  11.450  1.0170 -0.5807 -0.0543
  540TMC3    H1 8019   2.739   0.724  11.852 -1.0813  1.7098  1.6945
  540TMC3    H2 8020   2.563   1.085  11.725 -3.2129 -1.1125  0.0753
  540TMC3    C7 8021   2.616   0.929  11.928 -0.7024  0.0489 -0.4507
  540TMC3    C8 8022   2.610   1.064  11.468 -0.7254 -0.0716  0.6529
  540TMC3    O1 8023   2.678   0.857  12.011 -0.2788 -0.3851 -0.1248
  540TMC3    O2 8024   2.574   1.173  11.517  0.0521  0.0700  0.3945
  541MPD2     C 8025   1.276   2.237  13.308  0.3610 -0.5373  0.5651
  541MPD2    C1 8026   1.242   2.142  13.217  0.2534  0.1653  0.5544
  541MPD2    C2 8027   1.242   2.172  13.081 -0.0310 -0.4316 -0.2704
  541MPD2    C3 8028   1.259   2.304  13.036  0.4695  0.3370 -0.4609
  541MPD2    C4 8029   1.288   2.403  13.127 -0.1776 -0.7437  0.3880
  541MPD2    C5 8030   1.290   2.370  13.261  0.4081  0.1697  1.1030
  541MPD2     H 8031   1.188   2.101  13.019  0.4939 -0.4393 -0.7177
  541MPD2    H1 8032   1.304   2.507  13.100 -1.9105 -1.0338 -1.7058
  541MPD2    H2 8033   1.294   2.209  13.411  0.7499  1.1688  0.9635
  541MPD2    H3 8034   1.316   2.446  13.334  0.4761  1.3680 -0.1631
  541MPD2     N 8035   1.224   2.349  12.901 -0.0432  0.1832 -0.8960
  541MPD2    H5 8036   1.233   2.444  12.866  0.0366  0.2987 -0.5620
  541MPD2    N1 8037   1.223   2.006  13.250 -0.5200 -0.3134 -0.2938
  541MPD2    H7 8038   1.217   1.946  13.169  1.0191  2.9135 -2.7908
  542TMC3    C1 8039   1.165   2.332  12.668 -0.4198  0.1855 -0.5529
  542TMC3    C2 8040   1.182   2.260  12.555 -0.1800 -0.5946 -0.5852
  542TMC3    C3 8041   1.152   2.318  12.432 -0.1863 -0.0168 -0.8199
  542TMC3    C4 8042   1.135   2.469  12.663  1.3072 -0.1859 -0.3041
  542TMC3    C5 8043   1.114   2.526  12.541 -0.2022 -0.0653  0.0971
  542TMC3    C6 8044   1.122   2.456  12.424  1.3853  0.0907 -0.4472
  542TMC3     C 8045   1.196   2.266  12.796 -0.2948  0.0167  0.4852
  542TMC3     O 8046   1.196   2.143  12.804  0.9579  0.1470  0.4187
  542TMC3     H 8047   1.191   2.153  12.570  2.0702 -0.2263  0.7736
  542TMC3    H1 8048   1.133   2.539  12.747 -3.4040 -2.5322  1.5672
  542TMC3    H2 8049   1.113   2.501  12.326  2.6537  1.3271  0.0061
  542TMC3    C7 8050   1.133   2.669  12.534  0.3056 -0.0838  0.3462
  542TMC3    C8 8051   1.180   2.246  12.309  0.1497 -0.2291  0.1049
  542TMC3    O1 8052   1.211   2.708  12.622 -0.4814  0.6325  0.3747
  542TMC3    O2 8053   1.149   2.303  12.207 -0.4808 -0.2125 -0.4105
  543TMC3    C1 8054   4.604   3.555  17.363  0.0835  0.1647  0.9476
  543TMC3    C2 8055   4.510   3.454  17.357  0.7687  0.7610  0.7164
  543TMC3    C3 8056   4.489   3.365  17.462  0.3585  0.7943  0.7352
  543TMC3    C4 8057   4.669   3.582  17.480 -0.2536  0.1111 -0.1915
  543TMC3    C5 8058   4.644   3.497  17.587  0.4176 -0.7032 -0.4446
  543TMC3    C6 8059   4.557   3.387  17.578  0.0948 -0.1685 -0.5152
  543TMC3     C 8060   4.677   3.578  17.246  0.9395 -0.0992 -0.0859
  543TMC3     O 8061   0.072   3.607  17.265  0.6374  0.0036 -0.2457
  543TMC3     H 8062   4.470   3.423  17.262  1.7096 -0.5251  0.7488
  543TMC3    H1 8063   0.032   3.646  17.467 -0.7705  1.2928  2.2492
  543TMC3    H2 8064   4.573   3.307  17.650 -2.3438  2.1862  2.6408
  543TMC3    C7 8065   0.005   3.505   0.011  0.1105 -0.2562 -0.1122
  543TMC3    C8 8066   4.438   3.236  17.428  0.6983 -0.3137  0.1584
  543TMC3    O1 8067   0.018   3.404   0.080  0.6213  0.1581  0.1989
  543TMC3    O2 8068   4.403   3.213  17.314  0.3585  0.4102  0.0696
  544MPD2     C 8069   4.514   2.721  17.505  0.5389 -0.3886 -0.1487
  544MPD2    C1 8070   4.527   2.806  17.392  0.3568  0.1016 -0.2863
  544MPD2    C2 8071   4.494   2.943  17.405 -0.0597 -0.1133 -0.0497
  544MPD2    C3 8072   4.462   3.007  17.523  1.0271 -0.1316 -0.2938
  544MPD2    C4 8073   4.473   2.924  17.634 -0.4308  0.4100  0.1510
  544MPD2    C5 8074   4.494   2.789  17.626  0.8013  0.8127  0.0369
  544MPD2     H 8075   4.490   3.009  17.320 -2.7188 -0.3895 -0.1144
  544MPD2    H1 8076   4.443   2.965   0.035  0.0651 -1.3090  1.0609
  544MPD2    H2 8077   4.528   2.614  17.494  0.5368 -0.3169 -0.8686
  544MPD2    H3 8078   4.491   2.724   0.019 -0.1238  0.2725 -0.3930
  544MPD2     N 8079   4.451   3.149  17.530 -0.0492  0.2627 -0.2520
  544MPD2    H5 8080   4.447   3.202  17.616  1.3007  1.2672 -0.8058
  544MPD2    N1 8081   4.585   2.739  17.277  0.1887  0.4393  0.2075
  544MPD2    H7 8082   4.595   2.640  17.298 -0.2745  0.6643  1.5248
  545TMC3    C1 8083   4.709   2.723  17.079 -0.2513  0.2167 -0.1797
  545TMC3    C2 8084   0.080   2.780  16.993 -0.2834  0.3864 -0.3295
  545TMC3    C3 8085   0.147   2.699  16.910  0.8762 -0.5213 -0.1475
  545TMC3    C4 8086   4.680   2.591  17.076  0.7847 -0.1832 -0.2938
  545TMC3    C5 8087   0.027   2.514  16.984 -1.1363 -0.1723 -0.2758
  545TMC3    C6 8088   0.125   2.561  16.898  0.2371  0.2233  0.1744
  545TMC3     C 8089   4.647   2.812  17.178  0.0696 -0.1960  0.2315
  545TMC3     O 8090   4.670   2.937  17.173  0.4663 -0.0233 -0.0397
  545TMC3     H 8091   0.099   2.886  16.988  0.7346  0.2254  0.0958
  545TMC3    H1 8092   4.610   2.545  17.144 -0.2240 -0.9250 -1.8305
  545TMC3    H2 8093   0.174   2.512  16.815  2.1872 -2.8355  3.1542
  545TMC3    C7 8094   0.029   2.377  17.004  0.8012  0.4745  0.2194
  545TMC3    C8 8095   0.239   2.746  16.810 -0.4502  0.1996  0.3654
  545TMC3    O1 8096   4.666   2.315  17.063  0.8335 -0.4935 -0.4977
  545TMC3    O2 8097   0.246   2.684  16.706 -0.0388  0.0960  0.0367
  546MPD2     C 8098   1.762   2.787  17.313  0.6193  0.1887  0.1929
  546MPD2    C1 8099   1.672   2.873  17.252  0.7608 -0.1450  0.0719
  546MPD2    C2 8100   1.726   2.978  17.181  0.4499  0.7828 -0.0446
  546MPD2    C3 8101   1.866   2.989  17.158 -0.3049  0.1492  0.3868
  546MPD2    C4 8102   1.952   2.900  17.213 -0.0696  0.0668  0.3196
  546MPD2    C5 8103   1.895   2.800  17.296 -0.3595 -0.3056 -0.4125
  546MPD2     H 8104   1.658   3.058  17.153 -1.6411 -0.6493  0.9143
  546MPD2    H1 8105   2.059   2.909  17.203  0.0853 -1.6130  0.4263
  546MPD2    H2 8106   1.729   2.705  17.375  1.6574  0.0107  0.5038
  546MPD2    H3 8107   1.969   2.733  17.338  1.7557  1.3023 -1.5138
  546MPD2     N 8108   1.922   3.087  17.081 -0.3611  0.4214  0.4872
  546MPD2    H5 8109   2.019   3.079  17.054 -0.3914  1.6400 -0.0192
  546MPD2    N1 8110   1.531   2.846  17.266  0.4913 -0.7872 -0.1810
  546MPD2    H7 8111   1.497   2.779  17.334  0.0707  0.9811  1.3556
  547TMC3    C1 8112   1.299   2.892  17.244  0.8970  0.2848 -0.1434
  547TMC3    C2 8113   1.210   2.989  17.209  0.1177  0.2238 -0.3513
  547TMC3    C3 8114   1.081   2.957  17.219  0.2051 -0.1513  0.4023
  547TMC3    C4 8115   1.263   2.764  17.285 -0.4205  1.3202  0.5923
  547TMC3    C5 8116   1.131   2.732  17.279 -0.3270  0.3139  0.3223
  547TMC3    C6 8117   1.042   2.831  17.249  0.2488  0.6562 -0.7176
  547TMC3     C 8118   1.431   2.909  17.195 -0.0531  0.4808  0.7098
  547TMC3     O 8119   1.445   2.973  17.089 -0.0044  0.5663 -0.1384
  547TMC3     H 8120   1.244   3.083  17.167  2.7207 -1.6579 -2.4608
  547TMC3    H1 8121   1.336   2.684  17.292 -1.3607  0.2591 -1.7179
  547TMC3    H2 8122   0.935   2.818  17.248  0.3029  0.0837  0.9388
  547TMC3    C7 8123   1.089   2.616  17.344 -0.3706  0.0773  0.3888
  547TMC3    C8 8124   0.990   3.056  17.165 -0.5706 -0.9807  0.8244
  547TMC3    O1 8125   1.158   2.577  17.440 -0.3614  0.1968  0.3848
  547TMC3    O2 8126   1.026   3.124  17.070 -0.2853  0.3404  0.5467
  548MPD2     C 8127   1.910   4.241  11.767 -0.0067 -0.4535  0.7257
  548MPD2    C1 8128   1.890   4.119  11.826 -0.7616  0.2514  0.6284
  548MPD2    C2 8129   2.009   4.047  11.840 -0.0718 -0.2714 -0.2844
  548MPD2    C3 8130   2.120   4.078  11.767  0.4125  0.5861  0.4348
  548MPD2    C4 8131   2.129   4.190  11.688 -0.8509 -0.1111  0.4836
  548MPD2    C5 8132   2.021   4.280  11.696  0.4404 -0.5647 -0.4576
  548MPD2     H 8133   2.032   3.951  11.886 -0.9338 -0.1196  0.4724
  548MPD2    H1 8134   2.219   4.224  11.638 -0.8729 -0.2422  0.3539
  548MPD2    H2 8135   1.824   4.307  11.764  0.6541  0.4767  2.0642
  548MPD2    H3 8136   2.025   4.375  11.645 -0.9024  0.1420  0.7632
  548MPD2     N 8137   2.217   3.970  11.761 -0.0576 -0.0900 -0.1463
  548MPD2    H5 8138   2.198   3.881  11.806 -2.1340  1.1760  1.4653
  548MPD2    N1 8139   1.765   4.084  11.873  0.4164 -0.2912 -0.3052
  548MPD2    H7 8140   1.682   4.138  11.850  0.7594 -0.6729 -2.5034
  549TMC3    C1 8141   1.602   3.956  12.000  0.3779  0.4009 -0.3921
  549TMC3    C2 8142   1.528   4.069  12.011  0.6037  0.0028  0.0853
  549TMC3    C3 8143   1.391   4.055  12.033 -0.1274 -0.6812  0.2477
  549TMC3    C4 8144   1.549   3.831  11.995 -0.0976  0.2801  0.1918
  549TMC3    C5 8145   1.421   3.819  12.027 -0.5896 -0.1465  0.5044
  549TMC3    C6 8146   1.337   3.927  12.050  0.2856  0.0524 -0.3007
  549TMC3     C 8147   1.738   3.962  11.931 -0.2624  0.0241  0.2951
  549TMC3     O 8148   1.813   3.873  11.946 -0.3633 -0.0525 -0.4566
  549TMC3     H 8149   1.566   4.171  12.005 -4.0521  1.5975 -2.5790
  549TMC3    H1 8150   1.612   3.747  11.969 -0.2113 -1.2960  5.0038
  549TMC3    H2 8151   1.232   3.908  12.066  1.5656 -4.3990  2.8594
  549TMC3    C7 8152   1.351   3.689  12.008  0.3040  0.2557 -0.4336
  549TMC3    C8 8153   1.309   4.175  12.047 -0.0920  0.0888 -0.2312
  549TMC3    O1 8154   1.228   3.693  11.999  0.6197  0.2202 -0.7435
  549TMC3    O2 8155   1.188   4.162  12.068 -0.1958  0.0179  0.2723
  550TMC3    C1 8156   0.738   2.322  12.564 -0.0652 -0.0645 -0.1831
  550TMC3    C2 8157   0.725   2.416  12.667 -0.5600  0.7755 -0.5282
  550TMC3    C3 8158   0.658   2.531  12.650  0.4714  0.3393  0.0304
  550TMC3    C4 8159   0.684   2.346  12.436 -0.2499  0.2817  0.9670
  550TMC3    C5 8160   0.619   2.468  12.421  0.1745  0.8158  0.6295
  550TMC3    C6 8161   0.600   2.562  12.524  0.2132  0.0469 -0.4659
  550TMC3     C 8162   0.817   2.202  12.593 -0.4612 -0.5298 -0.3627
  550TMC3     O 8163   0.841   2.186  12.712 -0.4661  0.3558 -0.0383
  550TMC3     H 8164   0.756   2.395  12.768 -0.0146  0.4089 -0.7747
  550TMC3    H1 8165   0.686   2.270  12.359  2.3346  0.9234  0.4008
  550TMC3    H2 8166   0.547   2.656  12.518  0.1542  0.1834  2.2613
  550TMC3    C7 8167   0.528   2.472  12.308  0.1817 -0.2599  0.2127
  550TMC3    C8 8168   0.574   2.577  12.752 -0.1499  0.2889  0.4399
  550TMC3    O1 8169   0.516   2.372  12.238 -0.2137 -0.0501  0.3063
  550TMC3    O2 8170   0.579   2.699  12.763  0.3546  0.0626  0.1803
  551TMC3    C1 8171   2.819   4.274  12.949  0.0698  0.3769 -0.2203
  551TMC3    C2 8172   2.945   4.285  12.905  0.2213  0.2052  0.3856
  551TMC3    C3 8173   3.039   4.297  12.999 -0.0873 -0.3460  0.4694
  551TMC3    C4 8174   2.792   4.284  13.085 -0.6335  0.0290 -0.6442
  551TMC3    C5 8175   2.893   4.290  13.173 -0.3944  0.0107 -0.1001
  551TMC3    C6 8176   3.027   4.276  13.132 -0.4209 -0.7158  0.1690
  551TMC3     C 8177   2.714   4.268  12.849 -0.0506 -0.1744 -0.0633
  551TMC3     O 8178   2.751   4.234  12.736  0.0928  0.7546 -0.7246
  551TMC3     H 8179   2.969   4.295  12.799  1.3055 -0.6093  0.5481
  551TMC3    H1 8180   2.693   4.269  13.126  0.3806  0.4043  1.9810
  551TMC3    H2 8181   3.107   4.284  13.205 -0.8577  2.8507  0.2597
  551TMC3    C7 8182   2.867   4.342  13.308  0.3138  0.8483  0.1062
  551TMC3    C8 8183   3.167   4.356  12.948 -0.3120 -0.4799  0.1469
  551TMC3    O1 8184   2.935   4.320  13.405 -0.2587  0.2907  0.5597
  551TMC3    O2 8185   3.276   4.324  12.993 -0.3954 -0.1049  0.2319
  552MPD2     C 8186   4.467   1.744  13.666 -1.1413 -0.1831 -1.2182
  552MPD2    C1 8187   4.497   1.641  13.747  0.6404 -0.4202 -0.1061
  552MPD2    C2 8188   4.559   1.668  13.869 -0.3443 -0.0837  0.7296
  552MPD2    C3 8189   4.622   1.790  13.889 -0.1845 -0.1632 -0.1986
  552MPD2    C4 8190   4.598   1.895  13.796 -0.1787  0.1660 -0.2333
  552MPD2    C5 8191   4.514   1.869  13.696 -0.5663  0.3020  0.4796
  552MPD2     H 8192   4.580   1.580  13.928 -1.1885 -1.0659 -0.4259
  552MPD2    H1 8193   4.619   2.000  13.815 -2.0808  0.7929 -1.6078
  552MPD2    H2 8194   4.415   1.736  13.571 -0.5969 -0.2756 -1.5147
  552MPD2    H3 8195   4.494   1.952  13.629  1.3022 -0.9896 -1.7064
  552MPD2     N 8196   4.700   1.804  14.005 -0.2859 -0.4171 -0.3609
  552MPD2    H5 8197   0.053   1.867  13.983 -1.2605  1.5450  1.8167
  552MPD2    N1 8198   4.483   1.510  13.710  0.3445 -0.2692  0.0348
  552MPD2    H7 8199   4.520   1.443  13.777 -1.2413 -1.2203 -0.0432
  553TMC3    C1 8200   4.436   1.314  13.577  0.1638  0.0423  0.0355
  553TMC3    C2 8201   4.392   1.266  13.459 -0.3578 -0.2351 -0.5803
  553TMC3    C3 8202   4.419   1.140  13.431  0.7195 -0.4056 -0.2649
  553TMC3    C4 8203   4.489   1.233  13.674  0.1344 -1.3331  0.0657
  553TMC3    C5 8204   4.516   1.106  13.630 -0.8216 -0.0319 -0.3596
  553TMC3    C6 8205   4.471   1.046  13.518  0.1915 -0.4078  0.7174
  553TMC3     C 8206   4.422   1.459  13.594  0.7119 -0.1867  1.1315
  553TMC3     O 8207   4.371   1.519  13.502  0.1003 -0.5269 -0.1661
  553TMC3     H 8208   4.338   1.325  13.385 -0.1006 -0.8991 -1.3062
  553TMC3    H1 8209   4.524   1.270  13.770  0.2606  0.1870 -0.5730
  553TMC3    H2 8210   4.499   0.947  13.485 -4.1265 -1.8115  1.2555
  553TMC3    C7 8211   4.588   1.018  13.722 -0.5181  0.0940  0.3286
  553TMC3    C8 8212   4.486   1.115  13.307  0.0960  0.4884  0.3715
  553TMC3    O1 8213   4.560   0.899  13.708  0.0627 -0.4153  0.0097
  553TMC3    O2 8214   4.504   1.004  13.263 -0.0814  0.3443 -0.6211
  554TMC3    C1 8215   1.895   0.773  11.280  0.7335 -0.2122  0.3208
  554TMC3    C2 8216   1.871   0.723  11.160 -0.1244 -0.5716  0.1543
  554TMC3    C3 8217   1.935   0.775  11.051  0.2282  0.2067 -0.5040
  554TMC3    C4 8218   1.969   0.892  11.295  0.3898  0.4926  0.2658
  554TMC3    C5 8219   2.036   0.939  11.187  0.1996 -0.9864  0.4144
  554TMC3    C6 8220   2.015   0.883  11.062 -0.0754 -0.5571  0.5134
  554TMC3     C 8221   1.828   0.708  11.391 -0.0823  0.2439 -0.3424
  554TMC3     O 8222   1.733   0.633  11.371 -0.2039 -0.2472 -0.6143
  554TMC3     H 8223   1.821   0.627  11.150 -2.6779  0.8040 -0.3178
  554TMC3    H1 8224   1.969   0.943  11.391  0.7206 -1.1428  1.1210
  554TMC3    H2 8225   2.074   0.917  10.978  0.1500 -0.5986  0.6536
  554TMC3    C7 8226   2.044   1.081  11.170  0.3537 -0.2856  0.5198
  554TMC3    C8 8227   1.919   0.729  10.917  0.5185  0.4397 -0.3470
  554TMC3    O1 8228   2.014   1.123  11.059 -0.0970  0.5197  0.2330
  554TMC3    O2 8229   2.018   0.743  10.844  0.7269  0.1144 -0.0699
  555TMC3    C1 8230   0.650   4.515  14.849 -0.2315  0.0699 -0.2200
  555TMC3    C2 8231   0.567   4.595  14.925  0.0729  0.2498 -0.8490
  555TMC3    C3 8232   0.558   4.564  15.058 -0.0570  0.0838 -0.6990
  555TMC3    C4 8233   0.725   4.414  14.909  0.1173 -0.4545  0.3790
  555TMC3    C5 8234   0.708   4.385  15.043 -0.4330  0.8379 -0.4442
  555TMC3    C6 8235   0.622   4.456  15.116 -0.1549  0.5878  0.8556
  555TMC3     C 8236   0.659   4.546  14.706 -0.1974  0.4524 -0.2396
  555TMC3     O 8237   0.765   4.517  14.651 -0.3509 -0.1714 -0.0882
  555TMC3     H 8238   0.528   4.689  14.886 -0.3223  0.8162  0.8918
  555TMC3    H1 8239   0.801   4.359  14.857 -0.9202 -0.6787 -0.8972
  555TMC3    H2 8240   0.623   4.437  15.223  1.8767  1.0465  0.9320
  555TMC3    C7 8241   0.746   4.256  15.100 -0.6704 -0.2657 -0.1534
  555TMC3    C8 8242   0.489   4.664  15.134  0.1105 -0.1611 -0.0925
  555TMC3    O1 8243   0.723   4.241  15.217  0.1564  0.2681 -0.4407
  555TMC3    O2 8244   0.416   0.020  15.073  0.2622  0.3070 -0.0891
  556MPD2     C 8245   4.035   2.106  10.298  0.2413  0.4375  0.0678
  556MPD2    C1 8246   3.982   2.024  10.399  0.0956  0.0261 -0.1653
  556MPD2    C2 8247   3.955   1.891  10.367  0.1451 -0.5238  0.3393
  556MPD2    C3 8248   3.967   1.844  10.236  0.1017 -0.3588  0.4872
  556MPD2    C4 8249   4.022   1.932  10.137  0.4864 -0.7459  0.2324
  556MPD2    C5 8250   4.049   2.061  10.171  0.2617 -0.5174  0.1314
  556MPD2     H 8251   3.904   1.835  10.446  1.3561  1.2595  2.3826
  556MPD2    H1 8252   4.047   1.897  10.038  0.2573 -2.6879  0.8534
  556MPD2    H2 8253   4.061   2.209  10.314  3.2856 -0.7259  2.5195
  556MPD2    H3 8254   4.084   2.131  10.096 -0.0675 -1.5731 -1.0057
  556MPD2     N 8255   3.929   1.710  10.200  0.3317 -0.0890 -0.1206
  556MPD2    H5 8256   3.900   1.646  10.273 -0.5979  0.6525  0.1523
  556MPD2    N1 8257   3.969   2.065  10.537 -0.1755 -0.4944  0.0400
  556MPD2    H7 8258   3.954   1.992  10.606  1.9954 -1.5546 -0.6180
  557TMC3    C1 8259   3.886   1.519  10.062  0.0581  0.5958  0.0031
  557TMC3    C2 8260   3.843   1.474   9.939 -0.5523  0.8427 -0.6244
  557TMC3    C3 8261   3.792   1.348   9.922 -0.0758  0.6781 -0.0574
  557TMC3    C4 8262   3.856   1.442  10.169  0.1172 -0.0318  0.8582
  557TMC3    C5 8263   3.788   1.330  10.150 -0.2294 -0.5058  0.0358
  557TMC3    C6 8264   3.762   1.274  10.030 -0.4845 -0.1354 -0.4354
  557TMC3     C 8265   3.920   1.661  10.070 -0.3452 -0.6645 -0.2913
  557TMC3     O 8266   3.936   1.719   9.959 -0.6425  0.5822 -0.2024
  557TMC3     H 8267   3.864   1.535   9.852  1.0616 -0.2045 -0.9656
  557TMC3    H1 8268   3.868   1.479  10.270 -1.0972  2.5807  0.0554
  557TMC3    H2 8269   3.692   1.194  10.014 -0.6256  0.2416 -1.6518
  557TMC3    C7 8270   3.707   1.277  10.255  0.3233 -0.1971  0.7536
  557TMC3    C8 8271   3.793   1.299   9.783  0.0231 -0.3273  0.3870
  557TMC3    O1 8272   3.688   1.350  10.353 -0.3324 -0.2007 -0.2134
  557TMC3    O2 8273   3.777   1.385   9.697  0.3583 -0.7388 -0.4132
  558TMC3    C1 8274   1.210   4.709  10.054 -0.3705 -1.0182  0.4832
  558TMC3    C2 8275   1.119   4.660  10.142  0.0225  0.1060 -0.2770
  558TMC3    C3 8276   0.997   4.633  10.095  0.4558  0.0024  0.1052
  558TMC3    C4 8277   1.180   0.012   9.923 -0.3553  0.4792  0.6064
  558TMC3    C5 8278   1.054   4.707   9.878  0.1929 -0.0594 -0.3040
  558TMC3    C6 8279   0.957   4.654   9.964  0.5848  0.1735  0.3298
  558TMC3     C 8280   1.345   0.022  10.092  0.1774 -0.0514 -0.5109
  558TMC3     O 8281   1.416   0.077  10.012  0.2298 -0.4644  0.3191
  558TMC3     H 8282   1.136   4.663  10.249  2.0263  0.8242 -0.6075
  558TMC3    H1 8283   1.249   0.040   9.845 -0.3858  0.8083  0.6979
  558TMC3    H2 8284   0.856   4.632   9.931  0.7389  0.6066 -0.4412
  558TMC3    C7 8285   1.026   4.695   9.740  0.5440 -0.2076  0.5739
  558TMC3    C8 8286   0.896   4.589  10.188 -0.2496  0.4131 -0.1731
  558TMC3    O1 8287   1.106   0.022   9.661 -0.2207  0.2704  0.2168
  558TMC3    O2 8288   0.778   4.602  10.149  0.1463  0.1426 -1.0075
  559MPD2     C 8289   1.700   0.382  10.193 -0.3954 -0.4200 -0.7579
  559MPD2    C1 8290   1.603   0.337  10.278  0.1329  0.0651  0.1322
  559MPD2    C2 8291   1.646   0.293  10.404  0.7547  0.4043  1.2255
  559MPD2    C3 8292   1.782   0.288  10.431  0.0884  0.2911 -0.3405
  559MPD2    C4 8293   1.878   0.318  10.342  0.1893  0.4382  0.0396
  559MPD2    C5 8294   1.833   0.376  10.223 -0.0103  1.0756 -0.1076
  559MPD2     H 8295   1.579   0.259  10.483  0.0432  1.8388  1.2404
  559MPD2    H1 8296   1.984   0.313  10.360  0.1186 -0.2672  0.2660
  559MPD2    H2 8297   1.668   0.427  10.099  0.3828  0.2090 -0.7235
  559MPD2    H3 8298   1.907   0.407  10.150  2.3466 -2.1700  0.8982
  559MPD2     N 8299   1.817   0.234  10.560 -0.0482 -1.0288  0.2236
  559MPD2    H5 8300   1.745   0.215  10.629  0.3821 -0.1916  0.9090
  559MPD2    N1 8301   1.468   0.355  10.239  0.7777 -0.2432  0.2888
  559MPD2    H7 8302   1.451   0.413  10.157 -0.6085 -2.3576 -0.9244
  560TMC3    C1 8303   1.935   0.170  10.757 -0.3176 -0.0718  0.1502
  560TMC3    C2 8304   1.834   0.078  10.781  0.5975 -0.6004  0.1524
  560TMC3    C3 8305   1.856   4.702  10.868 -0.3799 -0.0377  0.2957
  560TMC3    C4 8306   2.049   0.162  10.827  0.3170 -0.1826 -0.6652
  560TMC3    C5 8307   2.072   0.056  10.905  0.0796  0.2560 -0.1697
  560TMC3    C6 8308   1.976   4.679  10.927  0.2527  0.4735 -0.1371
  560TMC3     C 8309   1.943   0.223  10.622  0.0914 -1.0024  0.3422
  560TMC3     O 8310   2.054   0.253  10.574  0.5384 -0.1459 -0.5572
  560TMC3     H 8311   1.739   0.081  10.728  0.1372 -1.5423  0.9398
  560TMC3    H1 8312   2.128   0.233  10.801  1.3169 -0.5543  1.3922
  560TMC3    H2 8313   1.996   4.592  10.988  0.8534  2.3000  2.2458
  560TMC3    C7 8314   2.171   0.074  11.007 -0.3896  0.2190  0.6089
  560TMC3    C8 8315   1.758   4.599  10.890  0.2847 -0.2567  0.1330
  560TMC3    O1 8316   2.158   4.720  11.100  0.0782  0.3736  0.2447
  560TMC3    O2 8317   1.644   4.637  10.881  0.2972  0.4207 -0.3692
  561TMC3    C1 8318   4.214   4.273  11.031 -0.1783 -0.6004 -0.7375
  561TMC3    C2 8319   4.158   4.184  11.126  0.3111  0.9188 -0.5564
  561TMC3    C3 8320   4.080   4.239  11.224 -0.4793 -0.1562 -0.3407
  561TMC3    C4 8321   4.190   4.405  11.026 -0.0576  0.3889  0.5281
  561TMC3    C5 8322   4.103   4.450  11.121  0.2701 -1.0463 -0.2692
  561TMC3    C6 8323   4.049   4.373  11.229 -0.0555  0.1902  0.6657
  561TMC3     C 8324   4.308   4.239  10.930  0.2718 -0.5482  0.3224
  561TMC3     O 8325   4.370   4.325  10.864  0.1332 -0.4143  0.4037
  561TMC3     H 8326   4.199   4.084  11.138 -1.1584  0.2222 -1.3340
  561TMC3    H1 8327   4.215   4.464  10.939 -0.2757  2.0464  1.5738
  561TMC3    H2 8328   3.985   4.429  11.295  1.2575  2.3586  0.1151
  561TMC3    C7 8329   4.101   4.590  11.143 -0.2999 -0.1498 -0.4530
  561TMC3    C8 8330   4.034   4.150  11.329 -0.7036  0.0649 -0.0548
  561TMC3    O1 8331   4.040   4.640  11.237 -0.2248 -0.0469  0.4806
  561TMC3    O2 8332   4.080   4.035  11.330 -0.4690  0.7534 -0.1061
  562TMC3    C1 8333   0.336   0.752  16.005  0.5021 -0.0684 -0.6154
  562TMC3    C2 8334   0.287   0.727  15.877  0.3476 -0.0312 -0.1611
  562TMC3    C3 8335   0.172   0.661  15.866  0.4034 -0.6963 -1.3790
  562TMC3    C4 8336   0.277   0.702  16.118  0.4203  0.3453 -0.0391
  562TMC3    C5 8337   0.155   0.648  16.098  0.0672 -0.5036  1.0493
  562TMC3    C6 8338   0.098   0.633  15.976  0.5275 -0.2298 -0.2378
  562TMC3     C 8339   0.458   0.827  16.027  0.7856 -0.2240  0.1739
  562TMC3     O 8340   0.504   0.821  16.139  0.1596  0.3557  0.5193
  562TMC3     H 8341   0.342   0.769  15.794 -0.3724  1.1855 -0.0151
  562TMC3    H1 8342   0.324   0.723  16.213 -2.3521  0.9529  1.2224
  562TMC3    H2 8343   4.722   0.588  15.970  0.7571 -1.0035  2.0455
  562TMC3    C7 8344   0.083   0.592  16.213 -0.4350 -0.3188 -0.3229
  562TMC3    C8 8345   0.124   0.610  15.740  0.5906 -0.6405 -0.2485
  562TMC3    O1 8346   4.684   0.576  16.196 -1.0376 -0.0888 -0.1096
  562TMC3    O2 8347   0.017   0.547  15.747 -0.1706 -0.0273  0.6578
  563MPD2     C 8348   2.554   1.892  15.881 -0.9476 -0.8522 -0.2314
  563MPD2    C1 8349   2.563   1.817  15.993  0.4376 -0.2929 -0.1456
  563MPD2    C2 8350   2.656   1.716  16.005 -0.5500  0.1855 -0.3897
  563MPD2    C3 8351   2.742   1.692  15.900  0.3969 -0.0696 -0.1513
  563MPD2    C4 8352   2.743   1.772  15.790  0.2594  0.1803 -0.0797
  563MPD2    C5 8353   2.651   1.873  15.784 -0.2425  0.6073 -0.1691
  563MPD2     H 8354   2.666   1.657  16.095  0.6233 -0.6443 -1.0625
  563MPD2    H1 8355   2.805   1.751  15.704 -0.9322  0.2276 -0.9569
  563MPD2    H2 8356   2.483   1.973  15.865 -1.1592 -1.3948 -2.1178
  563MPD2    H3 8357   2.649   1.942  15.701  1.6128 -2.7363 -2.9934
  563MPD2     N 8358   2.820   1.579  15.914 -0.2814 -0.3248 -0.1915
  563MPD2    H5 8359   2.805   1.516  15.992  0.9529  0.4576  0.6718
  563MPD2    N1 8360   2.473   1.829  16.105 -0.1321 -0.2925  0.0049
  563MPD2    H7 8361   2.481   1.762  16.181  2.2945  0.2697  0.2238
  564TMC3    C1 8362   2.265   1.849  16.204  0.2305 -0.2526 -0.4725
  564TMC3    C2 8363   2.144   1.817  16.151 -0.0578 -0.3085  0.5537
  564TMC3    C3 8364   2.079   1.705  16.199  0.1657 -0.4024  0.8473
  564TMC3    C4 8365   2.316   1.772  16.307 -0.2111  0.0171  0.3585
  564TMC3    C5 8366   2.249   1.665  16.354 -0.6009 -0.0649  0.2414
  564TMC3    C6 8367   2.125   1.635  16.307  0.3280  0.4304  0.6767
  564TMC3     C 8368   2.359   1.900  16.103 -0.5097  0.0635  0.0958
  564TMC3     O 8369   2.313   1.941  15.994 -0.2065 -0.2150 -0.2878
  564TMC3     H 8370   2.108   1.859  16.058 -1.1335 -1.7070  0.3361
  564TMC3    H1 8371   2.418   1.785  16.343 -0.5419 -0.0795  1.3333
  564TMC3    H2 8372   2.062   1.555  16.344 -0.3226 -0.0163 -1.4137
  564TMC3    C7 8373   2.329   1.544  16.392 -0.6335  0.7925 -1.0396
  564TMC3    C8 8374   2.038   1.613  16.094 -0.7241  0.3834  0.2531
  564TMC3    O1 8375   2.444   1.564  16.430 -0.7623  0.4356  0.3905
  564TMC3    O2 8376   1.983   1.511  16.126 -1.1355  0.2387  0.2512
  565TMC3    C1 8377   3.051   3.162   9.387  0.4879  0.5047 -0.4736
  565TMC3    C2 8378   3.127   3.065   9.449 -0.3456 -0.1490 -0.0272
  565TMC3    C3 8379   3.062   2.993   9.542 -0.1636  0.4154 -0.3224
  565TMC3    C4 8380   2.909   3.164   9.405 -0.0458  0.1091 -0.7486
  565TMC3    C5 8381   2.854   3.076   9.493  0.6191 -0.1019 -0.1967
  565TMC3    C6 8382   2.930   2.985   9.561 -0.1317 -0.0199 -0.8161
  565TMC3     C 8383   3.106   3.294   9.405  0.2641  0.3820  0.0594
  565TMC3     O 8384   3.050   3.387   9.352 -0.2353 -0.0252 -0.2080
  565TMC3     H 8385   3.233   3.061   9.425 -0.7132  1.8463 -1.9968
  565TMC3    H1 8386   2.852   3.246   9.362 -1.4790 -1.3401 -1.6290
  565TMC3    H2 8387   2.889   2.938   9.650  3.5340  0.2405  0.9683
  565TMC3    C7 8388   2.712   3.081   9.527 -0.7140  0.1384 -0.4836
  565TMC3    C8 8389   3.143   2.965   9.659 -0.4182 -0.0183  0.1303
  565TMC3    O1 8390   2.659   2.980   9.564 -0.1631  0.4696 -0.3156
  565TMC3    O2 8391   3.235   3.040   9.673 -0.1624  0.3206 -0.6373
  566MPD2     C 8392   0.015   4.449  14.070  0.4186 -1.2639 -0.6353
  566MPD2    C1 8393   0.143   4.481  14.036 -0.1600  0.7074 -0.7885
  566MPD2    C2 8394   0.160   4.557  13.917  0.0192 -0.0665 -0.2494
  566MPD2    C3 8395   0.060   4.585  13.830  0.2387  0.0277 -0.2140
  566MPD2    C4 8396   4.652   4.548  13.857 -0.4179 -0.0321 -0.4308
  566MPD2    C5 8397   4.638   4.485  13.981  0.3266  0.1688 -0.6806
  566MPD2     H 8398   0.258   4.582  13.878 -0.6811  1.4805 -0.9746
  566MPD2    H1 8399   4.565   4.587  13.806 -0.3450 -0.3363 -0.7821
  566MPD2    H2 8400   4.718   4.384  14.154  0.4172  0.0956  0.4089
  566MPD2    H3 8401   4.536   4.471  14.015  1.0235 -2.0306  0.4313
  566MPD2     N 8402   0.091   4.672  13.719 -0.1281  0.3050 -0.0437
  566MPD2    H5 8403   0.178   4.722  13.736 -0.1581 -0.0579  1.2244
  566MPD2    N1 8404   0.253   4.436  14.118  0.6553  1.0235  0.5220
  566MPD2    H7 8405   0.237   4.365  14.188  1.1025  1.2733  0.8782
  567TMC3    C1 8406   0.479   4.382  14.147  0.1324 -0.1546  0.3044
  567TMC3    C2 8407   0.601   4.403  14.087  0.2427 -0.8312  0.0184
  567TMC3    C3 8408   0.711   4.379  14.157 -0.0621 -0.3061 -0.4661
  567TMC3    C4 8409   0.475   4.333  14.274  0.1891  0.7228  0.0436
  567TMC3    C5 8410   0.590   4.297  14.342 -0.2509 -0.1630 -0.3742
  567TMC3    C6 8411   0.708   4.315  14.275 -0.1927  0.5064  1.1184
  567TMC3     C 8412   0.383   4.478  14.094  0.5385  0.0352 -0.0235
  567TMC3     O 8413   0.425   4.576  14.031  0.3815 -0.5052 -0.1605
  567TMC3     H 8414   0.616   4.447  13.989  0.8989  1.8389  1.3110
  567TMC3    H1 8415   0.375   4.315  14.313 -0.3731  3.1602 -0.2640
  567TMC3    H2 8416   0.807   4.286  14.308  0.6973  1.4635 -0.6951
  567TMC3    C7 8417   0.592   4.251  14.481 -1.0263 -0.1490 -0.5254
  567TMC3    C8 8418   0.818   4.479  14.128  0.0033 -0.5142 -0.3954
  567TMC3    O1 8419   0.691   4.201  14.532 -0.2938 -0.2182  0.3650
  567TMC3    O2 8420   0.810   4.543  14.025  0.0472 -0.3826 -0.2858
  568MPD2     C 8421   2.728   0.523  16.046 -0.0252  0.5727 -0.2525
  568MPD2    C1 8422   2.617   0.491  16.122 -0.5310 -0.4551  0.0748
  568MPD2    C2 8423   2.497   0.558  16.099  0.4079 -0.1712 -0.3911
  568MPD2    C3 8424   2.493   0.660  16.000  0.0667 -0.5745  0.6411
  568MPD2    C4 8425   2.613   0.687  15.935  0.4262  0.4670 -0.1792
  568MPD2    C5 8426   2.724   0.620  15.952  0.2294  0.0331 -0.2786
  568MPD2     H 8427   2.404   0.549  16.156  0.8337  1.9033  0.6600
  568MPD2    H1 8428   2.608   0.769  15.864 -0.0268  0.6993  0.1159
  568MPD2    H2 8429   2.817   0.463  16.063 -0.3593 -0.4190 -2.0666
  568MPD2    H3 8430   2.815   0.640  15.896 -0.1091 -2.3480 -1.6739
  568MPD2     N 8431   2.379   0.741  15.978 -0.1669  0.5848 -0.4033
  568MPD2    H5 8432   2.401   0.820  15.918 -1.8132 -0.7392 -2.7065
  568MPD2    N1 8433   2.629   0.387  16.223 -0.0726 -0.6385 -0.6672
  568MPD2    H7 8434   2.712   0.330  16.222 -0.9609 -1.9063 -1.4460
  569TMC3    C1 8435   2.156   0.837  15.973  0.4909  0.9083  0.3598
  569TMC3    C2 8436   2.035   0.853  16.038 -0.5709 -0.0114  0.3515
  569TMC3    C3 8437   1.937   0.940  15.987  0.2573  0.5765  0.3640
  569TMC3    C4 8438   2.172   0.895  15.852  0.0865 -0.6508  0.1962
  569TMC3    C5 8439   2.067   0.970  15.796 -0.4484 -0.2674 -0.8477
  569TMC3    C6 8440   1.946   0.984  15.860 -0.1847 -0.8542  0.3078
  569TMC3     C 8441   2.246   0.729  16.025  0.3200 -0.0061 -0.0346
  569TMC3     O 8442   2.197   0.648  16.101 -0.2520  0.2402 -0.0759
  569TMC3     H 8443   2.014   0.811  16.136  1.2323 -0.0212  0.7255
  569TMC3    H1 8444   2.256   0.876  15.787 -0.7597 -1.2408 -0.7234
  569TMC3    H2 8445   1.866   1.038  15.812  1.0277  1.4781  0.8879
  569TMC3    C7 8446   2.116   1.085  15.723  0.9112  0.3596 -0.2195
  569TMC3    C8 8447   1.892   1.042  16.073 -0.3127  0.2790  0.1489
  569TMC3    O1 8448   2.197   1.069  15.635  0.3976 -0.1686 -0.2751
  569TMC3    O2 8449   1.885   1.152  16.017 -0.2605 -0.1372 -0.1035
  570TMC3    C1 8450   1.878   4.082  16.284 -0.5946  0.2431  0.6372
  570TMC3    C2 8451   1.965   4.065  16.180  0.4611  0.2124 -0.2151
  570TMC3    C3 8452   2.047   4.172  16.151  0.0248 -0.1518  0.1886
  570TMC3    C4 8453   1.867   4.195  16.359  0.3246 -0.2799  0.0571
  570TMC3    C5 8454   1.943   4.303  16.318 -0.3372 -0.0287 -0.1842
  570TMC3    C6 8455   2.029   4.295  16.209 -0.3264 -0.0105  0.1653
  570TMC3     C 8456   1.811   3.959  16.308  0.3292 -0.5988 -0.1459
  570TMC3     O 8457   1.853   3.857  16.258  0.1382  0.3248  0.2738
  570TMC3     H 8458   1.961   3.977  16.116  0.1057  2.2366 -2.9509
  570TMC3    H1 8459   1.794   4.203  16.439  1.7844  1.0608  1.2472
  570TMC3    H2 8460   2.086   4.384  16.187 -0.3996  0.2647  1.0743
  570TMC3    C7 8461   1.894   4.431  16.363  0.4167  0.0559  0.2374
  570TMC3    C8 8462   2.114   4.172  16.027 -0.4749  0.3463 -0.5583
  570TMC3    O1 8463   1.841   4.432  16.470  0.5407  0.0229  0.4299
  570TMC3    O2 8464   2.130   4.279  15.968  0.3623  0.2246 -0.3758
  571MPD2     C 8465   3.743   0.706   0.274  0.2407  0.2369 -0.2033
  571MPD2    C1 8466   3.760   0.798   0.174  0.2965  0.1853  0.0919
  571MPD2    C2 8467   3.818   0.919   0.203 -0.4251  0.1540  0.2264
  571MPD2    C3 8468   3.870   0.945   0.334 -0.0203 -0.0279  0.6243
  571MPD2    C4 8469   3.860   0.843   0.425  0.2923 -0.7679  0.1976
  571MPD2    C5 8470   3.802   0.726   0.394  0.2482 -0.7583  0.0963
  571MPD2     H 8471   3.810   1.000   0.132  1.2868  1.2841  1.3484
  571MPD2    H1 8472   3.885   0.856   0.530  0.3275 -1.4650  0.2768
  571MPD2    H2 8473   3.693   0.610   0.267  1.5381 -0.3757 -1.0627
  571MPD2    H3 8474   3.790   0.649   0.470 -1.4286 -0.2259  0.3770
  571MPD2     N 8475   3.918   1.077   0.378 -0.1171  0.0949  0.1095
  571MPD2    H5 8476   3.958   1.077   0.472 -0.8419  1.5053  0.4245
  571MPD2    N1 8477   3.702   0.759   0.052 -0.5985 -0.5360 -0.7972
  571MPD2    H7 8478   3.655   0.669   0.040 -1.1293 -0.3343 -0.1920
  572TMC3    C1 8479   4.008   1.287   0.377  0.1248 -0.6319  0.3059
  572TMC3    C2 8480   3.995   1.284   0.515 -0.9042  0.2821 -0.0649
  572TMC3    C3 8481   4.075   1.361   0.592 -0.1541 -0.0008  0.5473
  572TMC3    C4 8482   4.105   1.367   0.318  0.2311 -0.2276  0.1305
  572TMC3    C5 8483   4.178   1.451   0.395  0.1620 -0.5077  0.4796
  572TMC3    C6 8484   4.166   1.449   0.533 -0.1220  0.2573  0.5416
  572TMC3     C 8485   3.943   1.183   0.299  0.3467 -1.2378  0.0767
  572TMC3     O 8486   3.929   1.201   0.176  0.0687  0.4290  0.0813
  572TMC3     H 8487   3.915   1.225   0.558  0.4754 -2.3535 -1.1227
  572TMC3    H1 8488   4.095   1.383   0.211  1.5501 -0.5703 -0.0498
  572TMC3    H2 8489   4.230   1.511   0.595  0.0454 -0.5522  1.1783
  572TMC3    C7 8490   4.250   1.554   0.324  0.3904  0.3980  1.3548
  572TMC3    C8 8491   4.071   1.351   0.734 -0.4381 -0.2208  0.0218
  572TMC3    O1 8492   4.219   1.571   0.207  0.0099  0.2845 -0.3860
  572TMC3    O2 8493   4.111   1.451   0.800 -0.4764  0.1489  0.6336
  573MPD2     C 8494   1.329   1.823   0.118 -0.2454 -0.1720 -0.1127
  573MPD2    C1 8495   1.196   1.791   0.098  0.5763  0.6071  0.0221
  573MPD2    C2 8496   1.126   1.852  17.692 -1.0464  0.2455  0.0946
  573MPD2    C3 8497   1.198   1.929  17.600  0.5674 -0.2229  0.0895
  573MPD2    C4 8498   1.337   1.948  17.613  0.0090 -0.2642  0.9620
  573MPD2    C5 8499   1.398   1.897   0.025  0.0201 -0.0634  0.1111
  573MPD2     H 8500   1.021   1.828  17.678 -0.8925  0.5899 -1.6582
  573MPD2    H1 8501   1.399   2.002  17.542 -0.3787 -1.5912 -0.4108
  573MPD2    H2 8502   1.383   1.777   0.199 -2.2228 -0.6031  0.9510
  573MPD2    H3 8503   1.504   1.907   0.046 -0.2002 -0.6433  1.5284
  573MPD2     N 8504   1.134   1.976  17.485  0.7686  0.4592  0.1328
  573MPD2    H5 8505   1.184   2.014  17.405  1.3405 -0.9180 -0.1779
  573MPD2    N1 8506   1.133   1.709   0.191  0.2965 -0.1618 -0.7615
  573MPD2    H7 8507   1.194   1.687   0.269 -2.0199  0.7925  1.3239
  574TMC3    C1 8508   0.957   2.021  17.342 -0.1263  0.0218  0.1803
  574TMC3    C2 8509   0.837   1.979  17.298 -0.0782  0.0042  0.7253
  574TMC3    C3 8510   0.791   2.041  17.182 -0.0461 -0.2390 -0.1846
  574TMC3    C4 8511   1.018   2.135  17.296 -0.4674  0.4971  0.3467
  574TMC3    C5 8512   0.969   2.190  17.187 -0.1352 -0.3520  0.0777
  574TMC3    C6 8513   0.860   2.148  17.127 -0.0720  0.1506 -0.4690
  574TMC3     C 8514   0.998   1.969  17.466 -0.1134  0.9534 -0.2822
  574TMC3     O 8515   0.907   1.946  17.541 -0.6663  0.6987 -0.2312
  574TMC3     H 8516   0.784   1.896  17.344 -2.1416  0.9460  0.0504
  574TMC3    H1 8517   1.107   2.176  17.343 -0.0468 -1.8886  1.6370
  574TMC3    H2 8518   0.821   2.185  17.033  1.6495  1.1293 -0.7813
  574TMC3    C7 8519   1.034   2.304  17.118  0.3018  0.2765  0.2259
  574TMC3    C8 8520   0.653   2.002  17.141 -0.0897  0.0434  0.6359
  574TMC3    O1 8521   0.975   2.360  17.029 -0.0609  0.0083  0.4887
  574TMC3    O2 8522   0.633   1.889  17.181  0.4425  0.0162 -0.7620
  575TMC3    C1 8523   3.877   3.029  10.077 -0.5787 -0.1350 -0.6011
  575TMC3    C2 8524   3.902   2.978  10.205 -0.6785  0.3279  0.2594
  575TMC3    C3 8525   3.807   2.916  10.268  0.1359 -0.1615 -0.5190
  575TMC3    C4 8526   3.761   3.018  10.016 -0.3062 -0.0235 -0.1091
  575TMC3    C5 8527   3.658   2.957  10.087 -0.2088  0.3127 -0.1149
  575TMC3    C6 8528   3.682   2.902  10.210  0.6973  0.9377  0.1492
  575TMC3     C 8529   3.985   3.083  10.000 -0.5504 -0.5196 -0.6307
  575TMC3     O 8530   3.960   3.129   9.888  0.2232  0.7875  0.2092
  575TMC3     H 8531   4.001   2.982  10.250 -0.1878  0.3187 -0.8007
  575TMC3    H1 8532   3.745   3.044   9.912 -0.0549  0.7057  0.0348
  575TMC3    H2 8533   3.603   2.856  10.268  0.1792 -0.6473 -1.8231
  575TMC3    C7 8534   3.535   2.931  10.013 -0.1179  0.4935 -0.3042
  575TMC3    C8 8535   3.825   2.857  10.398 -0.4655  0.5913 -0.0797
  575TMC3    O1 8536   3.516   2.997   9.909 -0.0366  0.4575  0.7010
  575TMC3    O2 8537   3.728   2.802  10.443  0.2074 -0.2112  0.0257
  576MPD2     C 8538   3.057   4.366  12.453  0.6645  0.2715 -0.1555
  576MPD2    C1 8539   3.084   4.480  12.373 -0.1042  0.2766 -0.8875
  576MPD2    C2 8540   3.013   4.600  12.400  0.1864 -0.5393 -0.3577
  576MPD2    C3 8541   2.908   4.598  12.497 -0.0666  0.7465  0.3181
  576MPD2    C4 8542   2.886   4.479  12.568 -0.3901  0.4576  0.7165
  576MPD2    C5 8543   2.958   4.364  12.542 -0.7373  0.0806 -0.3580
  576MPD2     H 8544   3.044   4.686  12.343  0.3456 -0.4489 -0.1322
  576MPD2    H1 8545   2.807   4.469  12.642 -0.8233 -1.8488 -0.0832
  576MPD2    H2 8546   3.109   4.273  12.433  1.1519  0.6599 -0.7103
  576MPD2    H3 8547   2.937   4.272  12.595 -0.6847  1.1821  1.5721
  576MPD2     N 8548   2.842   4.722  12.523  0.1413  0.0915  0.3779
  576MPD2    H5 8549   2.873   0.069  12.456 -0.4439  1.4641  1.5417
  576MPD2    N1 8550   3.182   4.482  12.274  0.2341 -0.1604 -0.2234
  576MPD2    H7 8551   3.214   4.574  12.245  0.7095  0.1190  1.2197
  577TMC3    C1 8552   3.340   4.398  12.117  0.0874 -0.2176 -0.4345
  577TMC3    C2 8553   3.409   4.301  12.060  0.7110  0.3619  0.5266
  577TMC3    C3 8554   3.499   4.328  11.959 -0.4362 -0.0944 -0.7251
  577TMC3    C4 8555   3.376   4.529  12.093 -0.2256  0.3267 -0.6196
  577TMC3    C5 8556   3.472   4.556  11.994  0.1294  0.0577 -0.2510
  577TMC3    C6 8557   3.528   4.456  11.924 -1.1458 -0.0764 -0.4712
  577TMC3     C 8558   3.236   4.363  12.215  0.5192  0.1480  0.3286
  577TMC3     O 8559   3.202   4.245  12.225  0.1732 -0.5906 -0.2308
  577TMC3     H 8560   3.380   4.201  12.089 -2.0882  1.2879  0.9421
  577TMC3    H1 8561   3.334   4.621  12.132  2.8273  0.6143  2.0467
  577TMC3    H2 8562   3.616   4.474  11.864  0.0081  1.0144  1.5470
  577TMC3    C7 8563   3.474   4.688  11.938 -0.0176 -0.4940  0.4025
  577TMC3    C8 8564   3.571   4.213  11.910 -0.3318 -0.6246  0.4011
  577TMC3    O1 8565   3.451   0.062  12.009  0.5873 -0.3495 -0.2633
  577TMC3    O2 8566   3.569   4.108  11.972 -0.0559 -0.5681 -0.4627
  578MPD2     C 8567   0.704   3.611   0.241 -0.4819  0.2849 -0.2118
  578MPD2    C1 8568   0.779   3.672   0.339  0.4550  1.0093  0.2905
  578MPD2    C2 8569   0.815   3.608   0.454  0.4851  0.0198 -0.4612
  578MPD2    C3 8570   0.804   3.471   0.464 -0.2295  0.2646  0.5073
  578MPD2    C4 8571   0.728   3.407   0.368  0.2466 -0.0355 -0.9700
  578MPD2    C5 8572   0.681   3.478   0.266 -0.0258 -0.1530 -0.0558
  578MPD2     H 8573   0.875   3.641   0.538 -1.8384  1.3098  0.6849
  578MPD2    H1 8574   0.701   3.302   0.361 -0.3308  0.1973 -2.2315
  578MPD2    H2 8575   0.655   3.660   0.157 -0.7661  2.6099  1.3295
  578MPD2    H3 8576   0.624   3.432   0.186 -0.3731 -1.9675  1.2270
  578MPD2     N 8577   0.861   3.406   0.576 -0.2200 -0.2906  0.5227
  578MPD2    H5 8578   0.910   3.466   0.642 -0.1236 -0.5291  0.6673
  578MPD2    N1 8579   0.810   3.811   0.325 -0.2020 -0.5044  0.3338
  578MPD2    H7 8580   0.806   3.848   0.230  0.7771  1.3164  0.9978
  579TMC3    C1 8581   0.928   3.226   0.716 -0.4867  0.3447  0.0318
  579TMC3    C2 8582   0.905   3.316   0.818  0.2871 -0.3581  0.5769
  579TMC3    C3 8583   0.927   3.272   0.942 -0.7059  0.1082  0.4063
  579TMC3    C4 8584   0.962   3.092   0.743 -0.4891  0.8909  0.1155
  579TMC3    C5 8585   0.962   3.050   0.877  0.2028 -0.0171 -0.2743
  579TMC3    C6 8586   0.958   3.142   0.975 -0.2156 -0.4636 -0.1769
  579TMC3     C 8587   0.872   3.266   0.585  0.3047 -0.0850  0.0251
  579TMC3     O 8588   0.852   3.174   0.509 -0.2729 -0.1705 -0.0462
  579TMC3     H 8589   0.868   3.417   0.808 -0.5403 -0.6553  0.6362
  579TMC3    H1 8590   0.970   3.016   0.666 -0.3703 -0.4560  1.4586
  579TMC3    H2 8591   0.984   3.109   1.075 -1.5416  1.5268  0.8344
  579TMC3    C7 8592   1.037   2.928   0.903  0.2494 -0.1073 -0.0728
  579TMC3    C8 8593   0.947   3.386   1.033  0.0547 -0.1657 -0.5240
  579TMC3    O1 8594   1.142   2.939   0.963  0.0946  0.4997 -0.1917
  579TMC3    O2 8595   0.873   3.481   1.036  0.6701  0.3044  0.2553
  580TMC3    C1 8596   0.912   3.309  11.429 -0.4664 -0.6454  0.3507
  580TMC3    C2 8597   0.923   3.239  11.310 -0.4713 -0.4289 -0.5012
  580TMC3    C3 8598   0.922   3.099  11.321  0.7270 -0.9571  0.2825
  580TMC3    C4 8599   0.903   3.248  11.551 -0.3999  0.3991 -0.4159
  580TMC3    C5 8600   0.919   3.113  11.549 -0.7109  0.4878  0.1645
  580TMC3    C6 8601   0.928   3.034  11.437 -0.3215 -0.3013 -0.8147
  580TMC3     C 8602   0.961   3.447  11.415  0.4170  0.3722  0.4685
  580TMC3     O 8603   1.039   3.468  11.323  0.1318  0.4063  0.0791
  580TMC3     H 8604   0.923   3.284  11.211 -1.8118 -0.2593 -0.4263
  580TMC3    H1 8605   0.897   3.297  11.647  0.5348  0.0002 -0.1554
  580TMC3    H2 8606   0.943   2.927  11.430  0.7182 -0.3034  1.5373
  580TMC3    C7 8607   0.947   3.045  11.674 -0.1756  0.4702  1.2910
  580TMC3    C8 8608   0.989   3.033  11.213 -0.0945 -0.1323 -0.3252
  580TMC3    O1 8609   0.984   3.115  11.768  0.0733 -0.4127 -0.4097
  580TMC3    O2 8610   0.928   2.939  11.164 -0.0416 -0.5591 -0.1670
  581MPD2     C 8611   3.635   2.823  14.741 -0.5215 -0.1383  0.9395
  581MPD2    C1 8612   3.533   2.739  14.753  0.1018  0.1902  0.6699
  581MPD2    C2 8613   3.409   2.778  14.738  0.0915 -0.1934 -0.0515
  581MPD2    C3 8614   3.380   2.912  14.718  0.0233 -0.9333 -0.1844
  581MPD2    C4 8615   3.487   2.997  14.702 -0.6998  0.0738 -0.0052
  581MPD2    C5 8616   3.611   2.949  14.710  0.2053 -0.4552  0.0350
  581MPD2     H 8617   3.326   2.710  14.755  0.6957 -1.5007 -2.3059
  581MPD2    H1 8618   3.464   3.095  14.663  0.9217  1.0610  1.5057
  581MPD2    H2 8619   3.737   2.786  14.747 -0.5110 -0.3119 -0.3141
  581MPD2    H3 8620   3.705   3.004  14.704 -0.4587  0.6032 -0.5589
  581MPD2     N 8621   3.245   2.950  14.703  0.3386  0.0942  0.3804
  581MPD2    H5 8622   3.173   2.885  14.732  1.7277 -2.2990 -1.5729
  581MPD2    N1 8623   3.570   2.605  14.786  0.1786  0.5489  0.9033
  581MPD2    H7 8624   3.668   2.583  14.773 -0.1699 -0.5143  0.0810
  582TMC3    C1 8625   3.533   2.384  14.851  0.4497  0.2502 -0.3769
  582TMC3    C2 8626   3.623   2.379  14.954  0.6376  0.0127 -0.0236
  582TMC3    C3 8627   3.611   2.275  15.042  0.6159 -0.0892  0.2120
  582TMC3    C4 8628   3.434   2.290  14.826  1.1373 -0.0300 -0.0737
  582TMC3    C5 8629   3.425   2.190  14.920 -0.5105 -0.4526 -0.2451
  582TMC3    C6 8630   3.506   2.182  15.027  0.1060 -0.7079  0.1574
  582TMC3     C 8631   3.481   2.513  14.833  0.0251 -0.1415  0.1897
  582TMC3     O 8632   3.360   2.522  14.868 -0.1744 -0.2803 -0.2898
  582TMC3     H 8633   3.675   2.470  14.981  0.3743  0.4088 -0.8370
  582TMC3    H1 8634   3.361   2.301  14.747  2.4162  0.2331 -1.2061
  582TMC3    H2 8635   3.476   2.107  15.099  0.8589 -3.2684 -2.1522
  582TMC3    C7 8636   3.286   2.176  14.960 -0.6041 -0.0021  0.4076
  582TMC3    C8 8637   3.634   2.310  15.180  0.2033 -0.8783 -0.2249
  582TMC3    O1 8638   3.241   2.076  15.013  0.1128 -0.3216 -0.1931
  582TMC3    O2 8639   3.639   2.430  15.206 -0.6710 -0.0716  0.1636
  583MPD2     C 8640   3.561   4.354  16.744  0.1210  0.1876  0.1540
  583MPD2    C1 8641   3.522   4.465  16.679 -0.2453  0.0567  0.2162
  583MPD2    C2 8642   3.462   4.563  16.753 -0.4831  0.0005 -0.9201
  583MPD2    C3 8643   3.473   4.569  16.888  0.2932 -0.3931  0.0985
  583MPD2    C4 8644   3.517   4.461  16.952 -0.4167 -0.4111 -0.2245
  583MPD2    C5 8645   3.561   4.352  16.883  0.4387 -0.7801  0.5300
  583MPD2     H 8646   3.430   4.654  16.704 -0.3541  0.6880  0.2726
  583MPD2    H1 8647   3.535   4.462  17.058  0.8756 -1.3028 -0.4406
  583MPD2    H2 8648   3.603   4.265  16.698  0.7697  0.5850 -0.0209
  583MPD2    H3 8649   3.600   4.263  16.933  3.5755  0.5482  0.4403
  583MPD2     N 8650   3.411   4.677  16.960 -0.6233 -0.0522 -0.1768
  583MPD2    H5 8651   3.358   0.021  16.905 -1.0435 -0.3522 -0.1389
  583MPD2    N1 8652   3.537   4.488  16.543 -0.1897  0.0221  0.3189
  583MPD2    H7 8653   3.496   4.572  16.504  0.7559  0.0898 -0.5307
  584TMC3    C1 8654   3.337   0.095  17.130  0.0561  0.1268  0.4489
  584TMC3    C2 8655   3.298   0.189  17.034  0.3882  0.4902 -0.2741
  584TMC3    C3 8656   3.202   0.278  17.072 -0.3008  0.3029 -0.2673
  584TMC3    C4 8657   3.293   0.102  17.264 -0.4754  0.0498  0.4998
  584TMC3    C5 8658   3.187   0.184  17.282 -0.9813 -0.1583 -0.2218
  584TMC3    C6 8659   3.136   0.273  17.194  0.0702 -0.2951  0.4910
  584TMC3     C 8660   3.394   4.686  17.096  0.6986  0.7969 -0.7629
  584TMC3     O 8661   3.434   4.618  17.193  0.3420 -0.2689 -0.2643
  584TMC3     H 8662   3.349   0.188  16.938  0.5498  0.5722 -0.1893
  584TMC3    H1 8663   3.328   0.028  17.334  0.9039 -0.2021 -0.4600
  584TMC3    H2 8664   3.074   0.356  17.224  0.4853  0.1736  0.0383
  584TMC3    C7 8665   3.100   0.132  17.393  0.8658  0.2236  0.2381
  584TMC3    C8 8666   3.190   0.401  16.990  0.8738  0.8279 -0.1258
  584TMC3    O1 8667   3.144   0.047  17.467 -0.2295  0.6989 -0.4135
  584TMC3    O2 8668   3.129   0.494  17.048 -0.0573 -0.0290 -0.4866
  585MPD2     C 8669   2.405   3.356   0.764 -0.2585  0.0059  0.2211
  585MPD2    C1 8670   2.491   3.433   0.688  0.1862  0.8704 -0.0641
  585MPD2    C2 8671   2.574   3.359   0.608 -0.7503  0.3050  0.0295
  585MPD2    C3 8672   2.559   3.220   0.599 -0.1370  0.1918 -0.2119
  585MPD2    C4 8673   2.451   3.150   0.647 -0.3928  0.7938  0.3255
  585MPD2    C5 8674   2.387   3.220   0.743 -0.1383 -0.7793 -0.8352
  585MPD2     H 8675   2.663   3.404   0.568 -1.2262  2.5182  1.4766
  585MPD2    H1 8676   2.441   3.043   0.628  0.6458  1.1907 -2.4731
  585MPD2    H2 8677   2.336   3.405   0.831  0.2203  0.1031  0.6484
  585MPD2    H3 8678   2.321   3.167   0.810  0.3070  2.3996  2.0934
  585MPD2     N 8679   2.642   3.140   0.520  1.0921  0.2657  0.2672
  585MPD2    H5 8680   2.616   3.049   0.482 -0.1418  0.6963  0.0886
  585MPD2    N1 8681   2.494   3.577   0.701 -1.0188 -0.0122 -0.5476
  585MPD2    H7 8682   2.431   3.616   0.771 -3.2566 -3.0671 -0.8803
  586TMC3    C1 8683   2.835   3.090   0.392  0.3764  0.2029  0.0218
  586TMC3    C2 8684   2.968   3.080   0.392 -0.3589  0.0807 -0.7280
  586TMC3    C3 8685   3.027   3.020   0.286  0.3032 -0.3306  0.4968
  586TMC3    C4 8686   2.756   3.054   0.290 -0.3040  0.5519  0.2807
  586TMC3    C5 8687   2.813   3.008   0.175 -0.2955  0.4345 -0.2596
  586TMC3    C6 8688   2.949   2.982   0.174  0.0584  0.1268 -0.7006
  586TMC3     C 8689   2.776   3.178   0.497 -0.1150 -0.0500  0.5200
  586TMC3     O 8690   2.849   3.267   0.539  0.5643  0.0128 -0.1286
  586TMC3     H 8691   3.030   3.116   0.474 -0.1892  1.4731 -1.4676
  586TMC3    H1 8692   2.650   3.076   0.286 -0.4443  0.1851  1.9631
  586TMC3    H2 8693   2.999   2.919   0.101 -0.2557  0.4539 -1.1903
  586TMC3    C7 8694   2.732   2.928   0.084 -0.1516  0.2532  0.3351
  586TMC3    C8 8695   3.169   2.996   0.282  0.6028 -0.3123 -0.6734
  586TMC3    O1 8696   2.629   2.885   0.128  0.4443  0.0311  0.6641
  586TMC3    O2 8697   3.225   2.983   0.391 -0.1298 -0.3642  0.1159
  587TMC3    C1 8698   0.382   1.985  16.412 -0.0658  0.2091  0.7994
  587TMC3    C2 8699   0.406   2.121  16.381  0.1978 -0.0455 -0.0355
  587TMC3    C3 8700   0.538   2.167  16.386  0.2046  0.3858 -0.6126
  587TMC3    C4 8701   0.483   1.896  16.446  0.3903  0.0201  0.2564
  587TMC3    C5 8702   0.606   1.947  16.463 -0.3408  0.3070  0.6569
  587TMC3    C6 8703   0.636   2.076  16.430  0.3961  0.0635 -0.7046
  587TMC3     C 8704   0.266   1.930  16.350 -0.4130 -0.0575  0.3130
  587TMC3     O 8705   0.283   1.810  16.317  0.1860 -0.2529 -0.3785
  587TMC3     H 8706   0.324   2.185  16.350  0.9307  0.9239  0.0335
  587TMC3    H1 8707   0.451   1.794  16.466  2.5716 -0.6326  0.4705
  587TMC3    H2 8708   0.740   2.103  16.441  0.8672 -1.4200 -1.6550
  587TMC3    C7 8709   0.720   1.881  16.516 -1.1102 -0.8163 -0.3362
  587TMC3    C8 8710   0.575   2.306  16.348 -0.1440  0.1243 -0.1011
  587TMC3    O1 8711   0.818   1.945  16.555  0.4243 -0.4424  0.1809
  587TMC3    O2 8712   0.689   2.318  16.307 -0.3777  0.7708 -0.5567
  588TMC3    C1 8713   2.928   0.558   9.558  0.1207 -0.7794 -0.0359
  588TMC3    C2 8714   2.864   0.441   9.532  0.1523 -0.4259 -0.6154
  588TMC3    C3 8715   2.939   0.329   9.559  0.1229  0.6827 -0.1777
  588TMC3    C4 8716   3.037   0.570   9.639 -0.1609  0.0947  0.1217
  588TMC3    C5 8717   3.097   0.457   9.673  0.6634 -0.3850  0.2625
  588TMC3    C6 8718   3.064   0.337   9.622  1.0190  0.2225 -0.1104
  588TMC3     C 8719   2.852   0.673   9.521 -0.4074  0.8012 -0.1371
  588TMC3     O 8720   2.734   0.667   9.496 -0.2700  0.4549 -0.1583
  588TMC3     H 8721   2.764   0.430   9.492  0.1748 -0.7830 -0.5777
  588TMC3    H1 8722   3.060   0.667   9.681  1.2990 -0.6738  1.1023
  588TMC3    H2 8723   3.126   0.248   9.616 -1.4409 -1.6318  2.4475
  588TMC3    C7 8724   3.217   0.474   9.755  0.1633  0.2437 -0.0745
  588TMC3    C8 8725   2.881   0.199   9.515  0.0882 -0.1558 -0.1787
  588TMC3    O1 8726   3.280   0.376   9.796 -0.3578  0.6147  0.2237
  588TMC3    O2 8727   2.798   0.208   9.421  0.7052 -0.3239 -0.2270
  589TMC3    C1 8728   1.262   1.846   1.172  0.2841 -0.4032 -0.3919
  589TMC3    C2 8729   1.316   1.814   1.292 -0.0316 -0.4837 -0.4751
  589TMC3    C3 8730   1.437   1.752   1.299 -0.0977 -0.2820  0.2177
  589TMC3    C4 8731   1.323   1.811   1.059 -0.3078 -0.6461 -0.4355
  589TMC3    C5 8732   1.433   1.724   1.066 -0.0973 -1.1042  0.0169
  589TMC3    C6 8733   1.501   1.705   1.185 -0.0981 -0.0090 -0.0228
  589TMC3     C 8734   1.156   1.937   1.167 -0.3051  0.0975 -0.4852
  589TMC3     O 8735   1.143   1.983   1.054 -1.0587 -0.0456 -0.1563
  589TMC3     H 8736   1.267   1.847   1.383 -2.3001 -1.0557 -1.4763
  589TMC3    H1 8737   1.280   1.819   0.959 -0.9133 -0.5075 -0.1644
  589TMC3    H2 8738   1.582   1.633   1.190 -0.4040 -0.4184 -0.8768
  589TMC3    C7 8739   1.502   1.686   0.944 -0.7939  0.1244 -0.9569
  589TMC3    C8 8740   1.502   1.742   1.435 -0.4173 -0.6886  0.2557
  589TMC3    O1 8741   1.573   1.589   0.954  0.0276  0.2336  0.4902
  589TMC3    O2 8742   1.438   1.770   1.535  0.2235  0.1302 -0.1056
  590MPD2     C 8743   1.210   0.889  16.617  0.0631  0.6815  0.2865
  590MPD2    C1 8744   1.173   0.892  16.487  0.9575  0.5415 -0.2348
  590MPD2    C2 8745   1.236   0.977  16.399  0.6777  0.5485  0.0701
  590MPD2    C3 8746   1.344   1.059  16.443 -0.4953  0.3405  0.0249
  590MPD2    C4 8747   1.368   1.064  16.583 -0.1807 -0.0404 -0.1290
  590MPD2    C5 8748   1.303   0.976  16.667 -0.5408 -0.0736  0.7335
  590MPD2     H 8749   1.196   0.981  16.298 -0.7791  0.0384  0.6270
  590MPD2    H1 8750   1.448   1.120  16.631  0.0112  0.1982 -0.7338
  590MPD2    H2 8751   1.161   0.824  16.689  1.8883 -0.9160  0.1096
  590MPD2    H3 8752   1.314   0.983  16.774  1.0327 -3.2366  0.7702
  590MPD2     N 8753   1.405   1.140  16.348  0.5733  0.1549  0.1766
  590MPD2    H5 8754   1.382   1.113  16.253  1.1306  1.4244 -0.3240
  590MPD2    N1 8755   1.056   0.813  16.454 -0.4970  0.0977 -0.3164
  590MPD2    H7 8756   1.017   0.758  16.530  2.2871 -0.2992  0.8191
  591TMC3    C1 8757   1.503   1.332  16.264  0.1832 -0.0445  0.6458
  591TMC3    C2 8758   1.520   1.258  16.144  1.2721  1.0713 -0.0013
  591TMC3    C3 8759   1.553   1.333  16.033 -0.1412  0.4257 -0.0243
  591TMC3    C4 8760   1.515   1.470  16.266 -1.0226  0.1330  0.6042
  591TMC3    C5 8761   1.532   1.537  16.146  0.3862 -0.1675  0.5737
  591TMC3    C6 8762   1.554   1.469  16.028 -0.1620 -0.1040  0.1907
  591TMC3     C 8763   1.456   1.262  16.382  0.1711  0.0703 -0.5969
  591TMC3     O 8764   1.466   1.315  16.494 -0.0242 -0.1326  0.0004
  591TMC3     H 8765   1.542   1.151  16.137  0.1885  0.7393  1.8526
  591TMC3    H1 8766   1.486   1.531  16.350  0.1907 -0.8320  1.7227
  591TMC3    H2 8767   1.567   1.530  15.939 -0.2773 -0.5010 -0.1010
  591TMC3    C7 8768   1.556   1.682  16.161  0.2031 -0.2657  0.3540
  591TMC3    C8 8769   1.569   1.253  15.906 -0.2223 -0.3959 -0.1769
  591TMC3    O1 8770   1.522   1.741  16.263 -0.1023  0.2332  0.1331
  591TMC3    O2 8771   1.516   1.142  15.896  0.0643 -0.0213 -0.2551
  592MPD2     C 8772   2.211   3.155  10.897 -0.5843  0.4390  0.2029
  592MPD2    C1 8773   2.210   3.227  11.017 -0.8215  0.1861 -0.7750
  592MPD2    C2 8774   2.142   3.175  11.120  0.4477 -0.3555 -0.5641
  592MPD2    C3 8775   2.082   3.054  11.108  0.2798 -0.1597  1.3020
  592MPD2    C4 8776   2.081   2.981  10.993 -0.0397  0.1905  0.8254
  592MPD2    C5 8777   2.137   3.041  10.884 -0.2996 -0.3972  0.7647
  592MPD2     H 8778   2.132   3.227  11.214  0.4703 -1.2505 -0.0696
  592MPD2    H1 8779   2.022   2.891  10.982  0.6472  0.0170 -1.4082
  592MPD2    H2 8780   2.252   3.189  10.803  2.4227 -2.7691  0.3253
  592MPD2    H3 8781   2.141   2.981  10.794  1.2219 -0.2423  0.7173
  592MPD2     N 8782   2.019   3.004  11.225  0.0200  0.1855  0.1726
  592MPD2    H5 8783   2.038   3.064  11.305 -0.8337 -1.1631  1.3890
  592MPD2    N1 8784   2.283   3.347  11.018  0.6248  1.0092  0.4872
  592MPD2    H7 8785   2.331   3.362  10.929 -1.5097  1.0393 -0.6709
  593TMC3    C1 8786   2.396   3.522  11.121  0.4295 -0.2367  0.7277
  593TMC3    C2 8787   2.456   3.560  11.244 -0.3948  0.7687  0.2506
  593TMC3    C3 8788   2.572   3.633  11.236 -0.4030  0.5406  0.1527
  593TMC3    C4 8789   2.464   3.537  11.001  1.0732 -0.6282  0.2380
  593TMC3    C5 8790   2.589   3.584  11.004 -0.3928 -0.5941 -0.2199
  593TMC3    C6 8791   2.646   3.644  11.116  0.1130 -0.0894  0.0673
  593TMC3     C 8792   2.295   3.422  11.131  0.2351 -0.3916  0.2679
  593TMC3     O 8793   2.251   3.412  11.247  0.0451  0.2455 -0.1273
  593TMC3     H 8794   2.402   3.562  11.337  0.9197  1.6522  0.9871
  593TMC3    H1 8795   2.425   3.505  10.904  1.9093  0.9815 -0.6331
  593TMC3    H2 8796   2.743   3.693  11.112  0.0430 -0.0047 -0.6645
  593TMC3    C7 8797   2.639   3.649  10.883 -0.2353  0.4467 -0.1638
  593TMC3    C8 8798   2.591   3.737  11.330 -0.4180  0.1576  0.3737
  593TMC3    O1 8799   2.687   3.762  10.903 -0.5087 -0.4226 -0.4485
  593TMC3    O2 8800   2.490   3.786  11.377  0.3680  0.0237 -0.5874
  594MPD2     C 8801   0.584   1.885  13.901  0.2577  0.4636 -0.5374
  594MPD2    C1 8802   0.553   1.935  14.032  0.3791 -0.4585 -0.0390
  594MPD2    C2 8803   0.633   2.023  14.097  0.1487 -0.4445 -0.2439
  594MPD2    C3 8804   0.739   2.078  14.026 -0.1139 -0.1769  0.2133
  594MPD2    C4 8805   0.754   2.038  13.896 -0.7562 -0.3497 -0.5457
  594MPD2    C5 8806   0.681   1.942  13.831  0.3471  0.2672 -0.2222
  594MPD2     H 8807   0.610   2.072  14.191 -0.2735  0.4079 -0.7969
  594MPD2    H1 8808   0.832   2.062  13.826 -0.4568  0.7704  0.1749
  594MPD2    H2 8809   0.505   1.837  13.844 -1.6568  1.1175  1.5498
  594MPD2    H3 8810   0.695   1.911  13.729  3.4082 -1.1366  0.6181
  594MPD2     N 8811   0.830   2.164  14.093 -0.2335 -0.5542  0.2543
  594MPD2    H5 8812   0.784   2.203  14.175 -3.5404 -0.6484 -1.5348
  594MPD2    N1 8813   0.446   1.866  14.089  0.5084  0.1090  0.4757
  594MPD2    H7 8814   0.393   1.798  14.036  0.1339  1.2704 -0.6658
  595TMC3    C1 8815   1.256   2.292  14.234 -0.4722  0.3134  0.1335
  595TMC3    C2 8816   1.174   2.258  14.128 -0.0354 -0.0695 -0.2019
  595TMC3    C3 8817   1.045   2.252  14.154 -0.2406 -0.1014  0.4296
  595TMC3    C4 8818   1.209   2.324  14.360  0.7520  0.3665 -0.8065
  595TMC3    C5 8819   1.076   2.305  14.386  0.3565 -0.8559  0.3702
  595TMC3    C6 8820   0.999   2.278  14.275 -0.3445 -0.3797  0.1543
  595TMC3     C 8821   1.404   2.286  14.226  0.6034 -0.3605  0.5746
  595TMC3     O 8822   1.468   2.330  14.319 -0.0220  0.1963 -0.6136
  595TMC3     H 8823   1.218   2.225  14.035  0.4133 -2.0243  0.7155
  595TMC3    H1 8824   1.280   2.348  14.439 -0.8847 -1.9444  1.3477
  595TMC3    H2 8825   0.892   2.282  14.292 -0.1366 -1.9701  1.9248
  595TMC3    C7 8826   1.010   2.385  14.484  0.4843  0.0403  0.1896
  595TMC3    C8 8827   0.958   2.185  14.055  0.2561  0.3368  0.0905
  595TMC3    O1 8828   0.911   2.453  14.456  0.3758  0.0211 -0.2501
  595TMC3    O2 8829   1.014   2.145  13.952 -0.8104  0.6331 -0.5927
  596MPD2     C 8830   4.453   4.314  16.490  0.1033 -0.8994  0.3693
  596MPD2    C1 8831   4.441   4.448  16.447  0.1355 -0.6977  0.5533
  596MPD2    C2 8832   4.472   4.475  16.318  0.0587 -0.0321 -0.6426
  596MPD2    C3 8833   4.517   4.379  16.222 -0.2312 -0.5818 -0.1962
  596MPD2    C4 8834   4.521   4.250  16.266 -0.1925  0.4556 -0.9860
  596MPD2    C5 8835   4.485   4.221  16.398  0.4018 -0.4896 -0.2584
  596MPD2     H 8836   4.447   4.575  16.284  1.6776  0.6716  0.2324
  596MPD2    H1 8837   4.540   4.168  16.198 -1.6654 -0.0009 -0.8521
  596MPD2    H2 8838   4.433   4.285  16.592  1.3921  0.0305  0.8934
  596MPD2    H3 8839   4.505   4.121  16.434  1.2852  0.1014  0.8812
  596MPD2     N 8840   4.540   4.403  16.085 -0.0623  0.0936  0.3496
  596MPD2    H5 8841   4.553   4.313  16.040 -0.6048  0.9130 -1.4266
  596MPD2    N1 8842   4.410   4.553  16.532  0.1831 -0.0877 -0.0842
  596MPD2    H7 8843   4.425   4.643  16.487  3.9190 -1.5236 -1.6443
  597TMC3    C1 8844   4.341   4.671  16.715  1.1979  1.0055  0.5273
  597TMC3    C2 8845   4.371   0.066  16.643 -0.6076 -0.5272  0.0365
  597TMC3    C3 8846   4.299   0.186  16.665 -0.2611  0.4200 -0.6298
  597TMC3    C4 8847   4.236   4.678  16.798  0.0755  1.0376  0.1644
  597TMC3    C5 8848   4.158   0.073  16.806  0.2014  0.6991 -0.1424
  597TMC3    C6 8849   4.191   0.188  16.738 -0.3556  0.0562  0.2836
  597TMC3     C 8850   4.370   4.540  16.658  0.5486  0.0342 -0.2004
  597TMC3     O 8851   4.327   4.448  16.726 -0.0334 -0.3390 -0.5301
  597TMC3     H 8852   4.445   0.058  16.564  0.6409  0.6317  1.0933
  597TMC3    H1 8853   4.211   4.588  16.854  0.9999 -0.1307 -1.2870
  597TMC3    H2 8854   4.118   0.266  16.731 -1.4016 -0.9043  0.4981
  597TMC3    C7 8855   4.071   0.076  16.922  0.5487 -0.2196 -0.2057
  597TMC3    C8 8856   4.331   0.300  16.567 -0.0380 -0.5520  0.2164
  597TMC3    O1 8857   4.065   4.692  16.982 -0.2551  0.2056  0.1615
  597TMC3    O2 8858   4.402   0.272  16.469 -0.1133 -0.2700 -0.0054
  598TMC3    C1 8859   3.217   1.373  15.406 -0.8474 -0.2438  0.8279
  598TMC3    C2 8860   3.144   1.320  15.508  0.3876  0.6593  0.4200
  598TMC3    C3 8861   3.010   1.295  15.483 -0.5656  0.0328  0.6493
  598TMC3    C4 8862   3.159   1.421  15.290 -0.0574  0.0426 -0.0685
  598TMC3    C5 8863   3.028   1.395  15.269  0.0662  0.3484  0.4645
  598TMC3    C6 8864   2.955   1.327  15.362 -0.0169  0.4962  0.1209
  598TMC3     C 8865   3.364   1.342  15.391 -0.7004  0.2269 -0.6256
  598TMC3     O 8866   3.417   1.353  15.279 -0.1600 -0.4319 -0.1226
  598TMC3     H 8867   3.189   1.293  15.603 -0.5997 -0.5603  0.5338
  598TMC3    H1 8868   3.221   1.449  15.205 -0.0052  0.8796  0.2425
  598TMC3    H2 8869   2.852   1.302  15.340 -0.2806 -0.8068  2.8539
  598TMC3    C7 8870   2.965   1.437  15.143  0.2997 -0.3440 -0.3172
  598TMC3    C8 8871   2.926   1.241  15.590  0.4291  0.0595  0.0658
  598TMC3    O1 8872   2.860   1.387  15.112  0.2572  0.7372  0.6486
  598TMC3    O2 8873   2.956   1.136  15.641  0.1193  0.6178  0.7032
  599MPD2     C 8874   2.971   3.629  15.991 -0.5652 -0.1081  0.3045
  599MPD2    C1 8875   2.885   3.521  16.006  0.1543  0.2133 -0.8932
  599MPD2    C2 8876   2.753   3.529  16.045  0.3812 -0.4214 -0.6456
  599MPD2    C3 8877   2.704   3.647  16.077  0.2633 -0.5855  0.2799
  599MPD2    C4 8878   2.776   3.763  16.051  0.3020 -0.6205  0.0175
  599MPD2    C5 8879   2.909   3.755  16.011  0.0936  0.0546  0.0359
  599MPD2     H 8880   2.696   3.437  16.052  0.8526 -0.7477 -0.9700
  599MPD2    H1 8881   2.739   3.860  16.082  3.3048  0.5317 -0.0875
  599MPD2    H2 8882   3.077   3.625  15.968 -0.6594  1.5323 -0.3757
  599MPD2    H3 8883   2.957   3.851  16.006 -0.6981  0.5165  1.2897
  599MPD2     N 8884   2.576   3.663  16.139 -0.4175  0.8657  0.4158
  599MPD2    H5 8885   2.552   3.758  16.165 -0.6374  1.2862 -1.3484
  599MPD2    N1 8886   2.942   3.397  15.976  0.1110  0.1507  0.1631
  599MPD2    H7 8887   3.044   3.401  15.976  0.0262  2.1609  0.8859
  600TMC3    C1 8888   2.379   3.617  16.265 -0.0118  0.2587 -0.4475
  600TMC3    C2 8889   2.304   3.522  16.323  0.1540  0.8878  0.2313
  600TMC3    C3 8890   2.185   3.561  16.387  0.1054  0.3466 -0.3760
  600TMC3    C4 8891   2.342   3.753  16.270  0.7037  0.1545 -0.5640
  600TMC3    C5 8892   2.234   3.785  16.348 -0.0716  0.4527 -0.2876
  600TMC3    C6 8893   2.151   3.687  16.400 -0.6781 -0.2938  0.0892
  600TMC3     C 8894   2.494   3.564  16.190  0.4541 -0.4963  0.2393
  600TMC3     O 8895   2.501   3.441  16.181  0.2559 -0.0006 -0.2082
  600TMC3     H 8896   2.330   3.417  16.318 -3.2323  0.0425  0.6056
  600TMC3    H1 8897   2.398   3.827  16.213  1.8839 -0.7242 -0.5337
  600TMC3    H2 8898   2.075   3.716  16.472  1.3889  0.5286  1.9261
  600TMC3    C7 8899   2.207   3.917  16.399  0.4522 -0.5304 -0.2280
  600TMC3    C8 8900   2.113   3.461  16.461  0.1336 -0.1390  0.0688
  600TMC3    O1 8901   2.108   3.931  16.470  0.0100 -0.0488 -0.0156
  600TMC3    O2 8902   2.181   3.381  16.530 -0.2096 -0.0113 -0.5320
  601MPD2     C 8903   4.701   1.780   0.240 -0.1506  0.0368 -0.2155
  601MPD2    C1 8904   4.594   1.763   0.154  0.3163  0.6534  0.0272
  601MPD2    C2 8905   4.481   1.693   0.198  0.4581  0.0242  0.0616
  601MPD2    C3 8906   4.473   1.669   0.333 -0.2883 -0.1380  0.1506
  601MPD2    C4 8907   4.581   1.687   0.417  0.4353  0.6197 -1.1909
  601MPD2    C5 8908   4.693   1.748   0.372  0.1624  0.0285 -0.2279
  601MPD2     H 8909   4.406   1.656   0.128 -2.2522  3.5291  1.0825
  601MPD2    H1 8910   4.576   1.662   0.522  1.6225  2.2040 -0.7795
  601MPD2    H2 8911   0.068   1.830   0.207  0.5135  0.4966  2.2830
  601MPD2    H3 8912   0.056   1.760   0.436  1.0864  1.7380 -1.7765
  601MPD2     N 8913   4.363   1.602   0.392  0.0838  0.2391  0.8413
  601MPD2    H5 8914   4.377   1.566   0.486  0.4528  0.1515  0.7534
  601MPD2    N1 8915   4.602   1.800   0.014 -0.1791 -0.0291 -0.4809
  601MPD2    H7 8916   4.518   1.803  17.650 -0.1424 -1.6826 -0.6312
  602TMC3    C1 8917   4.673   1.880  17.503  0.1866  0.0525 -0.0319
  602TMC3    C2 8918   0.002   1.993  17.455 -0.2408  1.0646  0.7126
  602TMC3    C3 8919   4.645   2.064  17.368  0.2826  0.7572  0.4826
  602TMC3    C4 8920   4.571   1.808  17.439 -0.3393 -0.1149 -0.8376
  602TMC3    C5 8921   4.510   1.877  17.336  0.8269 -0.1501  0.0831
  602TMC3    C6 8922   4.542   2.006  17.304  0.6039 -0.3319 -0.4165
  602TMC3     C 8923   4.711   1.848  17.642 -0.2954  0.1390  0.5674
  602TMC3     O 8924   0.110   1.844  17.658  0.0030  0.0441  0.0384
  602TMC3     H 8925   0.076   2.038  17.521  1.1846 -1.0849  0.5825
  602TMC3    H1 8926   4.536   1.708  17.463 -2.1636  1.2786  2.2208
  602TMC3    H2 8927   4.498   2.058  17.219  1.0527 -0.5064 -0.7512
  602TMC3    C7 8928   4.365   1.865  17.343  0.2432  0.2772 -0.4833
  602TMC3    C8 8929   4.611   2.193  17.421  0.2575  0.8034  0.7644
  602TMC3    O1 8930   4.321   1.773  17.411 -0.6020 -0.9215 -0.1807
  602TMC3    O2 8931   4.652   2.222  17.532 -0.3028  0.1343  0.4563
  603TMC3    C1 8932   3.615   2.518  10.707  0.7704  0.2546  0.1093
  603TMC3    C2 8933   3.616   2.553  10.837 -0.1933  0.1112 -0.5883
  603TMC3    C3 8934   3.562   2.672  10.868 -0.6668  0.3747  0.3662
  603TMC3    C4 8935   3.577   2.604  10.610 -0.0287  0.4120 -0.1178
  603TMC3    C5 8936   3.535   2.728  10.644 -0.8709 -0.5361 -0.2100
  603TMC3    C6 8937   3.519   2.761  10.776  0.2854 -0.0979  0.6890
  603TMC3     C 8938   3.638   2.374  10.683 -0.1231  0.9111 -0.7294
  603TMC3     O 8939   3.609   2.305  10.780  0.0598  0.4746  0.8681
  603TMC3     H 8940   3.655   2.490  10.917 -2.4332 -0.3550  0.1462
  603TMC3    H1 8941   3.596   2.588  10.504 -0.8954  1.2780 -0.4065
  603TMC3    H2 8942   3.508   2.866  10.801  1.3829 -0.1717  1.4973
  603TMC3    C7 8943   3.436   2.797  10.565 -0.2547  0.0719 -0.3022
  603TMC3    C8 8944   3.572   2.716  11.006  0.7419 -0.5001  0.3212
  603TMC3    O1 8945   3.411   2.911  10.598  0.5613  0.2652  0.6223
  603TMC3    O2 8946   3.653   2.663  11.075  0.5379 -0.0360 -0.2285
  604MPD2     C 8947   3.416   1.062  16.309 -0.0963  0.3407 -0.1748
  604MPD2    C1 8948   3.314   0.990  16.262 -0.7050  0.1251  0.5185
  604MPD2    C2 8949   3.316   0.938  16.135 -0.0670  0.1423  0.2719
  604MPD2    C3 8950   3.432   0.957  16.058 -0.4086 -0.0019 -0.6617
  604MPD2    C4 8951   3.531   1.040  16.106  0.1458 -0.4515  0.1407
  604MPD2    C5 8952   3.526   1.087  16.229 -0.0871  0.2752  0.6603
  604MPD2     H 8953   3.230   0.882  16.102 -0.1137  0.6368 -0.4403
  604MPD2    H1 8954   3.616   1.065  16.045 -0.8162 -2.2704 -1.9571
  604MPD2    H2 8955   3.411   1.099  16.411 -0.6009 -0.3785  0.0633
  604MPD2    H3 8956   3.604   1.150  16.270 -0.7778  0.4524  1.6944
  604MPD2     N 8957   3.438   0.900  15.933  1.4240  0.3805 -0.2380
  604MPD2    H5 8958   3.354   0.859  15.893  1.1143  1.0799 -0.3187
  604MPD2    N1 8959   3.207   0.970  16.354 -0.6590  0.2037 -0.0030
  604MPD2    H7 8960   3.218   1.031  16.434 -2.3069 -1.6843  1.6399
  605TMC3    C1 8961   2.993   0.948  16.443 -0.0405  0.2956  0.0734
  605TMC3    C2 8962   3.059   0.985  16.557  0.0530 -0.8273  0.1531
  605TMC3    C3 8963   3.027   1.106  16.617  0.0546  0.6439 -0.0148
  605TMC3    C4 8964   2.884   1.013  16.397  0.0601  0.0313 -0.1440
  605TMC3    C5 8965   2.846   1.119  16.464  0.2270 -0.4974 -0.9428
  605TMC3    C6 8966   2.914   1.175  16.572  0.2700  0.1300  0.0283
  605TMC3     C 8967   3.085   0.911  16.332 -0.3440 -0.1283  0.1398
  605TMC3     O 8968   3.041   0.866  16.233 -0.6319  0.8157  0.0627
  605TMC3     H 8969   3.145   0.923  16.582  1.3858  0.6461 -0.7822
  605TMC3    H1 8970   2.835   0.986  16.304  0.9575  0.3350 -0.7072
  605TMC3    H2 8971   2.886   1.278  16.591 -3.0936 -0.0765 -3.6188
  605TMC3    C7 8972   2.719   1.187  16.433 -0.5500 -0.2322  0.1691
  605TMC3    C8 8973   3.149   1.178  16.646  0.4831  0.2836 -0.4457
  605TMC3    O1 8974   2.720   1.308  16.454  0.2627  0.1443  0.8110
  605TMC3    O2 8975   3.237   1.160  16.563 -0.3271  0.0422  0.4857
  606TMC3    C1 8976   3.942   4.523  17.563 -0.0810  0.5647  0.3063
  606TMC3    C2 8977   3.944   4.449  17.680 -0.0350  0.1882  0.1650
  606TMC3    C3 8978   3.992   4.323  17.670  0.0904 -0.2642 -0.3243
  606TMC3    C4 8979   3.984   4.472  17.444 -0.4138 -0.3596  0.2669
  606TMC3    C5 8980   4.037   4.346  17.439  0.2004  0.8221  0.2141
  606TMC3    C6 8981   4.041   4.265  17.552 -0.1979  0.4625 -0.4095
  606TMC3     C 8982   3.945   4.662  17.583 -0.0270  0.6293 -0.2760
  606TMC3     O 8983   3.909   4.709   0.001 -0.2273  0.1524  0.3191
  606TMC3     H 8984   3.911   4.500   0.076  2.1109  1.4240  0.2540
  606TMC3    H1 8985   3.998   4.525  17.350  0.0808 -2.3357 -0.7753
  606TMC3    H2 8986   4.104   4.177  17.553  0.6897  1.1025  0.1248
  606TMC3    C7 8987   4.096   4.291  17.315 -0.6237  0.8467 -0.4469
  606TMC3    C8 8988   4.011   4.233   0.093 -0.0737  0.4502 -0.3288
  606TMC3    O1 8989   4.133   4.380  17.240  0.3698 -0.0121 -0.8321
  606TMC3    O2 8990   4.068   4.126   0.076  0.1839  0.4286  0.2429
  607MPD2     C 8991   2.277   2.929  11.472  0.7990 -0.1648  0.5290
  607MPD2    C1 8992   2.332   3.032  11.540 -0.1511 -0.2998  0.0084
  607MPD2    C2 8993   2.354   3.013  11.679 -0.5922 -0.3581  0.5897
  607MPD2    C3 8994   2.308   2.905  11.753 -0.0179  0.2942 -0.1976
  607MPD2    C4 8995   2.245   2.802  11.681 -0.1282 -0.4964 -1.7061
  607MPD2    C5 8996   2.230   2.817  11.542 -0.4150 -0.1633  0.0145
  607MPD2     H 8997   2.389   3.096  11.740  1.9422  0.5868 -2.1445
  607MPD2    H1 8998   2.214   2.714  11.737 -1.0605  1.0616  0.2439
  607MPD2    H2 8999   2.290   2.908  11.366  2.1130  1.0022  0.4552
  607MPD2    H3 9000   2.194   2.728  11.492 -1.1188  0.1230  0.0112
  607MPD2     N 9001   2.330   2.903  11.893 -0.3017 -0.1275 -0.3053
  607MPD2    H5 9002   2.384   2.984  11.923  0.7410 -2.1768  3.4157
  607MPD2    N1 9003   2.405   3.140  11.485  0.5657  0.3430 -0.4811
  607MPD2    H7 9004   2.416   3.217  11.550 -1.0558  0.7424 -0.6813
  608TMC3    C1 9005   2.557   3.253  11.342 -0.9006 -0.6051 -0.0729
  608TMC3    C2 9006   2.628   3.287  11.461  0.5601  0.1524 -0.0334
  608TMC3    C3 9007   2.763   3.314  11.438  0.0429  0.0586  0.2310
  608TMC3    C4 9008   2.616   3.233  11.230 -0.2335 -0.2354 -0.3361
  608TMC3    C5 9009   2.749   3.260  11.213 -0.6682 -0.1041  0.5359
  608TMC3    C6 9010   2.821   3.309  11.315 -0.6399 -0.3607  0.0546
  608TMC3     C 9011   2.440   3.156  11.356 -0.3343 -0.1133  0.2932
  608TMC3     O 9012   2.434   3.080  11.258 -0.5837 -0.0421  0.1697
  608TMC3     H 9013   2.577   3.315  11.553 -2.3457 -1.0563 -1.2829
  608TMC3    H1 9014   2.561   3.200  11.142 -0.5027  1.7579 -0.9186
  608TMC3    H2 9015   2.928   3.322  11.302 -0.5467 -2.5389 -1.3514
  608TMC3    C7 9016   2.784   3.278  11.073 -0.3650  0.6936 -0.0148
  608TMC3    C8 9017   2.841   3.343  11.551 -0.5973 -0.2078 -0.6709
  608TMC3    O1 9018   2.733   3.211  10.984  0.4101 -0.4917  0.3573
  608TMC3    O2 9019   2.928   3.428  11.544  0.0975 -0.8020 -0.2372
  609TMC3    C1 9020   0.910   1.773   9.460  0.0642  0.1086 -0.4938
  609TMC3    C2 9021   0.838   1.886   9.423  0.0027 -0.1895  0.7315
  609TMC3    C3 9022   0.889   1.963   9.315 -0.0285  0.2888 -0.2107
  609TMC3    C4 9023   1.034   1.743   9.401 -0.5011 -0.1646  0.2308
  609TMC3    C5 9024   1.089   1.838   9.314 -0.1311  0.1116  0.6156
  609TMC3    C6 9025   1.018   1.948   9.274 -0.9189  0.3853 -0.7683
  609TMC3     C 9026   0.836   1.659   9.516 -0.1341 -0.3861 -0.4301
  609TMC3     O 9027   0.726   1.679   9.569 -0.1989 -0.0215 -0.3738
  609TMC3     H 9028   0.738   1.904   9.463 -0.4314 -0.5186 -0.1952
  609TMC3    H1 9029   1.084   1.654   9.438 -0.7693 -1.0254 -1.4760
  609TMC3    H2 9030   1.053   2.009   9.192 -0.0617 -0.1632 -0.8144
  609TMC3    C7 9031   1.228   1.816   9.282 -0.6740 -0.0109 -0.4678
  609TMC3    C8 9032   0.822   2.093   9.280  0.5825 -0.0204 -0.5504
  609TMC3    O1 9033   1.266   1.702   9.295  0.3817  0.1497  0.3581
  609TMC3    O2 9034   0.886   2.181   9.226 -0.0719 -0.4011  0.3497
  610TMC3    C1 9035   3.078   2.850  12.327 -0.6432  0.7175  0.6176
  610TMC3    C2 9036   3.130   2.938  12.228 -0.2083  0.0250  0.9635
  610TMC3    C3 9037   3.262   2.919  12.194 -0.0154 -0.1884  0.5718
  610TMC3    C4 9038   3.160   2.754  12.381 -0.3286 -0.7393  0.3387
  610TMC3    C5 9039   3.291   2.757  12.348  0.2053  0.7797  0.6333
  610TMC3    C6 9040   3.349   2.840  12.255 -0.0355 -0.7525  0.1862
  610TMC3     C 9041   2.940   2.855  12.354  0.0046  0.4446 -0.1181
  610TMC3     O 9042   2.875   2.954  12.322  0.4575  0.2421  0.6186
  610TMC3     H 9043   3.060   2.992  12.164  2.0070  0.0391 -1.4614
  610TMC3    H1 9044   3.131   2.690  12.462 -0.4584  1.3981  1.9739
  610TMC3    H2 9045   3.452   2.829  12.224  0.6996 -2.8430  3.4434
  610TMC3    C7 9046   3.364   2.648  12.398  0.4540 -0.0569 -0.0938
  610TMC3    C8 9047   3.311   2.970  12.065 -0.2543  0.1381  1.0982
  610TMC3    O1 9048   3.305   2.543  12.424  0.2805  0.0151 -0.0898
  610TMC3    O2 9049   3.430   2.985  12.050 -0.0109  0.2099 -0.1707
  611MPD2     C 9050   2.011   2.387  10.665  0.1537 -0.3172  0.0835
  611MPD2    C1 9051   2.010   2.336  10.537  0.2312 -0.0014  0.4368
  611MPD2    C2 9052   2.138   2.332  10.466 -0.0659 -0.0622 -0.5204
  611MPD2    C3 9053   2.251   2.375  10.523 -0.5772 -0.4044 -0.2618
  611MPD2    C4 9054   2.245   2.426  10.653  0.2444 -0.1391 -1.0344
  611MPD2    C5 9055   2.125   2.432  10.719 -0.0948  0.4035 -0.0285
  611MPD2     H 9056   2.149   2.299  10.363 -1.4010  0.2453 -0.7607
  611MPD2    H1 9057   2.328   2.472  10.705 -1.3412  0.5508  0.8925
  611MPD2    H2 9058   1.917   2.399  10.718 -0.0894 -0.2199 -0.3657
  611MPD2    H3 9059   2.119   2.481  10.815  2.9223  0.4733  0.1379
  611MPD2     N 9060   2.373   2.377  10.456 -0.4688  0.2580 -0.2624
  611MPD2    H5 9061   2.442   2.434  10.505  0.3652 -0.7536 -0.2514
  611MPD2    N1 9062   1.892   2.285  10.487  0.9675  0.0449  0.2988
  611MPD2    H7 9063   1.813   2.276  10.550  0.9863  1.6239  0.5539
  612TMC3    C1 9064   2.538   2.313  10.299  0.0979  0.2640 -0.3557
  612TMC3    C2 9065   2.607   2.435  10.320 -0.4849 -0.0869 -0.3397
  612TMC3    C3 9066   2.742   2.439  10.295  0.2510 -0.4291  1.0132
  612TMC3    C4 9067   2.598   2.204  10.236  0.0362 -1.0498 -0.4322
  612TMC3    C5 9068   2.735   2.223  10.208 -0.6727 -0.1243 -0.0204
  612TMC3    C6 9069   2.808   2.336  10.236 -0.2521 -0.6630 -0.5315
  612TMC3     C 9070   2.406   2.296  10.349 -0.2180 -0.7839  0.1645
  612TMC3     O 9071   2.338   2.211  10.288  0.2775 -0.4411  0.2903
  612TMC3     H 9072   2.564   2.514  10.380 -1.6141  0.3037 -1.6719
  612TMC3    H1 9073   2.540   2.121  10.200  3.1102 -3.4225  0.1094
  612TMC3    H2 9074   2.914   2.332  10.214  0.3638  2.8581  1.6689
  612TMC3    C7 9075   2.783   2.143  10.099  0.2322 -0.0253 -0.5803
  612TMC3    C8 9076   2.800   2.567  10.288 -0.3218  0.6072  0.1031
  612TMC3    O1 9077   2.752   2.025  10.103 -0.5392  0.2199 -0.1050
  612TMC3    O2 9078   2.721   2.658  10.280  0.2334 -0.2584  0.1671
  613MPD2     C 9079   1.072   4.707  16.380  0.4493  0.7960  0.4469
  613MPD2    C1 9080   0.953   0.033  16.339  0.1605 -0.1357 -0.1582
  613MPD2    C2 9081   0.863   0.075  16.438 -0.4589  0.1401  0.3269
  613MPD2    C3 9082   0.897   0.071  16.574  0.4514  0.1702  0.3543
  613MPD2    C4 9083   1.026   0.044  16.610  0.6021  0.2353  0.2084
  613MPD2    C5 9084   1.114   4.717  16.511  0.0481  0.0660  0.5732
  613MPD2     H 9085   0.762   0.100  16.410  0.0978  0.9963 -0.9301
  613MPD2    H1 9086   1.063   0.034  16.711 -1.9162 -0.7892  1.0243
  613MPD2    H2 9087   1.144   4.667  16.309 -1.3131  1.2127 -1.5645
  613MPD2    H3 9088   1.216   4.693  16.537  0.5212 -0.3981 -1.6436
  613MPD2     N 9089   0.805   0.086  16.679  0.7377  0.3899  1.1140
  613MPD2    H5 9090   0.832   0.039  16.765 -0.4534 -1.3063  0.5452
  613MPD2    N1 9091   0.907   0.012  16.203  0.2033 -0.1886 -0.5393
  613MPD2    H7 9092   0.959   4.664  16.151  0.0551  0.5664 -1.7308
  614TMC3    C1 9093   0.728   4.720  16.054 -0.0906  0.0930 -0.1666
  614TMC3    C2 9094   0.696   4.596  16.113 -0.7246  0.8804  0.3978
  614TMC3    C3 9095   0.557   4.564  16.110  0.2020 -0.2514 -0.6355
  614TMC3    C4 9096   0.632   0.066  15.988  0.1555 -0.8177 -0.9850
  614TMC3    C5 9097   0.513   0.010  15.966 -0.0559  0.0741 -0.2432
  614TMC3    C6 9098   0.464   4.625  16.035  0.0180  0.7026  0.3558
  614TMC3     C 9099   0.800   0.076  16.151  0.3394  0.2304 -0.3705
  614TMC3     O 9100   0.740   0.175  16.187  0.0873 -0.1961 -0.1724
  614TMC3     H 9101   0.758   4.552  16.190  0.2722 -2.1423 -2.1451
  614TMC3    H1 9102   0.663   0.150  15.928  0.4487  0.2802  0.6895
  614TMC3    H2 9103   0.369   4.589  15.997  0.4731  1.4592 -1.5325
  614TMC3    C7 9104   0.427   0.054  15.862  0.0768 -0.1184  0.9074
  614TMC3    C8 9105   0.508   4.535  16.244  0.4647  0.0268 -0.0420
  614TMC3    O1 9106   0.326   0.117  15.890 -0.6125 -0.0379 -0.3669
  614TMC3    O2 9107   0.580   4.560  16.342  0.4368  0.1796  0.3383
  615MPD2     C 9108   0.110   1.001  16.236  0.0547 -0.6544 -0.4002
  615MPD2    C1 9109   0.182   1.066  16.144 -0.1580 -0.2756  0.1449
  615MPD2    C2 9110   0.147   1.054  16.011  1.0835 -0.2096  0.4698
  615MPD2    C3 9111   0.033   0.985  15.972 -0.5170 -0.1330 -0.7640
  615MPD2    C4 9112   4.690   0.906  16.067  0.0514 -0.6711 -0.0597
  615MPD2    C5 9113   0.002   0.921  16.204  0.1511  0.2855 -0.6860
  615MPD2     H 9114   0.198   1.111  15.934  0.1317 -2.4772 -1.8337
  615MPD2    H1 9115   4.604   0.847  16.040 -1.2024  1.5756 -0.9399
  615MPD2    H2 9116   0.136   1.015  16.340  2.0254  0.0424 -1.0017
  615MPD2    H3 9117   4.668   0.862  16.275  0.3589  1.7710  0.6991
  615MPD2     N 9118   4.697   0.975  15.841 -0.1185 -0.1334 -0.2851
  615MPD2    H5 9119   4.611   0.923  15.828  1.0796 -1.6428 -2.0474
  615MPD2    N1 9120   0.303   1.124  16.172 -0.7922 -0.6172  0.0465
  615MPD2    H7 9121   0.356   1.147  16.089 -2.1561  0.3753 -0.5431
  616TMC3    C1 9122   0.514   1.127  16.252  0.7106 -0.8680  0.3653
  616TMC3    C2 9123   0.557   1.253  16.223 -0.2405 -0.4920 -0.1175
  616TMC3    C3 9124   0.684   1.298  16.267 -0.7076  0.0358 -0.2510
  616TMC3    C4 9125   0.595   1.054  16.336 -0.2294 -0.3478  0.4110
  616TMC3    C5 9126   0.719   1.100  16.373 -0.5296 -0.1141  0.1741
  616TMC3    C6 9127   0.768   1.221  16.341  0.3184  0.3511 -0.2593
  616TMC3     C 9128   0.375   1.114  16.285 -0.1816  0.1979  1.3580
  616TMC3     O 9129   0.347   1.080  16.399  0.1461 -0.2983 -0.2986
  616TMC3     H 9130   0.486   1.326  16.186 -0.1275 -0.5294 -0.4074
  616TMC3    H1 9131   0.555   0.955  16.358  1.8337 -1.6582 -1.7430
  616TMC3    H2 9132   0.859   1.260  16.385 -0.5075 -0.0919  1.8278
  616TMC3    C7 9133   0.787   1.046  16.484 -0.1712  0.8668 -0.0868
  616TMC3    C8 9134   0.732   1.430  16.226 -0.1102  0.0663 -0.0897
  616TMC3    O1 9135   0.900   1.077  16.507  0.0531  0.0288 -0.7641
  616TMC3    O2 9136   0.667   1.479  16.133  0.0799 -0.0998 -0.1961
  617MPD2     C 9137   3.332   4.539  13.729  0.2894  0.4368  0.0217
  617MPD2    C1 9138   3.389   4.447  13.814  0.5416  0.9733 -0.0031
  617MPD2    C2 9139   3.305   4.349  13.865 -0.1385  0.5819  0.1384
  617MPD2    C3 9140   3.174   4.356  13.838  0.3017 -0.0008  0.0708
  617MPD2    C4 9141   3.121   4.449  13.754  0.3870  0.2376  0.2840
  617MPD2    C5 9142   3.203   4.539  13.701  0.1920  0.3256  0.2666
  617MPD2     H 9143   3.335   4.278  13.942 -2.1493  2.2799  2.4781
  617MPD2    H1 9144   3.019   4.446  13.718  0.1247  0.8832  0.9733
  617MPD2    H2 9145   3.389   4.621  13.687 -2.0180  1.8033 -0.4510
  617MPD2    H3 9146   3.166   4.614  13.631  0.4368 -0.4004 -0.6351
  617MPD2     N 9147   3.072   4.270  13.886 -0.0569  0.1469  0.0219
  617MPD2    H5 9148   2.982   4.294  13.845 -0.0427  0.1416 -0.0126
  617MPD2    N1 9149   3.533   4.449  13.826  0.5907  0.5472  0.2177
  617MPD2    H7 9150   3.581   4.521  13.771  1.2100  1.3577  1.8274
  618TMC3    C1 9151   3.747   4.352  13.848  0.2088 -0.0125 -0.4461
  618TMC3    C2 9152   3.807   4.243  13.810  0.0075  0.4056 -0.5110
  618TMC3    C3 9153   3.929   4.255  13.746 -0.0121  0.0951 -0.2907
  618TMC3    C4 9154   3.800   4.472  13.820 -0.0775  0.3504 -0.2924
  618TMC3    C5 9155   3.926   4.487  13.761  0.4498 -0.0088  0.9168
  618TMC3    C6 9156   3.997   4.375  13.731  0.4889  0.6446  0.5416
  618TMC3     C 9157   3.609   4.349  13.877 -0.4865  0.4310 -0.3166
  618TMC3     O 9158   3.564   4.243  13.916  0.3485 -0.9148 -0.1857
  618TMC3     H 9159   3.756   4.147  13.810 -0.8283  0.8382  1.1569
  618TMC3    H1 9160   3.753   4.565  13.849 -2.0558 -1.3021  1.7728
  618TMC3    H2 9161   4.100   4.382  13.697  0.7106 -1.3868  0.7834
  618TMC3    C7 9162   3.913   4.559  13.634  0.5926 -0.1535 -0.4434
  618TMC3    C8 9163   3.958   4.168  13.634 -0.1038  0.0541 -0.0188
  618TMC3    O1 9164   3.807   4.577  13.582  0.3515  0.1911 -0.0791
  618TMC3    O2 9165   3.915   4.052  13.637 -0.2941 -0.6355 -0.6758
  619MPD2     C 9166   4.686   0.524  13.127 -0.7979  0.0379 -0.7770
  619MPD2    C1 9167   4.651   0.645  13.076 -0.1093  0.0046 -0.1823
  619MPD2    C2 9168   4.537   0.711  13.111  0.5966 -0.0696  0.4217
  619MPD2    C3 9169   4.453   0.655  13.205 -0.4755 -0.8094 -0.2628
  619MPD2    C4 9170   4.492   0.544  13.273  0.1479 -0.3026  0.3550
  619MPD2    C5 9171   4.601   0.473  13.221  0.0045  0.3646 -0.8197
  619MPD2     H 9172   4.510   0.805  13.064 -0.2941 -1.1370 -1.2032
  619MPD2    H1 9173   4.451   0.498  13.362 -2.2979 -0.2973 -0.7653
  619MPD2    H2 9174   0.062   0.480  13.122 -1.3427 -1.2823  0.1818
  619MPD2    H3 9175   4.635   0.388  13.279  0.1341  0.9219 -0.0856
  619MPD2     N 9176   4.328   0.721  13.236 -0.1090 -0.0849 -0.8579
  619MPD2    H5 9177   4.299   0.809  13.195  0.2500 -0.0750 -1.0966
  619MPD2    N1 9178   0.009   0.709  12.981 -0.8908  0.3285 -0.4362
  619MPD2    H7 9179   4.708   0.803  12.952 -1.6916  0.0071 -0.8164
  620TMC3    C1 9180   0.173   0.767  12.841 -0.4140  0.1656  0.0220
  620TMC3    C2 9181   0.074   0.806  12.754  0.0623 -0.4385  0.1376
  620TMC3    C3 9182   0.071   0.939  12.717 -0.6139 -0.2515  1.0640
  620TMC3    C4 9183   0.269   0.854  12.888 -0.2405  0.0377 -0.7013
  620TMC3    C5 9184   0.275   0.975  12.837 -0.2556  0.0287 -0.4073
  620TMC3    C6 9185   0.189   1.011  12.738  0.0128 -0.8354 -0.2186
  620TMC3     C 9186   0.135   0.670  12.943 -0.2967 -0.3450  0.0935
  620TMC3     O 9187   0.215   0.596  13.001 -0.1278  0.2319 -0.8170
  620TMC3     H 9188   4.709   0.743  12.744 -1.9914  2.3606  0.6419
  620TMC3    H1 9189   0.333   0.812  12.965 -1.3257  0.7987  0.6081
  620TMC3    H2 9190   0.200   1.108  12.693  2.9282 -0.8017  0.5422
  620TMC3    C7 9191   0.283   1.085  12.938 -0.4838 -0.3960 -0.3870
  620TMC3    C8 9192   4.686   0.998  12.791 -0.0662 -0.6136 -0.0545
  620TMC3    O1 9193   0.285   1.199  12.898  0.2789 -0.4862 -0.3943
  620TMC3    O2 9194   4.618   0.933  12.870  0.1115 -0.1253 -0.2915
  621MPD2     C 9195   0.506   1.139  10.190 -0.2151 -0.0554 -0.4294
  621MPD2    C1 9196   0.562   1.059  10.094 -0.2605  0.1993  0.2567
  621MPD2    C2 9197   0.675   1.097  10.027  0.2060  0.1058  0.4189
  621MPD2    C3 9198   0.729   1.214  10.060 -0.3005 -0.2333 -0.3565
  621MPD2    C4 9199   0.666   1.301  10.144 -0.7969  0.8477  0.1020
  621MPD2    C5 9200   0.547   1.270  10.204 -0.4123 -0.1179  0.4272
  621MPD2     H 9201   0.707   1.030   9.948 -0.5205  1.2813 -0.8724
  621MPD2    H1 9202   0.694   1.404  10.165  0.3372  1.1792 -2.9784
  621MPD2    H2 9203   0.420   1.110  10.249  1.1909 -1.7735  0.7280
  621MPD2    H3 9204   0.497   1.343  10.267 -2.5663 -1.9836  0.8952
  621MPD2     N 9205   0.844   1.263   9.998  0.6746 -0.2100  0.6707
  621MPD2    H5 9206   0.872   1.356  10.027 -0.8109  0.9516 -1.5594
  621MPD2    N1 9207   0.513   0.928  10.073 -0.3200  0.3036  0.1583
  621MPD2    H7 9208   0.554   0.869  10.001  0.2813  0.2482  0.5497
  622TMC3    C1 9209   0.367   0.742  10.089  1.0278 -0.3528 -0.0625
  622TMC3    C2 9210   0.281   0.674  10.169 -0.3279  0.5516 -0.5307
  622TMC3    C3 9211   0.245   0.550  10.125  0.7808 -0.2064  0.4544
  622TMC3    C4 9212   0.419   0.692   9.970  1.0421  0.6879  0.9021
  622TMC3    C5 9213   0.384   0.565   9.938  0.7372  0.2782 -0.7919
  622TMC3    C6 9214   0.301   0.488  10.016  0.7270  0.1467 -0.3151
  622TMC3     C 9215   0.418   0.865  10.145 -0.0264 -0.1616 -0.3506
  622TMC3     O 9216   0.387   0.891  10.260  0.4295 -0.2886 -0.8176
  622TMC3     H 9217   0.237   0.716  10.258  1.1279  2.4049 -0.6734
  622TMC3    H1 9218   0.483   0.745   9.899  1.7659 -1.4214 -0.0226
  622TMC3    H2 9219   0.283   0.386   9.985 -0.0500 -0.7427  3.1035
  622TMC3    C7 9220   0.435   0.508   9.818  0.7458  0.1179  0.5119
  622TMC3    C8 9221   0.135   0.475  10.184 -1.1653 -0.0246  0.2173
  622TMC3    O1 9222   0.480   0.396   9.829  0.4131  0.4648  0.2598
  622TMC3    O2 9223   0.117   0.356  10.165 -0.2889 -0.2440  0.0884
  623MPD2     C 9224   3.602   1.495  15.909  0.3008 -0.2164  0.3310
  623MPD2    C1 9225   3.544   1.434  16.021 -0.3451  0.4098  0.1779
  623MPD2    C2 9226   3.590   1.448  16.148 -0.2579 -0.2953 -0.4773
  623MPD2    C3 9227   3.709   1.515  16.164  0.3011 -0.0174 -0.3159
  623MPD2    C4 9228   3.770   1.576  16.054 -0.3613  0.3529 -0.2389
  623MPD2    C5 9229   3.715   1.566  15.929 -0.3932 -0.0948  0.0128
  623MPD2     H 9230   3.537   1.407  16.233  1.0242 -0.4160  0.2746
  623MPD2    H1 9231   3.859   1.636  16.070 -2.2325  2.7535  1.1423
  623MPD2    H2 9232   3.553   1.499  15.812 -0.4371  0.7966  0.7442
  623MPD2    H3 9233   3.762   1.630  15.854  0.3041  0.8935  1.3022
  623MPD2     N 9234   3.761   1.528  16.295  0.0358  0.6325 -0.6895
  623MPD2    H5 9235   3.726   1.464  16.365  0.6543 -1.8570 -2.6365
  623MPD2    N1 9236   3.415   1.365  16.006 -0.1801  0.3609 -0.0139
  623MPD2    H7 9237   3.360   1.344  16.089  2.2708  0.4794  1.6227
  624TMC3    C1 9238   4.061   1.550  16.650  0.1857 -0.2797 -0.1879
  624TMC3    C2 9239   3.958   1.515  16.736 -0.8685  0.2621 -0.1570
  624TMC3    C3 9240   3.833   1.514  16.685 -0.0253 -0.3821 -0.2630
  624TMC3    C4 9241   4.026   1.596  16.525 -0.3927  0.9595  0.4232
  624TMC3    C5 9242   3.899   1.595  16.476 -0.0013  0.8654  0.4428
  624TMC3    C6 9243   3.799   1.549  16.558  0.7773 -0.3498  0.2069
  624TMC3     C 9244   4.177   1.459  16.658  0.0534  1.1379 -0.1889
  624TMC3     O 9245   4.189   1.391  16.765 -0.3831 -0.1828 -0.5097
  624TMC3     H 9246   3.979   1.484  16.838  0.8283  2.2720  0.1121
  624TMC3    H1 9247   4.096   1.645  16.458  0.3226 -2.0717 -1.0420
  624TMC3    H2 9248   3.701   1.587  16.529  0.3172 -3.0298 -1.6922
  624TMC3    C7 9249   3.874   1.602  16.330 -0.4522  0.4359 -0.0215
  624TMC3    C8 9250   3.721   1.488  16.777  0.0928  0.7613 -0.1784
  624TMC3    O1 9251   3.944   1.685  16.275 -0.2022 -0.4370  0.0489
  624TMC3    O2 9252   3.754   1.492  16.893 -0.2211 -0.4100 -0.1827
  625MPD2     C 9253   3.597   1.914   0.162 -0.1410 -0.6426 -0.5793
  625MPD2    C1 9254   3.695   1.985   0.224  0.0781 -0.4513  0.4417
  625MPD2    C2 9255   3.703   1.971   0.363 -1.1176  0.0199 -0.0308
  625MPD2    C3 9256   3.614   1.900   0.436  0.4501  0.5245  0.0174
  625MPD2    C4 9257   3.512   1.834   0.371 -0.5420  0.2482 -0.3771
  625MPD2    C5 9258   3.518   1.830   0.235 -0.1919  0.0841  0.1158
  625MPD2     H 9259   3.773   2.033   0.417  1.2857 -3.4162  0.8088
  625MPD2    H1 9260   3.433   1.780   0.421  0.4786 -2.3509 -1.5889
  625MPD2    H2 9261   3.587   1.907   0.054 -0.6609  1.4043 -0.6560
  625MPD2    H3 9262   3.448   1.765   0.183 -0.8586  1.4341 -0.6751
  625MPD2     N 9263   3.623   1.904   0.578  0.3080 -0.8796 -0.1960
  625MPD2    H5 9264   3.705   1.949   0.616  0.5016  0.4587 -2.2448
  625MPD2    N1 9265   3.788   2.070   0.158  0.1143 -0.5366 -0.1584
  625MPD2    H7 9266   3.855   2.120   0.216  0.1846 -1.4235  0.5225
  626TMC3    C1 9267   3.866   2.213  17.692 -0.0157 -0.0263 -0.6198
  626TMC3    C2 9268   3.815   2.289  17.594  0.2589  0.3300  0.7010
  626TMC3    C3 9269   3.842   2.423  17.599 -0.0487 -0.4180  0.1456
  626TMC3    C4 9270   3.945   2.261   0.100  0.8339 -0.1957 -0.4108
  626TMC3    C5 9271   3.964   2.392   0.099 -0.1985 -0.0427 -0.9722
  626TMC3    C6 9272   3.922   2.484   0.003  0.5608  1.0141 -0.2066
  626TMC3     C 9273   3.796   2.086   0.022  0.0921  0.4659  0.0623
  626TMC3     O 9274   3.735   2.031  17.626  0.0299  0.0386  0.4153
  626TMC3     H 9275   3.751   2.245  17.518  2.1840 -0.7955 -0.2887
  626TMC3    H1 9276   3.996   2.200   0.173  0.3060 -1.1894 -0.8702
  626TMC3    H2 9277   3.946   2.589   0.005  1.7557  0.7020  1.9702
  626TMC3    C7 9278   4.004   2.451   0.229  0.1841 -0.9003 -0.3558
  626TMC3    C8 9279   3.787   2.510  17.500  0.1289  0.1557  0.4940
  626TMC3    O1 9280   4.065   2.376   0.307 -0.3150 -0.0792  0.2668
  626TMC3    O2 9281   3.860   2.599  17.463 -0.6976  0.4960 -0.1682
  627MPD2     C 9282   2.921   3.148  14.043 -0.3622 -0.2664  0.3184
  627MPD2    C1 9283   2.863   3.076  14.143  0.4894 -0.2937  0.1103
  627MPD2    C2 9284   2.799   2.957  14.106  0.3866 -0.5275 -0.2484
  627MPD2    C3 9285   2.789   2.920  13.973 -0.1881 -0.5662 -0.8003
  627MPD2    C4 9286   2.854   2.990  13.876 -0.1324  0.3826 -0.5792
  627MPD2    C5 9287   2.915   3.108  13.909 -0.3343  0.1167 -0.5457
  627MPD2     H 9288   2.757   2.901  14.189 -0.1050  0.6626  0.3081
  627MPD2    H1 9289   2.849   2.957  13.773 -1.2575 -1.1911 -0.0152
  627MPD2    H2 9290   2.977   3.239  14.063  0.2990 -0.5632 -0.1791
  627MPD2    H3 9291   2.964   3.163  13.830 -0.3797  0.7195 -0.1486
  627MPD2     N 9292   2.712   2.798  13.946 -0.3069  0.2086  0.3799
  627MPD2    H5 9293   2.649   2.774  14.022  0.0576  2.1566  1.2822
  627MPD2    N1 9294   2.872   3.122  14.274 -0.3741  0.4625 -0.1999
  627MPD2    H7 9295   2.923   3.209  14.285  2.8853 -1.4089 -0.6860
  628TMC3    C1 9296   2.918   3.098  14.497 -0.1871  0.7442  0.8359
  628TMC3    C2 9297   2.992   3.023  14.587  0.4882  0.2935 -0.0984
  628TMC3    C3 9298   3.066   3.089  14.679  0.2710  0.7076 -0.2436
  628TMC3    C4 9299   2.893   3.230  14.517 -0.6278 -0.2790  0.1708
  628TMC3    C5 9300   2.943   3.292  14.624  0.0471  0.3132  0.2974
  628TMC3    C6 9301   3.025   3.219  14.710 -0.1283  0.2885  0.2196
  628TMC3     C 9302   2.854   3.037  14.380 -0.3724 -0.0678 -0.0864
  628TMC3     O 9303   2.814   2.919  14.394 -0.0731  0.8635  0.2468
  628TMC3     H 9304   3.016   2.922  14.557  0.3811 -0.4595  2.4002
  628TMC3    H1 9305   2.815   3.283  14.462 -0.3220  1.6371  1.5898
  628TMC3    H2 9306   3.075   3.285  14.780  2.1576  1.4147 -2.4552
  628TMC3    C7 9307   2.896   3.423  14.657  0.5161 -0.2015 -0.1146
  628TMC3    C8 9308   3.207   3.078  14.671 -0.3249  0.1176 -0.4819
  628TMC3    O1 9309   2.906   3.453  14.775 -0.2839 -0.3488 -0.4487
  628TMC3    O2 9310   3.268   3.179  14.643  0.0226  0.1356  0.2436
  629MPD2     C 9311   1.076   1.814  16.216 -0.0237 -0.6982 -0.0043
  629MPD2    C1 9312   1.109   1.744  16.326  1.1187 -0.1757 -0.2451
  629MPD2    C2 9313   1.028   1.634  16.354 -0.0463  0.1904 -0.1853
  629MPD2    C3 9314   0.916   1.601  16.267 -0.7312 -0.0886  0.2164
  629MPD2    C4 9315   0.884   1.677  16.155 -0.3647  0.9871  0.2664
  629MPD2    C5 9316   0.974   1.782  16.133 -0.4464  0.1785  0.0212
  629MPD2     H 9317   1.045   1.564  16.436 -3.1609 -1.0762 -0.6041
  629MPD2    H1 9318   0.794   1.667  16.095  0.4210 -1.7801 -0.4640
  629MPD2    H2 9319   1.134   1.902  16.189 -3.5906  0.7093 -3.0976
  629MPD2    H3 9320   0.952   1.844  16.046  2.5714  3.2673  1.4668
  629MPD2     N 9321   0.845   1.475  16.293  0.7126  0.4352  0.2502
  629MPD2    H5 9322   0.871   1.428  16.380 -2.3489 -0.7352  0.5264
  629MPD2    N1 9323   1.223   1.784  16.407  0.4623  0.3572 -0.3426
  629MPD2    H7 9324   1.256   1.878  16.393 -0.4289  0.3548 -2.4138
  630TMC3    C1 9325   1.370   1.799  16.592 -0.2060  0.0099  0.7425
  630TMC3    C2 9326   1.437   1.905  16.521 -0.4334  0.7071  0.0334
  630TMC3    C3 9327   1.540   1.958  16.600  0.3568  0.3201 -0.2544
  630TMC3    C4 9328   1.398   1.767  16.724 -0.5635  0.3218 -0.1139
  630TMC3    C5 9329   1.508   1.818  16.782 -0.9601 -0.4422  0.5763
  630TMC3    C6 9330   1.577   1.914  16.718  0.5567 -0.6332 -0.0977
  630TMC3     C 9331   1.269   1.717  16.518 -0.2065  0.4052 -0.2370
  630TMC3     O 9332   1.252   1.599  16.559 -0.0319  0.2303  0.0993
  630TMC3     H 9333   1.440   1.915  16.413  1.8211  0.7652  0.0879
  630TMC3    H1 9334   1.352   1.679  16.769  1.9128 -0.1867  1.3893
  630TMC3    H2 9335   1.669   1.947  16.765 -0.3360  0.9877  0.5079
  630TMC3    C7 9336   1.554   1.757  16.909  0.0449  0.8360 -0.3219
  630TMC3    C8 9337   1.585   2.094  16.577  0.0573 -0.2873 -0.2050
  630TMC3    O1 9338   1.501   1.650  16.940 -0.5042  0.0630 -0.1392
  630TMC3    O2 9339   1.672   2.132  16.652 -0.3807  0.0525  0.3292
  631MPD2     C 9340   3.931   1.033  15.344 -0.6607  0.2277 -0.3933
  631MPD2    C1 9341   4.025   1.087  15.258  0.0198 -0.3404 -0.2319
  631MPD2    C2 9342   4.154   1.041  15.274  0.7092  0.3512  0.5545
  631MPD2    C3 9343   4.190   0.957  15.379 -0.3694 -0.5455  0.2282
  631MPD2    C4 9344   4.092   0.911  15.465  0.3092  0.6106  0.7176
  631MPD2    C5 9345   3.973   0.951  15.446  0.1915 -0.3337  0.3643
  631MPD2     H 9346   4.229   1.087  15.211  0.9239 -0.5659  0.1445
  631MPD2    H1 9347   4.110   0.856  15.556 -0.9999 -0.1449  0.5220
  631MPD2    H2 9348   3.824   1.053  15.338 -0.7299 -0.0094  0.0047
  631MPD2    H3 9349   3.894   0.914  15.511  1.6704  0.0870  2.3783
  631MPD2     N 9350   4.332   0.931  15.395 -0.1344  0.1661  0.1552
  631MPD2    H5 9351   4.382   0.983  15.325  0.2644  2.3111  2.0154
  631MPD2    N1 9352   3.982   1.171  15.161  0.2860  0.7200 -0.2195
  631MPD2    H7 9353   3.883   1.192  15.156 -0.4738 -2.3840  1.5191
  632TMC3    C1 9354   4.009   1.346  14.995 -0.3434 -0.1245 -0.0524
  632TMC3    C2 9355   3.905   1.408  15.064 -0.6403 -0.1572  0.1498
  632TMC3    C3 9356   3.918   1.546  15.078  0.0577  0.0249  0.8867
  632TMC3    C4 9357   4.103   1.420  14.929 -0.1373 -0.1902 -0.4187
  632TMC3    C5 9358   4.107   1.556  14.942  0.0217  0.6455  0.2637
  632TMC3    C6 9359   4.021   1.623  15.027  0.5120 -0.1367  0.0374
  632TMC3     C 9360   4.063   1.229  15.060 -0.4857  0.7266 -0.5447
  632TMC3     O 9361   4.178   1.195  15.028 -0.0053  0.0946 -0.3297
  632TMC3     H 9362   3.826   1.361  15.122 -1.0852 -1.7629 -1.7605
  632TMC3    H1 9363   4.169   1.368  14.859 -3.1055 -2.8119 -1.2450
  632TMC3    H2 9364   4.018   1.731  15.031 -0.0818 -0.1192 -0.7131
  632TMC3    C7 9365   4.215   1.632  14.871  0.3520  0.4650 -0.6995
  632TMC3    C8 9366   3.836   1.614  15.171 -0.1794 -0.3964  0.6839
  632TMC3    O1 9367   4.247   1.586  14.764  0.2458  0.2755 -0.1059
  632TMC3    O2 9368   3.724   1.570  15.193  0.3884 -0.1838  0.0433
  633MPD2     C 9369   3.753   4.158  17.186 -0.0835  0.6353 -0.2402
  633MPD2    C1 9370   3.796   4.124  17.054  0.4358 -0.3711 -0.1350
  633MPD2    C2 9371   3.768   3.992  17.019  0.7738  0.2645  0.3593
  633MPD2    C3 9372   3.702   3.905  17.103  0.2832  0.2155  0.2487
  633MPD2    C4 9373   3.666   3.945  17.224  0.0276 -0.2516  0.2162
  633MPD2    C5 9374   3.689   4.072  17.265 -0.0777  0.3753  0.0487
  633MPD2     H 9375   3.810   3.963  16.923  2.6354  0.0090  1.2707
  633MPD2    H1 9376   3.614   3.880  17.293  2.4348 -0.1911  2.0779
  633MPD2    H2 9377   3.794   4.250  17.225  0.4032  0.0593  0.6068
  633MPD2    H3 9378   3.659   4.089  17.368 -0.0490 -1.0856  0.2883
  633MPD2     N 9379   3.673   3.769  17.058  0.4029 -0.7308 -0.9215
  633MPD2    H5 9380   3.673   3.703  17.135 -0.3516 -0.2976 -0.5431
  633MPD2    N1 9381   3.881   4.205  16.971  0.3736  0.1193  1.2377
  633MPD2    H7 9382   3.908   4.163  16.882  0.4410 -0.8413  1.7110
  634TMC3    C1 9383   3.930   4.399  16.868 -0.3292  0.0114  0.0730
  634TMC3    C2 9384   3.985   4.331  16.762 -0.3363 -0.4514  0.7195
  634TMC3    C3 9385   3.990   4.392  16.637 -0.2499 -1.4481  0.8014
  634TMC3    C4 9386   3.868   4.519  16.843 -0.3263 -0.5530 -0.1238
  634TMC3    C5 9387   3.875   4.574  16.717  0.9170 -0.1794  0.6264
  634TMC3    C6 9388   3.921   4.506  16.604 -0.1516  0.5682  0.5223
  634TMC3     C 9389   3.895   4.337  16.989  1.7797  0.5870  0.3429
  634TMC3     O 9390   3.842   4.405  17.071 -0.5709 -0.0548 -0.3547
  634TMC3     H 9391   4.046   4.244  16.782 -0.9737 -0.8601  0.8718
  634TMC3    H1 9392   3.833   4.580  16.925 -1.5948 -0.7061 -0.5477
  634TMC3    H2 9393   3.902   4.536  16.502  0.0665 -0.6887  0.1169
  634TMC3    C7 9394   3.800   4.693  16.680 -0.0369  0.3049 -0.1385
  634TMC3    C8 9395   4.049   4.313  16.528 -0.5989 -0.2672  0.0027
  634TMC3    O1 9396   3.813   0.010  16.564  0.2137  0.0751 -0.3347
  634TMC3    O2 9397   4.077   4.196  16.549  0.2046 -0.2406  0.2597
  635TMC3    C1 9398   3.611   0.788  17.525 -0.1746  0.0889  0.0721
  635TMC3    C2 9399   3.639   0.826  17.398  0.0667 -0.2909 -0.5873
  635TMC3    C3 9400   3.572   0.761  17.299  0.4545  0.4263  0.0960
  635TMC3    C4 9401   3.509   0.705  17.555  0.1686  0.5739  0.4966
  635TMC3    C5 9402   3.456   0.629  17.451 -0.1494 -0.0348  0.0260
  635TMC3    C6 9403   3.481   0.663  17.325  0.3279 -0.3525  0.2929
  635TMC3     C 9404   3.687   0.841  17.634  0.9105  0.4137  0.0851
  635TMC3     O 9405   3.749   0.944  17.611 -0.1234 -0.2826 -0.2088
  635TMC3     H 9406   3.716   0.901  17.382  0.3931 -0.2193  1.3637
  635TMC3    H1 9407   3.477   0.697  17.658  1.2934  0.8285  0.8588
  635TMC3    H2 9408   3.446   0.605  17.240 -0.2615 -1.5716  1.3718
  635TMC3    C7 9409   3.340   0.541  17.469  0.1210 -0.1934  0.2549
  635TMC3    C8 9410   3.602   0.771  17.161  0.1972  0.4106 -0.2251
  635TMC3    O1 9411   3.271   0.518  17.374  0.1843  0.0560 -0.0651
  635TMC3    O2 9412   3.511   0.808  17.085  0.6021 -0.4724  0.8177
  636MPD2     C 9413   4.715   0.504  16.477 -0.1447 -0.2930 -0.2371
  636MPD2    C1 9414   0.120   0.481  16.425 -0.4975 -0.2335 -0.9103
  636MPD2    C2 9415   0.210   0.419  16.512  0.0407  0.4539 -0.1858
  636MPD2    C3 9416   0.168   0.358  16.630  0.0743  0.5641  0.7451
  636MPD2    C4 9417   0.034   0.368  16.672  0.0821 -0.7497 -0.1322
  636MPD2    C5 9418   4.677   0.451  16.597  0.2112 -0.2506  0.4973
  636MPD2     H 9419   0.315   0.425  16.486  0.0519 -0.0770 -0.2582
  636MPD2    H1 9420   4.705   0.324  16.756 -1.1980 -0.9702 -1.0474
  636MPD2    H2 9421   4.650   0.576  16.429 -1.2002 -1.8610 -1.1622
  636MPD2    H3 9422   4.575   0.466  16.631 -0.4112  1.1433 -2.0118
  636MPD2     N 9423   0.266   0.292  16.705 -0.1928  0.0973 -0.0835
  636MPD2    H5 9424   0.354   0.280  16.657 -0.5021 -0.6788 -0.4614
  636MPD2    N1 9425   0.168   0.543  16.310  0.2560  0.1410 -0.3634
  636MPD2    H7 9426   0.268   0.541  16.292  0.3438  2.9435 -0.1319
  637TMC3    C1 9427   0.363   0.128  16.840  0.4020 -0.7447 -0.4429
  637TMC3    C2 9428   0.489   0.177  16.804  0.0673  0.3800  0.6527
  637TMC3    C3 9429   0.603   0.100  16.776 -0.2073  0.2866  0.3900
  637TMC3    C4 9430   0.354   4.714  16.860  0.0028  0.1437 -0.4091
  637TMC3    C5 9431   0.466   4.634  16.829  0.1753  0.5940  0.2420
  637TMC3    C6 9432   0.585   4.687  16.780 -0.3539  0.6051  0.0362
  637TMC3     C 9433   0.247   0.206  16.813  0.2262 -0.0510 -0.4992
  637TMC3     O 9434   0.141   0.174  16.864  0.4736  0.0667  0.5528
  637TMC3     H 9435   0.502   0.284  16.800 -0.6423  0.4477  0.0982
  637TMC3    H1 9436   0.262   4.670  16.898  0.7026 -1.5584 -0.6835
  637TMC3    H2 9437   0.657   4.620  16.735  0.4934  1.4560  0.1257
  637TMC3    C7 9438   0.436   4.504  16.769  0.0258 -0.0033 -0.6397
  637TMC3    C8 9439   0.678   0.131  16.658 -0.3837  0.0220 -0.0875
  637TMC3    O1 9440   0.535   4.442  16.729  0.4040  0.1034  0.1237
  637TMC3    O2 9441   0.637   0.216  16.579 -0.2572 -0.1804 -0.0563
  638MPD2     C 9442   0.386   3.738  14.859  0.1658 -0.1875 -0.3430
  638MPD2    C1 9443   0.316   3.633  14.798  0.2577  0.1684 -0.8817
  638MPD2    C2 9444   0.265   3.533  14.880 -0.1799  0.0370  0.0225
  638MPD2    C3 9445   0.293   3.526  15.017  0.6519 -0.3518  0.3552
  638MPD2    C4 9446   0.360   3.625  15.071 -0.1745 -0.1173 -0.8463
  638MPD2    C5 9447   0.409   3.731  14.995  0.3305  0.2284 -0.2173
  638MPD2     H 9448   0.212   3.448  14.839 -0.1171 -1.2264  2.5550
  638MPD2    H1 9449   0.395   3.629  15.174  1.4788 -0.3999 -1.3888
  638MPD2    H2 9450   0.434   3.816  14.800  2.6567  0.0079  1.9347
  638MPD2    H3 9451   0.465   3.806  15.050 -0.8861  0.7975  0.2340
  638MPD2     N 9452   0.250   3.413  15.084 -0.7434 -0.2974 -0.5312
  638MPD2    H5 9453   0.175   3.364  15.035  0.7611 -3.4167  0.3208
  638MPD2    N1 9454   0.315   3.629  14.657  0.2532 -0.0754 -0.1701
  638MPD2    H7 9455   0.356   3.709  14.609 -0.9354  0.5541 -0.1338
  639TMC3    C1 9456   0.260   3.230  15.249 -0.3454 -0.6998  0.0810
  639TMC3    C2 9457   0.164   3.166  15.175  0.3996  0.4987 -0.0674
  639TMC3    C3 9458   0.109   3.050  15.236  0.0868 -0.5715 -0.2859
  639TMC3    C4 9459   0.318   3.174  15.353  0.0051 -0.0094  0.1064
  639TMC3    C5 9460   0.264   3.063  15.406  0.2043  0.3397  1.0262
  639TMC3    C6 9461   0.154   2.997  15.360 -0.3784  0.1336 -0.9038
  639TMC3     C 9462   0.318   3.353  15.189  0.4972 -0.2496 -0.7218
  639TMC3     O 9463   0.416   3.398  15.244  0.4056  0.3537  0.0416
  639TMC3     H 9464   0.129   3.208  15.082 -0.7179  0.5836  0.3992
  639TMC3    H1 9465   0.401   3.225  15.400 -1.3055  1.6980  0.5899
  639TMC3    H2 9466   0.127   2.902  15.406  0.5283  0.0956 -0.4454
  639TMC3    C7 9467   0.369   2.971  15.452  0.2288 -0.2582 -0.0803
  639TMC3    C8 9468   0.037   2.961  15.153 -0.4847  0.3691  0.2492
  639TMC3    O1 9469   0.340   2.875  15.520 -0.0698  0.3705  0.0327
  639TMC3    O2 9470   0.070   2.964  15.036  0.1411 -0.4871 -0.2020
  640MPD2     C 9471   1.799   2.428   9.952 -0.1247 -1.3123 -0.0886
  640MPD2    C1 9472   1.753   2.461   9.828 -0.5201  0.2686  0.1890
  640MPD2    C2 9473   1.621   2.493   9.804  0.5625  0.3254  0.6513
  640MPD2    C3 9474   1.532   2.485   9.905  0.0335  0.2374  0.2380
  640MPD2    C4 9475   1.575   2.444  10.030 -0.0641  0.5031 -0.1128
  640MPD2    C5 9476   1.706   2.423  10.055 -0.2611 -0.0897  0.2024
  640MPD2     H 9477   1.585   2.503   9.702  2.5394 -1.2409 -0.2026
  640MPD2    H1 9478   1.505   2.430  10.112  0.6712 -0.1080  0.4091
  640MPD2    H2 9479   1.899   2.400   9.983 -0.4498  2.1515  4.1271
  640MPD2    H3 9480   1.739   2.398  10.154  0.3958 -2.0211 -0.5045
  640MPD2     N 9481   1.400   2.520   9.889  0.1000 -0.1486  0.3188
  640MPD2    H5 9482   1.345   2.485   9.967  1.9605 -0.0401  1.6830
  640MPD2    N1 9483   1.847   2.449   9.721 -0.3825  0.0399 -0.1984
  640MPD2    H7 9484   1.933   2.404   9.750 -0.5533  0.7710  1.4902
  641TMC3    C1 9485   1.951   2.466   9.515 -0.4272 -0.2429  0.5620
  641TMC3    C2 9486   2.024   2.351   9.524  0.2741 -0.6518 -0.1362
  641TMC3    C3 9487   2.137   2.341   9.442  0.9237  0.5850 -0.7423
  641TMC3    C4 9488   1.967   2.556   9.411  0.2075  0.4847  0.0274
  641TMC3    C5 9489   2.074   2.533   9.322  0.3047  0.7197  0.0237
  641TMC3    C6 9490   2.158   2.423   9.341 -0.0337 -0.5200 -0.1358
  641TMC3     C 9491   1.828   2.486   9.596  0.5308  0.0295 -0.1407
  641TMC3     O 9492   1.737   2.546   9.538  0.1278 -0.5017  1.2097
  641TMC3     H 9493   2.000   2.275   9.597 -3.0717 -0.1612 -0.7385
  641TMC3    H1 9494   1.902   2.643   9.417  0.4158  0.6815 -0.5707
  641TMC3    H2 9495   2.255   2.402   9.298  0.3005  0.3015  0.2345
  641TMC3    C7 9496   2.107   2.635   9.228  0.7439  0.2197  0.1091
  641TMC3    C8 9497   2.206   2.211   9.438  0.5977  0.9383  0.1330
  641TMC3    O1 9498   2.218   2.628   9.182 -0.4586  0.3383  0.4709
  641TMC3    O2 9499   2.244   2.175   9.324  0.3111 -0.1459 -0.2949
  642TMC3    C1 9500   2.411   3.844  11.707 -0.2500  0.0726 -0.1267
  642TMC3    C2 9501   2.549   3.840  11.718  0.3193  0.2273  0.2447
  642TMC3    C3 9502   2.614   3.718  11.713 -0.1371 -0.3903 -0.4777
  642TMC3    C4 9503   2.341   3.723  11.692 -0.7395 -0.6426 -0.1858
  642TMC3    C5 9504   2.411   3.604  11.696  0.3713  0.0857  0.2782
  642TMC3    C6 9505   2.543   3.596  11.705 -0.0891  0.2293  0.2326
  642TMC3     C 9506   2.342   3.978  11.699  0.5973 -0.0220  0.3704
  642TMC3     O 9507   2.415   4.071  11.673  0.4724 -0.1556  0.1455
  642TMC3     H 9508   2.592   3.938  11.729  2.2261 -0.3573 -2.2064
  642TMC3    H1 9509   2.233   3.721  11.680 -0.7872 -1.6084  0.4111
  642TMC3    H2 9510   2.588   3.498  11.717 -0.1321  0.3228  1.1290
  642TMC3    C7 9511   2.334   3.480  11.707  0.2094 -0.6290 -0.0313
  642TMC3    C8 9512   2.750   3.711  11.769  1.0227 -0.3606  0.1725
  642TMC3    O1 9513   2.381   3.376  11.662  0.1841 -0.4482 -0.4401
  642TMC3    O2 9514   2.797   3.601  11.758 -0.3502 -0.4790  0.0927
  643TMC3    C1 9515   0.978   2.635   0.410  0.5029  0.0282  0.2169
  643TMC3    C2 9516   0.859   2.705   0.409  0.0403  0.4599 -0.1607
  643TMC3    C3 9517   0.761   2.651   0.333  0.8718 -0.4782  0.4472
  643TMC3    C4 9518   0.991   2.517   0.334  0.7604 -0.0755 -0.4542
  643TMC3    C5 9519   0.882   2.475   0.263  0.0802 -0.2925  0.6831
  643TMC3    C6 9520   0.759   2.531   0.275  0.7285 -0.9636 -0.0996
  643TMC3     C 9521   1.089   2.702   0.474  0.3700  0.7927 -0.0426
  643TMC3     O 9522   1.077   2.823   0.485  0.1941 -0.1812 -0.7695
  643TMC3     H 9523   0.842   2.804   0.448  0.2289  0.4772 -0.1242
  643TMC3    H1 9524   1.088   2.469   0.325  1.1530  0.6877 -0.3369
  643TMC3    H2 9525   0.678   2.507   0.207 -1.1200  2.3741  0.9130
  643TMC3    C7 9526   0.921   2.454   0.121  0.3418  0.7676 -0.4272
  643TMC3    C8 9527   0.662   2.738   0.276 -0.7418 -0.3354 -0.9885
  643TMC3    O1 9528   1.032   2.495   0.090 -0.7363  0.6061 -0.1450
  643TMC3    O2 9529   0.555   2.684   0.246  0.8497 -0.2404 -0.1797
  644MPD2     C 9530   2.204   3.569   9.237 -0.8292  0.0461 -0.5988
  644MPD2    C1 9531   2.133   3.453   9.235 -0.2784 -0.7504 -0.5962
  644MPD2    C2 9532   1.993   3.462   9.222  0.5079 -0.1650  0.0984
  644MPD2    C3 9533   1.936   3.587   9.207  0.0647 -0.1503  0.2908
  644MPD2    C4 9534   2.007   3.701   9.226 -0.0111 -0.7199 -0.5551
  644MPD2    C5 9535   2.143   3.689   9.243  0.2261 -0.0803  0.0387
  644MPD2     H 9536   1.926   3.378   9.217  1.3477 -0.8054 -0.4359
  644MPD2    H1 9537   1.974   3.805   9.232  1.2941 -0.5010  2.4871
  644MPD2    H2 9538   2.312   3.565   9.251 -1.0964 -1.7301  1.0271
  644MPD2    H3 9539   2.207   3.775   9.260  0.0187  0.2411 -0.8024
  644MPD2     N 9540   1.794   3.597   9.182  0.0729  0.4042  0.3040
  644MPD2    H5 9541   1.743   3.510   9.169 -0.6434  0.8229  0.3164
  644MPD2    N1 9542   2.194   3.336   9.276 -0.2002 -0.2807  0.4720
  644MPD2    H7 9543   2.292   3.342   9.303 -0.5441  0.7846  1.5284
  645TMC3    C1 9544   1.599   3.697   9.081  0.5649  0.7130 -0.0771
  645TMC3    C2 9545   1.532   3.580   9.092  0.2893  0.5186  0.0491
  645TMC3    C3 9546   1.406   3.578   9.027 -0.2763 -0.1902 -0.2548
  645TMC3    C4 9547   1.556   3.810   9.014  0.8973  0.8236 -0.1014
  645TMC3    C5 9548   1.432   3.804   8.953  0.9923 -0.2593  0.9138
  645TMC3    C6 9549   1.356   3.685   8.958  0.2116  0.2027  0.0634
  645TMC3     C 9550   1.725   3.716   9.151 -0.6195 -0.0406  0.4752
  645TMC3     O 9551   1.769   3.829   9.150  0.3121  0.2094 -0.1503
  645TMC3     H 9552   1.575   3.487   9.129 -2.3342 -1.2025 -1.2308
  645TMC3    H1 9553   1.611   3.904   9.012  3.1178 -0.4684 -0.1301
  645TMC3    H2 9554   1.256   3.690   8.918 -0.5101  0.9668  1.9477
  645TMC3    C7 9555   1.411   3.909   8.852  0.6480  0.3113 -0.0312
  645TMC3    C8 9556   1.337   3.449   9.034 -0.6318 -0.1510 -0.1902
  645TMC3    O1 9557   1.479   4.010   8.870 -0.0752 -0.0173  0.4677
  645TMC3    O2 9558   1.405   3.346   9.060  0.2832 -0.2338  0.0650
  646MPD2     C 9559   0.532   2.265  14.813 -0.5925 -0.2923  0.1623
  646MPD2    C1 9560   0.428   2.273  14.900  0.1117 -0.6969  0.0232
  646MPD2    C2 9561   0.306   2.309  14.856  0.3728 -0.0813 -0.7060
  646MPD2    C3 9562   0.295   2.350  14.717  0.1602  0.0897 -0.5318
  646MPD2    C4 9563   0.404   2.358  14.637  0.3338  0.1814 -0.4919
  646MPD2    C5 9564   0.527   2.319  14.687 -0.4083  0.1351  0.9668
  646MPD2     H 9565   0.217   2.305  14.918  0.7586  0.3412 -0.1148
  646MPD2    H1 9566   0.386   2.392  14.536  1.9980  2.6414  0.0514
  646MPD2    H2 9567   0.626   2.226  14.850 -0.0510  1.9544  1.1780
  646MPD2    H3 9568   0.610   2.338  14.619 -1.2550  2.3583  0.5365
  646MPD2     N 9569   0.153   2.363  14.681 -0.0594  0.3148  0.6758
  646MPD2    H5 9570   0.087   2.345  14.756 -1.2823  0.3693 -0.3841
  646MPD2    N1 9571   0.459   2.227  15.034  0.3173 -0.0934 -0.4926
  646MPD2    H7 9572   0.557   2.215  15.061 -0.4781 -1.5417  1.7980
  647TMC3    C1 9573   0.437   2.132  15.249 -0.3134 -0.2866 -0.1430
  647TMC3    C2 9574   0.381   2.019  15.301  0.1490 -0.5155  0.1732
  647TMC3    C3 9575   0.445   1.945  15.397  0.2137 -0.0450  0.6903
  647TMC3    C4 9576   0.565   2.170  15.280  0.0437  0.0140  0.2892
  647TMC3    C5 9577   0.625   2.103  15.379 -0.7030  0.6034 -0.7452
  647TMC3    C6 9578   0.569   1.989  15.426  0.1801 -0.2716  0.2926
  647TMC3     C 9579   0.371   2.190  15.130 -0.7829 -0.0301  1.2648
  647TMC3     O 9580   0.250   2.190  15.128 -0.3992  0.2284 -0.6242
  647TMC3     H 9581   0.288   1.994  15.250 -0.4856 -1.1679  1.6643
  647TMC3    H1 9582   0.606   2.263  15.243  0.1009 -1.0817 -2.3787
  647TMC3    H2 9583   0.622   1.938  15.506 -1.0624 -2.0887 -0.0682
  647TMC3    C7 9584   0.772   2.109  15.392 -1.0562  0.1630  0.3898
  647TMC3    C8 9585   0.416   1.805  15.417 -0.1527  0.3353 -0.2138
  647TMC3    O1 9586   0.838   2.008  15.369  0.3157  0.0816 -0.5048
  647TMC3    O2 9587   0.476   1.750  15.510 -0.5516  0.1322  0.1551
  648TMC3    C1 9588   4.499   4.526  15.888 -1.6426  0.1188 -0.1965
  648TMC3    C2 9589   4.528   4.408  15.821  0.0774  0.2309 -0.3549
  648TMC3    C3 9590   4.461   4.388  15.706 -0.2692  0.6430 -0.3467
  648TMC3    C4 9591   4.396   4.615  15.853  0.4667  0.3084 -0.6933
  648TMC3    C5 9592   4.328   4.585  15.740 -0.2671 -0.9397  0.0446
  648TMC3    C6 9593   4.352   4.466  15.675  0.8590  0.3322 -0.0675
  648TMC3     C 9594   4.542   4.531  16.023  0.0293  0.2682  0.0489
  648TMC3     O 9595   4.510   4.641  16.074  0.3614  0.1637  0.6697
  648TMC3     H 9596   4.614   4.344  15.841 -0.2150 -0.0964 -0.1614
  648TMC3    H1 9597   4.388   4.711  15.902  0.0202 -0.5470  0.9051
  648TMC3    H2 9598   4.295   4.435  15.588 -0.6637 -0.4120  1.1876
  648TMC3    C7 9599   4.245   4.679  15.670 -0.0040 -1.0327 -0.4103
  648TMC3    C8 9600   4.451   4.252  15.666  0.2726 -0.0522 -0.1642
  648TMC3    O1 9601   4.241   4.665  15.551 -0.2630  0.0218  0.3400
  648TMC3    O2 9602   4.347   4.220  15.614 -0.0832  0.2149 -0.4386
  649TMC3    C1 9603   3.451   1.350  12.687 -0.1169 -0.4568  0.0941
  649TMC3    C2 9604   3.585   1.322  12.664  0.5561 -0.0823 -0.1393
  649TMC3    C3 9605   3.662   1.266  12.761 -0.0012 -0.6211  0.5345
  649TMC3    C4 9606   3.398   1.337  12.808 -0.1437 -0.4512  0.2922
  649TMC3    C5 9607   3.466   1.261  12.899 -0.2690  0.0401  0.0965
  649TMC3    C6 9608   3.595   1.227  12.872  0.1060 -0.7891  0.1754
  649TMC3     C 9609   3.364   1.390  12.578  0.2169  0.6376  0.2834
  649TMC3     O 9610   3.260   1.435  12.609  0.7396  0.1833 -0.0216
  649TMC3     H 9611   3.632   1.359  12.574 -0.7320 -0.0607 -0.8048
  649TMC3    H1 9612   3.291   1.349  12.813  0.0379  1.7245 -1.1864
  649TMC3    H2 9613   3.646   1.160  12.940 -3.7893 -2.3131  1.5805
  649TMC3    C7 9614   3.378   1.186  12.992 -0.7103 -0.2842 -0.7995
  649TMC3    C8 9615   3.802   1.301  12.768  0.7731  0.3841  0.8012
  649TMC3    O1 9616   3.269   1.229  13.029 -0.0947 -0.0641  0.3888
  649TMC3    O2 9617   3.848   1.376  12.683 -0.3583 -0.0138  0.7907
  650TMC3    C1 9618   1.519   2.803  12.357  0.1785 -0.2181 -0.6469
  650TMC3    C2 9619   1.575   2.905  12.292 -0.4105 -0.2920  0.3367
  650TMC3    C3 9620   1.538   2.927  12.162 -0.1533 -0.5621  1.3140
  650TMC3    C4 9621   1.420   2.724  12.301  0.5821 -0.7456  0.4778
  650TMC3    C5 9622   1.389   2.748  12.172  0.0902  0.1332 -0.1357
  650TMC3    C6 9623   1.459   2.840  12.091  0.0478  0.4386 -0.5766
  650TMC3     C 9624   1.586   2.767  12.477  0.2828 -0.4468  0.5177
  650TMC3     O 9625   1.637   2.857  12.546 -0.3248 -0.4418  0.4010
  650TMC3     H 9626   1.659   2.959  12.334 -0.6326  2.0770 -2.2497
  650TMC3    H1 9627   1.356   2.667  12.368  0.6261  2.3469  3.1211
  650TMC3    H2 9628   1.445   2.835  11.984  1.5306  1.9972 -0.8393
  650TMC3    C7 9629   1.266   2.688  12.119  0.6135  0.2726 -0.1669
  650TMC3    C8 9630   1.535   3.064  12.115 -0.4895 -0.8608  0.1585
  650TMC3    O1 9631   1.242   2.570  12.139  0.5918 -0.1173 -0.1224
  650TMC3    O2 9632   1.604   3.141  12.180  0.2771  0.3438  0.5131
  651MPD2     C 9633   0.389   0.154  10.353 -0.5303  0.1685  0.1443
  651MPD2    C1 9634   0.413   0.256  10.441 -0.2032  0.3523 -0.1307
  651MPD2    C2 9635   0.544   0.297  10.455 -0.4124 -0.2632 -0.2636
  651MPD2    C3 9636   0.645   0.246  10.372  0.1847 -1.3733 -0.1542
  651MPD2    C4 9637   0.612   0.155  10.277 -0.0970 -0.0728  0.0484
  651MPD2    C5 9638   0.490   0.102  10.279 -0.0623 -0.0141 -0.2900
  651MPD2     H 9639   0.568   0.371  10.531 -2.7043  2.3300 -2.0620
  651MPD2    H1 9640   0.686   0.120  10.205 -0.3495 -1.2355  0.3589
  651MPD2    H2 9641   0.297   0.099  10.339  0.0169 -0.3998 -1.1809
  651MPD2    H3 9642   0.486   0.014  10.216 -1.6304 -1.6287  2.0717
  651MPD2     N 9643   0.781   0.299  10.383  0.8800  0.1455 -0.1970
  651MPD2    H5 9644   0.794   0.383  10.438  0.9050  1.5894 -2.4322
  651MPD2    N1 9645   0.303   0.323  10.504 -0.0020  0.1805 -0.0914
  651MPD2    H7 9646   0.316   0.413  10.549 -1.6484  1.3473 -1.9501
  652TMC3    C1 9647   1.238   0.379  10.259 -1.0659  0.6729  0.6676
  652TMC3    C2 9648   1.125   0.298  10.261  0.5150 -0.3740 -0.3098
  652TMC3    C3 9649   1.008   0.339  10.322  0.2111  0.1240  0.6704
  652TMC3    C4 9650   1.234   0.502  10.313 -0.4377 -0.2286  0.0840
  652TMC3    C5 9651   1.115   0.536  10.365 -0.4090 -0.1738 -0.3089
  652TMC3    C6 9652   0.999   0.470  10.373 -0.1137  0.0362  0.4519
  652TMC3     C 9653   1.357   0.311  10.308 -0.3632  0.2397 -0.8231
  652TMC3     O 9654   1.356   0.251  10.413 -0.1447  0.6624  0.0395
  652TMC3     H 9655   1.130   0.200  10.215  2.4514 -0.2088 -0.4466
  652TMC3    H1 9656   1.328   0.554  10.327 -0.3357 -0.0184 -1.4291
  652TMC3    H2 9657   0.907   0.503  10.419 -0.2026 -0.8891  0.9334
  652TMC3    C7 9658   1.112   0.665  10.451  0.4417 -0.2171  0.2409
  652TMC3    C8 9659   0.885   0.262  10.306  0.0583  0.6606 -0.0032
  652TMC3    O1 9660   1.006   0.680  10.516 -0.2542 -0.0148 -0.1073
  652TMC3    O2 9661   0.895   0.172  10.226  0.2812  0.5130 -0.1775
  653MPD2     C 9662   3.352   4.216  17.443 -0.1873 -0.2833 -0.3143
  653MPD2    C1 9663   3.351   4.325  17.359 -0.1116  0.1504 -0.2720
  653MPD2    C2 9664   3.339   4.287  17.227 -0.6126 -0.8449 -0.2961
  653MPD2    C3 9665   3.332   4.156  17.174  0.5590 -0.3131 -0.2210
  653MPD2    C4 9666   3.317   4.053  17.268  0.3497  0.4946  0.6975
  653MPD2    C5 9667   3.345   4.086  17.402  0.1067  0.3959  0.7440
  653MPD2     H 9668   3.347   4.373  17.160 -1.9464 -0.7238 -0.3165
  653MPD2    H1 9669   3.304   3.947  17.250 -0.1808  0.5285  0.8993
  653MPD2    H2 9670   3.382   4.227  17.547  1.0012 -0.7061 -0.6115
  653MPD2    H3 9671   3.344   3.999  17.467  0.6540 -0.3622 -0.2563
  653MPD2     N 9672   3.345   4.132  17.036 -0.1584  0.2354  0.2360
  653MPD2    H5 9673   3.353   4.213  16.976  0.4574  2.2555  3.0546
  653MPD2    N1 9674   3.382   4.455  17.399  0.4415  0.3444  0.4145
  653MPD2    H7 9675   3.403   4.531  17.334 -2.9014  0.9552  0.0576
  654TMC3    C1 9676   3.328   4.008  16.840 -0.3088  0.1535  0.2786
  654TMC3    C2 9677   3.243   4.106  16.798 -0.2676  0.9889 -0.1038
  654TMC3    C3 9678   3.183   4.086  16.676 -0.4207  0.1100  0.1880
  654TMC3    C4 9679   3.348   3.892  16.775  0.5315  0.2948 -0.6081
  654TMC3    C5 9680   3.272   3.868  16.668  0.3143  0.5342  0.0699
  654TMC3    C6 9681   3.180   3.962  16.617  0.3431 -0.1729 -0.1616
  654TMC3     C 9682   3.350   4.008  16.981 -0.2597 -0.2263 -0.0784
  654TMC3     O 9683   3.379   3.900  17.029 -0.3353  0.5025 -0.1487
  654TMC3     H 9684   3.226   4.205  16.839 -0.2278  1.1406 -0.4511
  654TMC3    H1 9685   3.421   3.816  16.802 -0.2694 -0.1827  0.2065
  654TMC3    H2 9686   3.115   3.946  16.532 -0.2445  0.1333  0.2310
  654TMC3    C7 9687   3.301   3.761  16.573  0.2267 -0.5656 -0.9834
  654TMC3    C8 9688   3.145   4.204  16.601  1.0512  0.0911 -0.5094
  654TMC3    O1 9689   3.258   3.783  16.460 -0.0390 -0.0632  0.2902
  654TMC3    O2 9690   3.133   4.313  16.655 -0.3018 -0.6773 -0.0481
  655MPD2     C 9691   0.082   4.596  15.694  0.1454 -0.8945  0.0160
  655MPD2    C1 9692   4.709   4.675  15.628  0.4612 -0.5751  0.2775
  655MPD2    C2 9693   4.655   4.632  15.505 -0.1618 -0.3498 -0.0914
  655MPD2    C3 9694   4.701   4.518  15.445 -0.0956  0.3226  0.2597
  655MPD2    C4 9695   0.074   4.441  15.511 -0.0569 -0.2687  0.1688
  655MPD2    C5 9696   0.124   4.477  15.635  0.2444 -0.0570  0.2226
  655MPD2     H 9697   4.578   4.692  15.457  1.0691  1.1325 -0.1781
  655MPD2    H1 9698   0.117   4.347  15.479 -0.1221 -0.2117 -0.0842
  655MPD2    H2 9699   0.127   4.631  15.786 -0.0462  2.5742 -1.2201
  655MPD2    H3 9700   0.206   4.422  15.682  0.4863 -0.8799 -1.1459
  655MPD2     N 9701   4.655   4.464  15.321  0.5326  0.1020  0.2144
  655MPD2    H5 9702   4.712   4.388  15.285 -1.0833 -0.6626 -0.7472
  655MPD2    N1 9703   4.663   0.075  15.674  0.5344  0.3403  0.3405
  655MPD2    H7 9704   4.604   0.136  15.619  0.3372  0.8005  1.0580
  656TMC3    C1 9705   4.593   0.244  15.824 -0.2162 -0.3800  0.1102
  656TMC3    C2 9706   4.525   0.230  15.940 -0.4512  0.3988  0.4066
  656TMC3    C3 9707   4.410   0.295  15.946  0.1746  0.0096 -0.0563
  656TMC3    C4 9708   4.549   0.301  15.707  0.0212 -0.3041  0.0775
  656TMC3    C5 9709   4.434   0.366  15.716 -0.0735  0.6431 -0.0421
  656TMC3    C6 9710   4.369   0.366  15.836  0.1571 -0.2864  0.0224
  656TMC3     C 9711   4.678   0.125  15.799  0.2407 -0.4689  0.1279
  656TMC3     O 9712   0.017   0.084  15.894 -0.2354  0.2647 -0.3689
  656TMC3     H 9713   4.560   0.169  16.023  0.4868 -0.4729 -0.6323
  656TMC3    H1 9714   4.612   0.318  15.620 -0.9905 -1.1960 -0.8379
  656TMC3    H2 9715   4.270   0.407  15.850  0.9067  1.4308  0.2595
  656TMC3    C7 9716   4.374   0.420  15.592 -0.7454  0.5287 -0.6782
  656TMC3    C8 9717   4.299   0.251  16.031 -0.0459 -0.6559  0.2001
  656TMC3    O1 9718   4.435   0.394  15.492  0.3404  0.3726  0.2803
  656TMC3    O2 9719   4.290   0.132  16.046  0.0437  0.2118  0.5740
  657TMC3    C1 9720   3.948   3.785  14.414 -0.2530 -0.2243  0.6637
  657TMC3    C2 9721   3.859   3.824  14.505  0.5181  0.3964  0.0216
  657TMC3    C3 9722   3.774   3.924  14.462 -0.2252  0.1642 -0.0894
  657TMC3    C4 9723   3.964   3.834  14.286  0.4639 -0.6429  0.1928
  657TMC3    C5 9724   3.885   3.946  14.258 -0.7563 -0.1594 -0.1904
  657TMC3    C6 9725   3.788   3.992  14.347 -0.2632 -0.8392 -0.1335
  657TMC3     C 9726   4.046   3.676  14.446 -1.2328  0.1934 -0.1096
  657TMC3     O 9727   4.136   3.673  14.367 -1.0229  0.3662 -0.0532
  657TMC3     H 9728   3.860   3.792  14.609 -0.0946 -0.3051 -0.1864
  657TMC3    H1 9729   4.044   3.807  14.218 -0.2675 -0.3578 -0.7744
  657TMC3    H2 9730   3.724   4.072  14.314 -0.3545 -1.7353 -2.1678
  657TMC3    C7 9731   3.938   4.039  14.162  0.0411 -0.9495  0.2036
  657TMC3    C8 9732   3.691   3.985  14.565  0.8832 -0.5803 -0.1121
  657TMC3    O1 9733   3.909   4.157  14.181 -0.2526  0.3359 -0.4141
  657TMC3    O2 9734   3.689   4.106  14.573  0.3993 -0.4798 -0.6907
  658MPD2     C 9735   0.349   4.184  14.924 -0.4934  0.2666  0.6462
  658MPD2    C1 9736   0.276   4.268  14.847  0.7296  0.2843 -0.0010
  658MPD2    C2 9737   0.320   4.297  14.723  0.1259 -0.5225 -0.7745
  658MPD2    C3 9738   0.436   4.241  14.672 -0.4275 -0.5587  0.3057
  658MPD2    C4 9739   0.505   4.153  14.758  0.1548 -0.7958 -0.0304
  658MPD2    C5 9740   0.458   4.117  14.883  0.0683 -0.4370  0.8232
  658MPD2     H 9741   0.265   4.359  14.653  1.4769 -0.4741 -1.8095
  658MPD2    H1 9742   0.592   4.102  14.719 -0.6762 -1.2783 -1.2901
  658MPD2    H2 9743   0.307   4.165  15.022 -1.1550 -1.7396 -0.0118
  658MPD2    H3 9744   0.513   4.057  14.955  0.3627  0.4498  1.3379
  658MPD2     N 9745   0.467   4.273  14.537 -0.3039  0.6206 -0.2860
  658MPD2    H5 9746   0.399   4.328  14.486 -1.9530  1.0701  2.4121
  658MPD2    N1 9747   0.153   4.305  14.892  0.6636  0.4498  0.0080
  658MPD2    H7 9748   0.130   4.283  14.988 -0.7030  0.8655 -0.2247
  659TMC3    C1 9749   4.662   4.410  14.907  0.2406 -0.3683  0.7142
  659TMC3    C2 9750   4.667   4.420  15.042 -0.0436  0.3332 -0.4318
  659TMC3    C3 9751   4.553   4.462  15.103  0.1975  0.4329  0.7116
  659TMC3    C4 9752   4.556   4.442  14.827  0.2658 -0.3902 -0.4849
  659TMC3    C5 9753   4.449   4.488  14.886 -0.1367  0.3844  0.1935
  659TMC3    C6 9754   4.452   4.504  15.021  0.0349 -0.6036 -0.3624
  659TMC3     C 9755   0.064   4.395  14.832  0.2082  0.3118  0.0628
  659TMC3     O 9756   0.080   4.463  14.729 -0.0372  0.3726 -0.0867
  659TMC3     H 9757   0.039   4.418  15.096 -0.3711 -0.5588  0.1015
  659TMC3    H1 9758   4.551   4.415  14.722  0.0296 -0.9691 -0.3238
  659TMC3    H2 9759   4.365   4.525  15.081  1.9618  0.4131  2.0791
  659TMC3    C7 9760   4.319   4.446  14.841  0.2533  0.1823  0.3644
  659TMC3    C8 9761   4.550   4.505  15.242 -0.4060 -0.0239 -0.8665
  659TMC3    O1 9762   4.232   4.422  14.922 -0.1417  0.5132  0.2015
  659TMC3    O2 9763   4.475   4.596  15.267  0.5211  0.0291  0.1732
  660MPD2     C 9764   3.486   4.052  12.286  0.5713 -0.9574 -0.4189
  660MPD2    C1 9765   3.450   3.926  12.244 -0.1375 -0.2818 -0.5574
  660MPD2    C2 9766   3.398   3.835  12.333  0.5124  0.1439  0.4052
  660MPD2    C3 9767   3.383   3.876  12.469 -0.4653 -0.7120 -0.9381
  660MPD2    C4 9768   3.410   4.005  12.509  0.7703 -0.1418  0.1442
  660MPD2    C5 9769   3.466   4.085  12.413  0.3557  0.5605 -0.1029
  660MPD2     H 9770   3.361   3.737  12.307 -1.3401  0.5107  1.6649
  660MPD2    H1 9771   3.397   4.038  12.611 -1.7176 -0.0134 -0.2143
  660MPD2    H2 9772   3.526   4.131  12.223 -2.3657 -0.2730 -1.4121
  660MPD2    H3 9773   3.500   4.183  12.445  1.5726 -0.4303  1.6735
  660MPD2     N 9774   3.301   3.803  12.558 -0.5812 -0.2256 -0.4738
  660MPD2    H5 9775   3.266   3.858  12.635  0.6933 -0.1081  0.0099
  660MPD2    N1 9776   3.453   3.904  12.111 -0.1258  0.6392  0.3290
  660MPD2    H7 9777   3.481   3.983  12.053 -1.1625  0.5534 -0.3002
  661TMC3    C1 9778   3.451   3.805  11.901 -0.1907 -0.2815 -0.4939
  661TMC3    C2 9779   3.500   3.710  11.814  0.4452  0.1122 -0.4139
  661TMC3    C3 9780   3.453   3.706  11.690  0.5651 -0.3284  0.3431
  661TMC3    C4 9781   3.364   3.902  11.848  0.4837  0.6135 -0.4440
  661TMC3    C5 9782   3.318   3.894  11.715  0.1661 -0.1503  0.0218
  661TMC3    C6 9783   3.355   3.786  11.640  0.5031  0.8045 -0.2875
  661TMC3     C 9784   3.448   3.784  12.050  0.0481  0.5714 -0.4713
  661TMC3     O 9785   3.430   3.667  12.095 -0.3135 -0.1942  0.2201
  661TMC3     H 9786   3.558   3.628  11.856 -0.2020 -0.0171  0.2403
  661TMC3    H1 9787   3.310   3.971  11.911 -0.9848  0.3934 -1.4553
  661TMC3    H2 9788   3.319   3.770  11.539 -2.0118 -2.0992  1.0774
  661TMC3    C7 9789   3.202   3.972  11.677 -0.2522  0.0393 -0.2769
  661TMC3    C8 9790   3.519   3.618  11.593  0.0568  0.4469  0.2062
  661TMC3    O1 9791   3.193   4.088  11.721  0.0066  0.0216 -0.1805
  661TMC3    O2 9792   3.458   3.594  11.486 -0.2010 -0.4189 -0.2036
  662MPD2     C 9793   3.504   2.695   0.047 -0.6377 -0.1440  0.4843
  662MPD2    C1 9794   3.470   2.712   0.181  0.4506  0.3764 -0.2789
  662MPD2    C2 9795   3.383   2.815   0.222  0.6916  0.7714  0.4248
  662MPD2    C3 9796   3.337   2.908   0.130 -0.3119  0.2785  0.2835
  662MPD2    C4 9797   3.379   2.894  17.690  0.5729  0.8134  0.3478
  662MPD2    C5 9798   3.464   2.792  17.651 -0.0921 -0.1002 -0.3316
  662MPD2     H 9799   3.345   2.802   0.323  1.7600 -1.4034  0.5510
  662MPD2    H1 9800   3.362   2.968  17.614  1.0355 -0.5768 -1.1014
  662MPD2    H2 9801   3.574   2.621   0.011 -0.0568 -0.0039  1.3104
  662MPD2    H3 9802   3.492   2.777  17.548 -1.8151  1.5927 -1.0435
  662MPD2     N 9803   3.220   2.991   0.152  0.1164 -0.3511  0.2474
  662MPD2    H5 9804   3.162   3.029   0.078  0.5146 -1.1758 -0.4951
  662MPD2    N1 9805   3.513   2.615   0.278 -0.6638 -0.8707 -0.0017
  662MPD2    H7 9806   3.476   2.634   0.371  2.3045 -0.1525  1.0413
  663TMC3    C1 9807   3.584   2.421   0.366 -0.4845 -0.0513 -0.1058
  663TMC3    C2 9808   3.586   2.493   0.482  0.6792 -0.2777 -0.0889
  663TMC3    C3 9809   3.492   2.477   0.582 -0.3514 -0.3047 -0.0486
  663TMC3    C4 9810   3.497   2.313   0.352  0.6726 -0.4300  0.3996
  663TMC3    C5 9811   3.405   2.292   0.453  0.3606 -0.2790  0.0067
  663TMC3    C6 9812   3.412   2.364   0.576  0.0255 -0.2190  0.4712
  663TMC3     C 9813   3.596   2.504   0.256 -0.2435  0.9028 -0.4074
  663TMC3     O 9814   3.629   2.455   0.148 -0.2411 -0.7440  0.2898
  663TMC3     H 9815   3.642   2.586   0.490 -0.0097  0.1264  0.0804
  663TMC3    H1 9816   3.485   2.249   0.265  0.7219 -1.8003  1.3975
  663TMC3    H2 9817   3.327   2.356   0.643  0.1837  0.2323  0.7292
  663TMC3    C7 9818   3.323   2.176   0.461  0.1376  0.9976 -0.6099
  663TMC3    C8 9819   3.401   2.596   0.599  0.0870 -0.2296  0.4272
  663TMC3    O1 9820   3.309   2.115   0.570  0.3198 -0.3004 -0.2953
  663TMC3    O2 9821   3.400   2.679   0.507 -0.5543  0.1410 -0.1850
  664MPD2     C 9822   1.223   0.881  17.582  0.8955 -0.4820 -0.3833
  664MPD2    C1 9823   1.334   0.944  17.625  0.7997 -0.8241 -0.0871
  664MPD2    C2 9824   1.415   0.879   0.022 -1.1672  0.4778 -0.1136
  664MPD2    C3 9825   1.368   0.755   0.074  0.2685  0.1238 -0.2777
  664MPD2    C4 9826   1.259   0.688   0.018  1.2601 -0.0235  0.3445
  664MPD2    C5 9827   1.193   0.751  17.612 -0.1983 -0.0970 -0.1643
  664MPD2     H 9828   1.498   0.932   0.067 -1.5049 -0.0936  1.1537
  664MPD2    H1 9829   1.232   0.584   0.032  1.2213 -0.2281 -1.3386
  664MPD2    H2 9830   1.157   0.933  17.513 -1.2449 -0.2263  1.8896
  664MPD2    H3 9831   1.102   0.704  17.576  0.0349 -0.7133  0.0455
  664MPD2     N 9832   1.449   0.699   0.177 -0.5030 -0.4723 -0.1445
  664MPD2    H5 9833   1.529   0.754   0.206 -0.6903 -1.4758  2.3020
  664MPD2    N1 9834   1.379   1.072  17.583 -0.4423  1.0113  0.2425
  664MPD2    H7 9835   1.447   1.117  17.642 -1.1933  0.1844  1.7402
  665TMC3    C1 9836   1.502   0.550   0.361 -0.9177  0.1071 -0.5518
  665TMC3    C2 9837   1.435   0.503   0.471 -0.4543  0.1340 -0.3012
  665TMC3    C3 9838   1.478   0.558   0.592  0.2532  0.4345  0.7145
  665TMC3    C4 9839   1.606   0.639   0.372  0.0020 -0.6181  0.1990
  665TMC3    C5 9840   1.630   0.696   0.490  0.0743  0.2418 -0.5081
  665TMC3    C6 9841   1.568   0.659   0.603 -0.1644  0.3030  0.5600
  665TMC3     C 9842   1.421   0.580   0.241  0.0336  0.3215 -0.0045
  665TMC3     O 9843   1.323   0.506   0.238 -0.2482  0.2253 -0.3136
  665TMC3     H 9844   1.357   0.429   0.453  0.1009 -1.1176  2.5099
  665TMC3    H1 9845   1.664   0.652   0.280  0.8414  0.8461  0.9401
  665TMC3    H2 9846   1.591   0.701   0.701  0.4788  2.2202 -0.4126
  665TMC3    C7 9847   1.640   0.839   0.470  0.0190 -0.3203  0.0996
  665TMC3    C8 9848   1.392   0.537   0.708 -0.5239  1.0054  0.2473
  665TMC3    O1 9849   1.602   0.878   0.358  0.3675 -0.2283 -0.3254
  665TMC3    O2 9850   1.410   0.616   0.798  0.8823 -0.0834 -0.4084
  666TMC3    C1 9851   1.056   1.261   9.891 -0.7086 -0.3121  0.1521
  666TMC3    C2 9852   1.185   1.217   9.913  0.3560  0.2459  0.3085
  666TMC3    C3 9853   1.279   1.311   9.911 -0.0973  0.5064 -1.3032
  666TMC3    C4 9854   1.023   1.395   9.866 -0.3255 -0.6995 -0.2248
  666TMC3    C5 9855   1.128   1.487   9.855 -0.6180 -0.5519 -0.3230
  666TMC3    C6 9856   1.254   1.445   9.886  0.8713  0.1014  0.1427
  666TMC3     C 9857   0.942   1.180   9.944  0.2138 -0.0772 -0.5563
  666TMC3     O 9858   0.959   1.061   9.934 -0.6151  0.4552  0.3235
  666TMC3     H 9859   1.208   1.113   9.931 -1.5339 -0.3802 -0.8315
  666TMC3    H1 9860   0.923   1.418   9.832 -0.8255 -1.8651  0.4555
  666TMC3    H2 9861   1.331   1.517   9.862 -0.8740  2.2973  1.1826
  666TMC3    C7 9862   1.094   1.625   9.860  0.0060  0.1095  0.2213
  666TMC3    C8 9863   1.392   1.274   9.986 -0.1108 -0.7281  0.2083
  666TMC3    O1 9864   0.977   1.652   9.891  0.3628 -0.8107  0.0853
  666TMC3    O2 9865   1.377   1.197  10.078  0.3446  0.1012 -0.2086
  667MPD2     C 9866   2.618   1.252  14.368  0.2933 -0.4612  1.4134
  667MPD2    C1 9867   2.508   1.300  14.452  0.7004 -0.1589  0.1071
  667MPD2    C2 9868   2.410   1.209  14.473  0.3893 -0.6274  0.1359
  667MPD2    C3 9869   2.412   1.084  14.421  0.0099 -0.0206  0.6232
  667MPD2    C4 9870   2.514   1.042  14.345 -0.0503  0.0562  0.2685
  667MPD2    C5 9871   2.621   1.124  14.318 -0.1363 -0.3773  0.1808
  667MPD2     H 9872   2.321   1.248  14.522  0.5158 -0.4218  0.2024
  667MPD2    H1 9873   2.511   0.947  14.292  3.3711  0.7388 -1.1853
  667MPD2    H2 9874   2.705   1.312  14.345 -2.0081  1.3539 -2.4268
  667MPD2    H3 9875   2.708   1.095  14.261  0.2007  0.1853  0.4083
  667MPD2     N 9876   2.302   0.994  14.426 -0.1793  0.0796  0.0684
  667MPD2    H5 9877   2.316   0.904  14.382 -1.0288 -0.2755  0.5108
  667MPD2    N1 9878   2.505   1.428  14.503 -0.2683  0.8785  0.4065
  667MPD2    H7 9879   2.438   1.444  14.578 -0.9564  1.6671 -0.3744
  668TMC3    C1 9880   2.586   1.633  14.602 -0.4962  0.2722 -0.4794
  668TMC3    C2 9881   2.624   1.765  14.568 -0.1057 -0.7029  0.4934
  668TMC3    C3 9882   2.612   1.868  14.661  0.4751  0.1224  0.1888
  668TMC3    C4 9883   2.545   1.600  14.727  0.2267  1.2979  0.2733
  668TMC3    C5 9884   2.553   1.703  14.822 -0.6114  0.2429 -0.0016
  668TMC3    C6 9885   2.589   1.833  14.794 -1.2368  0.2025  0.4679
  668TMC3     C 9886   2.598   1.535  14.495 -1.0666  0.1072 -0.3307
  668TMC3     O 9887   2.709   1.530  14.444  0.1684  0.0203 -0.2868
  668TMC3     H 9888   2.658   1.788  14.467  1.7820 -1.6904  0.9210
  668TMC3    H1 9889   2.514   1.498  14.744 -1.4267  1.6376 -0.7923
  668TMC3    H2 9890   2.604   1.907  14.872  1.3316 -1.4053  1.5207
  668TMC3    C7 9891   2.490   1.680  14.949 -0.0428 -0.0892 -0.0742
  668TMC3    C8 9892   2.650   2.007  14.629 -0.9386 -0.5496  0.1858
  668TMC3    O1 9893   2.541   1.758  15.032  0.5223  0.1676  0.0749
  668TMC3    O2 9894   2.623   2.083  14.720  0.6259  0.1551  0.1263
  669TMC3    C1 9895   0.172   1.672  14.415 -0.1389  0.4742 -0.6675
  669TMC3    C2 9896   0.063   1.679  14.335 -0.8128  0.4166 -0.2332
  669TMC3    C3 9897   0.081   1.739  14.216 -0.1729  0.4852 -0.4312
  669TMC3    C4 9898   0.295   1.716  14.383 -0.1739  0.7357 -0.9068
  669TMC3    C5 9899   0.308   1.767  14.256 -1.4547  0.5119  0.5238
  669TMC3    C6 9900   0.199   1.773  14.170 -0.1556  0.0359  0.4473
  669TMC3     C 9901   0.161   1.583  14.527  0.1419  0.0432 -0.4087
  669TMC3     O 9902   0.270   1.569  14.587  0.1551  0.0046 -0.9650
  669TMC3     H 9903   4.700   1.616  14.355 -0.3954 -0.0064  0.2185
  669TMC3    H1 9904   0.376   1.716  14.454 -1.9766 -2.1081  1.1631
  669TMC3    H2 9905   0.212   1.808  14.068 -0.7213 -0.1254  0.3230
  669TMC3    C7 9906   0.415   1.861  14.227 -0.2334  0.8078 -0.5665
  669TMC3    C8 9907   4.691   1.732  14.124  0.2538  0.9416 -0.1798
  669TMC3    O1 9908   0.468   1.921  14.321 -0.3905 -0.2338  0.2889
  669TMC3    O2 9909   4.592   1.667  14.165  0.4417 -0.4421 -0.6882
  670MPD2     C 9910   3.683   3.647  13.423  0.3071  0.1683 -0.2127
  670MPD2    C1 9911   3.630   3.774  13.401  0.7594 -0.3812  0.3475
  670MPD2    C2 9912   3.535   3.828  13.488  0.2312 -0.4476 -0.2535
  670MPD2    C3 9913   3.486   3.756  13.594 -0.2604  0.7757  0.3777
  670MPD2    C4 9914   3.542   3.634  13.619  0.2958 -0.2733  0.1047
  670MPD2    C5 9915   3.638   3.581  13.534  0.7303 -0.3803  0.3640
  670MPD2     H 9916   3.500   3.930  13.478  0.0324 -0.5457 -0.5491
  670MPD2    H1 9917   3.516   3.576  13.706  1.2308  0.3041  0.7750
  670MPD2    H2 9918   3.758   3.606  13.357  0.8809 -3.1509  2.5057
  670MPD2    H3 9919   3.691   3.490  13.561  2.9628  1.1830  1.2505
  670MPD2     N 9920   3.379   3.815  13.667 -0.2045  0.2644 -0.3227
  670MPD2    H5 9921   3.320   3.891  13.634 -1.5153 -0.7074 -0.2060
  670MPD2    N1 9922   3.663   3.866  13.295 -0.3587  0.2384  0.4113
  670MPD2    H7 9923   3.605   3.949  13.282  0.8706  1.3919  2.3215
  671TMC3    C1 9924   3.213   3.826  13.822 -0.7021  0.4238  0.0105
  671TMC3    C2 9925   3.193   3.815  13.954 -0.1567  0.2053 -0.3280
  671TMC3    C3 9926   3.096   3.737  14.003 -0.4478 -0.3248  0.2111
  671TMC3    C4 9927   3.117   3.780  13.736  0.6433 -0.2640  0.3246
  671TMC3    C5 9928   3.010   3.703  13.787  1.3854  0.2561 -0.6825
  671TMC3    C6 9929   3.004   3.672  13.922  0.6946 -0.3509  0.3091
  671TMC3     C 9930   3.344   3.775  13.793 -0.2168 -0.0487 -0.2094
  671TMC3     O 9931   3.387   3.686  13.864  0.4395  0.0808 -0.0974
  671TMC3     H 9932   3.272   3.840  14.025 -0.1275 -0.6360 -0.0694
  671TMC3    H1 9933   3.119   3.807  13.631 -1.8828 -0.2274  0.2787
  671TMC3    H2 9934   2.938   3.596  13.962 -0.8895  1.2115  0.6697
  671TMC3    C7 9935   2.964   3.600  13.692 -0.1709 -0.2047 -0.1513
  671TMC3    C8 9936   3.132   3.659  14.118 -0.2217  0.0198 -0.3843
  671TMC3    O1 9937   3.008   3.618  13.578  0.1417 -0.3246  0.1893
  671TMC3    O2 9938   3.050   3.614  14.201 -0.5066 -0.4025  0.1847
  672MPD2     C 9939   2.961   3.362   1.325 -0.3714 -0.0443 -0.1974
  672MPD2    C1 9940   3.011   3.470   1.260 -0.0055  0.0053  0.9140
  672MPD2    C2 9941   3.108   3.543   1.328  0.7163 -0.0752  0.1791
  672MPD2    C3 9942   3.140   3.514   1.454  0.5174 -0.6461 -0.3478
  672MPD2    C4 9943   3.094   3.402   1.516 -0.0161  0.9395 -0.2990
  672MPD2    C5 9944   3.003   3.330   1.452  0.1801  0.0138 -0.3309
  672MPD2     H 9945   3.148   3.625   1.269 -0.7535 -0.2783 -1.1057
  672MPD2    H1 9946   3.120   3.387   1.620  0.9536 -1.3789 -0.8692
  672MPD2    H2 9947   2.880   3.304   1.284  0.2892 -1.3640  0.3521
  672MPD2    H3 9948   2.947   3.249   1.498  0.1746  0.7410  0.9474
  672MPD2     N 9949   3.229   3.594   1.528 -0.3842  0.3644  0.1704
  672MPD2    H5 9950   3.257   3.566   1.622  0.1946 -0.4388 -0.2481
  672MPD2    N1 9951   2.983   3.492   1.128  0.6371  0.3536 -0.2610
  672MPD2    H7 9952   3.048   3.549   1.074  0.6915  0.4552 -0.0877
  673TMC3    C1 9953   2.876   3.491   0.929  0.2894 -0.2651 -0.2354
  673TMC3    C2 9954   3.003   3.492   0.875  0.5961 -0.8607 -0.6773
  673TMC3    C3 9955   3.035   3.590   0.786 -0.0921  0.3395  0.0037
  673TMC3    C4 9956   2.777   3.576   0.889  0.4428 -0.4707  0.1246
  673TMC3    C5 9957   2.827   3.687   0.819 -0.7720 -0.3136  0.5330
  673TMC3    C6 9958   2.949   3.692   0.764  0.1789 -0.5043 -0.1495
  673TMC3     C 9959   2.872   3.456   1.069  0.0838  0.5845 -0.5046
  673TMC3     O 9960   2.767   3.401   1.113  0.5379 -0.1180  0.0490
  673TMC3     H 9961   3.070   3.414   0.909  0.1554 -0.9689 -0.0710
  673TMC3    H1 9962   2.677   3.570   0.930  0.0635 -1.7358 -0.9667
  673TMC3    H2 9963   2.984   3.775   0.703 -1.1412  1.5424  1.8708
  673TMC3    C7 9964   2.789   3.810   0.881 -0.6924 -0.3600 -0.4807
  673TMC3    C8 9965   3.170   3.604   0.721  0.1147 -0.0776 -0.1645
  673TMC3    O1 9966   2.696   3.806   0.963 -0.1161  0.0605  0.0417
  673TMC3    O2 9967   3.193   3.704   0.649 -0.2941 -0.7771  0.2854
  674MPD2     C 9968   2.861   4.291   0.083 -0.0649 -0.7512 -0.2486
  674MPD2    C1 9969   2.937   4.197   0.155  0.7222 -0.4185  0.6890
  674MPD2    C2 9970   2.867   4.122   0.252  0.3987 -0.4812  0.2231
  674MPD2    C3 9971   2.736   4.138   0.283  0.0668  0.3247  0.2882
  674MPD2    C4 9972   2.665   4.233   0.211 -0.3896 -0.3953  0.0974
  674MPD2    C5 9973   2.725   4.297   0.103 -0.3942 -0.3897  0.3947
  674MPD2     H 9974   2.922   4.055   0.318  3.2915  2.6031  0.9390
  674MPD2    H1 9975   2.557   4.242   0.213 -0.1956  2.4374 -2.1968
  674MPD2    H2 9976   2.904   4.356   0.007 -0.6230  2.5060  2.2439
  674MPD2    H3 9977   2.674   4.362   0.032  0.5995 -2.6758 -2.3972
  674MPD2     N 9978   2.691   4.076   0.403  0.0029 -0.2948  0.2131
  674MPD2    H5 9979   2.747   4.007   0.453 -0.1536 -1.2322 -0.8993
  674MPD2    N1 9980   3.077   4.193   0.135 -0.9566  0.7244  0.0477
  674MPD2    H7 9981   3.118   4.257   0.067  1.8855 -1.3591 -0.2113
  675TMC3    C1 9982   3.286   4.075   0.134 -0.4111 -0.6112 -0.1878
  675TMC3    C2 9983   3.350   3.951   0.117  0.0291 -0.2106  0.6603
  675TMC3    C3 9984   3.486   3.947   0.114 -0.5229 -0.1490 -0.5146
  675TMC3    C4 9985   3.357   4.193   0.133 -0.1237  0.3369  0.0811
  675TMC3    C5 9986   3.493   4.183   0.110 -0.4817  0.0711  0.1585
  675TMC3    C6 9987   3.557   4.066   0.107  0.2467 -0.0385  0.3163
  675TMC3     C 9988   3.149   4.080   0.170 -0.0361 -0.5111 -0.1598
  675TMC3     O 9989   3.111   3.966   0.194  0.2879  0.0880  0.1823
  675TMC3     H 9990   3.290   3.862   0.115  2.0813 -1.6224  1.1308
  675TMC3    H1 9991   3.304   4.287   0.147  0.3600  0.1611  3.1858
  675TMC3    H2 9992   3.665   4.070   0.113  0.3384 -3.1368  0.7213
  675TMC3    C7 9993   3.567   4.304   0.136  0.1857  0.7063 -0.1756
  675TMC3    C8 9994   3.559   3.823   0.094  0.3897 -0.8333  0.2062
  675TMC3    O1 9995   3.625   4.347   0.034 -0.0963  1.0129 -0.1771
  675TMC3    O2 9996   3.672   3.835   0.048 -0.5125 -0.0980  0.2190
  676MPD2     C 9997   1.230   2.604  10.957  0.1348  0.5014 -0.0464
  676MPD2    C1 9998   1.240   2.504  11.058 -0.1076  1.0241  0.0554
  676MPD2    C2 9999   1.258   2.376  11.022  0.6645 -0.0154 -0.0226
  676MPD2    C310000   1.274   2.336  10.887  0.1671  0.4175  0.1566
  676MPD2    C410001   1.274   2.437  10.788  0.2552  0.4143  0.4117
  676MPD2    C510002   1.248   2.567  10.831 -0.1293  1.1273 -0.0893
  676MPD2     H10003   1.276   2.301  11.099 -0.4586 -0.7155 -0.4451
  676MPD2    H110004   1.283   2.409  10.684 -0.2322 -1.8686  0.9856
  676MPD2    H210005   1.214   2.708  10.983  2.8272  1.4419 -2.1225
  676MPD2    H310006   1.239   2.650  10.763 -0.4634  1.6663  0.6192
  676MPD2     N10007   1.319   2.208  10.848 -0.6627 -0.1992 -0.1185
  676MPD2    H510008   1.356   2.201  10.754  1.8761 -2.6265  1.0680
  676MPD2    N110009   1.229   2.534  11.204  0.8060 -0.4332 -0.3238
  676MPD2    H710010   1.233   2.449  11.260 -3.3116  0.2044  0.9542
  677TMC3    C110011   1.249   2.660  11.408 -0.8312 -0.1584  0.2238
  677TMC3    C210012   1.245   2.541  11.475  0.0643  0.4251 -0.1568
  677TMC3    C310013   1.281   2.549  11.613 -0.3370 -0.6920 -0.2325
  677TMC3    C410014   1.290   2.778  11.468 -0.4779 -0.3747 -0.2860
  677TMC3    C510015   1.326   2.778  11.598 -0.1077  0.0001  0.0370
  677TMC3    C610016   1.324   2.662  11.677  0.3589 -0.0332  0.3939
  677TMC3     C10017   1.253   2.658  11.264 -0.6835  0.9567  0.1233
  677TMC3     O10018   1.299   2.759  11.208 -0.1835  0.2092  0.2800
  677TMC3     H10019   1.204   2.449  11.434 -0.0306  1.3444 -2.1294
  677TMC3    H110020   1.294   2.871  11.414 -1.4825 -0.6036 -0.7481
  677TMC3    H210021   1.352   2.674  11.781  2.2209 -1.4117  0.0361
  677TMC3    C710022   1.393   2.897  11.651  0.7416  0.2034 -0.7025
  677TMC3    C810023   1.234   2.436  11.692 -0.2178  0.2347 -0.0469
  677TMC3    O110024   1.389   2.915  11.775  0.8716  0.3278 -0.7685
  677TMC3    O210025   1.121   2.393  11.675 -0.1801 -0.4085 -0.4610
  678MPD2     C10026   1.908   1.709   1.748 -0.0174 -0.3489 -0.4967
  678MPD2    C110027   1.954   1.693   1.620  0.6969  0.0569 -0.4385
  678MPD2    C210028   1.866   1.678   1.514 -0.0140  0.0659  0.2207
  678MPD2    C310029   1.735   1.697   1.532 -0.5763 -0.8614 -0.0832
  678MPD2    C410030   1.690   1.706   1.660  0.4493  0.5132  0.6061
  678MPD2    C510031   1.773   1.723   1.766 -0.4561  0.0496 -0.2626
  678MPD2     H10032   1.903   1.673   1.412 -1.9075  4.4406 -0.6891
  678MPD2    H110033   1.584   1.711   1.683  0.6592  0.8012  1.5183
  678MPD2    H210034   1.966   1.697   1.839  0.4319  1.8264 -0.5125
  678MPD2    H310035   1.746   1.741   1.870  1.2214  0.5641  0.0885
  678MPD2     N10036   1.635   1.704   1.426 -0.0126 -0.3364  0.4433
  678MPD2    H510037   1.666   1.700   1.329 -0.9057  0.7836  0.1095
  678MPD2    N110038   2.092   1.683   1.584  0.1447 -0.7009 -0.0632
  678MPD2    H710039   2.124   1.674   1.488 -1.5132  1.0529 -0.7673
  679TMC3    C110040   2.445   1.674   1.424  0.1859 -0.2984 -0.5144
  679TMC3    C210041   2.335   1.643   1.500 -0.5714 -0.0585 -0.3737
  679TMC3    C310042   2.316   1.713   1.608  0.7748 -0.6168  0.3008
  679TMC3    C410043   2.540   1.769   1.461  0.1303 -0.2991 -0.0329
  679TMC3    C510044   2.510   1.831   1.576  0.1645  0.8103 -0.3682
  679TMC3    C610045   2.405   1.798   1.662 -0.6621  0.4530 -0.3130
  679TMC3     C10046   2.475   1.592   1.316 -0.6732 -0.1295  0.0947
  679TMC3     O10047   2.590   1.575   1.293 -0.0100 -0.5176  0.1172
  679TMC3     H10048   2.275   1.556   1.475  0.3034 -0.7054 -0.2399
  679TMC3    H110049   2.625   1.801   1.402  0.6011 -0.5258  0.5147
  679TMC3    H210050   2.374   1.869   1.737 -0.6429  0.3828 -0.2393
  679TMC3    C710051   2.566   1.964   1.583 -0.7826  0.1022 -0.0075
  679TMC3    C810052   2.192   1.696   1.676  0.1168  0.3439 -0.4595
  679TMC3    O110053   2.620   2.010   1.483  0.3628  0.1476 -0.1324
  679TMC3    O210054   2.191   1.732   1.791 -0.2626  0.6893  0.2197
  680MPD2     C10055   2.786   1.462  13.404 -0.2785 -0.0596  0.4297
  680MPD2    C110056   2.883   1.410  13.484  0.4210  0.5352 -0.3103
  680MPD2    C210057   2.994   1.485  13.521  0.1675  0.3245  0.1091
  680MPD2    C310058   3.010   1.611  13.486  0.2687  0.5680  0.2341
  680MPD2    C410059   2.916   1.662  13.402 -0.5795  0.1092 -0.3232
  680MPD2    C510060   2.804   1.593  13.357  0.1222  0.8167  0.3020
  680MPD2     H10061   3.051   1.444  13.603  1.0475  3.5966  1.1454
  680MPD2    H110062   2.915   1.765  13.370  0.5395 -0.0549 -0.8531
  680MPD2    H210063   2.694   1.408  13.388  0.8145 -1.2765 -1.9159
  680MPD2    H310064   2.732   1.638  13.289 -0.8195 -0.3290  0.5355
  680MPD2     N10065   3.125   1.686  13.523  0.2311 -0.7883 -0.3714
  680MPD2    H510066   3.129   1.784  13.495 -2.8026 -0.7756 -0.8449
  680MPD2    N110067   2.881   1.281  13.541 -0.1118  0.8237  0.1085
  680MPD2    H710068   2.966   1.234  13.572 -1.3604 -1.0643  0.6278
  681TMC3    C110069   2.821   1.067  13.581 -0.2501 -0.7369  0.0894
  681TMC3    C210070   2.785   1.025  13.700 -0.6032  0.4075 -0.0182
  681TMC3    C310071   2.859   0.921  13.761 -0.1864  0.4979 -0.0033
  681TMC3    C410072   2.927   1.013  13.511  0.0283 -0.1619 -0.8387
  681TMC3    C510073   3.007   0.920  13.575 -0.5438  0.9541  0.3002
  681TMC3    C610074   2.973   0.874  13.699 -0.2976  0.1024 -0.5036
  681TMC3     C10075   2.777   1.195  13.537  0.1475  0.6420 -0.0382
  681TMC3     O10076   2.660   1.232  13.545 -0.3309  0.7980 -0.0421
  681TMC3     H10077   2.696   1.066  13.747 -0.8999  1.5213 -1.5367
  681TMC3    H110078   2.936   1.036  13.405  1.2409  0.6018 -0.5837
  681TMC3    H210079   3.037   0.796  13.738 -1.5098 -0.6565 -0.0136
  681TMC3    C710080   3.101   0.845  13.492 -0.2821 -0.1954 -0.4707
  681TMC3    C810081   2.851   0.909  13.906 -0.4427  0.1431  0.6341
  681TMC3    O110082   3.148   0.742  13.542  0.1805 -0.2996 -0.0718
  681TMC3    O210083   2.751   0.939  13.965 -0.4117  0.7825 -0.3060
  682MPD2     C10084   0.446   2.541  10.602  0.8402 -0.3537 -0.3417
  682MPD2    C110085   0.470   2.407  10.636  0.1729 -0.0704  0.1444
  682MPD2    C210086   0.413   2.355  10.750 -0.8853  0.3614  0.0501
  682MPD2    C310087   0.345   2.434  10.846 -0.2444 -0.2215  0.0914
  682MPD2    C410088   0.323   2.559  10.811  0.7114 -0.8177  0.6420
  682MPD2    C510089   0.372   2.609  10.694 -0.8145  0.1409  0.3516
  682MPD2     H10090   0.452   2.255  10.766  0.4334  0.8411 -0.1680
  682MPD2    H110091   0.282   2.623  10.888  2.0814  1.5850 -0.6269
  682MPD2    H210092   0.483   2.587  10.511  1.3489  1.3599  0.7253
  682MPD2    H310093   0.351   2.714  10.678 -0.4667  0.5414  2.5617
  682MPD2     N10094   0.319   2.392  10.974 -0.1273  0.1392  0.2064
  682MPD2    H510095   0.302   2.459  11.049  0.9463 -0.9674  1.4477
  682MPD2    N110096   0.557   2.324  10.559  0.3533  0.4208 -0.3957
  682MPD2    H710097   0.558   2.226  10.587  0.0474  0.4561 -0.2589
  683TMC3    C110098   0.427   2.274  11.350 -0.3929 -0.5060 -0.0744
  683TMC3    C210099   0.502   2.162  11.346 -0.1691  0.0714  0.1694
  683TMC3    C310100   0.497   2.080  11.239  0.2212  0.2060 -0.3334
  683TMC3    C410101   0.346   2.300  11.245  0.5184  0.4882  0.2556
  683TMC3    C510102   0.343   2.219  11.137 -0.3197 -0.0656 -0.2043
  683TMC3    C610103   0.413   2.099  11.133  0.0102 -0.2336 -0.0621
  683TMC3     C10104   0.432   2.362  11.465 -0.1365 -0.3827 -0.0695
  683TMC3     O10105   0.365   2.464  11.450 -0.3270  0.2278  0.3874
  683TMC3     H10106   0.590   2.163  11.408 -0.2379 -1.0765  0.2843
  683TMC3    H110107   0.292   2.394  11.235  2.0126  1.0873 -2.3051
  683TMC3    H210108   0.414   2.039  11.043  0.2621  0.5512 -0.5869
  683TMC3    C710109   0.299   2.261  11.006 -0.0191  0.5038 -0.3462
  683TMC3    C810110   0.604   1.980  11.218  0.5356 -0.4261  0.1269
  683TMC3    O110111   0.285   2.179  10.919 -0.1381  0.0042  0.1541
  683TMC3    O210112   0.620   1.935  11.104  0.3511 -0.1927  0.0319
  684MPD2     C10113   3.056   1.508  16.472  0.6197  0.7008  0.4869
  684MPD2    C110114   3.036   1.558  16.345  0.3523  0.1401 -0.1764
  684MPD2    C210115   3.027   1.687  16.315  0.4912 -0.4797  0.2012
  684MPD2    C310116   3.046   1.783  16.416 -0.4773  0.1726  0.2782
  684MPD2    C410117   3.068   1.737  16.544 -0.2956  0.4401  0.5964
  684MPD2    C510118   3.064   1.604  16.571 -0.0568 -0.2493  0.4644
  684MPD2     H10119   3.014   1.729  16.216  1.4696  1.6316  0.9716
  684MPD2    H110120   3.078   1.799  16.633  1.2885  1.9884 -0.6393
  684MPD2    H210121   3.058   1.403  16.496 -0.2534  0.6598  0.3897
  684MPD2    H310122   3.084   1.567  16.671  0.1643 -0.9858  0.1534
  684MPD2     N10123   3.072   1.920  16.391 -0.8123  0.0874 -0.2256
  684MPD2    H510124   3.103   1.976  16.470 -2.3167  2.1215 -1.0530
  684MPD2    N110125   3.022   1.467  16.233 -0.4833  0.0065  1.0131
  684MPD2    H710126   3.002   1.507  16.142 -0.9569  0.1334  1.1741
  685TMC3    C110127   3.045   1.302  16.093 -0.7821  0.5081 -1.1025
  685TMC3    C210128   2.950   1.376  16.025  0.4479 -0.4005 -0.5946
  685TMC3    C310129   2.988   1.420  15.902  0.7137 -0.3146  0.4013
  685TMC3    C410130   3.173   1.280  16.043  0.0133 -0.1576  0.5503
  685TMC3    C510131   3.207   1.322  15.920  0.4366  0.2004 -0.2657
  685TMC3    C610132   3.116   1.392  15.850 -0.4854  0.3680  0.2316
  685TMC3     C10133   3.038   1.333  16.234 -0.3326  0.3143  0.0263
  685TMC3     O10134   3.105   1.272  16.312  0.0663  0.4067 -0.3867
  685TMC3     H10135   2.848   1.371  16.062  0.2513  0.0762 -1.0537
  685TMC3    H110136   3.242   1.217  16.098  0.0798  0.1556  0.8285
  685TMC3    H210137   3.151   1.418  15.751  0.7908 -2.6858 -0.1360
  685TMC3    C710138   3.340   1.367  15.891 -0.3019 -0.1609 -0.3125
  685TMC3    C810139   2.930   1.538  15.840 -0.3699  0.8246 -0.5792
  685TMC3    O110140   3.364   1.397  15.775 -0.3066 -0.3254 -0.0873
  685TMC3    O210141   2.982   1.583  15.738 -0.2116  0.0208 -0.1038
  686MPD2     C10142   4.320   1.489  15.234  0.3143 -0.8909 -0.1965
  686MPD2    C110143   4.283   1.420  15.348 -0.2869  0.0067  0.2035
  686MPD2    C210144   4.351   1.302  15.368 -0.0424  0.0612 -0.7537
  686MPD2    C310145   4.457   1.267  15.290 -0.4543  0.7281  0.0478
  686MPD2    C410146   4.501   1.338  15.181  0.0202 -0.7696  0.2649
  686MPD2    C510147   4.418   1.445  15.141 -0.5593  0.7472 -0.3980
  686MPD2     H10148   4.327   1.247  15.458  0.7841  1.2367  0.1918
  686MPD2    H110149   4.588   1.309  15.123 -0.0631 -0.4977  0.0061
  686MPD2    H210150   4.267   1.579  15.206 -1.2130 -1.0538  2.2139
  686MPD2    H310151   4.440   1.504  15.053 -1.5015 -1.5094 -2.1543
  686MPD2     N10152   4.547   1.172  15.348  0.4484  0.3085  0.1923
  686MPD2    H510153   4.538   1.158  15.448  0.6206 -0.0878  0.1524
  686MPD2    N110154   4.181   1.473  15.430 -0.5176  0.2295 -0.0305
  686MPD2    H710155   4.137   1.562  15.407 -1.7642 -0.0656  1.2418
  687TMC3    C110156   4.685   1.008  15.374 -0.2793  0.6712 -0.0418
  687TMC3    C210157   4.578   0.913  15.372 -0.4607 -0.0260  0.7198
  687TMC3    C310158   4.526   0.872  15.490  0.3978 -0.0698  0.4982
  687TMC3    C410159   0.007   1.057  15.496 -0.0272  0.9022  0.5375
  687TMC3    C510160   4.674   1.012  15.609  0.0006  0.2664  0.1394
  687TMC3    C610161   4.577   0.914  15.609  0.0725 -0.2721  0.2369
  687TMC3     C10162   4.651   1.107  15.285  0.0812 -0.0902 -0.1855
  687TMC3     O10163   4.671   1.092  15.163  0.0810  0.3534  0.1344
  687TMC3     H10164   4.545   0.876  15.276  0.2221  2.9396 -0.6842
  687TMC3    H110165   0.086   1.130  15.497  0.6178  0.2407 -0.9406
  687TMC3    H210166   4.545   0.861  15.699 -2.8552  0.9515 -0.0867
  687TMC3    C710167   0.028   1.039  15.732 -0.0978 -1.1679 -1.4164
  687TMC3    C810168   4.384   0.852  15.497  0.0319 -0.1237  0.5062
  687TMC3    O110169   0.139   1.090  15.718 -0.2834  0.2324 -0.0777
  687TMC3    O210170   4.333   0.809  15.599 -0.5764 -0.0608 -0.0092
  688MPD2     C10171   3.749   0.327  17.228  0.4853 -0.2418  0.2389
  688MPD2    C110172   3.770   0.192  17.224  0.5654  0.3808 -0.2312
  688MPD2    C210173   3.864   0.143  17.130 -0.2704  0.1349 -0.9247
  688MPD2    C310174   3.925   0.231  17.046  0.6451  0.4759  0.4205
  688MPD2    C410175   3.897   0.365  17.052 -0.3592  0.5687 -0.0803
  688MPD2    C510176   3.809   0.408  17.142 -0.3248  0.1489 -0.3478
  688MPD2     H10177   3.894   0.039  17.128 -0.6929  0.0583 -2.8201
  688MPD2    H110178   3.935   0.444  16.988  0.4101 -0.3920 -0.8081
  688MPD2    H210179   3.671   0.370  17.290  1.3552 -0.3731  1.4352
  688MPD2    H310180   3.760   0.504  17.146 -2.7122 -1.0868 -0.0823
  688MPD2     N10181   4.010   0.196  16.939 -0.2831 -0.3090 -0.1576
  688MPD2    H510182   4.026   0.272  16.874  1.5387 -1.0315 -0.5525
  688MPD2    N110183   3.719   0.109  17.330  0.8775 -0.3747  0.1979
  688MPD2    H710184   3.730   0.009  17.321 -0.4855 -0.4461 -0.8488
  689TMC3    C110185   3.605   0.058  17.534 -0.2336  0.1524  0.2027
  689TMC3    C210186   3.584   0.110  17.660 -0.6446 -0.0543 -0.7192
  689TMC3    C310187   3.498   0.045   0.047 -0.0440  0.1178 -0.5878
  689TMC3    C410188   3.525   4.684  17.491  0.4677 -0.8741 -0.2741
  689TMC3    C510189   3.433   4.627  17.568 -0.4425 -0.2752 -0.0017
  689TMC3    C610190   3.413   4.673   0.000  0.1135 -0.3467 -0.0048
  689TMC3     C10191   3.658   0.157  17.443  0.3232 -0.2301 -0.0777
  689TMC3     O10192   3.663   0.274  17.486 -0.2344 -0.2496 -0.3286
  689TMC3     H10193   3.659   0.181  17.694  1.2422 -1.3403 -2.1871
  689TMC3    H110194   3.530   4.648  17.388  2.5351 -0.1658 -0.4243
  689TMC3    H210195   3.329   4.638   0.059 -0.4419 -2.6921 -2.2127
  689TMC3    C710196   3.371   4.497  17.531 -0.4740  0.5142  0.1825
  689TMC3    C810197   3.464   0.090   0.180  0.4280 -0.3178 -0.4751
  689TMC3    O110198   3.329   4.425  17.624  0.0679  0.0275 -0.2635
  689TMC3    O210199   3.367   0.039   0.235  0.3537  0.0304 -0.4017
  690MPD2     C10200   1.289   2.443  15.857 -0.2753  0.3105 -0.2267
  690MPD2    C110201   1.286   2.362  15.746  0.4332 -0.4800 -0.2443
  690MPD2    C210202   1.380   2.382  15.650  0.4637 -0.8332 -0.0573
  690MPD2    C310203   1.487   2.464  15.664 -0.7171 -0.6998 -0.0084
  690MPD2    C410204   1.494   2.534  15.784  0.0973 -0.0840 -0.1368
  690MPD2    C510205   1.390   2.526  15.872 -1.0244  0.8303  0.4829
  690MPD2     H10206   1.380   2.314  15.565  1.0695  0.5350 -1.1595
  690MPD2    H110207   1.579   2.602  15.793 -1.3596  1.8129 -0.5427
  690MPD2    H210208   1.221   2.448  15.941 -0.2900  0.0261 -0.2222
  690MPD2    H310209   1.393   2.585  15.963  0.0862  0.2470  0.8198
  690MPD2     N10210   1.571   2.475  15.553 -0.7027 -0.3519  0.4126
  690MPD2    H510211   1.551   2.417  15.471 -0.9033 -0.5687  0.6145
  690MPD2    N110212   1.192   2.259  15.725 -0.0237  0.2126  0.1066
  690MPD2    H710213   1.196   2.200  15.642 -0.2949 -1.1029  1.0212
  691TMC3    C110214   1.025   2.115  15.772  0.8423 -0.5274 -0.2803
  691TMC3    C210215   0.914   2.079  15.843  0.4936 -0.2530  0.1103
  691TMC3    C310216   0.851   1.958  15.821 -0.3305 -0.2884 -0.0820
  691TMC3    C410217   1.079   2.017  15.691 -0.2451 -0.3289 -0.6237
  691TMC3    C510218   1.023   1.894  15.677 -0.1130  0.4271 -0.3318
  691TMC3    C610219   0.900   1.860  15.740 -0.1288  0.0908  0.1278
  691TMC3     C10220   1.082   2.246  15.794 -0.0619  0.9399 -0.9437
  691TMC3     O10221   1.024   2.325  15.870 -0.0814 -0.0335 -0.0261
  691TMC3     H10222   0.888   2.148  15.922  1.7561  2.1749 -1.5868
  691TMC3    H110223   1.174   2.032  15.641  0.6834 -1.8630  0.7012
  691TMC3    H210224   0.846   1.774  15.702 -1.1715  0.8935 -0.2022
  691TMC3    C710225   1.073   1.813  15.566  0.4149  0.0030  0.4390
  691TMC3    C810226   0.708   1.942  15.848 -0.4656  0.6295 -0.3766
  691TMC3    O110227   1.146   1.863  15.478  0.1359  0.0974 -0.3191
  691TMC3    O210228   0.672   1.823  15.830 -0.4633 -0.2500  0.4692
  692TMC3    C110229   2.967   3.177  15.898 -0.4039 -0.3483 -0.0843
  692TMC3    C210230   3.086   3.171  15.973 -0.3710 -0.1336 -0.3203
  692TMC3    C310231   3.189   3.092  15.929  0.5467 -0.0495  0.5209
  692TMC3    C410232   2.939   3.090  15.797  0.4412  0.1819 -0.0142
  692TMC3    C510233   3.051   3.022  15.753  0.1953 -0.3351 -0.1692
  692TMC3    C610234   3.175   3.032  15.804 -0.4866 -0.6323 -1.1697
  692TMC3     C10235   2.875   3.279  15.940  0.0975 -0.5594  0.1673
  692TMC3     O10236   2.757   3.265  15.909 -0.1783  0.3169  0.4229
  692TMC3     H10237   3.072   3.208  16.074  2.6504 -1.6627  0.6781
  692TMC3    H110238   2.845   3.095  15.743  1.5485  1.1751 -1.8101
  692TMC3    H210239   3.250   2.960  15.775 -1.5241 -2.0756 -0.2765
  692TMC3    C710240   3.033   2.891  15.683  0.2115 -0.4412  0.1054
  692TMC3    C810241   3.245   3.008  16.035  0.0381  0.5088 -0.3501
  692TMC3    O110242   2.965   2.893  15.582  0.4011  0.1113 -0.2076
  692TMC3    O210243   3.247   2.888  16.014 -0.2385  0.1846  0.0370
  693MPD2     C10244   2.872   1.703  10.518 -0.2010 -0.8066  0.1128
  693MPD2    C110245   2.809   1.644  10.625 -0.2911  0.1430 -0.0965
  693MPD2    C210246   2.867   1.532  10.693 -0.1140  0.1118  0.6189
  693MPD2    C310247   2.984   1.479  10.636 -0.5096  0.1022  0.3270
  693MPD2    C410248   3.036   1.524  10.523 -0.1800  0.2754  0.2332
  693MPD2    C510249   2.983   1.641  10.469  0.1228 -0.1596 -0.6439
  693MPD2     H10250   2.820   1.498  10.785 -2.6359 -1.8866 -1.4176
  693MPD2    H110251   3.129   1.492  10.477  1.3164  1.0754  2.7361
  693MPD2    H210252   2.827   1.782  10.459 -2.6391 -2.7299 -0.5927
  693MPD2    H310253   3.022   1.677  10.375 -1.2265  0.9683 -0.7684
  693MPD2     N10254   3.051   1.370  10.698 -0.2253  0.2380  0.1981
  693MPD2    H510255   3.130   1.335  10.646 -0.8650  1.1785 -1.4096
  693MPD2    N110256   2.684   1.706  10.657 -0.8344  0.0439  0.1576
  693MPD2    H710257   2.652   1.783  10.599  0.2228  0.6438  0.3727
  694TMC3    C110258   2.478   1.722  10.776 -0.0282 -0.6115  0.0295
  694TMC3    C210259   2.400   1.696  10.663  0.2134 -0.0838  0.2292
  694TMC3    C310260   2.263   1.660  10.679 -0.3775 -1.5894 -0.2101
  694TMC3    C410261   2.413   1.713  10.894 -0.0066 -0.0931 -0.1232
  694TMC3    C510262   2.282   1.679  10.905 -0.3228  0.2218 -0.2085
  694TMC3    C610263   2.195   1.660  10.801  0.0687  0.0732  0.5666
  694TMC3     C10264   2.613   1.670  10.775  0.3379  0.0821 -0.3266
  694TMC3     O10265   2.650   1.596  10.862  0.7216  0.2328 -0.4803
  694TMC3     H10266   2.441   1.684  10.563  0.6249  1.5073  0.2149
  694TMC3    H110267   2.466   1.727  10.987  2.6574 -0.2788 -1.6243
  694TMC3    H210268   2.093   1.624  10.809 -0.5424  1.5758 -0.4126
  694TMC3    C710269   2.238   1.671  11.045  0.3025 -0.4493  0.0652
  694TMC3    C810270   2.182   1.606  10.566 -0.1754 -0.4384  0.0816
  694TMC3    O110271   2.295   1.732  11.133 -0.0435  0.4695  0.0779
  694TMC3    O210272   2.079   1.544  10.597  0.5454 -0.0423 -0.2606
  695MPD2     C10273   3.762   3.204  13.375 -0.3932  0.1720 -1.3292
  695MPD2    C110274   3.669   3.193  13.470 -0.3038  0.7025  0.1285
  695MPD2    C210275   3.541   3.232  13.436 -0.2581 -0.2227 -0.1658
  695MPD2    C310276   3.521   3.307  13.318 -0.0340 -0.0581  0.2423
  695MPD2    C410277   3.623   3.319  13.224  0.0598 -0.0481 -0.2071
  695MPD2    C510278   3.743   3.267  13.254 -0.0118  0.1170 -0.2800
  695MPD2     H10279   3.466   3.229  13.514  0.3308 -3.2659  0.3131
  695MPD2    H110280   3.600   3.368  13.130 -0.5190 -0.5125 -0.3066
  695MPD2    H210281   3.864   3.170  13.379 -0.0260  1.5035  0.6404
  695MPD2    H310282   3.824   3.258  13.182 -1.1952 -0.2825 -1.5690
  695MPD2     N10283   3.387   3.337  13.291 -0.4591 -0.2766 -0.4138
  695MPD2    H510284   3.318   3.320  13.363 -0.1437 -0.1920 -0.0927
  695MPD2    N110285   3.704   3.156  13.598 -0.2965 -0.5306  0.4521
  695MPD2    H710286   3.624   3.153  13.660 -0.6535 -0.8576 -0.0232
  696TMC3    C110287   3.193   3.422  13.183  0.0673  0.3007  0.2329
  696TMC3    C210288   3.132   3.311  13.235  0.3027  0.7729 -0.4354
  696TMC3    C310289   3.002   3.323  13.275 -0.6153 -0.4383 -0.2233
  696TMC3    C410290   3.125   3.537  13.148  0.6957  0.4751  0.0686
  696TMC3    C510291   2.997   3.544  13.191  0.9172  0.2899  0.4983
  696TMC3    C610292   2.936   3.443  13.262  0.4384  0.0282 -0.2862
  696TMC3     C10293   3.341   3.406  13.178 -1.5477 -0.0876 -0.3317
  696TMC3     O10294   3.406   3.468  13.098 -0.1203  0.1074  0.4201
  696TMC3     H10295   3.174   3.212  13.225 -0.3558  0.5637 -1.1425
  696TMC3    H110296   3.168   3.606  13.076 -0.5903  1.7198  0.5153
  696TMC3    H210297   2.828   3.453  13.267  0.6016  1.1870  1.1624
  696TMC3    C710298   2.929   3.664  13.175  0.6285 -0.6535  1.0247
  696TMC3    C810299   2.934   3.204  13.317  0.3907  0.4032  0.3297
  696TMC3    O110300   2.948   3.735  13.080  0.1238  0.2055  0.4274
  696TMC3    O210301   2.971   3.102  13.256  0.2786  0.1844 -0.0480
  697MPD2     C10302   2.186   0.184  15.166 -0.4397  0.4557  0.9708
  697MPD2    C110303   2.294   0.123  15.105  0.0142 -0.1204  0.1589
  697MPD2    C210304   2.373   0.202  15.025 -0.4155  0.1310 -0.0815
  697MPD2    C310305   2.344   0.334  14.995 -0.5255  0.5234  1.1437
  697MPD2    C410306   2.228   0.391  15.043  0.0067 -0.1186 -0.1597
  697MPD2    C510307   2.154   0.314  15.130  0.7330  0.3522 -0.3471
  697MPD2     H10308   2.463   0.153  14.991 -1.1253 -1.5624  0.4741
  697MPD2    H110309   2.198   0.494  15.030  0.6956  0.2615  1.3250
  697MPD2    H210310   2.123   0.129  15.235 -0.0802 -0.1422  0.8220
  697MPD2    H310311   2.065   0.359  15.174  0.2622  0.7235 -1.6765
  697MPD2     N10312   2.432   0.413  14.916 -0.2122  0.0662  0.6626
  697MPD2    H510313   2.512   0.366  14.874 -2.7195 -0.7500 -3.1303
  697MPD2    N110314   2.345   4.713  15.140 -0.2291  0.3901 -0.1453
  697MPD2    H710315   2.426   4.679  15.090 -0.7814 -1.3483  0.1110
  698TMC3    C110316   2.541   0.607  14.821 -0.3234 -0.1073  0.0286
  698TMC3    C210317   2.587   0.734  14.854 -0.3128 -1.0761 -0.6197
  698TMC3    C310318   2.691   0.781  14.781 -0.3647  0.4023  0.5984
  698TMC3    C410319   2.591   0.531  14.723 -0.4990  0.3585 -0.5951
  698TMC3    C510320   2.696   0.581  14.654  0.0833 -0.1680 -0.0570
  698TMC3    C610321   2.745   0.709  14.677  0.5502 -0.0149  0.9110
  698TMC3     C10322   2.435   0.553  14.902 -1.0286  0.4481  0.5281
  698TMC3     O10323   2.369   0.634  14.961 -0.3105 -0.5069  0.3875
  698TMC3     H10324   2.541   0.794  14.932  1.4671 -0.0218 -0.3558
  698TMC3    H110325   2.556   0.431  14.701  1.5439 -0.4204 -0.3141
  698TMC3    H210326   2.815   0.764  14.616  1.0511 -1.8018 -0.1382
  698TMC3    C710327   2.684   0.545  14.511 -0.2626 -0.2362  0.6458
  698TMC3    C810328   2.718   0.923  14.782 -0.2817 -0.2487 -0.7386
  698TMC3    O110329   2.585   0.486  14.468  0.5843 -0.2750 -0.4580
  698TMC3    O210330   2.634   1.004  14.806  0.3437  0.1914  0.0853
  699TMC3    C110331   3.173   3.625  12.634  0.1265  0.6345  0.7265
  699TMC3    C210332   3.177   3.504  12.693 -0.2008 -0.2163  0.3216
  699TMC3    C310333   3.078   3.475  12.778 -0.3730 -0.3932 -0.3977
  699TMC3    C410334   3.067   3.707  12.653  0.1742 -0.3101  0.1536
  699TMC3    C510335   2.962   3.679  12.737  0.3872 -0.5010  0.8936
  699TMC3    C610336   2.970   3.561  12.806 -0.1345  0.1873 -0.1199
  699TMC3     C10337   3.280   3.668  12.554  0.0349 -0.4245 -0.5631
  699TMC3     O10338   3.349   3.588  12.489  0.2117  0.3694 -0.5692
  699TMC3     H10339   3.261   3.440  12.672  0.4862  1.5550 -2.3297
  699TMC3    H110340   3.061   3.797  12.592 -3.3626 -1.3101 -0.9684
  699TMC3    H210341   2.884   3.525  12.862  1.0866  0.3250  1.8097
  699TMC3    C710342   2.848   3.771  12.756  0.7673  0.5425  0.3241
  699TMC3    C810343   3.071   3.345  12.849  0.2282 -0.2357  0.5865
  699TMC3    O110344   2.870   3.891  12.732  0.2593 -0.0954 -0.4111
  699TMC3    O210345   2.974   3.315  12.915  0.5070 -0.4386 -0.6204
  700TMC3    C110346   1.916   0.705  17.276 -0.6528 -0.1342 -0.3515
  700TMC3    C210347   1.965   0.601  17.208 -0.0895  0.6429  0.3418
  700TMC3    C310348   2.094   0.571  17.226  0.1314  0.7754  0.3914
  700TMC3    C410349   1.988   0.772  17.373  0.1605 -1.2022 -0.8694
  700TMC3    C510350   2.113   0.717  17.407 -0.2323  0.1595 -0.0977
  700TMC3    C610351   2.172   0.621  17.326  0.7705 -0.1869 -0.0909
  700TMC3     C10352   1.802   0.774  17.207 -0.3777  1.0537 -0.4225
  700TMC3     O10353   1.720   0.708  17.147  0.2456 -0.8074 -0.7946
  700TMC3     H10354   1.916   0.550  17.125 -0.7475 -0.4277  1.3912
  700TMC3    H110355   1.950   0.850  17.438 -0.7020 -1.0543 -1.5526
  700TMC3    H210356   2.280   0.617  17.323  0.7265  0.7008 -2.7204
  700TMC3    C710357   2.187   0.766  17.517 -0.4604  0.2103 -0.6175
  700TMC3    C810358   2.155   0.474  17.130 -0.3515 -0.7725 -0.0028
  700TMC3    O110359   2.259   0.681  17.567  0.1381  0.0870  0.6633
  700TMC3    O210360   2.091   0.438  17.032  0.4345  0.2262 -1.3065
  701TMC3    C110361   1.953   4.348  15.487 -0.2146  0.5879  0.0991
  701TMC3    C210362   1.981   4.253  15.391  0.3124  0.4368 -0.3541
  701TMC3    C310363   2.002   4.305  15.268  0.2809  0.4439 -0.6054
  701TMC3    C410364   1.944   4.488  15.457 -0.1151 -0.5613 -0.5454
  701TMC3    C510365   1.968   4.532  15.326  0.1965 -0.4235  0.0420
  701TMC3    C610366   1.993   4.439  15.230 -0.0172  0.2782  0.1744
  701TMC3     C10367   1.903   4.291  15.614 -0.0409 -0.4817 -0.5219
  701TMC3     O10368   1.930   4.177  15.638  0.7196  0.0475  0.3118
  701TMC3     H10369   1.991   4.148  15.415  1.3581  0.9023  1.2677
  701TMC3    H110370   1.916   4.560  15.533  1.6161  1.2513 -1.6359
  701TMC3    H210371   1.994   4.468  15.125 -1.1066  0.8709  0.3275
  701TMC3    C710372   1.903   4.654  15.292  0.2214  0.4001 -0.3751
  701TMC3    C810373   2.037   4.219  15.153 -0.5136  0.4078  0.1452
  701TMC3    O110374   1.836   4.705  15.382  0.1945  0.5580 -0.2164
  701TMC3    O210375   2.100   4.117  15.167 -0.1134  0.3379 -0.5328
  702MPD2     C10376   1.388   1.609  10.382 -0.4633 -0.3245 -0.0889
  702MPD2    C110377   1.471   1.714  10.416  0.9289 -0.1339  0.0149
  702MPD2    C210378   1.535   1.781  10.315 -0.0593 -0.3437  0.3219
  702MPD2    C310379   1.505   1.757  10.176 -0.0794  0.5635  0.1442
  702MPD2    C410380   1.422   1.656  10.149  0.0288 -0.2335  0.3701
  702MPD2    C510381   1.367   1.578  10.247 -0.3244  0.3327  0.1015
  702MPD2     H10382   1.617   1.848  10.336 -2.9360  3.3912 -0.3353
  702MPD2    H110383   1.401   1.615  10.051 -2.1287  0.9837  0.3252
  702MPD2    H210384   1.331   1.552  10.454 -0.5284 -1.1873 -0.8127
  702MPD2    H310385   1.306   1.490  10.228 -1.1539  0.9175  0.0520
  702MPD2     N10386   1.560   1.837  10.072 -0.0126  0.6382 -0.5753
  702MPD2    H510387   1.534   1.803   9.980 -0.4582 -0.4373 -0.0583
  702MPD2    N110388   1.478   1.753  10.553 -0.1176 -0.5921 -0.1807
  702MPD2    H710389   1.419   1.706  10.621 -0.2467 -0.3123 -0.1037
  703TMC3    C110390   1.630   2.043  10.192  0.1229  0.3229  0.5726
  703TMC3    C210391   1.508   2.076  10.250 -0.4931  0.3433  0.0344
  703TMC3    C310392   1.511   2.167  10.357  0.5861  0.1422  0.4735
  703TMC3    C410393   1.743   2.106  10.217 -0.1292  0.3058  0.0947
  703TMC3    C510394   1.746   2.195  10.319 -0.4849  0.4575 -0.3850
  703TMC3    C610395   1.632   2.226  10.389 -0.4224  0.3358 -0.1299
  703TMC3     C10396   1.631   1.954  10.081 -0.3296  0.1504  0.0262
  703TMC3     O10397   1.683   1.996   9.977  0.3066  0.5253 -0.2348
  703TMC3     H10398   1.419   2.019  10.226 -2.3317  1.5473  3.9770
  703TMC3    H110399   1.830   2.079  10.158 -1.0256  2.4478 -2.2344
  703TMC3    H210400   1.634   2.299  10.469 -1.2211 -1.3219  1.3829
  703TMC3    C710401   1.875   2.241  10.356 -1.0357  0.2869 -0.0779
  703TMC3    C810402   1.396   2.166  10.446 -0.1714 -0.6494 -0.5677
  703TMC3    O110403   1.958   2.246  10.263 -0.7037 -0.2376  0.1804
  703TMC3    O210404   1.400   2.250  10.534  0.4564 -0.7879 -0.1109
  704TMC3    C110405   3.783   0.331  12.414 -0.4660 -0.2379  0.2477
  704TMC3    C210406   3.915   0.330  12.449 -0.3538 -1.1090  0.1088
  704TMC3    C310407   3.968   0.214  12.499  0.3101 -0.0490 -0.1281
  704TMC3    C410408   3.700   0.226  12.443  0.3933 -0.4175  0.1967
  704TMC3    C510409   3.744   0.115  12.509  0.1903  0.1370  0.1138
  704TMC3    C610410   3.880   0.108  12.535  0.8363 -0.3044  0.3815
  704TMC3     C10411   3.740   0.436  12.328 -0.6602 -0.8043 -0.7922
  704TMC3     O10412   3.618   0.439  12.318 -0.0501  0.0156 -0.3625
  704TMC3     H10413   3.982   0.412  12.426 -0.7498 -0.7021  0.4166
  704TMC3    H110414   3.594   0.224  12.419  0.6149 -0.7152 -0.7816
  704TMC3    H210415   3.930   0.014  12.557  0.2275 -0.6394  0.3373
  704TMC3    C710416   3.686   4.716  12.475 -0.6427  0.1801 -0.0786
  704TMC3    C810417   4.086   0.183  12.433 -0.3356 -0.2684 -0.5811
  704TMC3    O110418   3.624   4.703  12.371 -0.0687 -0.5042  0.2066
  704TMC3    O210419   4.109   0.232  12.326 -0.8535 -0.0942  0.1957
  705MPD2     C10420   3.490   2.530  16.409  0.1203  1.2672 -1.1964
  705MPD2    C110421   3.416   2.523  16.292  0.8320  0.6975 -0.2155
  705MPD2    C210422   3.280   2.493  16.306  0.1485  0.1700 -0.2780
  705MPD2    C310423   3.218   2.471  16.429 -0.1262  0.5081 -0.3801
  705MPD2    C410424   3.302   2.476  16.537  0.8153  0.2081  0.5999
  705MPD2    C510425   3.433   2.504  16.532  0.4145 -0.5311 -0.8849
  705MPD2     H10426   3.224   2.489  16.213  1.7518 -0.3539 -1.2235
  705MPD2    H110427   3.252   2.469  16.633 -1.8626 -1.7433 -0.9226
  705MPD2    H210428   3.593   2.564  16.410  0.2075  0.9311  2.5156
  705MPD2    H310429   3.494   2.517  16.621  0.1937  0.9935 -0.9585
  705MPD2     N10430   3.079   2.465  16.442 -0.6930  0.6573  0.1717
  705MPD2    H510431   3.049   2.470  16.539  1.8232 -0.7331  1.0430
  705MPD2    N110432   3.462   2.562  16.166  0.6420  0.6498  0.0141
  705MPD2    H710433   3.401   2.531  16.091 -1.0842  3.0161  0.4374
  706TMC3    C110434   3.497   2.664  15.774  0.5286 -0.2699  0.0443
  706TMC3    C210435   3.508   2.799  15.746  0.4859 -1.0140  0.0403
  706TMC3    C310436   3.532   2.881  15.853  0.2698 -0.1552  0.0168
  706TMC3    C410437   3.514   2.611  15.900 -1.1933 -0.0627 -0.4575
  706TMC3    C510438   3.542   2.695  16.002  1.0130  0.7124  0.0690
  706TMC3    C610439   3.551   2.835  15.980 -0.1166 -0.0151  0.3623
  706TMC3     C10440   3.493   2.571  15.660 -0.4424 -0.2692  0.6393
  706TMC3     O10441   3.511   2.623  15.549 -0.4857 -0.2258 -0.6312
  706TMC3     H10442   3.485   2.829  15.645 -0.1671  0.0574  0.5122
  706TMC3    H110443   3.530   2.503  15.902  1.5465  0.3332 -2.6866
  706TMC3    H210444   3.559   2.900  16.066 -3.0238 -0.2552  0.8154
  706TMC3    C710445   3.559   2.651  16.136 -0.1106  0.0900 -0.7333
  706TMC3    C810446   3.531   3.024  15.828  0.8028 -0.2318  1.1366
  706TMC3    O110447   3.613   2.721  16.218 -0.0628 -0.1512 -0.0170
  706TMC3    O210448   3.520   3.047  15.710  0.1939  0.5120 -0.2753
  707TMC3    C110449   0.371   1.699   1.125 -0.4638  0.3084  0.5308
  707TMC3    C210450   0.406   1.595   1.207  0.2610  0.1406 -0.0166
  707TMC3    C310451   0.331   1.575   1.321 -0.5439  0.3868  0.2790
  707TMC3    C410452   0.253   1.767   1.146  0.2684  0.6619  0.3210
  707TMC3    C510453   0.174   1.736   1.252 -0.1102  0.2551  0.9460
  707TMC3    C610454   0.211   1.646   1.345  0.5009 -0.2702  0.0626
  707TMC3     C10455   0.464   1.742   1.026  0.2227 -0.3385  0.3714
  707TMC3     O10456   0.571   1.678   1.029  0.0985 -0.0095 -0.5048
  707TMC3     H10457   0.495   1.534   1.199 -0.7854 -1.2644 -0.8720
  707TMC3    H110458   0.217   1.849   1.085 -1.3809  0.6694  1.3132
  707TMC3    H210459   0.172   1.642   1.446 -1.4433 -1.1500 -0.7118
  707TMC3    C710460   0.048   1.803   1.262  0.3330 -0.1022 -0.3177
  707TMC3    C810461   0.374   1.483   1.435 -0.0870 -0.0640  0.3579
  707TMC3    O110462   0.024   1.894   1.188 -0.2942  0.4079  0.5324
  707TMC3    O210463   0.312   1.486   1.544 -0.1704  0.2646  0.1377
  708MPD2     C10464   1.980   1.179  13.508  0.2802  0.1525  0.2046
  708MPD2    C110465   1.917   1.159  13.627 -0.3948 -0.6804 -0.3420
  708MPD2    C210466   1.995   1.163  13.743 -0.2010 -0.6124  0.4146
  708MPD2    C310467   2.126   1.176  13.741  0.9024  0.0070 -0.2041
  708MPD2    C410468   2.189   1.181  13.621 -0.5874  0.1401 -0.4435
  708MPD2    C510469   2.116   1.176  13.503 -0.2161 -0.7845 -0.6121
  708MPD2     H10470   1.951   1.168  13.842 -1.0817 -2.5200  0.1214
  708MPD2    H110471   2.294   1.188  13.596 -0.6416 -0.8841 -0.9496
  708MPD2    H210472   1.921   1.185  13.417  1.1299 -0.3484 -0.3843
  708MPD2    H310473   2.165   1.186  13.407  0.0820  0.9293 -0.2779
  708MPD2     N10474   2.192   1.196  13.871 -0.4676  0.2801  0.1334
  708MPD2    H510475   2.131   1.197  13.952  0.3463  2.8125  0.7045
  708MPD2    N110476   1.774   1.172  13.631  0.7150  0.6384  0.6801
  708MPD2    H710477   1.732   1.198  13.543 -1.6806 -0.8089  1.4214
  709TMC3    C110478   1.559   1.232  13.729  0.0408 -0.2336 -0.1518
  709TMC3    C210479   1.567   1.361  13.675  0.1270  0.3035  0.3233
  709TMC3    C310480   1.501   1.467  13.738 -0.2063  0.6509  0.0027
  709TMC3    C410481   1.497   1.215  13.847 -0.3245  0.1983 -0.4100
  709TMC3    C510482   1.439   1.322  13.907  0.4785 -0.1930 -0.4470
  709TMC3    C610483   1.444   1.447  13.860  0.3105  0.0200 -0.6739
  709TMC3     C10484   1.690   1.163  13.741  0.0759 -0.4024  0.3213
  709TMC3     O10485   1.726   1.143  13.856  1.0247  0.2159 -0.0424
  709TMC3     H10486   1.633   1.374  13.590  0.2659 -0.2428  0.3432
  709TMC3    H110487   1.496   1.119  13.897 -3.2671 -0.1823 -1.1650
  709TMC3    H210488   1.416   1.535  13.918 -0.9163 -1.6301  1.2189
  709TMC3    C710489   1.461   1.321  14.044  0.1556 -0.0427 -0.3485
  709TMC3    C810490   1.526   1.601  13.691 -0.0830 -0.1006  0.2391
  709TMC3    O110491   1.386   1.383  14.122 -0.1443  0.0709  0.1615
  709TMC3    O210492   1.528   1.686  13.777 -0.7751  0.3790  0.8580
  710TMC3    C110493   2.706   2.767   1.323 -0.2405 -0.2374 -0.0853
  710TMC3    C210494   2.781   2.747   1.207 -0.3846  0.1774 -0.2114
  710TMC3    C310495   2.854   2.637   1.194  0.0560  0.1640  0.0448
  710TMC3    C410496   2.710   2.682   1.426  0.0013  0.1491  0.1359
  710TMC3    C510497   2.783   2.572   1.412  0.1025 -0.3117  0.0664
  710TMC3    C610498   2.860   2.551   1.299 -0.0756  0.0241 -0.0606
  710TMC3     C10499   2.657   2.899   1.352 -0.5258  0.5104  0.4676
  710TMC3     O10500   2.618   2.970   1.259 -0.1910  0.6215  0.0559
  710TMC3     H10501   2.767   2.814   1.123 -2.8476 -1.3253 -1.0193
  710TMC3    H110502   2.647   2.689   1.514  0.3367 -1.5103  0.5052
  710TMC3    H210503   2.918   2.459   1.296  1.0956  0.7621 -0.1063
  710TMC3    C710504   2.750   2.450   1.478  0.1272  0.3076 -0.2192
  710TMC3    C810505   2.962   2.621   1.103 -0.1058  0.1957  0.5329
  710TMC3    O110506   2.762   2.344   1.412  0.3831 -0.5325  0.7094
  710TMC3    O210507   3.041   2.525   1.113 -0.2816  0.0360 -0.3803
  711TMC3    C110508   2.246   3.691  14.961  0.1580 -1.0844  0.0304
  711TMC3    C210509   2.288   3.762  15.070 -0.4370 -1.0650  0.1845
  711TMC3    C310510   2.422   3.760  15.102 -0.6232  0.0458 -0.1394
  711TMC3    C410511   2.334   3.614  14.888 -0.0650  0.4820 -0.2625
  711TMC3    C510512   2.464   3.610  14.937  0.4516  0.1079  1.2319
  711TMC3    C610513   2.513   3.702  15.025 -0.2181  1.2068 -0.0722
  711TMC3     C10514   2.103   3.681  14.926 -0.0961  0.9280 -0.2051
  711TMC3     O10515   2.069   3.593  14.842 -0.2557  0.0315  0.0320
  711TMC3     H10516   2.218   3.814  15.134 -0.1948  0.5239 -0.8442
  711TMC3    H110517   2.300   3.555  14.804 -0.8541 -1.4181  1.4009
  711TMC3    H210518   2.619   3.707  15.048  0.3460  1.3524 -2.7772
  711TMC3    C710519   2.569   3.534  14.877  0.2357  0.8452 -0.7028
  711TMC3    C810520   2.452   3.779  15.242  0.4995 -0.0784 -0.1066
  711TMC3    O110521   2.675   3.536  14.935  0.5878  0.1007  0.0749
  711TMC3    O210522   2.358   3.769  15.321  0.1242 -0.1955 -0.7990
  712MPD2     C10523   3.404   0.312  13.473 -0.0302  0.0510 -0.0598
  712MPD2    C110524   3.485   0.273  13.366  0.3479 -0.0990  0.3818
  712MPD2    C210525   3.578   0.370  13.318 -0.2765 -0.3510 -0.4587
  712MPD2    C310526   3.576   0.498  13.364 -0.2025  0.2448  0.4706
  712MPD2    C410527   3.494   0.532  13.471 -0.4562 -0.2287 -0.2283
  712MPD2    C510528   3.411   0.434  13.526 -0.1915  0.3476 -0.0662
  712MPD2     H10529   3.643   0.340  13.237 -0.4987  0.8691 -1.0830
  712MPD2    H110530   3.486   0.632  13.511 -1.3389 -0.1698 -0.5407
  712MPD2    H210531   3.329   0.248  13.518  0.7764 -1.0399 -0.2822
  712MPD2    H310532   3.339   0.462  13.602 -2.5485  0.4571 -2.3296
  712MPD2     N10533   3.669   0.595  13.314 -0.1032  0.1806 -0.0254
  712MPD2    H510534   3.651   0.688  13.350 -0.3437  0.5329 -1.0770
  712MPD2    N110535   3.479   0.141  13.314  0.3682  0.3654  0.1636
  712MPD2    H710536   3.540   0.111  13.238 -0.9822  1.7302 -1.4620
  713TMC3    C110537   3.885   0.663  13.222  0.8366  0.0602 -0.2935
  713TMC3    C210538   4.005   0.624  13.274 -0.3936 -0.3694 -1.2500
  713TMC3    C310539   4.109   0.717  13.287 -0.9500  0.6236  0.5757
  713TMC3    C410540   3.850   0.798  13.195  0.1556  0.2278 -0.1454
  713TMC3    C510541   3.953   0.892  13.215 -0.6787  0.0529 -0.3402
  713TMC3    C610542   4.084   0.851  13.241 -0.3106  0.1713  0.9648
  713TMC3     C10543   3.778   0.563  13.227 -0.0841 -0.1259 -0.2982
  713TMC3     O10544   3.815   0.448  13.194 -0.7968  0.2312 -0.9795
  713TMC3     H10545   4.020   0.519  13.292 -1.5004 -0.2752  0.1907
  713TMC3    H110546   3.747   0.824  13.173 -0.2082 -0.9992  0.0914
  713TMC3    H210547   4.164   0.922  13.257  0.7182 -1.3870  2.7220
  713TMC3    C710548   3.928   1.030  13.224 -0.0895  0.9122  0.2432
  713TMC3    C810549   4.234   0.659  13.310 -0.2996  0.6843 -0.4732
  713TMC3    O110550   4.022   1.104  13.249  0.5489 -0.2983  0.1731
  713TMC3    O210551   4.234   0.555  13.368 -1.2702 -0.4112 -0.0436
  714MPD2     C10552   0.711   3.522   1.595 -0.7770  0.4616  0.4168
  714MPD2    C110553   0.744   3.439   1.490  0.2612 -0.1097 -0.2860
  714MPD2    C210554   0.671   3.440   1.372 -0.4186 -0.2446 -0.6125
  714MPD2    C310555   0.552   3.507   1.370 -0.5677 -0.3449  0.3269
  714MPD2    C410556   0.524   3.592   1.474  0.6773  0.8222  0.9566
  714MPD2    C510557   0.605   3.605   1.580 -0.0452  0.2554  0.3446
  714MPD2     H10558   0.688   3.366   1.294  1.0972 -0.3484 -0.1886
  714MPD2    H110559   0.430   3.647   1.479  0.1975  0.2658 -1.6887
  714MPD2    H210560   0.766   3.521   1.688 -0.2472  0.7361  0.1143
  714MPD2    H310561   0.581   3.680   1.655 -1.5398  0.5175 -0.3833
  714MPD2     N10562   0.458   3.454   1.272 -0.4961  0.1325 -0.3803
  714MPD2    H510563   0.492   3.378   1.214  2.7275  1.7749 -0.6291
  714MPD2    N110564   0.856   3.356   1.504  0.1753 -0.4204 -0.0644
  714MPD2    H710565   0.908   3.374   1.588 -0.2325 -2.1602  0.5628
  715TMC3    C110566   1.018   3.176   1.462 -0.0537  0.0311  0.3636
  715TMC3    C210567   1.029   3.042   1.428 -0.2541 -0.3272  0.2105
  715TMC3    C310568   1.158   2.992   1.445  0.8832  0.1639 -0.2115
  715TMC3    C410569   1.116   3.258   1.508 -0.7234  0.6970  0.3487
  715TMC3    C510570   1.239   3.194   1.532 -0.4699 -0.6146  0.0268
  715TMC3    C610571   1.263   3.062   1.507 -0.1736 -0.0174 -1.1450
  715TMC3     C10572   0.893   3.249   1.425  0.3739  0.1428  0.1711
  715TMC3     O10573   0.839   3.186   1.338  0.4851  0.4022 -0.1525
  715TMC3     H10574   0.948   2.987   1.380 -0.5776  2.4880 -2.4449
  715TMC3    H110575   1.103   3.366   1.508  2.5927  1.1225 -1.4640
  715TMC3    H210576   1.362   3.021   1.524 -0.4947 -0.4571 -0.3553
  715TMC3    C710577   1.347   3.282   1.567 -0.0915  0.6200 -0.3284
  715TMC3    C810578   1.172   2.848   1.461 -0.6280 -0.2901  0.0934
  715TMC3    O110579   1.326   3.360   1.658 -0.0162  0.3333 -0.0579
  715TMC3    O210580   1.282   2.802   1.497 -0.1218  0.0474  0.5782
  716MPD2     C10581   2.260   1.953   9.695 -0.0414  0.4501 -1.2935
  716MPD2    C110582   2.233   2.003   9.568 -0.0068 -0.0533  0.1186
  716MPD2    C210583   2.215   1.916   9.466  0.7103 -0.5163  0.7996
  716MPD2    C310584   2.207   1.777   9.481  1.0035 -0.5384  0.2586
  716MPD2    C410585   2.237   1.724   9.610  0.7671 -0.3120 -0.1302
  716MPD2    C510586   2.267   1.816   9.709 -0.2573 -0.0925 -0.5266
  716MPD2     H10587   2.189   1.958   9.369  1.5345  0.6552  1.0900
  716MPD2    H110588   2.222   1.621   9.638 -2.2173  0.8418  2.5168
  716MPD2    H210589   2.269   2.022   9.779  2.6594  0.7426 -1.8523
  716MPD2    H310590   2.273   1.777   9.810  0.3800 -0.6150 -0.7661
  716MPD2     N10591   2.151   1.696   9.375 -0.6690  0.4440 -0.1812
  716MPD2    H510592   2.109   1.749   9.299 -0.6924  1.2429  0.3893
  716MPD2    N110593   2.224   2.145   9.559  0.0138 -0.2045  0.1361
  716MPD2    H710594   2.234   2.201   9.643  1.6164 -1.8594  1.0353
  717TMC3    C110595   2.041   1.505   9.288  0.3490 -0.3471  0.2739
  717TMC3    C210596   1.944   1.587   9.239 -0.8661  0.5469  0.0780
  717TMC3    C310597   1.830   1.535   9.191  0.0234 -0.0879 -0.2360
  717TMC3    C410598   2.032   1.368   9.287 -0.4591  0.2126  0.2510
  717TMC3    C510599   1.918   1.320   9.224 -0.0929 -0.0598 -0.5637
  717TMC3    C610600   1.815   1.403   9.181 -0.2449 -0.7197  0.1176
  717TMC3     C10601   2.135   1.561   9.378  1.1228  0.3265 -0.3517
  717TMC3     O10602   2.189   1.486   9.458 -0.6795  0.4637  0.7990
  717TMC3     H10603   1.936   1.686   9.283  0.8195 -0.6981  3.2244
  717TMC3    H110604   2.099   1.304   9.342 -1.6647 -2.2960 -1.2177
  717TMC3    H210605   1.727   1.359   9.137 -0.3574 -1.7891  1.3955
  717TMC3    C710606   1.880   1.187   9.248 -0.3897  0.1706 -0.6678
  717TMC3    C810607   1.708   1.616   9.181  0.0314  0.0852 -0.1673
  717TMC3    O110608   1.765   1.160   9.231 -0.7459 -0.0546  0.3674
  717TMC3    O210609   1.606   1.552   9.158 -0.0577  0.2358  0.0355
  718MPD2     C10610   0.826   0.720  13.184 -0.1248  0.0019  0.4950
  718MPD2    C110611   0.732   0.763  13.093 -0.4236 -0.2961  0.1056
  718MPD2    C210612   0.619   0.684  13.076  0.6997 -0.3778 -0.3047
  718MPD2    C310613   0.605   0.563  13.145  0.5107  0.2307  0.6809
  718MPD2    C410614   0.698   0.527  13.241  0.0758 -0.5270  0.5000
  718MPD2    C510615   0.804   0.606  13.258 -1.0574  0.1790  0.5757
  718MPD2     H10616   0.542   0.712  13.005  1.6754  1.5920 -0.5928
  718MPD2    H110617   0.685   0.438  13.301 -0.8333  0.9712  2.5360
  718MPD2    H210618   0.918   0.775  13.203  0.1331 -0.1656 -0.2499
  718MPD2    H310619   0.882   0.575  13.326  0.5982 -1.8301 -2.2657
  718MPD2     N10620   0.502   0.478  13.109 -0.2259  0.6577 -0.3055
  718MPD2    H510621   0.430   0.530  13.060  0.4394  2.8869  1.0910
  718MPD2    N110622   0.760   0.884  13.017  0.6400  0.1689 -0.6919
  718MPD2    H710623   0.858   0.909  13.008  0.4772  0.8512 -0.5940
  719TMC3    C110624   0.713   1.039  12.835  0.2765  0.0948 -0.0075
  719TMC3    C210625   0.616   1.076  12.746 -0.0152 -0.1015 -0.4447
  719TMC3    C310626   0.640   1.093  12.613  0.9509  0.3263  0.5617
  719TMC3    C410627   0.840   1.023  12.788 -0.2943 -0.0465  0.6827
  719TMC3    C510628   0.858   1.045  12.647  0.5983 -0.1202 -0.1526
  719TMC3    C610629   0.765   1.085  12.566 -0.0261  0.4163  0.0337
  719TMC3     C10630   0.667   0.953  12.944 -0.6242 -0.1394 -0.3938
  719TMC3     O10631   0.545   0.938  12.950 -0.2359 -0.5515  0.0391
  719TMC3     H10632   0.513   1.081  12.781  0.1891  0.4104  0.0609
  719TMC3    H110633   0.921   1.001  12.857  1.0008 -0.4610 -0.9641
  719TMC3    H210634   0.776   1.085  12.458 -1.5817 -0.1491 -0.1177
  719TMC3    C710635   0.989   1.032  12.591  0.3718  1.0536 -0.1920
  719TMC3    C810636   0.547   1.017  12.530  0.3043  0.8098 -0.6526
  719TMC3    O110637   1.014   1.089  12.488 -0.3473  0.6065  0.8365
  719TMC3    O210638   0.498   1.067  12.429  0.2441 -0.0869 -0.6399
  720MPD2     C10639   4.013   1.951  13.769  0.1942 -0.0270 -0.2605
  720MPD2    C110640   4.097   2.056  13.749  0.3696 -0.0631  0.2793
  720MPD2    C210641   4.212   2.056  13.823 -0.4716  0.1012  0.0293
  720MPD2    C310642   4.226   1.970  13.931 -0.2816 -0.5407 -0.4238
  720MPD2    C410643   4.131   1.874  13.967 -0.1454  0.4799 -0.6953
  720MPD2    C510644   4.027   1.868  13.878 -0.0252  0.0960  0.4215
  720MPD2     H10645   4.284   2.135  13.804 -0.0882 -0.0763  0.7361
  720MPD2    H110646   4.150   1.799  14.042 -0.8683 -1.4564 -2.4580
  720MPD2    H210647   3.926   1.937  13.705  0.2639  0.4130 -0.4505
  720MPD2    H310648   3.960   1.785  13.897 -1.2120  0.5762 -1.6605
  720MPD2     N10649   4.345   1.996  14.011  0.1397 -0.4043  0.0342
  720MPD2    H510650   4.402   2.075  13.982 -0.2655 -0.8334 -1.9555
  720MPD2    N110651   4.082   2.151  13.651  0.7554 -0.5836 -0.0469
  720MPD2    H710652   4.155   2.218  13.631 -0.0635  0.3854  0.1882
  721TMC3    C110653   4.501   1.992  14.189  0.2271 -0.3577 -0.5780
  721TMC3    C210654   4.528   1.948  14.317 -0.0577  0.4240  0.7553
  721TMC3    C310655   4.643   1.979  14.376  0.3458  0.0818 -0.9654
  721TMC3    C410656   4.588   2.076  14.120  0.3180 -0.3144 -0.4548
  721TMC3    C510657   4.704   2.102  14.185  0.1485  0.1799  0.8527
  721TMC3    C610658   0.016   2.059  14.308 -0.3934  0.2081  0.2016
  721TMC3     C10659   4.385   1.937  14.127  0.1449 -0.2783  0.9687
  721TMC3     O10660   4.323   1.853  14.192  0.1962  0.9346 -0.2158
  721TMC3     H10661   4.449   1.896  14.369 -0.4266 -0.2519 -0.4676
  721TMC3    H110662   4.563   2.097  14.017  2.1338  1.4350 -0.5470
  721TMC3    H210663   0.107   2.094  14.356 -0.8931 -0.4420  1.6404
  721TMC3    C710664   0.095   2.173  14.127  0.5649 -0.3650 -0.0425
  721TMC3    C810665   4.642   1.991  14.518 -1.2174 -0.0950  0.6482
  721TMC3    O110666   0.201   2.120  14.130  0.2032 -0.2126 -0.5199
  721TMC3    O210667   4.714   2.076  14.569 -0.4077  0.1614  0.3364
  722MPD2     C10668   2.900   1.013  13.135 -0.8396  0.4861  0.4895
  722MPD2    C110669   2.835   1.132  13.096 -0.0386  0.0345  0.1850
  722MPD2    C210670   2.721   1.130  13.018 -0.5104 -0.3385  0.2801
  722MPD2    C310671   2.668   1.009  12.973  0.2288 -0.1416  0.7677
  722MPD2    C410672   2.726   0.895  13.013  0.9823 -0.1329 -0.1301
  722MPD2    C510673   2.841   0.904  13.085  0.1559  0.6871 -0.5993
  722MPD2     H10674   2.683   1.228  12.989 -0.8404 -0.5412  0.0294
  722MPD2    H110675   2.703   0.797  12.975  0.8145  0.2084 -0.9122
  722MPD2    H210676   2.995   1.002  13.186 -0.8794  0.3382  0.5305
  722MPD2    H310677   2.894   0.813  13.114  0.8910  0.6807 -1.9593
  722MPD2     N10678   2.556   1.010  12.890 -0.1665  0.0646  0.0739
  722MPD2    H510679   2.527   1.100  12.852  3.4316  0.7536 -1.1088
  722MPD2    N110680   2.895   1.256  13.127  1.0085 -0.0660 -0.4592
  722MPD2    H710681   2.853   1.339  13.088 -1.1685 -0.5392  0.9105
  723TMC3    C110682   2.371   0.927  12.767 -0.3268  0.2308  0.2897
  723TMC3    C210683   2.306   0.827  12.712  0.2148  0.0598  0.1198
  723TMC3    C310684   2.185   0.848  12.647  0.7095 -0.6444  0.2438
  723TMC3    C410685   2.314   1.050  12.784  0.3361 -0.1146  0.3876
  723TMC3    C510686   2.193   1.073  12.726  0.4132  0.1572 -0.4999
  723TMC3    C610687   2.125   0.971  12.660 -0.0752 -0.1894  0.4497
  723TMC3     C10688   2.486   0.902  12.856  0.1872 -0.2139  0.0542
  723TMC3     O10689   2.498   0.782  12.878 -0.1994 -0.1631 -0.2182
  723TMC3     H10690   2.352   0.730  12.723  0.1833 -0.0271 -0.4746
  723TMC3    H110691   2.350   1.132  12.845 -3.1186  0.2456  1.8914
  723TMC3    H210692   2.030   0.989  12.610 -0.3021  0.4753  1.1304
  723TMC3    C710693   2.149   1.211  12.730  0.3089  0.3575 -0.0103
  723TMC3    C810694   2.096   0.740  12.632  0.4054  0.2678 -0.3099
  723TMC3    O110695   2.189   1.282  12.818  0.0171 -0.3366  0.1215
  723TMC3    O210696   1.983   0.763  12.670  0.3394  0.2650  0.3028
  724TMC3    C110697   3.223   3.568   9.807  0.0627 -0.6538  0.7674
  724TMC3    C210698   3.145   3.642   9.714  0.1019 -0.2989 -0.0083
  724TMC3    C310699   3.216   3.745   9.650 -0.5133 -0.3054 -0.5876
  724TMC3    C410700   3.348   3.605   9.854 -0.1499 -0.2595 -0.0077
  724TMC3    C510701   3.402   3.711   9.796 -0.1251  0.0241 -0.0814
  724TMC3    C610702   3.347   3.779   9.691  0.4688 -0.3812  0.0416
  724TMC3     C10703   3.185   3.431   9.830 -0.2217 -0.1411  0.4138
  724TMC3     O10704   3.270   3.369   9.888  0.6182 -0.2769  0.0478
  724TMC3     H10705   3.042   3.617   9.693 -0.4863  1.4876  0.7457
  724TMC3    H110706   3.403   3.547   9.927 -2.2110 -2.0399  0.1202
  724TMC3    H210707   3.401   3.862   9.646  0.1612  0.0199  0.4138
  724TMC3    C710708   3.539   3.749   9.836 -0.3061  0.5743  0.4587
  724TMC3    C810709   3.133   3.842   9.571 -0.1349  0.0028 -0.1041
  724TMC3    O110710   3.602   3.807   9.748 -0.4889 -0.7343  0.5519
  724TMC3    O210711   3.019   3.818   9.545 -0.7544 -0.0873  0.3541
  725TMC3    C110712   4.437   2.554  12.734 -1.1480 -0.2368  0.6061
  725TMC3    C210713   4.471   2.586  12.603  0.5616  0.0209  0.3278
  725TMC3    C310714   4.542   2.481  12.536  1.1059  0.6714  0.9949
  725TMC3    C410715   4.485   2.439  12.788 -0.7174 -0.5995 -0.2841
  725TMC3    C510716   4.569   2.349  12.725 -0.0964  0.1423 -0.2106
  725TMC3    C610717   4.586   2.364  12.593  0.4956  0.6465 -0.0219
  725TMC3     C10718   4.427   2.664  12.826 -0.0635 -0.9952  0.2481
  725TMC3     O10719   4.340   2.636  12.910  0.1311  0.1489 -0.2505
  725TMC3     H10720   4.418   2.667  12.554  1.3560  0.5584  0.3582
  725TMC3    H110721   4.463   2.411  12.891 -0.1869 -0.3805 -0.1129
  725TMC3    H210722   4.663   2.311  12.539 -2.3538 -3.5799  0.0714
  725TMC3    C710723   4.697   2.321  12.786  0.3935  0.3311 -0.0110
  725TMC3    C810724   4.558   2.494  12.393 -0.6255  0.6906 -0.0103
  725TMC3    O110725   0.050   2.233  12.740  0.4149  0.3333 -0.1546
  725TMC3    O210726   4.592   2.388  12.344  0.9063 -0.2041 -0.2105
  726MPD2     C10727   2.524   4.277   9.703 -0.8141  1.0453  0.3459
  726MPD2    C110728   2.581   4.246   9.823  0.1930  0.4085 -0.3532
  726MPD2    C210729   2.542   4.128   9.889  0.1077 -0.4480  0.0175
  726MPD2    C310730   2.443   4.051   9.844  0.5860  0.4741  0.5765
  726MPD2    C410731   2.389   4.090   9.717 -0.3583  0.4333  0.2139
  726MPD2    C510732   2.427   4.204   9.644  0.2769 -0.0453 -1.3023
  726MPD2     H10733   2.599   4.118   9.981  1.2462 -1.2808 -0.7643
  726MPD2    H110734   2.318   4.022   9.673  0.3665  0.1382 -0.5013
  726MPD2    H210735   2.568   4.360   9.648  1.8622  1.2019  2.7043
  726MPD2    H310736   2.374   4.248   9.560 -2.4145  0.1246  0.4878
  726MPD2     N10737   2.398   3.932   9.898 -0.2540 -0.1498  0.8731
  726MPD2    H510738   2.330   3.885   9.839  1.0969 -0.3513 -0.5251
  726MPD2    N110739   2.688   4.333   9.857 -0.2384 -0.0980  0.2577
  726MPD2    H710740   2.696   4.422   9.808  1.7832 -0.4007  0.0218
  727TMC3    C110741   2.880   4.410   9.974  0.5347  0.2511 -0.0074
  727TMC3    C210742   3.003   4.371  10.022  0.0273  0.2787  0.0855
  727TMC3    C310743   3.096   4.467  10.042 -0.3579 -0.6731  0.5093
  727TMC3    C410744   2.846   4.538   9.954 -0.2254  0.4977 -0.7110
  727TMC3    C510745   2.943   4.634   9.982 -0.3641 -0.3260  0.2822
  727TMC3    C610746   3.073   4.596  10.022 -0.7865  0.0709 -0.2430
  727TMC3     C10747   2.785   4.299   9.947  0.0603 -0.7986  0.0375
  727TMC3     O10748   2.814   4.192  10.001 -0.1309  0.1156 -0.5819
  727TMC3     H10749   3.029   4.268  10.044  0.5373  0.0960 -1.4039
  727TMC3    H110750   2.744   4.567   9.931 -0.6961 -1.3502 -0.8946
  727TMC3    H210751   3.145   4.671  10.051 -1.2636  0.1638  0.6993
  727TMC3    C710752   2.924   0.053   9.959 -0.3225  1.2745  0.1138
  727TMC3    C810753   3.226   4.430  10.074 -0.1394 -0.9518 -0.2465
  727TMC3    O110754   2.834   0.081   9.881  0.2213 -0.3073  0.4916
  727TMC3    O210755   3.245   4.322  10.133 -0.1919 -0.3129 -0.3496
  728TMC3    C110756   1.722   2.562  15.408 -0.0555 -0.2196  0.1899
  728TMC3    C210757   1.847   2.590  15.366  0.8532 -0.2191  0.9095
  728TMC3    C310758   1.868   2.617  15.234 -0.0718 -0.5994  0.0956
  728TMC3    C410759   1.617   2.551  15.319 -0.2105 -0.0892 -0.4196
  728TMC3    C510760   1.647   2.572  15.190 -0.5901  0.4152  0.3226
  728TMC3    C610761   1.769   2.614  15.144 -0.5921 -0.3360 -0.7591
  728TMC3     C10762   1.686   2.550  15.546  0.0041  0.2141 -0.5633
  728TMC3     O10763   1.754   2.593  15.637  0.2063  0.5134  0.1852
  728TMC3     H10764   1.928   2.607  15.436  0.9879 -0.9280  0.9267
  728TMC3    H110765   1.513   2.529  15.340 -0.5155  0.3996 -1.4021
  728TMC3    H210766   1.784   2.622  15.037  2.1443 -1.7776 -0.5039
  728TMC3    C710767   1.533   2.580  15.102  0.1702 -0.4767  0.1604
  728TMC3    C810768   2.007   2.646  15.195 -0.7392 -0.5542 -0.1097
  728TMC3    O110769   1.424   2.539  15.141  0.8269  0.1133 -0.1068
  728TMC3    O210770   2.103   2.616  15.267 -0.4406 -0.4753  0.3259
  729MPD2     C10771   3.754   3.801  16.184  0.9740  0.0001  0.1610
  729MPD2    C110772   3.860   3.716  16.211  0.0797  0.7356  0.6416
  729MPD2    C210773   3.867   3.658  16.338  0.5754 -0.2670  0.5021
  729MPD2    C310774   3.778   3.702  16.434 -0.7525  0.0144 -0.1159
  729MPD2    C410775   3.672   3.787  16.411 -0.0876  0.4343 -0.0425
  729MPD2    C510776   3.666   3.830  16.285 -0.2240  0.2842  0.7852
  729MPD2     H10777   3.957   3.604  16.368 -0.9391 -0.5502  4.5665
  729MPD2    H110778   3.606   3.824  16.489 -1.6470 -1.2835 -0.5546
  729MPD2    H210779   3.741   3.841  16.084  1.6009 -0.7385 -0.2218
  729MPD2    H310780   3.583   3.892  16.254 -0.7627  0.0815  1.8156
  729MPD2     N10781   3.780   3.644  16.567 -0.1472 -0.2917  0.0838
  729MPD2    H510782   3.720   3.683  16.640 -1.5286 -1.6620 -0.3181
  729MPD2    N110783   3.956   3.701  16.110 -0.3904  0.0605 -0.6207
  729MPD2    H710784   3.929   3.759  16.031 -2.8996  0.5982  0.6318
  730TMC3    C110785   3.847   3.516  16.743  0.5532 -0.1294 -0.2309
  730TMC3    C210786   3.969   3.518  16.801 -0.4890  0.1294 -0.2424
  730TMC3    C310787   3.971   3.572  16.927 -0.4726 -0.3678  0.5282
  730TMC3    C410788   3.731   3.557  16.800 -0.1630 -0.2384  0.0365
  730TMC3    C510789   3.736   3.595  16.927  0.1428 -0.3668 -0.4179
  730TMC3    C610790   3.854   3.597  16.995 -0.0832 -0.4433  0.7065
  730TMC3     C10791   3.861   3.538  16.603  0.1814 -0.4934 -0.3920
  730TMC3     O10792   3.946   3.480  16.545 -0.2858  0.2027  0.0313
  730TMC3     H10793   4.057   3.479  16.752 -0.5112  2.8718 -2.4432
  730TMC3    H110794   3.637   3.549  16.746 -0.8698  3.3788  0.7225
  730TMC3    H210795   3.856   3.613  17.102  0.1265 -1.2310  0.8169
  730TMC3    C710796   3.676   3.727  16.929  0.1479 -0.0578 -0.7544
  730TMC3    C810797   4.071   3.672  16.940  0.4491 -0.0658  0.2447
  730TMC3    O110798   3.656   3.785  16.825 -0.3199  0.0877  0.1166
  730TMC3    O210799   4.164   3.675  16.861 -0.3314 -0.6591  0.4145
  731MPD2     C10800   4.573   1.896  11.623 -0.2156 -0.3382  0.0040
  731MPD2    C110801   4.684   1.899  11.703 -0.4638 -0.4877 -0.0413
  731MPD2    C210802   4.681   1.854  11.837  0.7742  0.3179 -0.7552
  731MPD2    C310803   4.562   1.799  11.881  0.0568  0.5282 -0.2793
  731MPD2    C410804   4.450   1.800  11.799  0.0278  0.2283  0.6578
  731MPD2    C510805   4.451   1.848  11.673 -0.4983  0.3595  0.4958
  731MPD2     H10806   0.040   1.847  11.908 -1.3927 -0.6424  1.6916
  731MPD2    H110807   4.357   1.755  11.832 -1.2816  1.6613 -1.0174
  731MPD2    H210808   4.561   1.946  11.528  1.4294 -0.8769 -0.4900
  731MPD2    H310809   4.363   1.839  11.611  0.4402  0.0435 -0.7904
  731MPD2     N10810   4.562   1.736  12.005 -0.3668  0.3301  0.9328
  731MPD2    H510811   4.652   1.712  12.044  0.4203  1.2167 -0.3129
  731MPD2    N110812   0.063   1.965  11.647 -0.1143  0.1689 -0.3873
  731MPD2    H710813   0.041   1.995  11.553  0.0837  0.3377 -0.3799
  732TMC3    C110814   0.195   2.151  11.655  0.0364 -0.7143 -0.2386
  732TMC3    C210815   0.142   2.163  11.528 -0.3415 -0.0061  0.1029
  732TMC3    C310816   0.086   2.280  11.491 -0.7712  0.7533  0.0111
  732TMC3    C410817   0.184   2.249  11.746 -0.2131 -0.4087  0.2877
  732TMC3    C510818   0.110   2.358  11.709  0.2268 -0.1070  0.2346
  732TMC3    C610819   0.072   2.384  11.581  0.3327 -0.1119 -0.3731
  732TMC3     C10820   0.170   2.020  11.708  0.1582 -0.8270 -0.0136
  732TMC3     O10821   0.218   1.990  11.819  0.0855 -0.0778 -0.4256
  732TMC3     H10822   0.165   2.092  11.449 -1.3345  0.7409 -0.8533
  732TMC3    H110823   0.214   2.226  11.848 -1.1513 -1.7913  0.2561
  732TMC3    H210824   4.717   2.456  11.559  0.5041 -0.7313 -2.9685
  732TMC3    C710825   0.129   2.481  11.789  0.0562 -0.1501  0.3739
  732TMC3    C810826   4.705   2.265  11.381  0.1197 -0.1430 -0.3948
  732TMC3    O110827   0.095   2.583  11.739 -0.3299  0.4174  0.4510
  732TMC3    O210828   0.039   2.221  11.282  0.7224  0.1365  0.1551
  733TMC3    C110829   0.235   0.133  12.967  0.4161 -0.3497  0.3334
  733TMC3    C210830   0.320   0.180  13.069 -0.6559 -0.2712  0.3491
  733TMC3    C310831   0.406   0.279  13.036  1.0600  0.6895 -0.5186
  733TMC3    C410832   0.226   0.180  12.838  0.8964 -1.0600 -0.7034
  733TMC3    C510833   0.324   0.275  12.810 -0.9474 -0.5211 -0.1829
  733TMC3    C610834   0.415   0.323  12.906 -0.2769  0.2694  0.3204
  733TMC3     C10835   0.109   0.092  13.023  0.4251 -0.9739  0.0865
  733TMC3     O10836   0.055   0.168  13.101  0.0773 -0.0394 -0.0231
  733TMC3     H10837   0.321   0.148  13.172 -2.5446  0.7854  0.6998
  733TMC3    H110838   0.158   0.137  12.765  0.3986  0.8943 -1.4064
  733TMC3    H210839   0.512   0.363  12.881 -1.3725  0.8667 -2.9870
  733TMC3    C710840   0.310   0.349  12.684  0.2443 -0.0536  0.2368
  733TMC3    C810841   0.497   0.341  13.131  0.0531 -0.0642 -0.3083
  733TMC3    O110842   0.210   0.327  12.619 -0.7799  0.5823 -0.2768
  733TMC3    O210843   0.564   0.265  13.199 -0.0087 -0.3227 -0.0642
  734MPD2     C10844   2.900   3.229  12.060 -0.1038 -0.0692  0.5016
  734MPD2    C110845   2.780   3.185  12.015 -0.2881  0.6572 -0.2439
  734MPD2    C210846   2.745   3.202  11.880  0.6496 -0.6676  0.5118
  734MPD2    C310847   2.829   3.262  11.791  0.1069  1.1632 -1.1561
  734MPD2    C410848   2.952   3.318  11.837  0.1988 -0.7516  0.3919
  734MPD2    C510849   2.987   3.288  11.974 -0.5349  0.0044 -0.0647
  734MPD2     H10850   2.659   3.171  11.822  0.5305  4.9082 -2.3321
  734MPD2    H110851   3.010   3.377  11.767 -0.8423 -0.4255 -0.1842
  734MPD2    H210852   2.929   3.216  12.164 -0.5182  0.8524  0.7329
  734MPD2    H310853   3.085   3.322  12.007  0.4422 -1.5710 -1.3476
  734MPD2     N10854   2.794   3.270  11.653 -1.0821  0.1050  0.3638
  734MPD2    H510855   2.713   3.212  11.631 -1.9191  1.3171  0.2340
  734MPD2    N110856   2.694   3.122  12.115 -0.1712  0.5429  0.6195
  734MPD2    H710857   2.732   3.104  12.207  0.5221  0.3197  0.2900
  735TMC3    C110858   2.510   2.978  12.162  0.7691 -0.9876  0.0092
  735TMC3    C210859   2.381   2.949  12.118 -0.2476  0.0216  0.8598
  735TMC3    C310860   2.348   2.824  12.104  0.4431 -0.1224 -0.2244
  735TMC3    C410861   2.602   2.876  12.172  0.4290 -1.1028 -0.2112
  735TMC3    C510862   2.559   2.745  12.174  0.6614  0.0866 -0.0422
  735TMC3    C610863   2.426   2.716  12.146  0.1562  0.1411  0.0195
  735TMC3     C10864   2.561   3.094  12.086 -0.5709  0.5921 -0.0333
  735TMC3     O10865   2.484   3.125  11.991  0.7185  0.7035  0.0431
  735TMC3     H10866   2.304   3.026  12.121  0.2947  0.5037  2.3764
  735TMC3    H110867   2.709   2.887  12.185  0.3947 -1.9969  0.8876
  735TMC3    H210868   2.396   2.615  12.122 -2.8026  0.8879  0.5570
  735TMC3    C710869   2.653   2.653  12.114  0.3561  0.2645  0.3743
  735TMC3    C810870   2.293   2.801  11.975  0.3486 -0.1162 -0.3054
  735TMC3    O110871   2.747   2.710  12.060  0.1930  0.6029  0.2928
  735TMC3    O210872   2.236   2.695  11.950 -0.5751  0.1531 -0.3015
  736MPD2     C10873   2.665   2.287  12.086  0.0503 -0.4024  0.7629
  736MPD2    C110874   2.704   2.419  12.070 -0.4669 -0.9023  0.1565
  736MPD2    C210875   2.834   2.439  12.012 -0.2051  0.0350  0.2967
  736MPD2    C310876   2.910   2.338  11.950  0.6160  0.6390 -0.1601
  736MPD2    C410877   2.870   2.215  11.972 -0.3636 -0.7437  0.3466
  736MPD2    C510878   2.753   2.195  12.037  0.5917  0.0645 -0.4369
  736MPD2     H10879   2.878   2.536  12.029  2.7959 -1.3559  0.5068
  736MPD2    H110880   2.922   2.127  11.935 -1.8992 -0.5959 -2.1480
  736MPD2    H210881   2.583   2.262  12.153  0.0860 -0.4639  0.7841
  736MPD2    H310882   2.732   2.089  12.049 -0.1754  0.2110 -0.5424
  736MPD2     N10883   3.037   2.355  11.891 -0.1817 -0.2850  0.0667
  736MPD2    H510884   3.072   2.279  11.834 -1.9643 -1.0189 -0.0623
  736MPD2    N110885   2.625   2.519  12.129  0.2241 -0.0195 -0.9599
  736MPD2    H710886   2.534   2.497  12.169  1.7645 -2.4770  1.1916
  737TMC3    C110887   3.215   2.467  11.792  0.3162 -0.5547 -0.1947
  737TMC3    C210888   3.284   2.583  11.786  0.0512 -0.3950  0.1768
  737TMC3    C310889   3.388   2.583  11.693 -0.0650  0.3805 -0.1231
  737TMC3    C410890   3.247   2.350  11.735 -0.8909 -0.0786 -0.3159
  737TMC3    C510891   3.356   2.353  11.654 -0.7797  0.3227  0.3462
  737TMC3    C610892   3.423   2.470  11.625  0.4162  0.1404 -0.2457
  737TMC3     C10893   3.104   2.473  11.883 -0.0407 -0.3231  0.1477
  737TMC3     O10894   3.103   2.564  11.968  0.0262  0.1943  0.3689
  737TMC3     H10895   3.247   2.676  11.829 -1.4775 -0.7489 -0.3824
  737TMC3    H110896   3.198   2.253  11.742  1.4433 -1.1857  0.6024
  737TMC3    H210897   3.512   2.472  11.562  1.2573  0.9924  0.9741
  737TMC3    C710898   3.405   2.232  11.600 -0.0706  0.3918 -0.0094
  737TMC3    C810899   3.402   2.708  11.621  0.9702  0.4493  0.5965
  737TMC3    O110900   3.351   2.132  11.648  0.3626  0.0122 -0.6169
  737TMC3    O210901   3.349   2.806  11.673 -0.3994  0.3182  0.1778
  738MPD2     C10902   2.825   1.156  14.634 -0.1807 -0.4362 -0.4757
  738MPD2    C110903   2.904   1.065  14.707 -0.1634 -0.1010  0.4796
  738MPD2    C210904   3.035   1.097  14.724  0.3172 -0.4297  0.3298
  738MPD2    C310905   3.089   1.217  14.676  0.0340 -0.6508  0.0399
  738MPD2    C410906   3.007   1.316  14.622  0.1045 -0.2104 -0.6692
  738MPD2    C510907   2.874   1.279  14.602  0.2079  0.0593 -0.4586
  738MPD2     H10908   3.094   1.030  14.785  1.2506  1.3405  1.3848
  738MPD2    H110909   3.046   1.416  14.606  2.3415 -1.2267 -1.6314
  738MPD2    H210910   2.718   1.139  14.627 -0.4951  0.7220  1.5020
  738MPD2    H310911   2.809   1.354  14.558  0.6275 -0.3923 -1.8467
  738MPD2     N10912   3.226   1.255  14.688 -0.3683 -0.8326  0.0349
  738MPD2    H510913   3.253   1.344  14.645 -1.9100  0.4137  1.6435
  738MPD2    N110914   2.851   0.945  14.759 -1.3483  0.5165 -0.3655
  738MPD2    H710915   2.910   0.864  14.777 -0.5740  0.3501 -3.6475
  739TMC3    C110916   3.459   1.232  14.710 -0.2459  0.2024 -0.2061
  739TMC3    C210917   3.473   1.326  14.612  0.7588  0.4813 -0.6678
  739TMC3    C310918   3.590   1.350  14.556 -0.6176  0.4807  0.1209
  739TMC3    C410919   3.572   1.161  14.755 -0.0911  0.1019  0.5639
  739TMC3    C510920   3.694   1.195  14.698  1.0318 -0.2875 -0.0450
  739TMC3    C610921   3.703   1.287  14.594 -0.4365  0.5666  0.1026
  739TMC3     C10922   3.328   1.186  14.747 -0.4329 -0.5318  0.0540
  739TMC3     O10923   3.324   1.082  14.812 -0.4111  0.1641  0.0854
  739TMC3     H10924   3.389   1.370  14.560  0.1589 -0.8994 -0.8724
  739TMC3    H110925   3.559   1.079  14.825 -0.1649  0.0096  0.4431
  739TMC3    H210926   3.791   1.299  14.532  0.2535 -0.1435  0.9513
  739TMC3    C710927   3.805   1.105  14.706 -0.1507  0.0231 -0.0859
  739TMC3    C810928   3.592   1.426  14.433 -0.6752 -0.4209  0.1395
  739TMC3    O110929   3.895   1.113  14.623 -0.0406 -0.2439  0.2692
  739TMC3    O210930   3.482   1.428  14.374 -0.2162 -0.3517  0.2254
  740TMC3    C110931   3.733   2.643  14.122  0.3161  0.1775 -0.0934
  740TMC3    C210932   3.791   2.598  14.241 -0.8173  0.0436  0.3278
  740TMC3    C310933   3.913   2.533  14.227  0.0138  0.4007  0.3167
  740TMC3    C410934   3.785   2.616  13.999  0.2466 -0.4617 -0.8138
  740TMC3    C510935   3.905   2.551  13.999 -0.7729  1.0500  0.1575
  740TMC3    C610936   3.967   2.502  14.110  0.2132 -0.2266  0.1902
  740TMC3     C10937   3.600   2.701  14.128 -0.0352 -0.7774 -0.7468
  740TMC3     O10938   3.567   2.764  14.032 -0.2131  0.1553  0.1333
  740TMC3     H10939   3.754   2.629  14.338  2.3106  1.5777  1.0463
  740TMC3    H110940   3.725   2.639  13.912  0.6232 -1.4963 -1.3484
  740TMC3    H210941   4.066   2.459  14.099 -0.0522 -0.5473 -0.8589
  740TMC3    C710942   3.971   2.519  13.873  0.1767  0.0144  0.3274
  740TMC3    C810943   3.971   2.486  14.351  0.0507  0.0226  0.1794
  740TMC3    O110944   4.054   2.425  13.870  0.0855  0.1662  0.3844
  740TMC3    O210945   3.897   2.506  14.447 -0.0983 -0.9786  0.5495
  741TMC3    C110946   3.285   1.967  13.993  0.5317 -0.1141 -0.3411
  741TMC3    C210947   3.164   1.911  13.958  0.3110  0.5112  0.7163
  741TMC3    C310948   3.120   1.806  14.028 -0.1589  0.1443  0.3981
  741TMC3    C410949   3.351   1.931  14.108 -1.2063  0.5049 -0.2289
  741TMC3    C510950   3.291   1.832  14.183 -0.1222 -0.1521  0.7285
  741TMC3    C610951   3.179   1.765  14.141  0.0899 -0.4687  0.1289
  741TMC3     C10952   3.348   2.064  13.907  0.4701 -0.1926 -0.3171
  741TMC3     O10953   3.472   2.068  13.913 -0.6202 -0.4416 -0.4119
  741TMC3     H10954   3.094   1.948  13.883  2.7916  0.0142 -1.8486
  741TMC3    H110955   3.452   1.967  14.122 -1.4549  0.4626  1.7058
  741TMC3    H210956   3.139   1.681  14.197 -0.4602  1.7915  3.1442
  741TMC3    C710957   3.334   1.809  14.316 -0.5507 -0.0931  0.0354
  741TMC3    C810958   3.009   1.722  13.974 -0.9545 -0.2060 -0.2886
  741TMC3    O110959   3.278   1.718  14.374  0.0183 -0.4221 -0.5924
  741TMC3    O210960   2.966   1.768  13.866 -0.2427 -0.6511 -0.0034
  742TMC3    C110961   2.914   0.345  15.058  0.1046 -0.8582 -0.1531
  742TMC3    C210962   2.908   0.387  14.931 -0.0391 -0.0455  0.6210
  742TMC3    C310963   3.019   0.394  14.860 -0.6169 -0.0168  0.6022
  742TMC3    C410964   3.030   0.312  15.125  0.0010 -0.5309 -0.0194
  742TMC3    C510965   3.146   0.308  15.049 -0.3248  0.9546  0.0900
  742TMC3    C610966   3.139   0.349  14.917 -0.2520 -0.0960 -0.0771
  742TMC3     C10967   2.797   0.372  15.136 -0.2522 -0.4290 -0.0447
  742TMC3     O10968   2.740   0.479  15.122  0.0832  0.3021  0.7397
  742TMC3     H10969   2.815   0.405  14.879 -0.5336 -0.3777  1.3880
  742TMC3    H110970   3.026   0.281  15.229  1.3896 -0.9514 -0.0921
  742TMC3    H210971   3.223   0.335  14.850  2.1219  2.3551  2.3731
  742TMC3    C710972   3.241   0.206  15.087  0.7633 -0.3760  0.7683
  742TMC3    C810973   3.003   0.355  14.721  0.0545  0.4561  0.2859
  742TMC3    O110974   3.301   0.158  14.989 -0.1084 -0.7212  0.0001
  742TMC3    O210975   2.895   0.318  14.677 -0.1666 -0.3014  0.2877
  743MPD2     C10976   1.409   1.080   1.796 -0.7831 -0.4819 -0.1125
  743MPD2    C110977   1.421   1.027   1.667  0.4115  0.4691  0.9260
  743MPD2    C210978   1.547   1.007   1.617 -0.0852  0.5972 -0.1514
  743MPD2    C310979   1.658   1.029   1.686 -0.2129  0.1840  0.2993
  743MPD2    C410980   1.639   1.074   1.816 -0.1598 -0.1660  0.2903
  743MPD2    C510981   1.515   1.101   1.871  0.1111 -0.8123  0.2215
  743MPD2     H10982   1.569   0.962   1.521  1.9262  0.0341  0.5770
  743MPD2    H110983   1.723   1.104   1.877 -0.2712  2.3739 -0.8218
  743MPD2    H210984   1.311   1.087   1.841  0.3486  1.4748  2.0287
  743MPD2    H310985   1.523   1.130   1.975  0.6210  0.5920 -0.2111
  743MPD2     N10986   1.779   0.994   1.624 -1.0270  0.3174 -0.1056
  743MPD2    H510987   1.777   0.976   1.524  0.5463  0.2055 -0.1196
  743MPD2    N110988   1.304   0.986   1.601  0.1457 -0.6957 -0.6339
  743MPD2    H710989   1.215   1.015   1.641  0.7178 -1.1880  1.0092
  744TMC3    C110990   1.187   0.880   1.427  0.5070  0.5108 -0.6002
  744TMC3    C210991   1.076   0.959   1.447 -0.6150  0.4196  0.6071
  744TMC3    C310992   0.965   0.928   1.364 -0.0950  0.2087  0.2831
  744TMC3    C410993   1.195   0.781   1.339  0.0090 -0.6531 -0.0143
  744TMC3    C510994   1.092   0.767   1.255 -0.4107 -0.3371  0.2504
  744TMC3    C610995   0.972   0.834   1.269  0.0933 -0.0275  0.7495
  744TMC3     C10996   1.308   0.893   1.505 -0.9605 -0.2237  0.3110
  744TMC3     O10997   1.406   0.823   1.471  0.1841 -0.1376 -0.6694
  744TMC3     H10998   1.087   1.050   1.505 -0.1469 -0.1908  1.4718
  744TMC3    H110999   1.283   0.719   1.327 -0.8471 -1.6179 -1.1905
  744TMC3    H211000   0.894   0.818   1.195 -0.1016 -0.9821  1.1595
  744TMC3    C711001   1.126   0.703   1.133  0.0118  0.1894 -0.3877
  744TMC3    C811002   0.851   1.023   1.359  0.4185 -0.1709  0.9154
  744TMC3    O111003   1.242   0.712   1.100  0.2070 -0.1047 -0.3013
  744TMC3    O211004   0.783   1.035   1.258 -0.5545 -0.3520  0.1772
  745TMC3    C111005   3.300   0.005  13.256  0.2226 -0.5485  0.2708
  745TMC3    C211006   3.178   4.717  13.323 -0.1514  0.7007  0.4050
  745TMC3    C311007   3.080   0.079  13.281  0.7142  0.2531  0.2070
  745TMC3    C411008   3.322   0.091  13.148  0.4200  0.1160  0.0406
  745TMC3    C511009   3.224   0.167  13.105  0.9106  0.2530 -0.1127
  745TMC3    C611010   3.108   0.171  13.182 -0.4398  0.7223 -0.4367
  745TMC3     C11011   3.390   0.044  13.360  0.1506  0.2221  0.2303
  745TMC3     O11012   3.360   0.028  13.479 -0.0573 -0.2645 -0.0313
  745TMC3     H11013   3.161   4.653  13.409  0.1903 -0.4461 -0.3784
  745TMC3    H111014   3.401   0.064  13.080 -0.8296  0.7368 -1.6604
  745TMC3    H211015   3.023   0.229  13.146 -1.8734 -1.0298  0.1126
  745TMC3    C711016   3.259   0.294  13.030 -0.1450 -0.1204 -0.0480
  745TMC3    C811017   3.019   0.160  13.387  0.5578  0.2736 -0.0371
  745TMC3    O111018   3.171   0.380  13.016  0.0309 -0.0728  0.4951
  745TMC3    O211019   2.934   0.243  13.359 -0.5962 -0.1547 -0.0124
  746TMC3    C111020   1.363   1.975  10.862  0.7537  0.4809 -0.2671
  746TMC3    C211021   1.464   1.975  10.769 -0.0952  0.2092 -0.1048
  746TMC3    C311022   1.540   1.863  10.745  0.1626 -0.5908  0.3770
  746TMC3    C411023   1.341   1.859  10.932  0.0481 -0.1815  0.5031
  746TMC3    C511024   1.418   1.750  10.904 -0.2042  0.2428  0.7975
  746TMC3    C611025   1.501   1.743  10.804 -0.1908 -1.0182 -0.6920
  746TMC3     C11026   1.312   2.097  10.925  0.3851  0.5891  0.2197
  746TMC3     O11027   1.265   2.080  11.040 -0.1241 -0.3630 -0.7484
  746TMC3     H11028   1.504   2.070  10.738 -0.6883  0.3623 -0.3899
  746TMC3    H111029   1.258   1.852  11.001 -0.3468 -0.6835 -0.0318
  746TMC3    H211030   1.546   1.645  10.788  0.9917 -0.4098 -1.0840
  746TMC3    C711031   1.323   1.641  10.897  0.0281 -0.4277 -0.8066
  746TMC3    C811032   1.552   1.857  10.601  0.1759  0.4039 -0.4871
  746TMC3    O111033   1.308   1.615  10.779  0.3163  0.3855  0.6207
  746TMC3    O211034   1.620   1.940  10.547 -0.2526 -0.0434  0.1330
  747TMC3    C111035   3.996   2.199  10.729  0.8763 -0.2077 -0.8404
  747TMC3    C211036   3.896   2.128  10.794  0.1346  0.2434 -0.4805
  747TMC3    C311037   3.872   2.151  10.928  0.3784 -0.5549 -0.4841
  747TMC3    C411038   4.057   2.307  10.792  0.7665  0.4072  0.3068
  747TMC3    C511039   4.036   2.322  10.925 -0.3534  0.2377 -0.6021
  747TMC3    C611040   3.951   2.241  10.999  0.1669 -0.4634  0.5044
  747TMC3     C11041   4.005   2.185  10.582 -0.1373 -0.2487  0.4081
  747TMC3     O11042   4.048   2.285  10.523  0.3833  0.2877  0.0869
  747TMC3     H11043   3.838   2.051  10.745  1.1663 -0.7140 -0.2037
  747TMC3    H111044   4.108   2.384  10.734  0.3912  0.4797  0.0744
  747TMC3    H211045   3.950   2.254  11.106  0.5050  1.1463  0.3174
  747TMC3    C711046   4.151   2.376  10.997  0.2510 -0.2171 -0.1493
  747TMC3    C811047   3.792   2.059  11.001 -0.3592  0.2372 -0.0552
  747TMC3    O111048   4.128   2.454  11.091 -0.5747  0.3194 -0.2370
  747TMC3    O211049   3.782   1.936  10.973  0.1921  0.1929  0.1231
  748MPD2     C11050   0.298   1.795   1.977  0.3728 -0.0704  0.2297
  748MPD2    C111051   0.268   1.812   1.844 -0.1118 -0.5752 -0.5648
  748MPD2    C211052   0.370   1.801   1.755 -0.5891  0.0621 -0.3519
  748MPD2    C311053   0.498   1.760   1.798  0.1275 -0.6117 -0.6116
  748MPD2    C411054   0.526   1.722   1.923  0.4247 -0.0040 -0.0130
  748MPD2    C511055   0.424   1.749   2.012 -0.8781  0.9806 -0.4218
  748MPD2     H11056   0.354   1.813   1.648 -0.1409 -1.6670 -0.6264
  748MPD2    H111057   0.622   1.686   1.958  1.1661  1.2911 -0.7132
  748MPD2    H211058   0.220   1.826   2.046  1.1923  4.9089 -1.1066
  748MPD2    H311059   0.439   1.725   2.117  1.3987  1.7844 -0.5681
  748MPD2     N11060   0.607   1.747   1.705 -0.2317 -0.5882 -0.2619
  748MPD2    H511061   0.691   1.705   1.743 -0.0658  1.8032  1.9847
  748MPD2    N111062   0.135   1.848   1.803  0.2246 -0.3437  0.1544
  748MPD2    H711063   0.067   1.865   1.878  0.8133 -1.4505  0.9343
  749TMC3    C111064   0.722   1.706   1.497 -0.1382  0.3643  0.1953
  749TMC3    C211065   0.792   1.611   1.562 -0.1599 -0.2364  0.1636
  749TMC3    C311066   0.895   1.548   1.499  0.0423  0.2164  0.4362
  749TMC3    C411067   0.743   1.729   1.358  0.5073 -0.0676  0.1841
  749TMC3    C511068   0.838   1.651   1.301  0.3578  0.0119 -0.4205
  749TMC3    C611069   0.918   1.566   1.367 -0.3548  0.3040  0.0211
  749TMC3     C11070   0.604   1.760   1.562 -0.6332 -0.3785 -0.1833
  749TMC3     O11071   0.514   1.798   1.491 -0.2826  0.1869 -0.3583
  749TMC3     H11072   0.776   1.591   1.667 -0.9995 -1.0369 -0.1121
  749TMC3    H111073   0.689   1.807   1.305 -0.0526 -0.3755  0.3046
  749TMC3    H211074   0.976   1.491   1.315 -2.1400 -1.8566  1.1525
  749TMC3    C711075   0.886   1.692   1.172  0.2841  0.4551  0.1133
  749TMC3    C811076   0.984   1.467   1.578  0.6221  1.0496 -0.1601
  749TMC3    O111077   0.853   1.806   1.140  0.1186  0.2301  0.2952
  749TMC3    O211078   0.949   1.426   1.686  0.5234 -0.1466  0.1560
  750MPD2     C11079   1.810   3.800  10.915  0.7220 -0.7671  0.1280
  750MPD2    C111080   1.720   3.740  10.986  0.2692 -0.1304 -0.5697
  750MPD2    C211081   1.618   3.671  10.929 -0.5848 -0.2532  0.1684
  750MPD2    C311082   1.615   3.670  10.789 -0.1872  0.0069 -0.5755
  750MPD2    C411083   1.707   3.730  10.715 -0.0306  0.2026 -0.6306
  750MPD2    C511084   1.814   3.792  10.778  0.4709  0.3776  0.8480
  750MPD2     H11085   1.551   3.611  10.990  1.8843 -1.7127  1.4431
  750MPD2    H111086   1.705   3.720  10.607 -3.2611  1.7178 -0.7084
  750MPD2    H211087   1.892   3.854  10.959 -0.6502  0.0992  1.5937
  750MPD2    H311088   1.891   3.846  10.724  0.7197  1.3927  2.2399
  750MPD2     N11089   1.522   3.603  10.714 -1.0156 -0.2054 -0.2045
  750MPD2    H511090   1.547   3.612  10.616 -1.4257 -1.2891 -0.4071
  750MPD2    N111091   1.742   3.752  11.125  0.0459  0.0778 -0.0007
  750MPD2    H711092   1.828   3.803  11.143  0.4153 -0.6201  0.1969
  751TMC3    C111093   1.327   3.474  10.672 -0.1363  0.5055 -0.5020
  751TMC3    C211094   1.200   3.449  10.704  0.7640  0.0216 -0.0289
  751TMC3    C311095   1.124   3.401  10.605  1.2127  0.3090 -0.0593
  751TMC3    C411096   1.394   3.430  10.568  0.3678  0.0740  0.1780
  751TMC3    C511097   1.323   3.362  10.480 -0.0055 -0.4678  0.1164
  751TMC3    C611098   1.183   3.353  10.489 -0.1370  0.2675  0.5435
  751TMC3     C11099   1.410   3.539  10.765  0.4985 -0.4155 -0.9679
  751TMC3     O11100   1.364   3.538  10.878  0.0236  0.0317 -0.2269
  751TMC3     H11101   1.160   3.491  10.795 -1.2871  0.2220 -1.0175
  751TMC3    H111102   1.501   3.420  10.561  0.3155 -0.7634  0.5611
  751TMC3    H211103   1.127   3.314  10.405  1.2641  1.8803 -1.1522
  751TMC3    C711104   1.380   3.237  10.445  0.1350 -0.6504  0.4644
  751TMC3    C811105   1.028   3.305  10.653  0.5530 -0.7788  0.0053
  751TMC3    O111106   1.499   3.238  10.413 -0.3250 -0.0271  0.2559
  751TMC3    O211107   1.004   3.221  10.565  1.0763  0.1358 -0.3288
  752TMC3    C111108   4.688   3.287  16.784  0.3185 -0.9449 -0.4463
  752TMC3    C211109   0.044   3.249  16.885 -0.7415  0.4896 -0.4094
  752TMC3    C311110   4.713   3.222  16.999  0.4842 -0.0494 -0.5178
  752TMC3    C411111   4.555   3.291  16.798 -0.5671  0.1517  0.6323
  752TMC3    C511112   4.495   3.263  16.923 -0.3757 -0.4513  0.8391
  752TMC3    C611113   4.583   3.216  17.021 -0.3556  0.4412 -0.0873
  752TMC3     C11114   0.031   3.320  16.660 -0.1206 -0.4348 -0.6075
  752TMC3     O11115   0.154   3.301  16.668 -0.2610  0.2793  0.4528
  752TMC3     H11116   0.152   3.247  16.887 -0.7921 -0.9792  1.2536
  752TMC3    H111117   4.497   3.330  16.715 -2.1100 -0.9375  1.1936
  752TMC3    H211118   4.546   3.194  17.120  1.4153 -1.6464  0.1370
  752TMC3    C711119   4.354   3.273  16.934  0.1810  0.8756  0.1018
  752TMC3    C811120   0.085   3.240  17.109  0.7258  0.5181 -0.1165
  752TMC3    O111121   4.302   3.343  16.848 -0.3560 -0.4195  0.1683
  752TMC3    O211122   0.180   3.319  17.096 -0.5674 -0.3471  0.9922
  753TMC3    C111123   1.866   0.025  12.941  0.7757 -0.4276  0.2383
  753TMC3    C211124   1.929   4.722  13.062  0.0623 -0.1825 -0.4517
  753TMC3    C311125   1.937   4.588  13.100 -0.4315 -0.2668 -0.4794
  753TMC3    C411126   1.807   4.653  12.862 -1.0470 -0.1267 -0.1317
  753TMC3    C511127   1.810   4.526  12.915 -0.7049 -0.8072 -0.3474
  753TMC3    C611128   1.879   4.491  13.025 -0.5637  0.1678 -0.1252
  753TMC3     C11129   1.843   0.164  12.900 -0.3332 -0.2269 -0.4719
  753TMC3     O11130   1.733   0.184  12.861  0.3980 -0.6401  0.0723
  753TMC3     H11131   1.967   0.081  13.122 -1.0391 -0.6190  0.8572
  753TMC3    H111132   1.754   4.683  12.772  0.1710 -1.8372 -1.4216
  753TMC3    H211133   1.903   4.395  13.070 -0.9272  0.4313  0.6295
  753TMC3    C711134   1.800   4.429  12.812  0.4204 -0.3476 -0.0099
  753TMC3    C811135   2.010   4.558  13.218 -0.6781 -0.5338 -0.0035
  753TMC3    O111136   1.825   4.481  12.703  0.3300 -0.0714  0.0938
  753TMC3    O211137   1.997   4.449  13.265 -0.0447 -0.1794 -0.3457
  754MPD2     C11138   1.100   3.401  12.745 -1.2052  0.2596 -0.2205
  754MPD2    C111139   1.043   3.278  12.751 -0.3370  0.0693  0.2525
  754MPD2    C211140   0.907   3.256  12.731 -0.4792 -0.0432  0.0806
  754MPD2    C311141   0.822   3.363  12.725  0.3273  0.5620 -0.0271
  754MPD2    C411142   0.884   3.491  12.707 -0.2701 -0.0295  0.0442
  754MPD2    C511143   1.019   3.504  12.721  0.4325 -0.7914  0.1494
  754MPD2     H11144   0.863   3.157  12.733  2.7703 -1.5641 -2.1450
  754MPD2    H111145   0.832   3.585  12.694  0.2040  0.4071  1.3402
  754MPD2    H211146   1.208   3.405  12.753 -1.1655  0.1474 -0.7167
  754MPD2    H311147   1.071   3.599  12.721 -0.8302 -0.1040  0.0203
  754MPD2     N11148   0.681   3.354  12.734  0.5526  0.4383  0.4810
  754MPD2    H511149   0.637   3.444  12.749  1.0879  1.1553 -2.4466
  754MPD2    N111150   1.135   3.174  12.776  0.8002 -0.3289 -0.7235
  754MPD2    H711151   1.232   3.202  12.771  0.0081  2.2789 -2.0041
  755MPD2     C11152   0.234   4.060  12.743  0.0846 -0.3395 -0.2864
  755MPD2    C111153   0.206   3.989  12.855 -0.2987  0.5873 -0.4840
  755MPD2    C211154   0.223   3.855  12.859  0.5997 -0.4446  0.0949
  755MPD2    C311155   0.284   3.793  12.746 -0.2702  0.2992 -0.3722
  755MPD2    C411156   0.327   3.873  12.638  0.2845 -0.2137 -0.0935
  755MPD2    C511157   0.294   4.000  12.634  0.4898 -0.2180  0.3800
  755MPD2     H11158   0.212   3.799  12.951 -2.9060 -2.8277 -1.8348
  755MPD2    H111159   0.371   3.835  12.547  0.9875  1.0685 -0.2896
  755MPD2    H211160   0.219   4.167  12.737  1.0141 -0.2998 -1.9833
  755MPD2    H311161   0.328   4.056  12.548  1.7408  0.9439  1.6144
  755MPD2     N11162   0.307   3.657  12.742 -0.0305  0.1417 -0.0098
  755MPD2    H511163   0.351   3.616  12.660  0.0657  0.4646 -0.1161
  755MPD2    N111164   0.171   4.053  12.979  0.2923  0.0337 -0.9163
  755MPD2    H711165   0.173   3.995  13.062  1.6129 -0.4497 -1.2724
  756MPD2     C11166   0.962   4.555   9.478  0.2616  0.9355 -0.5659
  756MPD2    C111167   0.899   4.534   9.604  0.0407 -0.3432 -0.1225
  756MPD2    C211168   0.798   4.447   9.604 -0.6167  0.4977 -0.3959
  756MPD2    C311169   0.749   4.379   9.489 -0.4957  0.1124  0.2573
  756MPD2    C411170   0.800   4.417   9.366  0.8869  0.2878  1.0916
  756MPD2    C511171   0.909   4.499   9.364  0.2384  0.4038  0.1590
  756MPD2     H11172   0.755   4.411   9.696 -0.3856 -3.0319 -1.6661
  756MPD2    H111173   0.773   4.380   9.267 -0.7997  1.1541  1.2198
  756MPD2    H211174   1.046   4.622   9.464  1.2896 -0.1264  0.4635
  756MPD2    H311175   0.956   4.518   9.268  1.1856 -0.9272  0.3607
  756MPD2     N11176   0.637   4.292   9.491 -0.6461  0.0513  0.2145
  756MPD2    H511177   0.592   4.281   9.582  1.2035 -0.4866  1.0825
  756MPD2    N111178   0.934   4.594   9.729 -0.3651  0.3705  0.4159
  756MPD2    H711179   0.874   4.564   9.805 -0.5218  0.0357  0.1600
  757MPD2     C11180   0.461   3.377   9.286  0.1005  0.4697 -0.2079
  757MPD2    C111181   0.559   3.452   9.352 -0.0830 -0.5420 -0.1704
  757MPD2    C211182   0.530   3.582   9.394 -0.1866 -0.5481  0.0849
  757MPD2    C311183   0.405   3.632   9.368 -0.1097  0.7868  0.6670
  757MPD2    C411184   0.309   3.555   9.302 -0.0254  0.1702  0.0686
  757MPD2    C511185   0.334   3.430   9.260 -0.0956 -0.6322 -0.4571
  757MPD2     H11186   0.601   3.649   9.442 -0.4185 -1.6600  1.9906
  757MPD2    H111187   0.209   3.597   9.292 -0.7387 -2.3537 -3.1546
  757MPD2    H211188   0.482   3.276   9.253 -1.2656  0.8488 -2.1895
  757MPD2    H311189   0.256   3.375   9.208 -0.1467 -0.2264 -0.8061
  757MPD2     N11190   0.380   3.762   9.417  0.2824  0.1660 -0.3121
  757MPD2    H511191   0.458   3.805   9.465 -0.4756 -0.0350  1.0960
  757MPD2    N111192   0.688   3.403   9.365  0.3087  0.0887  0.2129
  757MPD2    H711193   0.750   3.469   9.411  0.4797 -0.7207  1.1656
  758MPD2     C11194   0.754   3.339  15.952 -0.1468 -1.1199 -0.2251
  758MPD2    C111195   0.771   3.255  16.061 -0.7726  0.6922 -0.2841
  758MPD2    C211196   0.716   3.283  16.187 -0.5327 -0.6525  0.4294
  758MPD2    C311197   0.647   3.412  16.197 -0.2860  0.0886  0.6560
  758MPD2    C411198   0.627   3.486  16.085  0.4739 -0.4673 -0.2433
  758MPD2    C511199   0.683   3.454  15.965  0.7615  0.6036  0.8226
  758MPD2     H11200   0.726   3.211  16.267 -0.4341  0.1141  1.1082
  758MPD2    H111201   0.569   3.577  16.095 -1.2439 -1.3666 -1.8785
  758MPD2    H211202   0.806   3.315  15.861  2.7475 -2.6599  1.8464
  758MPD2    H311203   0.665   3.516  15.878  1.0948 -1.1046 -0.4618
  758MPD2     N11204   0.598   3.457  16.323 -0.1714 -0.1889 -0.0526
  758MPD2    H511205   0.538   3.538  16.330 -0.1485 -0.3215  1.8346
  758MPD2    N111206   0.855   3.141  16.042  0.2544  0.8417 -0.1487
  758MPD2    H711207   0.926   3.139  15.969  0.4386 -0.6686  0.0634
  759MPD2     C11208   4.599   1.454  10.497 -0.2778  0.0373  0.0022
  759MPD2    C111209   4.579   1.321  10.474 -0.3957 -0.0924  0.2037
  759MPD2    C211210   4.665   1.253  10.383  0.3827 -0.6054  0.2969
  759MPD2    C311211   0.019   1.325  10.293 -0.9980 -0.7295 -0.3481
  759MPD2    C411212   0.039   1.462  10.325 -0.3226 -0.3986 -0.7401
  759MPD2    C511213   4.706   1.518  10.431  0.2546  0.1572  0.2105
  759MPD2     H11214   4.647   1.146  10.386  0.4463 -0.6609 -1.3269
  759MPD2    H111215   0.107   1.535  10.282 -3.4451  2.7305 -0.3713
  759MPD2    H211216   4.551   1.512  10.575  1.6182  2.3387 -0.5357
  759MPD2    H311217   0.012   1.620  10.455 -0.8437  0.7645 -1.1027
  759MPD2     N11218   0.089   1.270  10.184 -0.1429 -0.2760  0.2312
  759MPD2    H511219   0.094   1.169  10.181  2.8150 -0.1105  0.1747
  759MPD2    N111220   4.491   1.238  10.548  0.1152 -0.1188  0.8643
  759MPD2    H711221   4.500   1.140  10.526  1.3998  0.6850 -2.2046
  760MPD2     C11222   4.222   3.733  11.353  0.1729 -0.4614 -0.8052
  760MPD2    C111223   4.266   3.756  11.479 -0.2019  0.3910  0.2945
  760MPD2    C211224   4.340   3.655  11.544  0.6598 -0.2104 -0.2360
  760MPD2    C311225   4.344   3.529  11.486  0.0567 -0.6084  0.0557
  760MPD2    C411226   4.306   3.512  11.351  0.2638  0.1240  0.9679
  760MPD2    C511227   4.250   3.616  11.287 -0.2644  0.2202 -0.4723
  760MPD2     H11228   4.379   3.670  11.644  1.1289 -0.9107 -0.3074
  760MPD2    H111229   4.309   3.417  11.298  1.2152  0.3004  0.6955
  760MPD2    H211230   4.178   3.816  11.299 -0.0765  0.5679  0.9813
  760MPD2    H311231   4.228   3.605  11.182  0.2282 -0.8245 -0.4586
  760MPD2     N11232   4.398   3.417  11.558 -0.0511 -0.0890 -0.4203
  760MPD2    H511233   4.416   3.333  11.505  1.2126  0.9154 -1.6124
  760MPD2    N111234   4.254   3.887  11.531 -0.4267  0.2512  0.0887
  760MPD2    H711235   4.222   3.952  11.459  0.1035 -1.2388 -1.5087
  761MPD2     C11236   0.699   3.078  10.966 -0.1651  0.2314 -0.5479
  761MPD2    C111237   0.777   3.025  10.866 -0.3403 -0.2670 -0.1612
  761MPD2    C211238   0.863   3.101  10.792 -0.5235 -0.6884 -0.7533
  761MPD2    C311239   0.880   3.237  10.833 -0.1629  0.0496 -0.6430
  761MPD2    C411240   0.809   3.286  10.947 -0.5525  0.4839  0.3585
  761MPD2    C511241   0.707   3.210  11.002  0.5759 -0.2043  0.6908
  761MPD2     H11242   0.927   3.058  10.716  1.9002 -1.0293  1.5109
  761MPD2    H111243   0.813   3.393  10.969 -2.6535  0.2246  2.0288
  761MPD2    H211244   0.631   3.019  11.027  0.5821 -0.5087 -0.4280
  761MPD2    H311245   0.655   3.252  11.088  0.4132 -0.2898  0.6336
  761MPD2     N11246   0.972   3.327  10.776 -0.2570 -0.0212 -0.0180
  761MPD2    H511247   1.008   3.406  10.828 -2.1410  2.5122 -2.5850
  761MPD2    N111248   0.768   2.883  10.852  0.0508 -0.4586 -0.1888
  761MPD2    H711249   0.709   2.836  10.921 -0.0806 -1.4684 -0.9823
  762MPD2     C11250   0.982   1.987  10.683  0.8309 -0.0737 -0.7217
  762MPD2    C111251   1.024   2.119  10.670 -0.3072  0.0770 -0.2599
  762MPD2    C211252   1.138   2.146  10.596  0.1039 -0.3635 -0.1575
  762MPD2    C311253   1.205   2.043  10.528  0.2577 -0.5806 -0.4008
  762MPD2    C411254   1.166   1.913  10.537  0.2040 -0.8835 -0.6644
  762MPD2    C511255   1.057   1.886  10.621  0.1844  0.9434  0.9052
  762MPD2     H11256   1.173   2.248  10.592  0.8596 -0.5214  1.9438
  762MPD2    H111257   1.219   1.837  10.482  1.1768  1.6460 -3.2053
  762MPD2    H211258   0.895   1.959  10.741  1.6048 -2.1984 -0.5946
  762MPD2    H311259   1.024   1.783  10.628  1.7071  0.4294  0.5023
  762MPD2     N11260   1.316   2.056  10.448 -0.0745  0.0202  0.7916
  762MPD2    H511261   1.351   1.977  10.394 -0.8680  1.2595 -1.5704
  762MPD2    N111262   0.937   2.225  10.722 -0.5157 -0.7467  0.3297
  762MPD2    H711263   0.868   2.196  10.791 -0.9000  0.3443  0.4016
  763MPD2     C11264   2.913   2.706  16.024 -0.0193  0.0466  0.0566
  763MPD2    C111265   2.822   2.811  16.000 -0.3038 -0.0689  0.8524
  763MPD2    C211266   2.806   2.924  16.079  0.5570  0.3747  0.0743
  763MPD2    C311267   2.893   2.925  16.190 -0.3026 -0.7588  0.1266
  763MPD2    C411268   2.982   2.830  16.211  0.1968 -0.7589  0.5796
  763MPD2    C511269   2.992   2.718  16.139 -0.4851  0.1843 -0.4506
  763MPD2     H11270   2.735   3.005  16.069  0.6561  0.5092  0.4762
  763MPD2    H111271   3.048   2.834  16.297  0.0860  0.5543  0.6023
  763MPD2    H211272   2.930   2.630  15.948  0.2218  0.7159 -0.5545
  763MPD2    H311273   3.079   2.654  16.145 -0.8339 -0.1353  1.2941
  763MPD2     N11274   2.907   3.038  16.276  0.2324  0.2675 -0.4608
  763MPD2    H511275   2.987   3.036  16.338 -0.0453 -1.6612 -0.1834
  763MPD2    N111276   2.753   2.807  15.880  0.0029 -0.0984  0.2051
  763MPD2    H711277   2.698   2.886  15.846 -0.9671 -0.4582  0.9236
  764MPD2     C11278   4.179   3.515  17.391  0.6651  0.1200  0.1621
  764MPD2    C111279   4.200   3.624  17.466 -0.0643 -0.0258 -0.1653
  764MPD2    C211280   4.166   3.615  17.603  0.4956  0.1287  0.8492
  764MPD2    C311281   4.109   3.505  17.655  0.4719 -0.0103  0.1995
  764MPD2    C411282   4.084   3.395  17.579  0.1915 -0.3288  0.0005
  764MPD2    C511283   4.117   3.408  17.446 -0.4742 -0.4168  0.3974
  764MPD2     H11284   4.184   3.705  17.662 -1.2648 -0.1192  1.7732
  764MPD2    H111285   4.038   3.303  17.613  3.0569 -1.2503  1.4160
  764MPD2    H211286   4.200   3.519  17.285 -0.7046 -0.0031 -0.1194
  764MPD2    H311287   4.098   3.320  17.386 -0.7999 -0.3079  0.3398
  764MPD2     N11288   4.067   3.512   0.100  0.1122  0.1461  0.2010
  764MPD2    H511289   4.073   3.596   0.156 -0.7782  0.8079 -0.6939
  764MPD2    N111290   4.266   3.739  17.421 -0.1840 -0.5508 -0.1358
  764MPD2    H711291   4.277   3.806  17.497 -1.2297  0.7752 -1.1405
  765MPD2     C11292   0.253   2.082  16.025 -0.5245 -0.6027 -0.4785
  765MPD2    C111293   0.324   2.200  15.994  0.0069 -0.6926 -0.1384
  765MPD2    C211294   0.448   2.185  15.927 -1.1270 -0.1521  0.8384
  765MPD2    C311295   0.516   2.067  15.923  0.0494  0.1117 -0.3094
  765MPD2    C411296   0.448   1.952  15.968 -0.2061 -0.1034  0.3535
  765MPD2    C511297   0.321   1.963  16.009 -0.6563 -0.9664 -0.7407
  765MPD2     H11298   0.499   2.272  15.887  0.2537 -0.4527  1.9195
  765MPD2    H111299   0.482   1.849  15.956  0.0994 -0.0408  0.6805
  765MPD2    H211300   0.153   2.090  16.065 -0.3062 -0.7184  0.0945
  765MPD2    H311301   0.275   1.875  16.051  0.8703 -1.1321  0.6085
  765MPD2     N11302   0.642   2.061  15.866 -0.0097 -0.3719  0.3182
  765MPD2    H511303   0.688   2.145  15.834 -1.4476 -1.0330 -3.4341
  765MPD2    N111304   0.250   2.324  16.009 -0.1225 -0.1691  0.3430
  765MPD2    H711305   0.151   2.318  16.032  0.3574  0.9386  2.7372
  766MPD2     C11306   4.552   2.600  15.537 -0.3666 -0.1308  0.3199
  766MPD2    C111307   4.688   2.618  15.560 -0.2361  0.5266  0.9530
  766MPD2    C211308   0.058   2.620  15.454  0.0276  0.0211 -0.4241
  766MPD2    C311309   0.010   2.590  15.327  0.6007 -0.1015 -0.1927
  766MPD2    C411310   4.599   2.585  15.303  0.4121  0.6894 -0.1176
  766MPD2    C511311   4.510   2.586  15.408  0.7681  0.0808  0.0851
  766MPD2     H11312   0.164   2.632  15.471  0.0394  1.5007 -1.4952
  766MPD2    H111313   4.561   2.574  15.202 -1.0326  0.0901  0.4820
  766MPD2    H211314   4.469   2.613  15.606  0.1235 -1.2206  1.1069
  766MPD2    H311315   4.403   2.571  15.393  1.4577 -0.8653 -3.9288
  766MPD2     N11316   0.097   2.578  15.217  0.1588 -0.7734 -0.0109
  766MPD2    H511317   0.054   2.558  15.127 -1.5902  1.4610  0.3294
  766MPD2    N111318   0.010   2.654  15.690  0.1073 -0.2969  0.2812
  766MPD2    H711319   0.109   2.671  15.704  0.4576 -0.5568 -1.8531
  767MPD2     C11320   4.402   2.855  15.168 -0.2101 -0.2926 -0.8125
  767MPD2    C111321   4.540   2.856  15.128 -0.1131 -0.4101 -0.7233
  767MPD2    C211322   4.575   2.789  15.011 -0.7194 -0.0850 -0.2905
  767MPD2    C311323   4.481   2.720  14.933  0.1969 -0.3907  0.1385
  767MPD2    C411324   4.350   2.729  14.971 -0.6819 -0.0246  0.3531
  767MPD2    C511325   4.311   2.789  15.083 -0.3710  0.4099 -0.0721
  767MPD2     H11326   4.679   2.779  14.980 -0.6533 -0.5454  0.0842
  767MPD2    H111327   4.261   2.693  14.921 -0.2506  1.7937 -1.7287
  767MPD2    H211328   4.366   2.888  15.265  2.8495 -0.5947  0.4328
  767MPD2    H311329   4.206   2.786  15.111 -0.8518  0.4537 -1.8686
  767MPD2     N11330   4.524   2.662  14.814  0.2839 -0.5288  0.0985
  767MPD2    H511331   4.624   2.662  14.795  0.1623  0.3995 -0.5643
  767MPD2    N111332   4.638   2.919  15.208 -0.4180 -0.0405 -0.3842
  767MPD2    H711333   4.620   2.956  15.300  0.3995 -0.1381 -0.1798
  768MPD2     C11334   1.332   1.241  10.493 -0.5190 -0.2133  0.4736
  768MPD2    C111335   1.277   1.189  10.608  0.1567 -0.6292 -0.2793
  768MPD2    C211336   1.326   1.225  10.732  0.3293  0.2068 -0.1963
  768MPD2    C311337   1.444   1.296  10.750  0.3164 -0.3293 -0.0529
  768MPD2    C411338   1.499   1.350  10.635  0.1672 -0.4287 -0.5198
  768MPD2    C511339   1.445   1.321  10.509  0.0902  0.2805  1.3708
  768MPD2     H11340   1.264   1.181  10.810  1.6583 -2.3780 -0.5854
  768MPD2    H111341   1.585   1.416  10.641  0.1345 -0.4226 -0.0896
  768MPD2    H211342   1.298   1.215  10.393 -3.2986 -0.1121  1.3982
  768MPD2    H311343   1.490   1.360  10.418 -0.7408  0.3184  0.9766
  768MPD2     N11344   1.500   1.318  10.876  0.1752  0.8833 -0.1353
  768MPD2    H511345   1.585   1.375  10.879  1.3760 -1.0205  2.3763
  768MPD2    N111346   1.152   1.115  10.609 -0.1167 -0.2000 -0.2969
  768MPD2    H711347   1.110   1.094  10.699  0.1916 -1.6031 -0.4876
  769MPD2     C11348   1.896   4.037  14.705 -0.6220  0.2906 -0.2267
  769MPD2    C111349   1.789   4.110  14.756 -0.7896  0.4230 -0.4002
  769MPD2    C211350   1.819   4.190  14.863 -0.3006  0.1924  0.0773
  769MPD2    C311351   1.941   4.179  14.924  0.1945 -0.4494 -0.1139
  769MPD2    C411352   2.040   4.093  14.880 -0.2604  0.0694 -0.2269
  769MPD2    C511353   2.014   4.032  14.771  0.2852 -0.0148  0.0434
  769MPD2     H11354   1.749   4.254  14.915 -0.9007 -1.9397  1.8685
  769MPD2    H111355   2.129   4.068  14.937 -0.7688 -0.6715  0.2474
  769MPD2    H211356   1.890   3.975  14.616  0.6662  0.0411 -0.1302
  769MPD2    H311357   2.096   3.978  14.724  1.4707  0.8935  1.0741
  769MPD2     N11358   1.946   4.245  15.049  0.7696  0.2642 -0.0999
  769MPD2    H511359   1.860   4.298  15.063  0.9872 -0.1649  2.9730
  769MPD2    N111360   1.663   4.093  14.698  0.1073  0.5601  0.3865
  769MPD2    H711361   1.653   4.018  14.631  0.6179  1.0277 -0.2244
  770MPD2     C11362   1.078   3.550  15.251 -0.2137  0.1723  0.2197
  770MPD2    C111363   1.169   3.507  15.154 -0.3859  0.7395 -0.0868
  770MPD2    C211364   1.215   3.593  15.059  0.3679  0.3190  0.4517
  770MPD2    C311365   1.189   3.730  15.062  0.6000 -0.4744 -1.2629
  770MPD2    C411366   1.105   3.772  15.168  0.1075  0.3937  0.4726
  770MPD2    C511367   1.047   3.683  15.254  0.1455  0.0111  0.1736
  770MPD2     H11368   1.273   3.552  14.976  1.4390  0.9138  0.9095
  770MPD2    H111369   1.090   3.878  15.186  0.3955  0.2209  1.7313
  770MPD2    H211370   1.034   3.488  15.329 -0.3209  0.6027  0.4985
  770MPD2    H311371   0.966   3.715  15.319 -1.7404 -1.3858 -1.5132
  770MPD2     N11372   1.236   3.811  14.958 -0.1106 -0.5089  0.5434
  770MPD2    H511373   1.278   3.761  14.880 -1.0462 -0.0789 -0.2272
  770MPD2    N111374   1.184   3.368  15.141  0.4463  0.3260  0.3853
  770MPD2    H711375   1.124   3.310  15.199  1.0403 -0.9509 -0.2787
  771MPD2     C11376   2.699   2.119  13.293 -0.1408 -0.8332  0.1519
  771MPD2    C111377   2.629   2.229  13.242 -0.1509 -0.0875  0.0245
  771MPD2    C211378   2.502   2.209  13.185 -0.4943  0.2197  0.2980
  771MPD2    C311379   2.449   2.080  13.161 -0.2370 -0.2092  0.0136
  771MPD2    C411380   2.526   1.975  13.201  0.3527  0.5072  0.3849
  771MPD2    C511381   2.644   1.995  13.266  0.1555 -0.4485  0.2712
  771MPD2     H11382   2.458   2.304  13.154  0.4571  0.9419  1.1742
  771MPD2    H111383   2.495   1.871  13.189 -1.2061  1.2166 -1.6544
  771MPD2    H211384   2.786   2.130  13.356 -0.5468 -1.2741  0.7850
  771MPD2    H311385   2.710   1.917  13.302 -1.6275 -1.7200  0.7423
  771MPD2     N11386   2.327   2.077  13.084  0.2843  0.2320  0.6455
  771MPD2    H511387   2.295   2.166  13.047  2.0421  0.7838  0.4525
  771MPD2    N111388   2.673   2.359  13.254  0.6372  0.1686  0.0914
  771MPD2    H711389   2.611   2.437  13.234 -0.6445 -1.5326 -2.5506
  772MPD2     C11390   2.551   2.975  13.612 -0.2422  0.7384 -0.3468
  772MPD2    C111391   2.495   2.875  13.527 -0.1616 -0.7924  0.6022
  772MPD2    C211392   2.371   2.831  13.560  0.2312  0.2525 -0.0148
  772MPD2    C311393   2.296   2.891  13.667  0.1649  0.5298 -0.1555
  772MPD2    C411394   2.352   2.995  13.738  0.5668 -0.5430 -0.4042
  772MPD2    C511395   2.482   3.038  13.711 -0.3421  0.0313 -0.5333
  772MPD2     H11396   2.333   2.756  13.492 -0.6159  0.1164  0.6091
  772MPD2    H111397   2.291   3.034  13.818 -0.9359  1.3907 -2.4985
  772MPD2    H211398   2.654   3.005  13.597  0.0075  0.3491  0.6068
  772MPD2    H311399   2.534   3.103  13.781 -0.0952 -1.3983  0.6126
  772MPD2     N11400   2.169   2.847  13.704 -0.3621  0.5574  0.0127
  772MPD2    H511401   2.123   2.901  13.776 -1.0914 -0.9725  0.6836
  772MPD2    N111402   2.563   2.808  13.424  0.4460 -0.4579  0.2811
  772MPD2    H711403   2.515   2.733  13.375  0.8887 -2.0344  2.2450
  773MPD2     C11404   1.269   3.461   0.437 -0.1540 -0.8055  0.3352
  773MPD2    C111405   1.214   3.375   0.351 -0.5898  0.2477 -0.0952
  773MPD2    C211406   1.272   3.254   0.334  0.3999  0.3806 -0.0378
  773MPD2    C311407   1.356   3.201   0.430  0.4175 -0.4480  0.2101
  773MPD2    C411408   1.380   3.284   0.537  0.2780 -0.3624  0.7340
  773MPD2    C511409   1.337   3.412   0.540  0.1719  0.0092 -0.2577
  773MPD2     H11410   1.256   3.203   0.239 -1.1197 -0.1216  0.4810
  773MPD2    H111411   1.445   3.253   0.617 -0.5684 -1.9628  0.8038
  773MPD2    H211412   1.236   3.563   0.446  0.4207 -0.5392 -0.5646
  773MPD2    H311413   1.375   3.482   0.614 -1.3078  2.2171 -1.5770
  773MPD2     N11414   1.407   3.073   0.416 -0.4630  0.5234  0.4937
  773MPD2    H511415   1.378   3.019   0.335 -0.9278  2.3135 -0.5347
  773MPD2    N111416   1.131   3.418   0.247 -0.4605 -0.3812  0.5406
  773MPD2    H711417   1.091   3.349   0.185  0.0039 -1.0871  1.0259
  774MPD2     C11418   0.911   2.248  13.222  0.1646 -0.2635  0.1871
  774MPD2    C111419   0.854   2.354  13.292 -0.3010 -0.4977  0.2100
  774MPD2    C211420   0.807   2.466  13.228 -0.0080  0.0739 -0.4774
  774MPD2    C311421   0.835   2.480  13.090  0.0884  0.2414 -0.0245
  774MPD2    C411422   0.881   2.374  13.023  0.0581 -0.9493 -0.1969
  774MPD2    C511423   0.919   2.261  13.084  0.3106  0.2606  0.4109
  774MPD2     H11424   0.786   2.549  13.294 -0.9796 -0.9112  0.4437
  774MPD2    H111425   0.916   2.384  12.921  0.0019  0.8278 -0.0396
  774MPD2    H211426   0.942   2.162  13.281  1.1221 -0.8496 -1.1711
  774MPD2    H311427   0.959   2.180  13.024 -1.6448  1.3540 -2.3499
  774MPD2     N11428   0.827   2.604  13.038  0.2477  0.2750 -0.1006
  774MPD2    H511429   0.795   2.670  13.108 -3.1868 -0.4753 -0.9579
  774MPD2    N111430   0.845   2.331  13.432 -0.6156 -0.2058 -0.8586
  774MPD2    H711431   0.891   2.252  13.476 -1.5917 -0.6429 -0.6337
  775MPD2     C11432   2.301   3.885  15.878 -0.2797 -0.5371  0.2669
  775MPD2    C111433   2.241   4.012  15.887 -0.4929  0.5564  0.2131
  775MPD2    C211434   2.251   4.099  15.779 -0.1268 -0.5361  0.7548
  775MPD2    C311435   2.340   4.072  15.679 -0.3964  0.1663 -0.5790
  775MPD2    C411436   2.411   3.958  15.684 -0.6793 -0.3718  0.2413
  775MPD2    C511437   2.391   3.866  15.782 -0.1341 -0.2754  1.3259
  775MPD2     H11438   2.198   4.194  15.773  0.3359 -0.2775  0.7488
  775MPD2    H111439   2.499   3.946  15.620 -1.4364 -0.6076 -0.7564
  775MPD2    H211440   2.290   3.806  15.951 -0.9678  0.3692  1.1352
  775MPD2    H311441   2.455   3.780  15.794 -0.5713 -0.9102 -0.9668
  775MPD2     N11442   2.360   4.150  15.563 -0.4266  0.0652 -0.4369
  775MPD2    H511443   2.415   4.105  15.490 -0.3042 -1.1762  0.4233
  775MPD2    N111444   2.159   4.045  15.996 -0.7525  0.4144  0.4973
  775MPD2    H711445   2.138   3.969  16.060  1.0102 -0.6366 -0.1850
  776MPD2     C11446   2.097   4.235  11.336 -0.0925  0.4552  0.1056
  776MPD2    C111447   1.967   4.262  11.365 -0.4633  0.0967 -0.9906
  776MPD2    C211448   1.920   4.393  11.339  0.0959  0.4679  0.3327
  776MPD2    C311449   2.003   4.495  11.307  0.6684 -0.5460  0.7884
  776MPD2    C411450   2.137   4.465  11.276  0.0646  0.3425  0.3450
  776MPD2    C511451   2.180   4.334  11.296 -0.5280 -0.9448 -1.0950
  776MPD2     H11452   1.814   4.408  11.358 -0.1124  0.1161 -0.5572
  776MPD2    H111453   2.210   4.542  11.253 -0.6767  0.5081 -1.4537
  776MPD2    H211454   2.147   4.140  11.351 -0.9387 -0.3932 -2.4837
  776MPD2    H311455   2.286   4.312  11.296  0.2299  2.5042  0.4706
  776MPD2     N11456   1.960   4.624  11.288 -0.0831  0.0358 -0.7487
  776MPD2    H511457   2.036   4.687  11.263 -1.3082  1.2358 -1.4591
  776MPD2    N111458   1.886   4.150  11.396 -0.2691 -0.1425  0.3231
  776MPD2    H711459   1.941   4.064  11.401  0.6256  0.3966 -0.2232
  777MPD2     C11460   1.602   1.306   0.681  0.5467  0.5103  0.5355
  777MPD2    C111461   1.685   1.225   0.755 -0.3647 -0.3962  0.2755
  777MPD2    C211462   1.723   1.102   0.717  0.1068 -0.2269 -0.2953
  777MPD2    C311463   1.666   1.049   0.602  0.6219 -0.0657 -0.3922
  777MPD2    C411464   1.587   1.127   0.524 -0.2226 -1.2024 -0.1763
  777MPD2    C511465   1.549   1.251   0.570 -0.4061  0.6010  0.5220
  777MPD2     H11466   1.791   1.038   0.771 -0.3362  0.4852  1.1164
  777MPD2    H111467   1.539   1.097   0.432 -0.6703 -0.4536 -0.1891
  777MPD2    H211468   1.584   1.410   0.703 -1.6433  0.2076  0.2110
  777MPD2    H311469   1.486   1.309   0.503  2.2768  1.0187 -1.6527
  777MPD2     N11470   1.693   0.911   0.576 -1.2769  0.6642  0.2298
  777MPD2    H511471   1.761   0.868   0.639 -2.9923 -3.2440 -0.5875
  777MPD2    N111472   1.713   1.279   0.881 -0.3305  0.1261 -0.2195
  777MPD2    H711473   1.656   1.356   0.917  1.6840  0.7012  1.7394
  778MPD2     C11474   2.702   2.274  14.509 -0.4123  0.3628 -0.2527
  778MPD2    C111475   2.765   2.161  14.471 -0.1972  0.0701 -0.7190
  778MPD2    C211476   2.850   2.169  14.369  0.0748  0.3864 -0.6130
  778MPD2    C311477   2.885   2.287  14.312  0.1583  0.0761  0.2796
  778MPD2    C411478   2.818   2.399  14.355  0.0200  0.8285  0.0936
  778MPD2    C511479   2.719   2.390  14.448 -0.2895 -0.0315  0.0600
  778MPD2     H11480   2.898   2.081  14.327  0.3996  0.8507 -1.2219
  778MPD2    H111481   2.847   2.494  14.313  0.9178  0.1101 -0.9215
  778MPD2    H211482   2.620   2.272  14.580  0.9709 -1.4448  1.2875
  778MPD2    H311483   2.677   2.485  14.479  2.0775  1.3120 -0.9207
  778MPD2     N11484   2.999   2.287  14.233 -0.6653 -0.5415 -0.1510
  778MPD2    H511485   3.064   2.209  14.240  1.2440  0.8499 -2.2027
  778MPD2    N111486   2.727   2.036  14.516  0.7172 -0.0955  0.1603
  778MPD2    H711487   2.755   1.962  14.452  1.8530 -0.8156  1.5012
  779MPD2     C11488   2.335   0.861  13.238 -0.9363  0.3945 -0.2481
  779MPD2    C111489   2.409   0.887  13.352  0.4153 -0.3563  0.2160
  779MPD2    C211490   2.435   1.018  13.386 -0.9896 -1.2176 -0.2117
  779MPD2    C311491   2.390   1.119  13.305  0.0252  0.1786 -0.7200
  779MPD2    C411492   2.315   1.095  13.190 -0.1819  0.5063 -0.5012
  779MPD2    C511493   2.291   0.966  13.163  0.8574 -0.8825  0.4667
  779MPD2     H11494   2.492   1.037  13.477 -0.5401 -1.4539 -0.4449
  779MPD2    H111495   2.286   1.176  13.124  1.9073  0.0080 -2.0519
  779MPD2    H211496   2.299   0.762  13.216  1.4734 -0.3539 -0.7652
  779MPD2    H311497   2.217   0.952  13.086 -1.2558  2.2401  1.9114
  779MPD2     N11498   2.417   1.251  13.355  0.1980 -0.0558 -0.2313
  779MPD2    H511499   2.484   1.260  13.431  0.7141  1.4831 -0.8777
  779MPD2    N111500   2.449   0.791  13.447 -0.4973  0.2757 -0.2699
  779MPD2    H711501   2.468   0.834  13.537 -2.8958 -0.4042  0.5463
  780MPD2     C11502   1.738   0.473   0.919 -0.0341  0.0218 -0.5389
  780MPD2    C111503   1.657   0.379   0.867  0.2675  0.6430 -0.1769
  780MPD2    C211504   1.676   0.337   0.737  0.9636  0.2160  0.3705
  780MPD2    C311505   1.773   0.391   0.654 -0.3962 -0.0104  0.4864
  780MPD2    C411506   1.848   0.495   0.706 -1.4071  0.2102  0.0591
  780MPD2    C511507   1.830   0.531   0.840  0.7681  0.3606  0.1545
  780MPD2     H11508   1.611   0.260   0.698  1.6260  0.1443 -0.5885
  780MPD2    H111509   1.925   0.549   0.653  0.1519 -0.4278  1.6552
  780MPD2    H211510   1.741   0.502   1.024  0.1696 -0.1397 -0.4994
  780MPD2    H311511   1.899   0.601   0.886  0.5114  0.6616  0.0844
  780MPD2     N11512   1.784   0.334   0.523  0.5863 -0.1792  0.1063
  780MPD2    H511513   1.739   0.245   0.508  1.5089 -0.4751 -0.8999
  780MPD2    N111514   1.558   0.323   0.950 -0.4977 -0.6742  0.3113
  780MPD2    H711515   1.553   0.349   1.047 -2.1463 -2.0299  0.5858
  781MPD2     C11516   4.036   3.012  11.527 -0.4323 -0.4418  0.0238
  781MPD2    C111517   4.124   2.983  11.627 -0.2059  0.1807  0.5413
  781MPD2    C211518   4.253   2.948  11.611 -0.0806 -0.5433 -0.7812
  781MPD2    C311519   4.308   2.959  11.483 -0.2835  0.4040  0.0005
  781MPD2    C411520   4.221   2.993  11.386 -0.2551  0.2323  0.2056
  781MPD2    C511521   4.086   3.020  11.406  0.7061  0.3413  0.1513
  781MPD2     H11522   4.316   2.926  11.696 -0.5141  0.4377 -0.2110
  781MPD2    H111523   4.251   2.992  11.282 -0.7995 -3.3383  0.0953
  781MPD2    H211524   3.931   3.016  11.551  0.0038 -1.1198  2.0233
  781MPD2    H311525   4.022   3.034  11.319 -0.1864  0.8666  0.8895
  781MPD2     N11526   4.445   2.939  11.454  0.1801  0.1808  0.3675
  781MPD2    H511527   4.471   2.953  11.357  1.5439 -1.7483  0.4493
  781MPD2    N111528   4.065   2.987  11.760  0.1086  0.5586 -0.7251
  781MPD2    H711529   3.973   3.028  11.766 -0.5225 -0.6583 -2.0096
  782MPD2     C11530   1.887   3.103   9.808  0.6447  0.7397  0.4621
  782MPD2    C111531   1.943   3.089   9.939 -0.0933 -0.6337 -0.9363
  782MPD2    C211532   2.000   3.210   9.982  0.3176  0.0005 -0.7354
  782MPD2    C311533   2.001   3.334   9.910 -0.3114 -0.5286  0.4398
  782MPD2    C411534   1.934   3.341   9.790  0.7108 -0.2438 -0.4653
  782MPD2    C511535   1.875   3.225   9.743  0.3516 -0.4532  0.8702
  782MPD2     H11536   2.064   3.209  10.069 -0.1079  0.1802 -0.4211
  782MPD2    H111537   1.926   3.436   9.738 -1.8072  0.0117  0.3955
  782MPD2    H211538   1.852   3.014   9.756  0.1107  0.9827  0.4024
  782MPD2    H311539   1.811   3.227   9.656 -1.3345  1.3838  2.1478
  782MPD2     N11540   2.073   3.441   9.960 -0.6527  0.1237  1.0320
  782MPD2    H511541   2.120   3.412  10.046  1.2317 -2.6634 -0.9397
  782MPD2    N111542   1.956   2.968  10.005  0.0052  0.0571 -0.1213
  782MPD2    H711543   2.007   2.964  10.092  0.9934  2.3737 -0.6046
  783MPD2     C11544   1.254   2.906  10.500  0.1028 -0.1087  0.2629
  783MPD2    C111545   1.342   2.999  10.457 -0.4050  0.9155  0.0803
  783MPD2    C211546   1.463   2.955  10.405  0.4579  0.1615  0.5482
  783MPD2    C311547   1.499   2.821  10.399  0.5873  0.1029 -0.6549
  783MPD2    C411548   1.407   2.730  10.442 -0.2609  0.0750  0.1724
  783MPD2    C511549   1.285   2.776  10.489 -0.5740 -0.0483  0.2268
  783MPD2     H11550   1.541   3.025  10.377 -0.1046  1.4100  2.1100
  783MPD2    H111551   1.428   2.625  10.430 -1.1360 -0.1335  0.4863
  783MPD2    H211552   1.153   2.926  10.531  0.3232  1.4743 -0.0723
  783MPD2    H311553   1.211   2.698  10.504  0.3333 -1.0155 -0.2889
  783MPD2     N11554   1.622   2.787  10.341  0.4994  0.1360  0.1916
  783MPD2    H511555   1.677   2.858  10.294  0.3660 -0.6790 -1.1682
  783MPD2    N111556   1.300   3.131  10.467 -0.6398 -0.0018  0.1085
  783MPD2    H711557   1.204   3.153  10.494  0.5522  2.4585  2.3401
  784MPD2     C11558   3.642   3.448   0.613 -0.8761 -0.1745  0.3289
  784MPD2    C111559   3.603   3.390   0.737 -0.3881 -0.6993  0.5293
  784MPD2    C211560   3.479   3.422   0.786 -0.4477 -0.5717 -0.1494
  784MPD2    C311561   3.390   3.502   0.724  0.3386  0.8695 -0.6047
  784MPD2    C411562   3.434   3.567   0.610  0.0152  0.5891 -0.2173
  784MPD2    C511563   3.551   3.528   0.550 -0.3303 -0.5482 -0.4039
  784MPD2     H11564   3.455   3.383   0.884  0.5049 -0.6019  0.0770
  784MPD2    H111565   3.382   3.648   0.561 -0.3981 -0.2749 -1.2020
  784MPD2    H211566   3.733   3.434   0.556 -0.2001 -0.4907  1.4780
  784MPD2    H311567   3.580   3.579   0.458  2.0350 -0.6511  0.2732
  784MPD2     N11568   3.262   3.524   0.777 -0.0845 -0.8118 -0.3566
  784MPD2    H511569   3.230   3.467   0.855  1.7554  1.8013  2.3343
  784MPD2    N111570   3.694   3.312   0.811 -0.2750  0.2215  0.1152
  784MPD2    H711571   3.669   3.287   0.906  0.7220 -0.0950  0.2901
  785MPD2     C11572   4.635   2.757  10.453 -0.8901  0.5904 -0.0203
  785MPD2    C111573   4.565   2.701  10.348  0.5203  0.5039  0.4177
  785MPD2    C211574   4.528   2.566  10.360  0.1545 -0.4838 -0.3881
  785MPD2    C311575   4.565   2.489  10.470 -0.3128 -0.6277  0.1435
  785MPD2    C411576   4.645   2.544  10.571 -0.0221  0.1411 -0.4235
  785MPD2    C511577   4.677   2.680  10.559 -0.3244  0.0120  0.4314
  785MPD2     H11578   4.459   2.520  10.290 -0.5351 -0.6834  0.4210
  785MPD2    H111579   4.677   2.497  10.663 -2.1386  0.6718  0.5757
  785MPD2    H211580   4.676   2.858  10.446  3.3764 -1.0853  0.4346
  785MPD2    H311581   0.007   2.727  10.641 -1.0187  0.0182  0.8796
  785MPD2     N11582   4.507   2.356  10.481 -0.0761  0.4905  0.2740
  785MPD2    H511583   4.432   2.328  10.419  1.4152 -3.4211  0.2199
  785MPD2    N111584   4.533   2.772  10.233  0.4060 -0.2410  0.2328
  785MPD2    H711585   4.591   2.853  10.214 -1.2819  0.8021 -0.4663
  786MPD2     C11586   3.148   0.278  14.232 -0.1152 -0.2674  0.7580
  786MPD2    C111587   3.057   0.202  14.317 -0.1629 -0.5896  0.3780
  786MPD2    C211588   3.046   0.224  14.452  0.7205 -0.5397  0.8428
  786MPD2    C311589   3.116   0.335  14.508 -0.2404 -0.7696  0.6670
  786MPD2    C411590   3.209   0.404  14.424 -0.3959 -0.1752  0.1274
  786MPD2    C511591   3.226   0.377  14.289  0.4379 -1.0459 -0.2620
  786MPD2     H11592   2.975   0.158  14.501 -1.8233 -0.1153 -2.2673
  786MPD2    H111593   3.267   0.485  14.466  0.9362 -1.0053 -0.1178
  786MPD2    H211594   3.145   0.268  14.124 -0.3885 -0.1093  0.7535
  786MPD2    H311595   3.302   0.424  14.228 -0.2617  0.3513 -0.0448
  786MPD2     N11596   3.116   0.373  14.645  0.1898 -0.4901  0.3377
  786MPD2    H511597   3.191   0.429  14.685  1.9716 -1.2075 -2.0229
  786MPD2    N111598   2.980   0.089  14.271  0.4951  0.1162 -0.1372
  786MPD2    H711599   2.928   0.033  14.338 -1.0774  2.0486  0.2555
  787MPD2     C11600   2.784   4.430  14.661 -0.7794 -0.2938  0.6599
  787MPD2    C111601   2.825   4.360  14.551  0.3027 -0.8368  0.3791
  787MPD2    C211602   2.900   4.240  14.566 -0.4994  0.2218  0.1732
  787MPD2    C311603   2.937   4.195  14.689 -0.2256  0.5258 -0.3714
  787MPD2    C411604   2.897   4.269  14.800  0.0265  0.2912 -0.4137
  787MPD2    C511605   2.819   4.383  14.786 -0.4903 -0.2818  0.3145
  787MPD2     H11606   2.918   4.167  14.488 -2.7251  0.3920 -0.5089
  787MPD2    H111607   2.926   4.237  14.900 -0.9637 -2.7677 -1.1098
  787MPD2    H211608   2.732   4.525  14.653 -1.4853 -0.7822 -0.5111
  787MPD2    H311609   2.790   4.432  14.878 -0.1235 -0.3503  0.4654
  787MPD2     N11610   3.012   4.074  14.692  0.1832 -0.1003 -0.1985
  787MPD2    H511611   3.033   4.025  14.605  0.7472  1.0146 -0.6901
  787MPD2    N111612   2.794   4.415  14.425 -0.4671  0.4238  0.5573
  787MPD2    H711613   2.758   4.510  14.423  0.9534  0.9457 -0.1322
  788MPD2     C11614   4.002   2.311   1.001  0.3882 -0.5363 -0.3341
  788MPD2    C111615   3.993   2.202   0.916 -0.7435  0.6759  0.7915
  788MPD2    C211616   4.100   2.167   0.836  0.3922 -0.0860  0.3010
  788MPD2    C311617   4.221   2.223   0.854  0.1635  0.9719 -0.1681
  788MPD2    C411618   4.240   2.317   0.956  0.7709 -0.2192  0.3917
  788MPD2    C511619   4.127   2.368   1.020  0.9722 -0.6621 -0.5303
  788MPD2     H11620   4.079   2.099   0.754 -0.6739  2.0424 -1.2077
  788MPD2    H111621   4.332   2.373   0.965  0.4335  0.6450 -1.5377
  788MPD2    H211622   3.923   2.348   1.065 -1.0500 -0.2993 -2.2250
  788MPD2    H311623   4.133   2.449   1.092 -3.2986 -2.5028  1.8751
  788MPD2     N11624   4.329   2.203   0.767  0.1839  0.2689  0.0887
  788MPD2    H511625   4.310   2.148   0.684  0.3232 -1.8070  1.4248
  788MPD2    N111626   3.870   2.136   0.885  0.8145  0.6629  0.7776
  788MPD2    H711627   3.871   2.071   0.807 -0.4098  1.6713 -0.0771
  789MPD2     C11628   0.602   2.589  16.258  0.2438 -0.5519  0.3306
  789MPD2    C111629   0.487   2.536  16.313  0.3212 -0.0681 -0.1754
  789MPD2    C211630   0.383   2.619  16.339 -0.2796  0.5011 -0.1513
  789MPD2    C311631   0.388   2.748  16.291 -0.6728  0.3747 -0.3575
  789MPD2    C411632   0.494   2.798  16.222 -0.1491 -0.0549 -0.4490
  789MPD2    C511633   0.600   2.719  16.205 -1.2150 -0.0869 -0.1888
  789MPD2     H11634   0.307   2.569  16.398  1.8175 -2.0611  0.4157
  789MPD2    H111635   0.505   2.901  16.191 -1.3353  0.3014  0.3092
  789MPD2    H211636   0.695   2.533  16.259  0.7158  0.2121 -1.2430
  789MPD2    H311637   0.694   2.763  16.172 -1.3353  0.9362  0.8440
  789MPD2     N11638   0.280   2.839  16.320 -0.6934 -0.7004 -0.3752
  789MPD2    H511639   0.292   2.935  16.290 -2.4268  0.2931  2.1227
  789MPD2    N111640   0.473   2.399  16.356 -0.0355 -0.6620 -0.1953
  789MPD2    H711641   0.388   2.371  16.404 -0.7586  1.6560 -0.1014
  790MPD2     C11642   1.500   4.611  13.200 -0.3832  0.5709  0.5559
  790MPD2    C111643   1.530   4.482  13.156 -0.4649 -0.2435 -0.9936
  790MPD2    C211644   1.508   4.448  13.018 -0.1627  0.4965  0.4857
  790MPD2    C311645   1.459   4.541  12.930  0.1787 -0.1436  0.7379
  790MPD2    C411646   1.436   4.672  12.978 -0.0024  0.0623 -0.3697
  790MPD2    C511647   1.461   4.710  13.105  0.8132  0.7189  0.4576
  790MPD2     H11648   1.546   4.351  12.986 -1.9692 -0.7209  2.0641
  790MPD2    H111649   1.412   0.032  12.912  2.8554 -0.0346 -1.5213
  790MPD2    H211650   1.512   4.640  13.304  3.2378 -0.3715  0.3827
  790MPD2    H311651   1.450   0.090  13.136 -3.9302  0.2428  0.2200
  790MPD2     N11652   1.438   4.494  12.798  0.0455  0.3082  0.1894
  790MPD2    H511653   1.440   4.394  12.785  0.6629  0.0550  2.2119
  790MPD2    N111654   1.577   4.380  13.244 -0.3155 -0.3839 -0.0144
  790MPD2    H711655   1.571   4.391  13.345 -0.5620  2.6782 -0.3566
  791MPD2     C11656   0.838   4.695  12.358  0.1402  0.6574 -1.0128
  791MPD2    C111657   0.887   4.569  12.357 -0.1651 -0.5911  0.8280
  791MPD2    C211658   0.799   4.464  12.352  0.4957 -0.0485 -0.2692
  791MPD2    C311659   0.665   4.486  12.344  0.0131 -0.4416  0.1545
  791MPD2    C411660   0.614   4.613  12.345 -0.0474  0.1644  0.3729
  791MPD2    C511661   0.702   4.717  12.355  0.1729 -0.2580  0.0136
  791MPD2     H11662   0.838   4.363  12.359  0.1531 -0.1071  0.8114
  791MPD2    H111663   0.509   4.632  12.362  0.1042  1.8735 -0.6601
  791MPD2    H211664   0.909   0.051  12.375  0.7339 -0.1996  0.5751
  791MPD2    H311665   0.667   0.096  12.363 -0.4933 -0.6625  2.1907
  791MPD2     N11666   0.585   4.371  12.320 -0.1004 -0.1103 -0.1907
  791MPD2    H511667   0.630   4.281  12.337 -0.3117  0.3601  2.9820
  791MPD2    N111668   1.027   4.548  12.362 -0.2546  0.1347  0.4714
  791MPD2    H711669   1.089   4.628  12.369 -1.6863  1.1248  1.7200
  792MPD2     C11670   1.813   4.269  11.029 -0.4871  0.4105 -0.9236
  792MPD2    C111671   1.737   4.366  10.973 -0.6296 -0.4302  0.3896
  792MPD2    C211672   1.606   4.343  10.946  0.5610  0.0504 -0.6067
  792MPD2    C311673   1.537   4.229  10.985 -0.6232 -0.1900 -0.4219
  792MPD2    C411674   1.618   4.132  11.038  0.2657  0.1147 -0.6657
  792MPD2    C511675   1.751   4.151  11.058  0.4512 -0.6383 -0.4658
  792MPD2     H11676   1.546   4.421  10.900  0.8073  1.3897  1.3344
  792MPD2    H111677   1.583   4.031  11.057 -1.0572  1.0782  2.0295
  792MPD2    H211678   1.920   4.283  11.041 -0.5160  0.6771 -0.9741
  792MPD2    H311679   1.811   4.072  11.102  1.9876  1.1047  0.5648
  792MPD2     N11680   1.402   4.213  10.956 -0.0191  0.0381  0.4458
  792MPD2    H511681   1.351   4.297  10.931 -0.9128 -0.5902  0.1868
  792MPD2    N111682   1.807   4.476  10.927  0.0501 -0.1521  0.3124
  792MPD2    H711683   1.907   4.465  10.941  0.5919 -0.0895 -3.5265
  793MPD2     C11684   0.740   4.550  10.433 -0.0211 -0.8956 -0.0810
  793MPD2    C111685   0.873   4.512  10.418 -0.2081  0.7587  0.5197
  793MPD2    C211686   0.942   4.464  10.525  0.1611  0.3385 -0.2281
  793MPD2    C311687   0.881   4.442  10.651  0.1024  0.2614  0.2161
  793MPD2    C411688   0.753   4.484  10.666 -0.4764  0.2671  0.3057
  793MPD2    C511689   0.685   4.532  10.562 -0.1656 -0.4724  0.0535
  793MPD2     H11690   1.045   4.431  10.522  0.0911  0.1711 -0.8347
  793MPD2    H111691   0.702   4.475  10.761  0.1714  2.8214  0.8978
  793MPD2    H211692   0.675   4.599  10.362  0.9651 -2.0347 -1.7587
  793MPD2    H311693   0.579   4.553  10.576 -0.2700 -2.4079  2.1618
  793MPD2     N11694   0.953   4.377  10.751  0.1128 -0.1568  0.1351
  793MPD2    H511695   1.042   4.334  10.728  0.5067  0.1906  1.0168
  793MPD2    N111696   0.944   4.533  10.299 -0.5270  0.4138 -0.1316
  793MPD2    H711697   1.040   4.502  10.304 -0.3938  0.8370 -0.0630
  794MPD2     C11698   0.917   4.059  17.374 -0.1958 -0.2668  0.7358
  794MPD2    C111699   0.876   3.937  17.338 -0.5637 -0.3042 -0.1771
  794MPD2    C211700   0.824   3.916  17.210 -0.6291  0.7719 -0.2168
  794MPD2    C311701   0.816   4.027  17.128  0.1061  0.0630 -0.4269
  794MPD2    C411702   0.875   4.146  17.159 -0.0510 -0.3031  0.0547
  794MPD2    C511703   0.922   4.164  17.290 -0.0174 -0.4781 -0.3451
  794MPD2     H11704   0.790   3.821  17.171 -0.5267  0.6210  0.0606
  794MPD2    H111705   0.874   4.235  17.098 -0.1205 -1.0385 -1.0175
  794MPD2    H211706   0.940   4.085  17.477  0.7861  1.2168  0.1409
  794MPD2    H311707   0.968   4.257  17.320 -1.1765  0.5864 -1.8270
  794MPD2     N11708   0.751   4.027  17.001 -0.2423  0.4767 -0.2256
  794MPD2    H511709   0.731   4.119  16.961  3.4026  0.2594 -2.5867
  794MPD2    N111710   0.881   3.820  17.424 -0.3327  0.4822 -0.1109
  794MPD2    H711711   0.882   3.729  17.378 -0.4362 -0.2790  1.3846
  795MPD2     C11712   3.664   1.465  13.205  0.2822  0.6089 -0.1853
  795MPD2    C111713   3.576   1.369  13.240  1.0999 -0.5192  0.1252
  795MPD2    C211714   3.616   1.235  13.254  1.0151 -0.0826 -1.0281
  795MPD2    C311715   3.744   1.202  13.221  0.4166  0.9003 -0.6881
  795MPD2    C411716   3.833   1.304  13.186  0.3468 -0.3867  0.3455
  795MPD2    C511717   3.793   1.427  13.176  0.2481  0.1655  0.0205
  795MPD2     H11718   3.542   1.163  13.288  0.7703  1.0174  0.7997
  795MPD2    H111719   3.932   1.292  13.145  0.8602 -4.6784  2.9044
  795MPD2    H211720   3.639   1.567  13.177 -0.2961  0.3308 -0.6831
  795MPD2    H311721   3.856   1.505  13.133 -1.0387  0.2065 -1.7964
  795MPD2     N11722   3.794   1.068  13.226  0.1195 -0.5056 -0.1779
  795MPD2    H511723   3.732   0.987  13.226 -1.7557  0.9276 -0.5340
  795MPD2    N111724   3.440   1.397  13.274  0.2824 -0.1917  0.4292
  795MPD2    H711725   3.368   1.327  13.281  0.4493 -0.3295  0.7663
  796MPD2     C11726   3.052   2.373  15.658 -0.2332 -0.5671  0.0627
  796MPD2    C111727   3.128   2.407  15.766 -0.3338 -0.5469  0.2101
  796MPD2    C211728   3.147   2.542  15.788 -0.6498  0.3627  0.9477
  796MPD2    C311729   3.085   2.645  15.714 -0.6479  0.1695  0.0807
  796MPD2    C411730   3.005   2.602  15.613  0.9960  0.1489 -0.0518
  796MPD2    C511731   2.991   2.474  15.581  0.0278  0.4228  0.1021
  796MPD2     H11732   3.209   2.571  15.872  0.2826 -3.4085  1.5803
  796MPD2    H111733   2.954   2.671  15.547  0.5578 -1.2488 -1.1768
  796MPD2    H211734   3.049   2.276  15.611 -1.0671 -1.7685  2.6088
  796MPD2    H311735   2.920   2.445  15.504 -0.8115 -0.2093  1.1116
  796MPD2     N11736   3.082   2.783  15.757  0.5013  0.0217  0.3356
  796MPD2    H511737   3.111   2.809  15.851 -0.1049 -1.3105  0.8957
  796MPD2    N111738   3.164   2.297  15.849  0.5706  0.9618 -0.0548
  796MPD2    H711739   3.132   2.202  15.832 -0.1134  1.2800 -0.5597
  797MPD2     C11740   4.069   1.930  17.372  0.4681 -0.2931 -0.2504
  797MPD2    C111741   4.158   1.995  17.292  0.5302 -0.0155 -0.4070
  797MPD2    C211742   4.109   2.095  17.211 -0.1381  0.1297  0.6606
  797MPD2    C311743   3.977   2.137  17.221 -0.4317 -0.7534 -0.0600
  797MPD2    C411744   3.892   2.077  17.314  0.5177 -0.2167 -0.2297
  797MPD2    C511745   3.938   1.960  17.377  0.0616 -0.3133  0.3138
  797MPD2     H11746   4.177   2.147  17.146  1.0390 -3.1474 -0.7485
  797MPD2    H111747   3.789   2.098  17.340  1.1962  1.9259  0.7005
  797MPD2    H211748   4.107   1.850  17.434  1.7962 -0.5775 -1.4086
  797MPD2    H311749   3.874   1.897  17.437  0.0469  1.2468  1.9589
  797MPD2     N11750   3.941   2.234  17.130 -0.0734  0.6535  0.6086
  797MPD2    H511751   4.012   2.260  17.062 -1.6714  0.3225 -1.1934
  797MPD2    N111752   4.297   1.971  17.284 -0.0702 -0.7150 -0.7246
  797MPD2    H711753   4.351   2.037  17.230  0.4352 -1.4762 -1.1616
  798MPD2     C11754   4.214   2.520  17.485 -0.1964  0.0029 -0.6126
  798MPD2    C111755   4.225   2.494  17.344 -0.0695 -0.4082 -0.6357
  798MPD2    C211756   4.330   2.410  17.304 -0.6189  0.1262  0.0956
  798MPD2    C311757   4.415   2.347  17.394  0.0195 -0.5574  0.0257
  798MPD2    C411758   4.399   2.371  17.526 -0.2906 -0.0193  0.5757
  798MPD2    C511759   4.297   2.453  17.571 -0.5409  0.4751  0.1263
  798MPD2     H11760   4.346   2.386  17.199 -1.8419  0.8718 -0.2664
  798MPD2    H111761   4.464   2.328  17.601 -0.3328  1.7201  1.6128
  798MPD2    H211762   4.141   2.586  17.531  0.0809 -0.4243  0.4600
  798MPD2    H311763   4.285   2.459  17.678  1.4222  2.1818  0.2553
  798MPD2     N11764   4.510   2.256  17.345  0.0205  0.3156  0.3420
  798MPD2    H511765   4.497   2.231  17.248  0.1253 -0.1952  0.4543
  798MPD2    N111766   4.134   2.549  17.253 -0.4720  0.4211  0.4188
  798MPD2    H711767   4.060   2.615  17.277 -0.8217  0.9165 -2.0920
  799MPD2     C11768   2.813   3.702  14.674 -0.0812  0.0594  0.1368
  799MPD2    C111769   2.838   3.637  14.557  0.5272 -0.2882  0.5785
  799MPD2    C211770   2.825   3.710  14.437  0.4030  0.5646 -0.3930
  799MPD2    C311771   2.798   3.845  14.441 -0.2065  0.0353 -0.3443
  799MPD2    C411772   2.776   3.905  14.562  0.6036  0.3867  0.6760
  799MPD2    C511773   2.786   3.832  14.675 -0.3110 -0.0550  0.0652
  799MPD2     H11774   2.833   3.653  14.345  0.3819  0.3128 -0.2386
  799MPD2    H111775   2.743   4.008  14.560  0.2167  0.2000 -1.9073
  799MPD2    H211776   2.821   3.649  14.768  3.3119  2.5092  1.2193
  799MPD2    H311777   2.766   3.888  14.766 -0.7499 -0.1455  0.0241
  799MPD2     N11778   2.802   3.920  14.321  0.5529  0.4121  0.4764
  799MPD2    H511779   2.808   4.020  14.336 -0.7479  0.5476  0.1410
  799MPD2    N111780   2.877   3.504  14.549 -0.1388  0.6732  0.1187
  799MPD2    H711781   2.892   3.479  14.452  1.2903  2.8363 -0.2339
  800MPD2     C11782   3.087   0.402  13.823  0.2475 -0.5386  0.4416
  800MPD2    C111783   3.186   0.309  13.801  0.2811 -0.8704  0.6487
  800MPD2    C211784   3.171   0.209  13.708  0.2660  0.3812 -0.5050
  800MPD2    C311785   3.066   0.213  13.625 -0.5890  0.3260  0.2071
  800MPD2    C411786   2.968   0.305  13.644 -0.2516  0.9063 -1.1721
  800MPD2    C511787   2.975   0.393  13.748 -0.4214 -0.5448 -0.4401
  800MPD2     H11788   3.242   0.130  13.689  2.3505  2.3283 -0.7814
  800MPD2    H111789   2.890   0.322  13.571  1.6833  1.5020 -3.0943
  800MPD2    H211790   3.104   0.481  13.896 -1.1724 -0.5998  0.8394
  800MPD2    H311791   2.905   0.475  13.765 -0.8267 -0.6633 -1.5208
  800MPD2     N11792   3.081   0.136  13.507  0.3716  0.4606 -0.2926
  800MPD2    H511793   3.171   0.090  13.495  1.2473  1.7403  1.2062
  800MPD2    N111794   3.309   0.328  13.871  0.2156  1.0208  0.1705
  800MPD2    H711795   3.329   0.413  13.922  0.1975 -0.9850  3.4981
  801MPD2     C11796   3.806   0.813  13.639  0.0128 -0.1032  0.8595
  801MPD2    C111797   3.735   0.776  13.756  0.5651  0.7410 -0.6376
  801MPD2    C211798   3.707   0.878  13.847  0.0460  0.6617 -0.6489
  801MPD2    C311799   3.753   1.006  13.827  0.6634 -0.5753 -0.9471
  801MPD2    C411800   3.839   1.035  13.724 -0.0733 -0.2309 -0.3019
  801MPD2    C511801   3.851   0.941  13.624 -0.5966 -0.2618  0.4740
  801MPD2     H11802   3.664   0.847  13.941 -0.1544 -0.5724 -1.1459
  801MPD2    H111803   3.898   1.126  13.720  0.7601 -0.7846 -0.5915
  801MPD2    H211804   3.813   0.747  13.553  1.1302 -0.0417  0.9066
  801MPD2    H311805   3.907   0.962  13.534  0.2553 -1.3002  0.7582
  801MPD2     N11806   3.747   1.097  13.929 -0.0009 -0.2509 -0.4299
  801MPD2    H511807   3.817   1.170  13.933  0.2291 -0.4914 -0.1427
  801MPD2    N111808   3.671   0.655  13.770  0.1467 -0.3661  0.0295
  801MPD2    H711809   3.610   0.640  13.850 -1.6762 -0.6204 -1.4106
  802MPD2     C11810   2.368   0.901  17.200 -0.2626  0.4440 -0.9551
  802MPD2    C111811   2.493   0.860  17.241 -1.1105 -0.0591 -0.1542
  802MPD2    C211812   2.557   0.755  17.162  0.3795  0.6046 -0.6454
  802MPD2    C311813   2.502   0.710  17.045  0.1089 -0.2069 -0.3010
  802MPD2    C411814   2.381   0.763  16.999  0.5754 -0.6635  0.0219
  802MPD2    C511815   2.318   0.863  17.082 -0.0384 -0.4139  0.3721
  802MPD2     H11816   2.649   0.717  17.203 -1.3046 -2.9336 -0.1697
  802MPD2    H111817   2.345   0.741  16.899  0.2386  0.2267 -0.0572
  802MPD2    H211818   2.318   0.981  17.255  1.6233  1.1298 -0.2217
  802MPD2    H311819   2.224   0.899  17.041  0.5303  1.3694  0.6024
  802MPD2     N11820   2.565   0.601  16.979 -0.2416  0.0060  0.0686
  802MPD2    H511821   2.651   0.571  17.024 -1.0778 -0.6486  1.2392
  802MPD2    N111822   2.552   0.915  17.358  0.2651 -0.3934 -0.6180
  802MPD2    H711823   2.642   0.883  17.392  0.3408 -1.1936 -1.5788
  803MPD2     C11824   4.286   4.699  11.576  0.1865 -0.4356 -0.6303
  803MPD2    C111825   4.323   4.653  11.701  0.1638 -0.1732 -0.3070
  803MPD2    C211826   4.251   4.552  11.758  0.1440  0.9103 -0.4861
  803MPD2    C311827   4.138   4.501  11.696  0.2415 -0.4850 -0.1882
  803MPD2    C411828   4.094   4.559  11.572 -0.1001 -0.0634  0.4427
  803MPD2    C511829   4.168   4.657  11.513  0.1326  0.2747  0.1772
  803MPD2     H11830   4.277   4.534  11.862  1.1198  3.6026 -0.2544
  803MPD2    H111831   4.008   4.519  11.520 -0.6355 -0.9968  2.0664
  803MPD2    H211832   4.338   0.065  11.542 -0.0241 -0.8599 -2.0979
  803MPD2    H311833   4.134   4.710  11.425  0.8850  4.6695  2.5559
  803MPD2     N11834   4.083   4.379  11.751 -0.2218 -0.2198  0.3524
  803MPD2    H511835   3.986   4.355  11.736 -0.0867 -2.2845  2.7528
  803MPD2    N111836   4.437   4.705  11.769  0.4604 -0.5044  0.7006
  803MPD2    H711837   4.457   4.652  11.854  0.2006 -2.5500 -0.4986
  804MPD2     C11838   3.282   0.501  16.656  0.4254 -0.4607 -0.1904
  804MPD2    C111839   3.268   0.518  16.792  0.5558  0.4500  0.2967
  804MPD2    C211840   3.285   0.642  16.846  0.0703 -0.4678 -0.4675
  804MPD2    C311841   3.326   0.752  16.771  0.6372  0.0533  0.3626
  804MPD2    C411842   3.346   0.729  16.635 -0.1567 -0.7668 -0.6709
  804MPD2    C511843   3.312   0.612  16.577 -0.2730 -0.4166 -0.1293
  804MPD2     H11844   3.284   0.650  16.954  1.2509  0.0784 -0.4946
  804MPD2    H111845   3.370   0.811  16.568 -0.5496 -0.9920 -1.0873
  804MPD2    H211846   3.267   0.404  16.611 -0.8965 -1.9832  3.4992
  804MPD2    H311847   3.321   0.598  16.470  0.0406  1.3874 -0.3280
  804MPD2     N11848   3.364   0.877  16.833  0.0839 -0.5313 -0.2118
  804MPD2    H511849   3.354   0.883  16.934 -1.1278 -1.6043 -0.2694
  804MPD2    N111850   3.249   0.402  16.865 -0.9010  0.0123  0.5598
  804MPD2    H711851   3.277   0.311  16.829 -1.9659 -0.2117  0.3000
  805MPD2     C11852   2.605   3.694  15.497 -0.0202 -0.9450 -0.4521
  805MPD2    C111853   2.659   3.756  15.387  0.0618  0.6521 -0.2626
  805MPD2    C211854   2.798   3.786  15.393 -0.3684  0.3015 -0.4220
  805MPD2    C311855   2.874   3.730  15.492 -0.4697  0.1688  0.7707
  805MPD2    C411856   2.814   3.647  15.587 -1.4748  0.2495 -1.0394
  805MPD2    C511857   2.684   3.636  15.587 -0.2445  0.1549 -0.5562
  805MPD2     H11858   2.852   3.833  15.312  2.5639  0.3343  1.5605
  805MPD2    H111859   2.868   3.591  15.663 -0.7647 -0.0009 -1.7351
  805MPD2    H211860   2.501   3.666  15.489  0.3234 -2.5304  0.6532
  805MPD2    H311861   2.632   3.572  15.657 -3.7497  1.9546 -1.5248
  805MPD2     N11862   3.003   3.771  15.514  0.4503 -0.0279  0.6307
  805MPD2    H511863   3.049   3.840  15.455 -2.0928  1.4497  0.3608
  805MPD2    N111864   2.589   3.793  15.266  0.1993 -0.2774  0.3105
  805MPD2    H711865   2.650   3.830  15.194  0.3974 -1.0085  0.1036
  806MPD2     C11866   3.625   3.310   0.143  0.3033  0.9651  0.6039
  806MPD2    C111867   3.515   3.345   0.211 -0.2781  0.0853  0.7482
  806MPD2    C211868   3.476   3.479   0.220  1.1709 -0.3648 -0.1860
  806MPD2    C311869   3.540   3.576   0.144 -0.0802  0.6402 -0.2266
  806MPD2    C411870   3.655   3.539   0.067 -0.4771  0.3851  0.3904
  806MPD2    C511871   3.691   3.404   0.071  0.4357  0.3987  0.7001
  806MPD2     H11872   3.394   3.516   0.281  2.4853  0.1745  1.2439
  806MPD2    H111873   3.710   3.612   0.009 -0.2828 -1.5358 -1.8707
  806MPD2    H211874   3.659   3.207   0.137 -0.4025  0.6132  2.8976
  806MPD2    H311875   3.780   3.381   0.014 -0.1831 -1.4093  0.4782
  806MPD2     N11876   3.502   3.713   0.156 -0.1197 -0.5937 -0.4535
  806MPD2    H511877   3.423   3.735   0.217 -0.8878  1.8276 -2.3094
  806MPD2    N111878   3.460   3.242   0.294  0.2578  0.1035  0.2907
  806MPD2    H711879   3.501   3.151   0.275 -1.0406 -0.8175  1.8592
  807MPD2     C11880   3.037   3.120   1.050 -0.0154  0.0684 -0.1733
  807MPD2    C111881   3.156   3.045   1.039 -0.1953  0.2954 -0.4114
  807MPD2    C211882   3.189   2.950   1.134  0.6720  0.1351 -0.0415
  807MPD2    C311883   3.100   2.930   1.243  1.0677 -0.3826  0.2473
  807MPD2    C411884   2.985   3.003   1.257  1.0002 -0.2290  0.9279
  807MPD2    C511885   2.953   3.087   1.155  0.3920 -0.0119 -0.0634
  807MPD2     H11886   3.274   2.885   1.115  0.5125 -0.2113  0.4216
  807MPD2    H111887   2.908   2.975   1.328  0.4637  1.6875  1.1175
  807MPD2    H211888   3.006   3.195   0.979 -1.4132  1.2827  1.7365
  807MPD2    H311889   2.857   3.136   1.145  0.4999  0.1236 -0.4673
  807MPD2     N11890   3.127   2.826   1.342 -0.7000 -0.2188 -0.5393
  807MPD2    H511891   3.206   2.767   1.318  0.5553  0.4903  1.8241
  807MPD2    N111892   3.252   3.060   0.940  0.6643 -0.8111  0.4296
  807MPD2    H711893   3.337   3.005   0.945 -0.5338 -2.6415  1.0565
  808MPD2     C11894   3.939   0.187   9.793 -0.3635  0.0914  0.3735
  808MPD2    C111895   3.883   0.227   9.676  0.3265  0.3597 -0.2261
  808MPD2    C211896   3.899   0.357   9.638 -0.3144  0.1626 -0.3685
  808MPD2    C311897   3.976   0.444   9.707 -0.0012  0.4615  0.2535
  808MPD2    C411898   4.021   0.405   9.828  0.0271  0.5181  0.0162
  808MPD2    C511899   4.004   0.280   9.871 -0.0360  0.0981 -0.1038
  808MPD2     H11900   3.850   0.386   9.545 -0.4193  0.1330 -0.3232
  808MPD2    H111901   4.079   0.473   9.889  1.0731  0.1068 -0.5164
  808MPD2    H211902   3.942   0.084   9.828  1.1837 -0.0181 -0.0847
  808MPD2    H311903   4.041   0.248   9.968  1.0836  0.9842 -0.2394
  808MPD2     N11904   4.002   0.581   9.668 -0.1864 -0.1296 -0.2180
  808MPD2    H511905   4.050   0.632   9.741  0.0435 -0.3740 -0.1991
  808MPD2    N111906   3.823   0.133   9.588  0.7362 -0.0871 -0.5490
  808MPD2    H711907   3.774   0.166   9.506 -0.0410  1.8782  0.6910
  809MPD2     C11908   4.560   1.353   9.154 -0.0609  0.5904  0.1729
  809MPD2    C111909   4.576   1.214   9.163  0.0420  0.0497  0.2254
  809MPD2    C211910   4.470   1.143   9.214 -0.0224  0.1200 -0.3045
  809MPD2    C311911   4.349   1.197   9.253 -0.3101 -0.0319 -0.2260
  809MPD2    C411912   4.337   1.330   9.236  0.4287  0.5084  0.2537
  809MPD2    C511913   4.440   1.409   9.177  0.3128  0.0866 -0.6376
  809MPD2     H11914   4.498   1.041   9.239  1.4724  1.1121  2.0119
  809MPD2    H111915   4.250   1.385   9.269  1.3764  3.1337 -1.5940
  809MPD2    H211916   4.640   1.417   9.119  0.1949 -0.5339 -1.3006
  809MPD2    H311917   4.422   1.516   9.174  1.7651  0.2663 -2.4307
  809MPD2     N11918   4.242   1.132   9.310 -0.0770 -0.7014 -0.0621
  809MPD2    H511919   4.180   1.200   9.352  0.1073 -0.4818 -0.1484
  809MPD2    N111920   4.705   1.150   9.143  1.0593  0.6450 -0.2856
  809MPD2    H711921   4.710   1.053   9.173  0.3525  0.5445 -0.4961
  810MPD2     C11922   3.732   4.288   9.784  0.0503 -0.4403 -1.6910
  810MPD2    C111923   3.672   4.209   9.873  0.5911  1.0536 -0.5927
  810MPD2    C211924   3.727   4.178   9.999  0.4643  0.0476  0.8477
  810MPD2    C311925   3.858   4.214  10.023 -0.2928  0.1480 -0.1172
  810MPD2    C411926   3.923   4.291   9.930 -0.0905 -0.2206 -0.4908
  810MPD2    C511927   3.866   4.324   9.808  0.0999  0.7058 -0.2657
  810MPD2     H11928   3.666   4.127  10.072 -0.9060 -0.0778 -0.3827
  810MPD2    H111929   4.021   4.336   9.939 -0.0146 -0.0049 -2.4044
  810MPD2    H211930   3.685   4.312   9.690 -1.9300 -0.5407 -0.7175
  810MPD2    H311931   3.914   4.386   9.732 -0.4108 -0.4817 -1.5680
  810MPD2     N11932   3.937   4.188  10.141 -0.1491  0.5572 -0.2589
  810MPD2    H511933   4.020   4.245  10.156 -1.5733  2.5770 -0.0507
  810MPD2    N111934   3.532   4.182   9.840 -0.5706 -0.4623 -1.0630
  810MPD2    H711935   3.497   4.231   9.759 -1.9544 -1.2185 -0.9343
  811MPD2     C11936   2.842   4.406   9.460  0.1923 -0.2176 -0.1144
  811MPD2    C111937   2.923   4.434   9.567 -0.9045  0.5244 -0.4293
  811MPD2    C211938   2.937   4.572   9.603 -0.0368 -0.8321  0.1682
  811MPD2    C311939   2.889   4.679   9.535 -0.3556 -0.1231 -0.2655
  811MPD2    C411940   2.798   4.644   9.438  0.5996  0.3626 -0.2206
  811MPD2    C511941   2.781   4.516   9.401 -0.4358 -0.6710  1.0533
  811MPD2     H11942   2.995   4.599   9.691  0.5886 -1.9761  0.1188
  811MPD2    H111943   2.747   4.718   9.377 -0.8366  0.3687  1.0199
  811MPD2    H211944   2.801   4.311   9.430  0.1963 -0.4614  0.6542
  811MPD2    H311945   2.719   4.495   9.314  0.8621 -0.9271  0.1797
  811MPD2     N11946   2.932   0.090   9.572 -1.0018 -0.3870  0.1656
  811MPD2    H511947   2.998   0.089   9.649 -2.6907 -0.2627  1.6146
  811MPD2    N111948   2.984   4.325   9.625 -0.5066  0.5442  0.6554
  811MPD2    H711949   2.938   4.238   9.599 -1.2590  0.9117  0.7370
  812MPD2     C11950   2.617   4.494  11.737 -0.2048 -0.2895  0.9282
  812MPD2    C111951   2.521   4.523  11.833  0.9889  0.2892 -0.1880
  812MPD2    C211952   2.471   4.426  11.918 -0.1462 -0.0284  0.3068
  812MPD2    C311953   2.528   4.301  11.917  0.0732 -0.5632 -0.3286
  812MPD2    C411954   2.637   4.276  11.832 -0.1978 -0.0130 -0.3394
  812MPD2    C511955   2.672   4.373  11.743 -0.2266 -0.1375 -0.0012
  812MPD2     H11956   2.388   4.436  11.987 -0.7353  2.8109 -0.7952
  812MPD2    H111957   2.692   4.182  11.839 -0.9826 -0.5566 -1.5469
  812MPD2    H211958   2.662   4.565  11.668 -1.4147 -0.7766 -0.3591
  812MPD2    H311959   2.757   4.351  11.680 -0.8954 -1.3934 -0.4713
  812MPD2     N11960   2.484   4.209  12.011  0.2883  0.7071  0.4738
  812MPD2    H511961   2.402   4.224  12.069  0.5623  1.7760  0.5919
  812MPD2    N111962   2.482   4.658  11.836  0.0822 -0.1498 -0.5625
  812MPD2    H711963   2.520   4.717  11.763 -0.4024 -1.2269 -1.6874
  813MPD2     C11964   1.319   1.375  12.663  0.1014 -0.3640 -0.0457
  813MPD2    C111965   1.339   1.506  12.673  0.2361 -0.3359 -0.5326
  813MPD2    C211966   1.282   1.577  12.776  0.1841  0.3192 -0.2514
  813MPD2    C311967   1.231   1.510  12.888  0.0989 -0.1903  0.8263
  813MPD2    C411968   1.203   1.367  12.872  0.8108 -0.5720 -0.1230
  813MPD2    C511969   1.241   1.307  12.752  0.6902  0.3608  0.1682
  813MPD2     H11970   1.289   1.684  12.789  0.0538  0.0907  1.7743
  813MPD2    H111971   1.142   1.307  12.938 -0.2278  1.3595  0.6516
  813MPD2    H211972   1.356   1.317  12.580 -1.9708  0.0520 -1.2741
  813MPD2    H311973   1.240   1.198  12.750 -0.7486  0.3776  0.1098
  813MPD2     N11974   1.204   1.579  13.003 -0.4931 -0.0770 -0.5252
  813MPD2    H511975   1.231   1.677  12.997  0.0790 -0.0827  2.1612
  813MPD2    N111976   1.423   1.561  12.571 -0.2491 -0.0424  0.3555
  813MPD2    H711977   1.443   1.501  12.491 -0.4131 -1.6620  1.5240
  814MPD2     C11978   1.964   3.203  11.914 -0.2210  0.3695  0.3201
  814MPD2    C111979   2.019   3.203  11.789  0.2352  0.6462  0.4462
  814MPD2    C211980   2.126   3.283  11.765  0.1643 -0.3402 -0.0105
  814MPD2    C311981   2.150   3.396  11.844 -0.5234 -0.0977  0.0604
  814MPD2    C411982   2.080   3.408  11.961 -0.3028  0.2010 -0.2342
  814MPD2    C511983   1.995   3.308  12.004 -0.6360  0.6359  0.7203
  814MPD2     H11984   2.175   3.273  11.669 -1.0333 -0.4548 -0.6178
  814MPD2    H111985   2.089   3.494  12.026 -0.2045 -0.9638  1.2799
  814MPD2    H211986   1.901   3.129  11.963  0.4742 -1.9637 -2.3109
  814MPD2    H311987   1.947   3.315  12.101 -0.8546 -0.4078  0.6859
  814MPD2     N11988   2.244   3.496  11.804  0.3917  0.5770  0.5833
  814MPD2    H511989   2.242   3.584  11.855  0.1649  1.2086 -0.5223
  814MPD2    N111990   1.989   3.108  11.691 -0.2943 -0.2498  0.2178
  814MPD2    H711991   2.029   3.119  11.598 -1.6824  0.2923 -0.3075
  815MPD2     C11992   2.504   0.994  12.208  0.2261  0.7819  0.3439
  815MPD2    C111993   2.440   1.016  12.082  0.0615  0.1929  0.2051
  815MPD2    C211994   2.308   1.035  12.081  0.4711  0.2848  0.3366
  815MPD2    C311995   2.232   1.046  12.195 -0.5337 -0.0745 -0.0909
  815MPD2    C411996   2.297   1.045  12.317 -0.0437  0.6900 -0.2786
  815MPD2    C511997   2.428   1.019  12.323 -0.0006 -0.1235  0.0766
  815MPD2     H11998   2.259   1.048  11.985 -2.5493 -1.1784  1.6512
  815MPD2    H111999   2.244   1.057  12.412  0.0298 -0.3695 -0.1063
  815MPD2    H212000   2.604   0.956  12.226 -0.2342 -2.2225 -3.5220
  815MPD2    H312001   2.477   1.009  12.419 -1.1394 -0.6178  0.6166
  815MPD2     N12002   2.097   1.059  12.175  0.5863  0.3247 -0.3940
  815MPD2    H512003   2.057   1.062  12.082  0.6096  1.1597 -0.3705
  815MPD2    N112004   2.502   1.009  11.949 -0.4758  0.0204  0.1164
  815MPD2    H712005   2.432   1.036  11.880 -0.1658 -2.9421 -1.3564
  816MPD2     C12006   2.438   0.242  17.189  0.8328 -0.2644 -0.1653
  816MPD2    C112007   2.340   0.307  17.119  0.1640  0.6516 -0.1817
  816MPD2    C212008   2.345   0.280  16.983 -0.6314  0.2541  0.7879
  816MPD2    C312009   2.427   0.184  16.920 -0.6686 -0.0277  0.0325
  816MPD2    C412010   2.511   0.118  17.001  0.6649  0.1472 -0.4309
  816MPD2    C512011   2.517   0.151  17.131  0.0448 -0.3372 -0.2732
  816MPD2     H12012   2.280   0.335  16.916 -1.4964 -0.0579  1.3664
  816MPD2    H112013   2.583   0.044  16.967 -0.1704  0.0759 -2.0530
  816MPD2    H212014   2.451   0.245  17.296  2.0969  4.7473 -0.4589
  816MPD2    H312015   2.586   0.103  17.200  0.7702  2.4812  0.9471
  816MPD2     N12016   2.434   0.172  16.781  0.4515  0.0652  0.0404
  816MPD2    H512017   2.381   0.233  16.719  0.2570 -0.1529 -0.0059
  816MPD2    N112018   2.262   0.410  17.179  0.1162 -0.6747 -0.4427
  816MPD2    H712019   2.282   0.430  17.277  2.7592 -0.4221 -1.0249
  817MPD2     C12020   2.324   2.411   9.831 -0.4029 -0.9893  0.3854
  817MPD2    C112021   2.412   2.411   9.733  0.3178 -0.8916  0.8325
  817MPD2    C212022   2.410   2.518   9.647 -0.0927 -0.2518 -0.2728
  817MPD2    C312023   2.317   2.616   9.654 -0.0818  0.4121 -0.2220
  817MPD2    C412024   2.233   2.622   9.759 -0.0850 -0.0675 -0.2807
  817MPD2    C512025   2.237   2.515   9.846 -0.3462  0.1553  0.3756
  817MPD2     H12026   2.484   2.520   9.568 -0.4407 -1.3797 -0.6273
  817MPD2    H112027   2.153   2.694   9.768  0.5021  0.2638  2.2585
  817MPD2    H212028   2.304   2.328   9.898  0.6216 -0.8610  0.8428
  817MPD2    H312029   2.167   2.508   9.929  0.3553 -0.7310  0.8956
  817MPD2     N12030   2.312   2.699   9.545 -0.2798  0.3070 -0.7901
  817MPD2    H512031   2.378   2.682   9.470 -2.9556 -2.4250 -2.5159
  817MPD2    N112032   2.500   2.298   9.704  0.1073  0.1136  0.2317
  817MPD2    H712033   2.573   2.309   9.634  1.3242 -1.0354  1.3223
  818MPD2     C12034   1.224   2.084  10.040 -0.4497 -0.4376  0.5134
  818MPD2    C112035   1.112   2.012  10.071 -0.1092 -0.1793 -0.3712
  818MPD2    C212036   1.103   1.886  10.014 -0.3861 -0.0063  0.7495
  818MPD2    C312037   1.199   1.839   9.925 -0.4989 -0.3331 -0.4243
  818MPD2    C412038   1.308   1.911   9.901  0.5602  0.6781 -0.2177
  818MPD2    C512039   1.321   2.031   9.954 -0.3694 -0.1748 -0.7613
  818MPD2     H12040   1.016   1.828  10.041 -2.0393  0.5959 -3.2713
  818MPD2    H112041   1.390   1.867   9.847  1.4765  0.9470  0.9503
  818MPD2    H212042   1.235   2.181  10.088 -2.7176  0.1739 -0.2411
  818MPD2    H312043   1.408   2.091   9.929  0.1688 -0.3215  0.7340
  818MPD2     N12044   1.201   1.708   9.869 -0.1706  0.1532  0.2661
  818MPD2    H512045   1.292   1.684   9.830  0.6836  2.6160  0.7401
  818MPD2    N112046   1.020   2.054  10.168  0.0086  0.1632  0.3456
  818MPD2    H712047   0.942   1.989  10.181  0.4862 -0.2957  0.9097
  819MPD2     C12048   3.563   3.227  15.138  0.1413  0.3053 -0.2171
  819MPD2    C112049   3.484   3.166  15.238 -0.5859  0.2646  0.0887
  819MPD2    C212050   3.541   3.134  15.362  0.5894 -0.3248  0.2755
  819MPD2    C312051   3.665   3.192  15.400 -0.3299  0.1682  0.1415
  819MPD2    C412052   3.724   3.283  15.312 -1.4741 -0.4758 -0.1388
  819MPD2    C512053   3.678   3.292  15.186  0.3065  0.1434  0.0908
  819MPD2     H12054   3.483   3.070  15.427 -0.4309 -0.7516 -1.0434
  819MPD2    H112055   3.797   3.355  15.346 -0.6851 -0.6356 -1.4952
  819MPD2    H212056   3.536   3.233  15.033 -1.7836  2.8456  0.4319
  819MPD2    H312057   3.733   3.363  15.125  2.1223 -1.6076 -0.3220
  819MPD2     N12058   3.711   3.163  15.529 -0.5814  0.2742 -0.2938
  819MPD2    H512059   3.665   3.082  15.569  0.0137  0.3766  0.5942
  819MPD2    N112060   3.353   3.124  15.199  0.2435  0.1802  0.7690
  819MPD2    H712061   3.326   3.151  15.105  2.5573 -0.0977  0.0102
  820MPD2     C12062   2.522   3.246  14.651  0.1099 -0.0891  0.3622
  820MPD2    C112063   2.579   3.321  14.753  0.4312  0.6123  0.3440
  820MPD2    C212064   2.666   3.263  14.848 -0.2359 -0.1530  0.1406
  820MPD2    C312065   2.709   3.131  14.833 -0.7172  0.4931  0.4027
  820MPD2    C412066   2.656   3.059  14.726 -0.0895  0.8170 -0.5732
  820MPD2    C512067   2.560   3.114  14.643 -0.1158  0.3057 -0.2262
  820MPD2     H12068   2.696   3.316  14.938  0.9816  1.9340 -1.4904
  820MPD2    H112069   2.682   2.955  14.713 -0.4958  0.7028 -0.4999
  820MPD2    H212070   2.444   3.283  14.585  1.0925 -0.2311 -0.8711
  820MPD2    H312071   2.512   3.050  14.570 -0.6537 -0.4254  0.7640
  820MPD2     N12072   2.801   3.065  14.909 -0.3443  0.3670  0.3769
  820MPD2    H512073   2.790   2.964  14.908  3.7418 -0.0604 -0.9312
  820MPD2    N112074   2.527   3.458  14.770 -0.2286  0.1497  0.5447
  820MPD2    H712075   2.449   3.491  14.715  0.5814 -1.0399 -1.3228
  821MPD2     C12076   3.407   0.522  12.886 -0.3804  0.4650  0.3528
  821MPD2    C112077   3.467   0.405  12.940 -0.3316 -0.4537  0.2152
  821MPD2    C212078   3.600   0.393  12.923  0.1672  0.1276  0.0260
  821MPD2    C312079   3.682   0.489  12.861 -0.4447 -0.3548  0.7256
  821MPD2    C412080   3.620   0.601  12.804 -0.6170  0.6192 -1.1414
  821MPD2    C512081   3.482   0.618  12.821 -0.5493 -0.5042  0.5163
  821MPD2     H12082   3.645   0.305  12.967 -2.8500 -1.2109  0.4436
  821MPD2    H112083   3.679   0.670  12.745  0.3169 -0.3718 -1.3624
  821MPD2    H212084   3.301   0.537  12.899 -0.5874 -0.6294 -0.0319
  821MPD2    H312085   3.427   0.696  12.770 -1.0207  0.7354  2.9120
  821MPD2     N12086   3.821   0.478  12.852  0.5765 -0.4217 -0.5911
  821MPD2    H512087   3.875   0.553  12.811 -0.0669  0.2377 -0.2381
  821MPD2    N112088   3.395   0.302  13.009 -0.5196  0.2285 -0.5039
  821MPD2    H712089   3.454   0.227  13.043 -0.3155  1.3573  1.6487
  822MPD2     C12090   4.035   0.159  15.588 -0.3754  0.2217 -0.9889
  822MPD2    C112091   4.078   0.138  15.719 -0.0815 -0.1342 -0.0109
  822MPD2    C212092   4.012   0.203  15.816  0.3787  0.5603  0.2775
  822MPD2    C312093   3.918   0.299  15.799 -0.0346 -0.6075  0.3802
  822MPD2    C412094   3.888   0.333  15.668 -0.0341  0.4106 -0.0757
  822MPD2    C512095   3.950   0.256  15.563 -0.4976 -0.1232  0.1261
  822MPD2     H12096   4.035   0.174  15.918  1.8565  0.2322 -0.1538
  822MPD2    H112097   3.815   0.407  15.639 -0.7342 -0.0833  0.4408
  822MPD2    H212098   4.083   0.113  15.502  0.1351  0.5101 -0.8574
  822MPD2    H312099   3.929   0.275  15.459  1.4274  1.9510  0.1117
  822MPD2     N12100   3.851   0.351  15.920  0.5581 -1.2702  0.5997
  822MPD2    H512101   3.881   0.311  16.008  2.0873  0.0007  0.6510
  822MPD2    N112102   4.175   0.041  15.756  0.0956 -0.4179 -0.5485
  822MPD2    H712103   4.188   0.033  15.857  0.5401 -1.2238 -0.6703
  823MPD2     C12104   3.598   0.438  16.748  0.0142  0.0099 -0.4083
  823MPD2    C112105   3.622   0.373  16.634  0.5725  0.2945 -0.5873
  823MPD2    C212106   3.670   0.247  16.643 -0.1351 -0.2769 -0.0647
  823MPD2    C312107   3.680   0.178  16.762 -0.4950  0.2104 -0.8480
  823MPD2    C412108   3.640   0.244  16.876 -0.1565  0.5147  0.2484
  823MPD2    C512109   3.613   0.375  16.867 -0.3365 -0.4650 -0.7226
  823MPD2     H12110   3.694   0.196  16.550 -0.7688 -0.0941 -0.3353
  823MPD2    H112111   3.653   0.202  16.976 -1.1779  3.1890  1.4998
  823MPD2    H212112   3.566   0.541  16.755 -0.4697 -0.2587  1.4750
  823MPD2    H312113   3.596   0.435  16.956 -3.6464 -0.3348 -1.4430
  823MPD2     N12114   3.734   0.042  16.777 -0.6443 -0.4664 -0.8552
  823MPD2    H512115   3.744   0.015  16.874 -2.9860 -0.3251 -0.5724
  823MPD2    N112116   3.624   0.447  16.513 -1.0416 -0.1754 -0.0984
  823MPD2    H712117   3.607   0.546  16.524 -1.8751 -0.5708  2.1714
  824MPD2     C12118   4.476   3.962  15.654  0.2658  0.2065  0.0259
  824MPD2    C112119   4.575   4.048  15.619  0.7926 -0.4812  0.7605
  824MPD2    C212120   4.692   3.997  15.576 -0.3103  0.1311 -0.1388
  824MPD2    C312121   4.710   3.860  15.574 -0.3854 -0.1501  0.4959
  824MPD2    C412122   4.609   3.775  15.604 -0.5955 -0.7001  0.0020
  824MPD2    C512123   4.491   3.826  15.633  0.2594 -0.1936  0.3476
  824MPD2     H12124   0.054   4.054  15.542  0.4121 -1.8253 -1.5775
  824MPD2    H112125   4.613   3.668  15.589 -0.4215 -0.3825 -2.1373
  824MPD2    H212126   4.378   3.993  15.691  0.6252  1.2163  0.1400
  824MPD2    H312127   4.421   3.747  15.659  0.4022 -0.9825 -1.6627
  824MPD2     N12128   0.128   3.824  15.552  0.1740  0.0013 -0.1355
  824MPD2    H512129   0.189   3.901  15.525  0.5122 -0.0421  0.5173
  824MPD2    N112130   4.565   4.184  15.640  0.0712  0.3883  0.1624
  824MPD2    H712131   4.652   4.234  15.657  0.4571 -0.3129  0.2455
  825MPD2     C12132   0.779   3.749  15.048  0.1702 -0.1312  0.3375
  825MPD2    C112133   0.730   3.828  15.148  0.2521  0.2947  0.4525
  825MPD2    C212134   0.730   3.968  15.133  0.3064  0.3107 -0.2213
  825MPD2    C312135   0.790   4.028  15.026  0.6745  0.3396  0.4014
  825MPD2    C412136   0.845   3.944  14.929 -0.0975  0.0021 -0.0300
  825MPD2    C512137   0.840   3.808  14.937 -0.5774  0.4120  0.5149
  825MPD2     H12138   0.672   4.023  15.205 -1.8678  1.0910 -2.5617
  825MPD2    H112139   0.880   3.992  14.839 -0.0112  2.2038  1.1707
  825MPD2    H212140   0.774   3.640  15.052  1.7222 -0.1502  2.1138
  825MPD2    H312141   0.894   3.748  14.864  0.0522  2.8838 -1.0177
  825MPD2     N12142   0.788   4.167  15.006 -0.1074  0.7653  0.2139
  825MPD2    H512143   0.818   4.192  14.912  1.9095  2.8466  1.3947
  825MPD2    N112144   0.657   3.764  15.249  0.5435  0.0666  0.0354
  825MPD2    H712145   0.663   3.663  15.257  0.7967  0.0944  0.1945
  826MPD2     C12146   0.641   4.217  13.367 -0.3735 -0.2246 -0.1308
  826MPD2    C112147   0.544   4.236  13.273 -0.3795  0.0647  0.5527
  826MPD2    C212148   0.465   4.351  13.270  1.1482  0.0793 -0.8469
  826MPD2    C312149   0.493   4.439  13.376 -0.2212 -0.3143  0.1219
  826MPD2    C412150   0.589   4.426  13.472 -0.0865  0.3857  0.2283
  826MPD2    C512151   0.664   4.309  13.468 -0.3037 -0.5902 -0.2912
  826MPD2     H12152   0.401   4.378  13.187 -1.0484  1.4728  1.2723
  826MPD2    H112153   0.606   4.495  13.553  3.2131 -0.4555  0.2709
  826MPD2    H212154   0.699   4.126  13.384  0.1478  0.0337 -0.5494
  826MPD2    H312155   0.743   4.292  13.540 -0.0209 -0.3574 -0.5472
  826MPD2     N12156   0.417   4.557  13.391  0.4257  0.4440 -0.5022
  826MPD2    H512157   0.458   4.615  13.463 -1.8231 -1.3363  2.1866
  826MPD2    N112158   0.541   4.137  13.172  0.6322 -0.3058 -0.0311
  826MPD2    H712159   0.594   4.051  13.175  0.5814 -0.3911 -1.7022
  827MPD2     C12160   1.729   1.292   9.658 -0.0591 -0.7987 -0.2724
  827MPD2    C112161   1.701   1.170   9.712  0.1797  0.2675  0.1046
  827MPD2    C212162   1.581   1.112   9.682  0.0422 -0.0906  0.3782
  827MPD2    C312163   1.492   1.172   9.602 -0.5378 -0.1006  0.9191
  827MPD2    C412164   1.526   1.284   9.530 -0.4544 -0.1589 -0.1536
  827MPD2    C512165   1.651   1.344   9.559 -0.0183 -0.6678  0.8125
  827MPD2     H12166   1.553   1.020   9.731  0.1528 -0.3419 -0.0300
  827MPD2    H112167   1.461   1.335   9.460 -0.5692  0.0738  0.1238
  827MPD2    H212168   1.827   1.337   9.673 -2.1013  3.1186  1.4011
  827MPD2    H312169   1.674   1.437   9.508 -0.6378 -0.6338  0.5855
  827MPD2     N12170   1.362   1.107   9.573 -0.8340 -0.1694  0.5050
  827MPD2    H512171   1.314   1.141   9.491 -1.0902 -1.1880  0.2382
  827MPD2    N112172   1.777   1.118   9.822  0.2208 -0.3627 -0.1091
  827MPD2    H712173   1.869   1.159   9.834  0.5132 -0.8331 -0.7199
  828MPD2     C12174   4.344   0.387  12.625 -0.6072  0.4009 -0.6863
  828MPD2    C112175   4.357   0.457  12.507  1.0708 -0.0805  0.4802
  828MPD2    C212176   4.478   0.453  12.439 -0.0556 -0.8397  0.8677
  828MPD2    C312177   4.583   0.366  12.479  0.3886 -0.8862 -0.0683
  828MPD2    C412178   4.562   0.297  12.601 -0.3005  0.1075 -0.5324
  828MPD2    C512179   4.449   0.309  12.667  0.7072  0.0869  0.3208
  828MPD2     H12180   4.483   0.532  12.365  0.0805 -1.1548  0.5372
  828MPD2    H112181   4.643   0.244  12.648  1.4238  1.7226 -1.6907
  828MPD2    H212182   4.246   0.382  12.671 -1.1953  0.7165 -1.9060
  828MPD2    H312183   4.447   0.261  12.764  0.5528  2.2215  1.3643
  828MPD2     N12184   4.709   0.369  12.411  0.3689 -0.4005 -0.3197
  828MPD2    H512185   0.068   0.333  12.460 -0.4002  0.2016  1.3910
  828MPD2    N112186   4.261   0.550  12.458 -0.0439 -0.1279  0.5609
  828MPD2    H712187   4.269   0.586  12.364 -1.1553 -0.2680  0.4076
  829MPD2     C12188   4.467   1.070  11.851 -0.2382 -0.2181  0.6022
  829MPD2    C112189   4.333   1.099  11.853 -0.3149  0.3928  0.2287
  829MPD2    C212190   4.257   1.064  11.965 -0.2132 -0.4271 -0.4172
  829MPD2    C312191   4.312   0.982  12.063 -0.9002 -0.3096  0.3710
  829MPD2    C412192   4.445   0.955  12.058 -0.5552 -0.8925  0.1585
  829MPD2    C512193   4.519   1.001  11.957  0.4595 -0.1770 -0.3709
  829MPD2     H12194   4.152   1.086  11.974  0.4673  2.2027  1.1590
  829MPD2    H112195   4.491   0.893  12.133  2.2660 -1.1885 -1.8371
  829MPD2    H212196   4.532   1.085  11.765  0.5335 -1.9353  0.8688
  829MPD2    H312197   4.625   0.981  11.944  0.3586 -1.7983  1.3246
  829MPD2     N12198   4.232   0.923  12.165 -0.3273  0.3798 -0.0996
  829MPD2    H512199   4.278   0.856  12.226  2.4344  3.7977  1.6130
  829MPD2    N112200   4.276   1.146  11.732  0.1545  0.1703 -0.9976
  829MPD2    H712201   4.330   1.168  11.649  4.6327 -2.0256  1.3490
  830MPD2     C12202   4.265   2.806  15.899  0.5049  0.0839 -0.0221
  830MPD2    C112203   4.149   2.832  15.827 -0.3759  0.2033  0.7512
  830MPD2    C212204   4.164   2.899  15.711 -1.0053 -0.1658 -0.3745
  830MPD2    C312205   4.280   2.976  15.679 -0.6573 -0.0910  0.2777
  830MPD2    C412206   4.388   2.962  15.763  0.1501 -0.0494  0.0217
  830MPD2    C512207   4.378   2.877  15.869 -0.2302  0.1955 -0.0522
  830MPD2     H12208   4.077   2.909  15.647 -0.6761 -0.0350 -0.8077
  830MPD2    H112209   4.480   3.008  15.729  1.5763 -2.2079  0.9507
  830MPD2    H212210   4.276   2.733  15.978 -2.5122 -2.2246 -1.7367
  830MPD2    H312211   4.466   2.856  15.929  1.4987 -0.7739 -2.9310
  830MPD2     N12212   4.274   3.080  15.577  0.5139  0.5589 -0.5539
  830MPD2    H512213   4.339   3.157  15.562 -0.4372  1.5662  0.4236
  830MPD2    N112214   4.034   2.768  15.865 -0.5048 -1.0446 -0.6835
  830MPD2    H712215   4.035   2.680  15.917 -0.9569  1.0698  2.9267
  831MPD2     C12216   4.087   0.407  16.285 -0.0130  0.5741  0.0561
  831MPD2    C112217   4.121   0.316  16.185 -0.1969  0.6501  0.1470
  831MPD2    C212218   4.043   0.198  16.184 -0.2835  0.4062 -0.1091
  831MPD2    C312219   3.946   0.168  16.279 -0.4278  0.1198 -0.1013
  831MPD2    C412220   3.932   0.257  16.389 -0.2068 -0.0995  0.6672
  831MPD2    C512221   3.997   0.378  16.379  0.5021  0.7270 -0.6301
  831MPD2     H12222   4.078   0.121  16.116 -0.3322 -0.6277  1.0422
  831MPD2    H112223   3.868   0.240  16.475 -1.1675  1.9646  0.3794
  831MPD2    H212224   4.139   0.501  16.301 -0.2404  0.8295 -0.7227
  831MPD2    H312225   3.986   0.456  16.454 -1.1792  2.0258 -2.2553
  831MPD2     N12226   3.866   0.051  16.275 -0.0617 -0.3248 -0.1829
  831MPD2    H512227   3.805   0.037  16.355  0.0683  1.6507  0.2693
  831MPD2    N112228   4.230   0.347  16.096 -0.3551 -0.4712  0.2241
  831MPD2    H712229   4.264   0.443  16.091 -1.9887  0.1196  0.4456
  832MPD2     C12230   2.655   1.372  17.208  0.9863  0.1430 -0.2705
  832MPD2    C112231   2.626   1.508  17.226 -0.4929  0.3146  0.4808
  832MPD2    C212232   2.507   1.557  17.181 -0.7065  0.5160  0.1255
  832MPD2    C312233   2.425   1.474  17.110 -0.2866 -0.2867 -0.4150
  832MPD2    C412234   2.454   1.343  17.098  0.0420  0.4586 -0.5499
  832MPD2    C512235   2.563   1.287  17.151  0.0155 -0.6143  0.1605
  832MPD2     H12236   2.496   1.665  17.188  3.9398  1.0532 -0.3318
  832MPD2    H112237   2.386   1.274  17.050 -1.0071  2.0437 -1.3383
  832MPD2    H212238   2.746   1.323  17.240  0.6547  0.1395  0.6956
  832MPD2    H312239   2.589   1.181  17.150 -0.3740 -0.6761 -4.1499
  832MPD2     N12240   2.299   1.510  17.054 -0.0842 -0.2778  0.9337
  832MPD2    H512241   2.237   1.435  17.025  0.8793 -0.5221 -0.4687
  832MPD2    N112242   2.723   1.594  17.274 -0.3483  0.6466  0.0136
  832MPD2    H712243   2.814   1.550  17.264  0.3837  2.2913 -0.5860
  833MPD2     C12244   0.168   3.262  12.511  0.0446 -0.4744  0.6736
  833MPD2    C112245   0.191   3.330  12.395  0.2950  0.7770  0.8834
  833MPD2    C212246   0.301   3.294  12.319  0.1025  0.2943  0.6779
  833MPD2    C312247   0.367   3.175  12.342  0.0873 -0.0280 -0.0798
  833MPD2    C412248   0.332   3.091  12.446 -0.3194  0.3239 -0.3351
  833MPD2    C512249   0.236   3.141  12.526  0.3894 -0.0742 -0.3603
  833MPD2     H12250   0.340   3.363  12.244 -2.2850  0.4846 -0.3691
  833MPD2    H112251   0.366   2.989  12.457 -2.2571 -0.3125 -0.1743
  833MPD2    H212252   0.091   3.290  12.583 -1.7892 -0.6588 -1.2059
  833MPD2    H312253   0.204   3.077  12.608  0.7240  0.8627  0.5008
  833MPD2     N12254   0.470   3.125  12.265 -0.4594 -0.2571  0.0050
  833MPD2    H512255   0.508   3.036  12.296 -0.4923 -0.5224 -0.7175
  833MPD2    N112256   0.106   3.435  12.357 -0.0585 -0.5685 -0.0555
  833MPD2    H712257   0.027   3.456  12.417  1.0086  1.8708  0.4926
  834MPD2     C12258   0.587   2.292  11.785  0.4860 -0.6985  0.0907
  834MPD2    C112259   0.518   2.366  11.698  0.0974 -0.1254 -0.0379
  834MPD2    C212260   0.514   2.503  11.714 -0.3705 -0.4648  0.2965
  834MPD2    C312261   0.560   2.559  11.830  0.1359  0.6113  0.2557
  834MPD2    C412262   0.628   2.480  11.919 -1.4808  0.3230 -0.4702
  834MPD2    C512263   0.636   2.348  11.898 -0.1715  0.2821 -0.3752
  834MPD2     H12264   0.479   2.574  11.640 -1.3410 -0.0428  1.1528
  834MPD2    H112265   0.658   2.515  12.017 -2.3941  0.5494 -0.2716
  834MPD2    H212266   0.594   2.186  11.767  0.7888 -0.4384 -1.3283
  834MPD2    H312267   0.690   2.292  11.974  0.2862  1.2851  0.0331
  834MPD2     N12268   0.547   2.699  11.845  0.6200  0.2432  0.2535
  834MPD2    H512269   0.491   2.742  11.772  0.1159  0.3400  0.6993
  834MPD2    N112270   0.485   2.299  11.578  0.3936 -0.1032 -0.3555
  834MPD2    H712271   0.508   2.200  11.572  2.8845  0.3506  2.3310
  835MPD2     C12272   0.666   1.127  11.226  0.0999  0.3262  0.2299
  835MPD2    C112273   0.534   1.174  11.237  0.4411 -0.4679  0.2148
  835MPD2    C212274   0.474   1.177  11.357 -0.2582  0.2687  0.0372
  835MPD2    C312275   0.539   1.137  11.478  0.3337  0.7017 -0.2873
  835MPD2    C412276   0.670   1.098  11.471 -0.2428  0.1885  0.1142
  835MPD2    C512277   0.732   1.095  11.343 -0.2007 -0.1165 -0.2922
  835MPD2     H12278   0.368   1.199  11.362 -0.1380  1.4460 -2.8258
  835MPD2    H112279   0.717   1.057  11.559 -0.6342 -2.1773 -0.7789
  835MPD2    H212280   0.719   1.111  11.132  0.2922  0.3385  0.3369
  835MPD2    H312281   0.831   1.055  11.328  0.8874  2.1587  0.7674
  835MPD2     N12282   0.474   1.134  11.608  0.3685 -0.4738 -0.2013
  835MPD2    H512283   0.534   1.110  11.686 -2.1052 -1.9500  1.2500
  835MPD2    N112284   0.466   1.212  11.121 -0.7651  0.4119  0.0515
  835MPD2    H712285   0.367   1.225  11.137 -1.2410  1.1637 -3.5760
  836MPD2     C12286   4.492   1.444  11.776  0.0343 -0.5950  0.0408
  836MPD2    C112287   4.539   1.377  11.885  0.1910 -0.3151  0.9261
  836MPD2    C212288   4.456   1.346  11.992  0.3916  0.7643 -0.4103
  836MPD2    C312289   4.322   1.389  11.997  0.5343  0.4492 -0.8306
  836MPD2    C412290   4.274   1.452  11.880 -0.3670 -0.3339  0.1788
  836MPD2    C512291   4.362   1.485  11.776  0.4823 -0.4321  0.4631
  836MPD2     H12292   4.492   1.279  12.070 -1.2442 -0.9683 -1.1432
  836MPD2    H112293   4.167   1.469  11.879 -0.0328  1.7828  0.2816
  836MPD2    H212294   4.557   1.478  11.696 -1.3465 -1.3312 -1.4131
  836MPD2    H312295   4.326   1.549  11.697  1.9541 -1.5313 -1.0980
  836MPD2     N12296   4.220   1.370  12.093  0.5781 -0.2492  0.3087
  836MPD2    H512297   4.125   1.395  12.070 -0.0552 -2.5339  0.3661
  836MPD2    N112298   4.678   1.337  11.885  0.6235 -0.4629 -0.0777
  836MPD2    H712299   4.722   1.342  11.794  2.3851 -0.6372  0.7693
  837MPD2     C12300   3.374   0.626   9.953  0.5910  0.8168  0.4412
  837MPD2    C112301   3.341   0.677   9.834  0.4518 -0.1261  0.4470
  837MPD2    C212302   3.366   0.811   9.803  0.3638  0.2279  0.4550
  837MPD2    C312303   3.421   0.894   9.886 -0.3858  0.2318 -0.4264
  837MPD2    C412304   3.458   0.847  10.008 -0.5085 -0.6902  0.2438
  837MPD2    C512305   3.429   0.715  10.047  0.2905  0.5015 -0.6636
  837MPD2     H12306   3.347   0.839   9.700 -0.4298 -1.8100  0.0494
  837MPD2    H112307   3.493   0.912  10.087 -2.3800 -1.1071  1.3979
  837MPD2    H212308   3.345   0.526   9.984  0.3377  1.2159  1.4843
  837MPD2    H312309   3.457   0.685  10.147 -0.1150  2.0397 -0.0787
  837MPD2     N12310   3.433   1.029   9.850  0.8893 -0.3953  0.6460
  837MPD2    H512311   3.402   1.048   9.755  0.8217  0.6535  0.8724
  837MPD2    N112312   3.260   0.604   9.742 -0.5058  0.5489 -0.5830
  837MPD2    H712313   3.231   0.649   9.656  1.2769  2.7992  0.0147
  838MPD2     C12314   1.333   3.061  10.822 -0.7529 -0.5546 -0.2485
  838MPD2    C112315   1.352   3.163  10.916  0.1502  0.1247 -0.5645
  838MPD2    C212316   1.263   3.181  11.023 -0.4911  0.6395 -0.1915
  838MPD2    C312317   1.166   3.093  11.043  0.3321  0.0544 -0.2838
  838MPD2    C412318   1.151   2.989  10.962  0.0340  0.1139 -0.3679
  838MPD2    C512319   1.221   2.981  10.843 -0.0952 -0.2666 -0.0994
  838MPD2     H12320   1.294   3.254  11.098 -1.8987 -0.6061  1.6172
  838MPD2    H112321   1.066   2.925  10.982 -0.2574  1.3445  2.2156
  838MPD2    H212322   1.394   3.044  10.735 -2.1788  1.2499 -1.5928
  838MPD2    H312323   1.202   2.898  10.776 -2.1817  0.5985 -0.5756
  838MPD2     N12324   1.092   3.108  11.163  0.3477  0.0239 -0.2310
  838MPD2    H512325   1.126   3.174  11.233  2.1785 -1.2401  0.0816
  838MPD2    N112326   1.466   3.242  10.931 -0.2329 -0.2113 -0.2203
  838MPD2    H712327   1.461   3.321  10.994  0.9031 -0.4059  0.1155
  839MPD2     C12328   1.574   3.153  11.670 -0.1558  0.3425  0.3624
  839MPD2    C112329   1.555   3.073  11.559  0.8106 -0.2103 -1.0089
  839MPD2    C212330   1.606   3.115  11.437 -0.1853  0.2740  0.0119
  839MPD2    C312331   1.673   3.235  11.422 -0.3363  0.5446 -0.4140
  839MPD2    C412332   1.695   3.314  11.527 -0.1395  0.4297 -0.1750
  839MPD2    C512333   1.648   3.267  11.643  0.0911  0.4314 -0.6825
  839MPD2     H12334   1.585   3.059  11.347 -0.7256  1.2894 -0.4880
  839MPD2    H112335   1.745   3.410  11.530  1.3596 -0.3172 -1.0209
  839MPD2    H212336   1.550   3.124  11.772  5.0687 -1.2117  1.1505
  839MPD2    H312337   1.670   3.331  11.728  0.2140  0.7601 -0.9592
  839MPD2     N12338   1.731   3.262  11.295  0.2406  0.2669 -0.5328
  839MPD2    H512339   1.718   3.193  11.221 -0.4098 -0.9223  0.6909
  839MPD2    N112340   1.472   2.956  11.557  0.3065  0.0439  0.1332
  839MPD2    H712341   1.476   2.906  11.468 -0.7805  1.2951 -0.6120
  840MPD2     C12342   2.192   1.456  10.078 -0.0197  0.4879 -0.0381
  840MPD2    C112343   2.147   1.378  10.189 -0.3904 -1.1295 -0.0831
  840MPD2    C212344   2.158   1.438  10.314 -0.2179 -0.3209  0.3412
  840MPD2    C312345   2.223   1.562  10.327  0.2213  0.2940 -0.9449
  840MPD2    C412346   2.280   1.614  10.212  0.3612 -0.3891  0.4332
  840MPD2    C512347   2.256   1.569  10.085  0.1055  0.7092 -0.4179
  840MPD2     H12348   2.114   1.385  10.397  1.1857 -0.5835  0.9202
  840MPD2    H112349   2.324   1.713  10.220 -0.3299 -0.0102 -0.4050
  840MPD2    H212350   2.179   1.423   9.976 -3.1880 -0.8864  0.8137
  840MPD2    H312351   2.295   1.620   9.998  1.6370 -0.8697 -0.6602
  840MPD2     N12352   2.243   1.632  10.445  0.2593  0.1133 -0.7339
  840MPD2    H512353   2.302   1.714  10.444  0.5020 -0.0596 -0.0140
  840MPD2    N112354   2.075   1.258  10.167  0.3594  0.6707 -0.1510
  840MPD2    H712355   2.063   1.235  10.070  1.2803 -0.2781 -0.0405
  841MPD2     C12356   1.800   0.340  13.875  1.1223  0.1064 -0.0765
  841MPD2    C112357   1.782   0.284  13.999 -0.3580 -0.2602 -0.1968
  841MPD2    C212358   1.832   0.355  14.106  0.0027 -0.3702 -0.4933
  841MPD2    C312359   1.890   0.476  14.088  0.0272 -0.3623 -0.1005
  841MPD2    C412360   1.918   0.513  13.962 -0.2621 -0.7320 -0.2504
  841MPD2    C512361   1.873   0.451  13.853  0.5897  0.5110  0.7536
  841MPD2     H12362   1.825   0.299  14.199 -1.0033  2.0913  0.9329
  841MPD2    H112363   1.993   0.592  13.952 -1.2460  0.0429 -1.5299
  841MPD2    H212364   1.752   0.282  13.797  0.5728 -1.8812  1.7428
  841MPD2    H312365   1.889   0.495  13.754  0.5881  0.0641  0.5567
  841MPD2     N12366   1.925   0.550  14.205  0.6279  0.4563  0.2658
  841MPD2    H512367   1.890   0.505  14.289  1.4579  1.8677  1.3560
  841MPD2    N112368   1.709   0.162  14.015 -0.3596 -0.0790 -0.4351
  841MPD2    H712369   1.705   0.127  14.110  1.0740  0.1602 -0.2799
  842MPD2     C12370   1.829   1.826  17.141  0.1352  0.4033  0.0530
  842MPD2    C112371   1.712   1.774  17.101  0.1195 -0.3884 -0.2687
  842MPD2    C212372   1.648   1.680  17.178  0.1326 -0.0419 -0.0317
  842MPD2    C312373   1.694   1.649  17.301  0.3456  0.3334  0.0827
  842MPD2    C412374   1.806   1.705  17.345  0.3778  0.4510 -0.7505
  842MPD2    C512375   1.885   1.786  17.264 -0.5538  0.0627 -0.0140
  842MPD2     H12376   1.549   1.642  17.154 -0.8209  2.3370  0.1885
  842MPD2    H112377   1.843   1.690  17.446  3.5802  0.0432 -1.9774
  842MPD2    H212378   1.895   1.887  17.079  1.7830 -0.5572  0.8387
  842MPD2    H312379   1.978   1.820  17.310 -1.4125  1.5444  0.6078
  842MPD2     N12380   1.606   1.574  17.384 -0.1646  0.3478 -0.2347
  842MPD2    H512381   1.508   1.576  17.358 -0.4343 -0.7233  0.6746
  842MPD2    N112382   1.662   1.818  16.976 -0.8841  0.0923 -0.1040
  842MPD2    H712383   1.715   1.896  16.939 -1.7716  1.3617  1.2865
  843MPD2     C12384   3.341   1.452  17.282 -0.4562 -0.3720 -0.6211
  843MPD2    C112385   3.298   1.420  17.412 -0.3674  0.6476 -0.1965
  843MPD2    C212386   3.389   1.441  17.512  0.2773 -0.5666 -0.6634
  843MPD2    C312387   3.513   1.497  17.484 -0.0039 -0.4022  0.9461
  843MPD2    C412388   3.552   1.524  17.355  0.6199 -0.0789  0.4888
  843MPD2    C512389   3.468   1.494  17.254  0.3717 -0.2634  0.0101
  843MPD2     H12390   3.380   1.402  17.612 -1.8954 -0.2012 -0.7240
  843MPD2    H112391   3.655   1.542  17.325  0.8717  1.1861  2.1717
  843MPD2    H212392   3.289   1.448  17.187  1.3256  0.7457 -1.6381
  843MPD2    H312393   3.499   1.522  17.154  0.0730 -2.1340 -0.6122
  843MPD2     N12394   3.618   1.518  17.576 -0.0123  0.3159  0.3240
  843MPD2    H512395   3.710   1.530  17.534  1.2800 -3.0951  2.1491
  843MPD2    N112396   3.165   1.378  17.433 -0.6163 -0.4985 -0.3309
  843MPD2    H712397   3.113   1.334  17.359  0.2711  1.5388 -2.1632
  844MPD2     C12398   1.858   1.232  16.284  0.2002  0.2133  0.2228
  844MPD2    C112399   1.933   1.116  16.304  0.7551 -0.1232  0.6099
  844MPD2    C212400   2.005   1.104  16.420  0.5596  0.1647 -0.5483
  844MPD2    C312401   2.016   1.221  16.501  0.4498 -0.4127  0.1820
  844MPD2    C412402   1.939   1.332  16.483  0.0063 -0.0911  0.5211
  844MPD2    C512403   1.856   1.332  16.373  0.6441  0.7188  1.0508
  844MPD2     H12404   2.052   1.013  16.453 -2.1020 -0.7217  0.8378
  844MPD2    H112405   1.944   1.420  16.546  0.6113  1.4257 -1.6293
  844MPD2    H212406   1.789   1.236  16.200  0.1270 -1.5221  0.2064
  844MPD2    H312407   1.804   1.424  16.350  1.3143  0.9776  0.5754
  844MPD2     N12408   2.114   1.212  16.600  0.0276  0.3331  0.5818
  844MPD2    H512409   2.165   1.124  16.600  0.5809  0.6473 -1.2205
  844MPD2    N112410   1.935   1.018  16.201  0.5690  0.2650 -0.5015
  844MPD2    H712411   1.976   0.928  16.223 -1.7653 -1.0178 -1.4585
  845MPD2     C12412   2.785   1.908  16.631 -0.7060  0.0257 -0.0116
  845MPD2    C112413   2.760   1.860  16.757 -0.2793 -0.2307  0.6759
  845MPD2    C212414   2.693   1.740  16.775  0.4123 -0.5819 -0.9392
  845MPD2    C312415   2.663   1.669  16.659  0.7293 -0.0524 -0.2308
  845MPD2    C412416   2.681   1.722  16.532 -0.4488 -0.2387 -0.2294
  845MPD2    C512417   2.745   1.838  16.517 -0.2501  0.7683 -0.2743
  845MPD2     H12418   2.662   1.702  16.872  1.8496 -0.2426 -0.3424
  845MPD2    H112419   2.656   1.671  16.439  0.9270 -0.8448 -0.2623
  845MPD2    H212420   2.841   2.000  16.621  0.3248 -0.3117  2.4459
  845MPD2    H312421   2.770   1.867  16.416  2.2707 -1.6444 -0.3322
  845MPD2     N12422   2.594   1.549  16.669 -0.0636  0.6224  0.3956
  845MPD2    H512423   2.548   1.511  16.587  2.3805 -1.4848 -0.0112
  845MPD2    N112424   2.798   1.954  16.853 -0.6464 -1.5474  0.0694
  845MPD2    H712425   2.863   2.025  16.821 -0.9205 -1.0861  0.5464
  846MPD2     C12426   4.141   2.676  13.405 -0.1552 -0.2625  0.0682
  846MPD2    C112427   4.063   2.775  13.456 -0.2942 -0.5669 -0.1661
  846MPD2    C212428   3.999   2.746  13.581  0.2647 -0.3326  0.1964
  846MPD2    C312429   4.016   2.630  13.648 -0.0068  0.1676  0.3106
  846MPD2    C412430   4.106   2.539  13.599 -0.4559  0.2254 -0.0810
  846MPD2    C512431   4.166   2.563  13.477 -0.2281 -0.1200  0.6457
  846MPD2     H12432   3.934   2.826  13.616 -0.5312 -1.5865  1.6282
  846MPD2    H112433   4.138   2.445  13.641 -0.9460  0.3417  0.5467
  846MPD2    H212434   4.207   2.689  13.321 -1.9261  1.0542 -1.1154
  846MPD2    H312435   4.232   2.487  13.435 -2.0271 -0.2706 -1.9392
  846MPD2     N12436   3.947   2.615  13.776  0.5651  1.0271  0.5287
  846MPD2    H512437   3.864   2.672  13.792 -0.3752 -0.4158  0.7919
  846MPD2    N112438   4.059   2.901  13.402 -0.2101  0.3989 -0.4508
  846MPD2    H712439   4.014   2.974  13.457 -1.6132  0.1626 -1.2794
  847MPD2     C12440   3.861   3.208  14.699  0.3531 -0.0221  0.4864
  847MPD2    C112441   3.949   3.173  14.599 -0.0681 -0.2994  0.0972
  847MPD2    C212442   4.063   3.096  14.630 -0.6691 -0.1622  0.0431
  847MPD2    C312443   4.096   3.056  14.758 -0.3239 -0.9807 -0.1317
  847MPD2    C412444   4.005   3.088  14.858  0.0788 -0.1045 -0.2121
  847MPD2    C512445   3.891   3.167  14.828 -0.1118  0.2543  0.2879
  847MPD2     H12446   4.129   3.090  14.545 -0.0216  2.3226  0.3513
  847MPD2    H112447   4.032   3.066  14.961  1.0450  1.8290 -0.0438
  847MPD2    H212448   3.762   3.246  14.680 -0.2874 -1.1046  1.6457
  847MPD2    H312449   3.824   3.195  14.909  1.5061 -1.4412  2.2295
  847MPD2     N12450   4.235   3.033  14.799 -0.2617 -0.0919 -0.2139
  847MPD2    H512451   4.255   3.049  14.898  0.9831 -0.9681 -0.3250
  847MPD2    N112452   3.934   3.225  14.464 -0.1027  0.1471 -0.2460
  847MPD2    H712453   4.004   3.197  14.396  1.4239  0.2923  1.2757
  848MPD2     C12454   1.825   1.827  16.466 -0.6358  0.2977  0.5406
  848MPD2    C112455   1.945   1.846  16.533 -0.0610 -0.3914  0.1762
  848MPD2    C212456   2.018   1.958  16.499  0.7508 -0.7427  0.1722
  848MPD2    C312457   1.985   2.032  16.388  0.1465  0.4408  0.6230
  848MPD2    C412458   1.866   2.012  16.329  0.3417 -0.0275  0.4817
  848MPD2    C512459   1.786   1.909  16.368 -0.0717  0.1180 -0.4476
  848MPD2     H12460   2.108   1.975  16.557  3.0894 -1.8304 -3.1739
  848MPD2    H112461   1.835   2.072  16.244  0.6733  2.7918  2.3399
  848MPD2    H212462   1.759   1.748  16.499  1.4317 -1.2254  0.9812
  848MPD2    H312463   1.695   1.881  16.316  0.2027 -1.5663 -0.0037
  848MPD2     N12464   2.053   2.144  16.343 -0.5017  0.1575  0.0309
  848MPD2    H512465   2.005   2.202  16.275  2.0610  2.4844  0.2052
  848MPD2    N112466   1.990   1.780  16.651 -0.4081  0.3122  0.4849
  848MPD2    H712467   2.086   1.795  16.679  0.1840 -1.2097 -0.7070
  849MPD2     C12468   1.603   1.333  14.306  0.5868  0.6173 -0.5306
  849MPD2    C112469   1.656   1.279  14.194 -0.1790  0.3004 -0.5460
  849MPD2    C212470   1.789   1.241  14.204 -0.5209 -0.8642 -0.0434
  849MPD2    C312471   1.866   1.252  14.314 -0.1465 -0.1227 -0.2584
  849MPD2    C412472   1.803   1.296  14.424 -1.0640  0.4354  0.0304
  849MPD2    C512473   1.674   1.341  14.422 -0.0472 -0.3220  0.2104
  849MPD2     H12474   1.836   1.211  14.111  0.1137  1.3232 -0.4189
  849MPD2    H112475   1.851   1.301  14.521  1.8932  0.6762 -1.4629
  849MPD2    H212476   1.503   1.372  14.319  0.0585 -0.6170 -0.8928
  849MPD2    H312477   1.636   1.394  14.509  1.3358  0.2933  0.4351
  849MPD2     N12478   2.003   1.233  14.310 -0.1225 -0.1882 -0.6874
  849MPD2    H512479   2.067   1.271  14.379  0.1359  0.0468 -1.0587
  849MPD2    N112480   1.585   1.271  14.078  0.4377 -0.3662 -0.2744
  849MPD2    H712481   1.647   1.236  14.005  1.2684  1.2970 -0.3684
  850MPD2     C12482   3.970   4.262  14.514 -0.2267  0.0475  0.4650
  850MPD2    C112483   3.955   4.305  14.641  0.1943  0.0404  0.5029
  850MPD2    C212484   4.065   4.365  14.700  0.2167  0.1898  0.3030
  850MPD2    C312485   4.193   4.353  14.647  0.3479  0.5737 -0.5499
  850MPD2    C412486   4.199   4.297  14.522 -0.3990  0.5299 -0.4334
  850MPD2    C512487   4.084   4.263  14.444 -0.3389 -0.0549 -0.3175
  850MPD2     H12488   4.056   4.420  14.792 -0.3197 -0.3208  0.5560
  850MPD2    H112489   4.293   4.299  14.468 -0.6413  0.7680 -0.8537
  850MPD2    H212490   3.886   4.211  14.468  0.7991 -0.8154 -0.4557
  850MPD2    H312491   4.091   4.219  14.345  0.2960 -0.2699 -0.1753
  850MPD2     N12492   4.313   4.408  14.711 -0.0323 -0.0149  0.3036
  850MPD2    H512493   4.382   4.434  14.641  1.7622 -2.1852  1.2581
  850MPD2    N112494   3.839   4.281  14.712 -0.6598  0.0948 -0.2877
  850MPD2    H712495   3.772   4.210  14.683  0.1242 -1.3112  1.3035
  851MPD2     C12496   4.050   4.045  15.363  0.3602  0.8139 -0.0447
  851MPD2    C112497   3.973   3.972  15.284 -0.2432 -0.3654 -0.4120
  851MPD2    C212498   3.982   3.831  15.288  0.3933  0.1238  0.1712
  851MPD2    C312499   4.076   3.777  15.363  0.1867 -0.8567  0.5798
  851MPD2    C412500   4.163   3.849  15.435  0.0895 -0.0963  0.3744
  851MPD2    C512501   4.144   3.982  15.444  0.0854 -0.0034  0.0294
  851MPD2     H12502   3.916   3.762  15.236 -1.4037  2.7566 -0.9899
  851MPD2    H112503   4.245   3.811  15.495 -0.0410 -2.6919 -1.0791
  851MPD2    H212504   4.035   4.152  15.357  0.2962  0.8474  0.7052
  851MPD2    H312505   4.218   4.039  15.498  0.3140 -2.6218  2.5260
  851MPD2     N12506   4.083   3.641  15.343 -0.5385  0.0584 -0.2306
  851MPD2    H512507   4.027   3.611  15.264 -1.3037  1.0337 -0.0567
  851MPD2    N112508   3.867   4.038  15.217  0.0149 -0.3543 -0.4015
  851MPD2    H712509   3.846   4.134  15.244  0.5632 -0.0191 -1.1647
  852MPD2     C12510   0.204   1.803  10.180  0.4255 -0.2581  0.6262
  852MPD2    C112511   0.138   1.918  10.151 -0.9070 -0.3893 -0.5160
  852MPD2    C212512   0.172   1.988  10.040  0.1414 -0.6980  0.0367
  852MPD2    C312513   0.282   1.952   9.964  0.8056 -0.2592  0.0390
  852MPD2    C412514   0.362   1.846  10.002 -0.5443 -0.0673  0.3895
  852MPD2    C512515   0.314   1.775  10.108  0.1067 -0.1329 -0.7176
  852MPD2     H12516   0.119   2.079  10.015  0.7980 -0.2024  0.4347
  852MPD2    H112517   0.458   1.820   9.958 -0.0650  2.6861 -0.2128
  852MPD2    H212518   0.175   1.742  10.265 -2.7792 -1.3597 -1.2722
  852MPD2    H312519   0.373   1.690  10.141  1.8387  1.7383  1.0340
  852MPD2     N12520   0.314   2.036   9.860 -0.1458 -0.1729  0.8611
  852MPD2    H512521   0.264   2.124   9.861  1.0385  0.5364 -1.0335
  852MPD2    N112522   0.020   1.952  10.210 -0.1928 -0.4860 -0.1948
  852MPD2    H712523   4.693   2.029  10.167 -3.0268 -1.9804  0.3716
  853MPD2     C12524   1.459   2.009  12.274 -0.0159 -0.0216 -0.5367
  853MPD2    C112525   1.355   2.086  12.227  0.7515 -0.2598  0.1450
  853MPD2    C212526   1.323   2.093  12.092  0.0888 -0.2575 -0.0301
  853MPD2    C312527   1.393   2.009  12.004  0.3730  0.2971 -0.3454
  853MPD2    C412528   1.509   1.948  12.044  0.6493  0.0935  0.2175
  853MPD2    C512529   1.541   1.951  12.179 -1.4905  0.3853  0.1458
  853MPD2     H12530   1.251   2.164  12.052  0.0758 -0.1795  0.1345
  853MPD2    H112531   1.581   1.909  11.973 -1.6900 -1.3390 -1.3404
  853MPD2    H212532   1.481   1.995  12.379  0.4301  1.5438 -0.4202
  853MPD2    H312533   1.636   1.911  12.213 -1.2294  0.6241 -0.3031
  853MPD2     N12534   1.376   2.009  11.861 -0.2587  0.2218  0.1631
  853MPD2    H512535   1.446   1.971  11.798 -1.3996 -0.2896 -0.7755
  853MPD2    N112536   1.278   2.146  12.328 -0.2053 -0.2991  0.0211
  853MPD2    H712537   1.312   2.126  12.421 -0.3537 -0.5307  0.0258
  854MPD2     C12538   3.716   2.648  12.508 -0.9414  0.2184 -0.2381
  854MPD2    C112539   3.595   2.591  12.485  0.2908 -0.6674  0.0188
  854MPD2    C212540   3.569   2.458  12.525 -0.1982 -0.1300 -0.4192
  854MPD2    C312541   3.677   2.391  12.580  0.2872  0.4240  0.2223
  854MPD2    C412542   3.791   2.458  12.617  0.1283  0.0184  0.1948
  854MPD2    C512543   3.815   2.585  12.576  0.2304 -0.4805 -0.1187
  854MPD2     H12544   3.470   2.414  12.520 -0.1815 -0.1889 -0.2139
  854MPD2    H112545   3.872   2.409  12.669 -0.6081 -2.6433 -1.1668
  854MPD2    H212546   3.738   2.750  12.481  0.4517  0.4617  1.8001
  854MPD2    H312547   3.899   2.641  12.615 -0.6912  1.8079 -1.4699
  854MPD2     N12548   3.675   2.248  12.589 -0.1624 -0.2123 -0.4489
  854MPD2    H512549   3.759   2.204  12.623 -1.0446 -0.3550  1.5788
  854MPD2    N112550   3.498   2.675  12.422 -0.1470  0.6576 -0.4636
  854MPD2    H712551   3.539   2.762  12.390 -1.0602  0.5972 -1.8045
  855MPD2     C12552   3.873   1.903  13.306  0.7530  0.2055 -0.3976
  855MPD2    C112553   3.750   1.853  13.267 -0.1932  1.3741  0.1927
  855MPD2    C212554   3.711   1.846  13.132 -0.1032 -0.3016 -0.4064
  855MPD2    C312555   3.807   1.901  13.046  0.4738 -0.0934 -0.3634
  855MPD2    C412556   3.933   1.940  13.083  0.1299  0.2074 -1.0308
  855MPD2    C512557   3.967   1.941  13.217 -0.2089  0.4707 -0.1868
  855MPD2     H12558   3.617   1.804  13.098  0.2736 -0.5335 -1.1630
  855MPD2    H112559   4.014   1.979  13.022 -0.5154  1.0049 -1.3807
  855MPD2    H212560   3.897   1.907  13.412  2.3803  1.5057 -0.8144
  855MPD2    H312561   4.065   1.963  13.258 -0.9573  1.2585  1.1788
  855MPD2     N12562   3.779   1.892  12.909 -0.4042 -0.1253  0.1281
  855MPD2    H512563   3.852   1.935  12.854 -0.3412 -2.8556 -1.8728
  855MPD2    N112564   3.661   1.802  13.362 -0.2494  0.3804  0.2390
  855MPD2    H712565   3.578   1.760  13.320 -0.1114 -0.2399  0.5919
  856MPD2     C12566   0.039   2.847  13.946 -0.3646 -0.5642 -0.4417
  856MPD2    C112567   0.155   2.916  13.922 -0.4250  0.0431  0.0599
  856MPD2    C212568   0.153   3.054  13.944  0.5037  0.2468 -0.1617
  856MPD2    C312569   0.039   3.120  13.992  0.0088 -0.1898 -0.5561
  856MPD2    C412570   4.648   3.053  14.014 -0.0988 -0.2830 -0.3267
  856MPD2    C512571   4.650   2.911  13.993  0.3863 -0.3430 -0.3081
  856MPD2     H12572   0.243   3.109  13.917 -0.2933  0.9994 -1.3176
  856MPD2    H112573   4.562   3.117  14.031 -0.4627 -0.5523 -1.1096
  856MPD2    H212574   0.028   2.740  13.935 -2.2122 -0.6063  1.7993
  856MPD2    H312575   4.560   2.852  14.008 -0.0320 -0.0745 -1.7840
  856MPD2     N12576   0.036   3.259  14.005  0.6670  0.7653 -0.1939
  856MPD2    H512577   4.667   3.302  14.006 -0.7279 -2.2347  0.2494
  856MPD2    N112578   0.267   2.861  13.866 -0.5575  0.1566  0.3846
  856MPD2    H712579   0.349   2.918  13.849 -0.1910 -0.6887 -0.6654
  857MPD2     C12580   1.986   0.242  12.552 -0.3576 -0.1830  0.8642
  857MPD2    C112581   2.116   0.269  12.511 -0.7182  0.3309  1.0214
  857MPD2    C212582   2.171   0.395  12.530 -0.2605  0.5628  0.7618
  857MPD2    C312583   2.096   0.497  12.590 -0.3410 -0.9148 -0.3718
  857MPD2    C412584   1.967   0.470  12.624 -0.0496  0.3181 -0.7213
  857MPD2    C512585   1.917   0.347  12.614  0.1924 -0.6782 -0.5743
  857MPD2     H12586   2.269   0.414  12.487 -0.5626 -0.5851 -0.4265
  857MPD2    H112587   1.905   0.554  12.653  0.4842  1.0604 -1.7485
  857MPD2    H212588   1.935   0.149  12.529 -0.3655  0.3149 -1.1225
  857MPD2    H312589   1.815   0.337  12.649  0.7988  0.5724  1.5546
  857MPD2     N12590   2.157   0.626  12.590  0.2359  0.0592 -0.8929
  857MPD2    H512591   2.243   0.632  12.537  2.2617  0.7394  2.4857
  857MPD2    N112592   2.194   0.157  12.457 -0.3976 -0.0177  0.9993
  857MPD2    H712593   2.144   0.068  12.456  3.0413 -1.9415 -1.2292
  858MPD2     C12594   2.524   3.615  16.583  0.5839  1.1232  0.8287
  858MPD2    C112595   2.647   3.662  16.550 -0.1344  0.1093 -0.3751
  858MPD2    C212596   2.665   3.802  16.550 -1.0235 -0.2903 -0.1463
  858MPD2    C312597   2.564   3.888  16.603 -0.4038  1.0583  0.2993
  858MPD2    C412598   2.441   3.834  16.632  0.4806  0.2689  0.1884
  858MPD2    C512599   2.421   3.699  16.625 -0.4996  0.3574  0.6200
  858MPD2     H12600   2.764   3.837  16.524 -1.2406  1.1028  0.8985
  858MPD2    H112601   2.363   3.897  16.674  0.6543  1.0155 -0.5993
  858MPD2    H212602   2.492   3.511  16.577 -1.1359  1.8639 -2.7483
  858MPD2    H312603   2.330   3.654  16.661 -1.7061  0.8515 -1.8424
  858MPD2     N12604   2.585   4.025  16.622 -0.0947 -0.2862  0.0661
  858MPD2    H512605   2.511   4.073  16.672 -0.6543 -0.0063 -1.0413
  858MPD2    N112606   2.730   3.566  16.488  0.0866 -0.3225 -0.3598
  858MPD2    H712607   2.684   3.478  16.469  3.6486 -2.4515  1.1049
  859MPD2     C12608   1.302   1.496  15.687  0.4137  0.7155  0.9164
  859MPD2    C112609   1.389   1.477  15.575  0.0011  0.2311 -0.1645
  859MPD2    C212610   1.388   1.356  15.503 -0.1594  0.0596  0.0310
  859MPD2    C312611   1.310   1.252  15.551  0.1162  0.1036  0.4120
  859MPD2    C412612   1.241   1.261  15.667 -0.2723  0.5493  0.3826
  859MPD2    C512613   1.231   1.385  15.727 -0.0906  0.2812  0.2993
  859MPD2     H12614   1.433   1.342  15.406 -2.6626  0.7876 -1.2118
  859MPD2    H112615   1.191   1.174  15.707 -1.5198  2.2934  2.6625
  859MPD2    H212616   1.291   1.586  15.746  1.0743  1.0782  0.4836
  859MPD2    H312617   1.170   1.405  15.814 -0.2540 -0.0823  0.2706
  859MPD2     N12618   1.292   1.130  15.491 -0.1917  0.5761  0.0570
  859MPD2    H512619   1.215   1.070  15.518  1.2860 -1.1669  0.4554
  859MPD2    N112620   1.471   1.580  15.526  0.2291  0.1275 -0.1355
  859MPD2    H712621   1.518   1.565  15.437 -2.3983 -0.0364 -1.4862
  860MPD2     C12622   4.486   2.139  11.232 -0.0349 -0.1975  0.2374
  860MPD2    C112623   4.474   2.194  11.358 -0.2772  0.0259  0.3805
  860MPD2    C212624   4.352   2.175  11.424  0.0098 -0.0676  0.2813
  860MPD2    C312625   4.247   2.099  11.363  0.1953  0.0179  0.1782
  860MPD2    C412626   4.256   2.060  11.229 -0.6283  0.0360  0.0648
  860MPD2    C512627   4.378   2.088  11.166 -0.4013  0.6111 -1.1047
  860MPD2     H12628   4.347   2.193  11.531  1.6661  0.2327  0.3134
  860MPD2    H112629   4.185   2.030  11.153 -0.2469 -0.9191  0.0865
  860MPD2    H212630   4.573   2.159  11.172 -0.2898  0.4843  0.0886
  860MPD2    H312631   4.395   2.059  11.063 -0.9146 -1.5160 -0.5894
  860MPD2     N12632   4.131   2.078  11.435 -0.4600 -0.3424  0.2519
  860MPD2    H512633   4.128   2.115  11.530 -0.0999  0.4694 -0.0532
  860MPD2    N112634   4.578   2.251  11.436  0.4479 -0.4357 -0.0270
  860MPD2    H712635   4.556   2.270  11.534 -2.3525 -1.6221 -0.4252
  861MPD2     C12636   3.118   0.320  10.680 -0.3683  0.2558  0.6416
  861MPD2    C112637   3.021   0.293  10.778  0.3218  0.1311  0.2138
  861MPD2    C212638   2.889   0.333  10.750  0.3246 -0.5160 -0.2371
  861MPD2    C312639   2.860   0.399  10.632 -0.0774  0.4288  0.0007
  861MPD2    C412640   2.949   0.411  10.532 -0.2093  0.1132  0.3425
  861MPD2    C512641   3.076   0.380  10.559 -0.5228  0.4233  0.4779
  861MPD2     H12642   2.808   0.312  10.819  0.8248  0.1070  0.5248
  861MPD2    H112643   2.918   0.465  10.443  0.5524 -0.9471 -0.5708
  861MPD2    H212644   3.219   0.281  10.689 -0.0172  1.0080 -0.1552
  861MPD2    H312645   3.149   0.382  10.479 -1.5723  0.3621 -0.4607
  861MPD2     N12646   2.733   0.448  10.595  0.1609  0.3895 -0.2650
  861MPD2    H512647   2.729   0.499  10.507 -1.3152 -1.8357 -1.4821
  861MPD2    N112648   3.040   0.232  10.906  0.2249 -0.1721 -0.3344
  861MPD2    H712649   2.960   0.208  10.964  0.3081  0.0039 -0.1466
  862MPD2     C12650   2.259   0.788  10.184 -0.0448  0.5117 -0.0323
  862MPD2    C112651   2.321   0.677  10.239  0.0339 -0.1100 -1.0740
  862MPD2    C212652   2.294   0.553  10.180 -0.1655  0.6916  0.0385
  862MPD2    C312653   2.199   0.530  10.082  0.0441 -0.2543  0.2995
  862MPD2    C412654   2.124   0.633  10.042  0.8402  0.7698 -0.3729
  862MPD2    C512655   2.162   0.762  10.087  0.0023 -0.1600 -0.9969
  862MPD2     H12656   2.340   0.464  10.221 -0.6135  0.3625 -0.1692
  862MPD2    H112657   2.043   0.629   9.970 -0.7959  0.7625  1.4871
  862MPD2    H212658   2.274   0.893  10.206 -1.0820  1.1486 -2.2643
  862MPD2    H312659   2.107   0.845  10.045  1.2950  2.2061  1.9749
  862MPD2     N12660   2.174   0.407  10.020  0.2026 -0.1142 -0.2540
  862MPD2    H512661   2.092   0.400   9.960  0.9181 -0.2803 -1.1988
  862MPD2    N112662   2.415   0.683  10.346  0.5330 -0.3219 -0.3894
  862MPD2    H712663   2.471   0.599  10.354 -0.7516 -1.4542 -3.0309
  863MPD2     C12664   0.528   3.291  17.198  0.1246  0.2559  0.6135
  863MPD2    C112665   0.623   3.303  17.099  0.1111  0.0327 -0.3653
  863MPD2    C212666   0.738   3.230  17.113  0.2640 -0.2694  0.2092
  863MPD2    C312667   0.759   3.148  17.219  1.1605  0.6732  0.2020
  863MPD2    C412668   0.669   3.148  17.321 -1.3086  0.7175  0.2139
  863MPD2    C512669   0.557   3.226  17.315  0.1360 -0.5373  0.2713
  863MPD2     H12670   0.811   3.229  17.033  0.2571 -0.7055  0.2057
  863MPD2    H112671   0.692   3.095  17.412 -0.7357  1.2974  0.4113
  863MPD2    H212672   0.433   3.343  17.200 -0.3319 -0.6165  1.4623
  863MPD2    H312673   0.490   3.245  17.399 -0.2503 -1.5435  0.1837
  863MPD2     N12674   0.877   3.070  17.240  0.1239  0.1618  0.2388
  863MPD2    H512675   0.879   3.023  17.329  0.5699 -1.2946 -0.5375
  863MPD2    N112676   0.604   3.398  16.996 -0.5805 -0.0406  0.1965
  863MPD2    H712677   0.511   3.440  16.994 -0.6534 -0.1885  0.5802
  864MPD2     C12678   1.405   4.412  17.262  0.3041  0.2665  0.5342
  864MPD2    C112679   1.417   4.352  17.140 -0.5645  0.0015 -0.0062
  864MPD2    C212680   1.515   4.395  17.049  0.5355 -0.0541 -0.1690
  864MPD2    C312681   1.603   4.496  17.079  0.1032  0.0820  0.4905
  864MPD2    C412682   1.595   4.558  17.201 -0.1722  0.7772  0.1460
  864MPD2    C512683   1.497   4.515  17.291 -0.3210 -0.4620 -0.7563
  864MPD2     H12684   1.527   4.343  16.955 -0.6926  2.1852 -1.5741
  864MPD2    H112685   1.660   4.638  17.235  0.7405  0.0019  0.2338
  864MPD2    H212686   1.330   4.383  17.336  0.6341 -2.1091 -0.0733
  864MPD2    H312687   1.503   4.564  17.387 -3.8188  0.8622 -1.2133
  864MPD2     N12688   1.705   4.543  16.994 -0.1730 -0.1892 -0.7378
  864MPD2    H512689   1.754   4.624  17.029  2.1249 -1.7339 -0.3795
  864MPD2    N112690   1.335   4.244  17.119 -0.0507 -0.2243 -0.5683
  864MPD2    H712691   1.268   4.228  17.192 -0.2133 -1.8461 -1.0832
  865MPD2     C12692   1.941   0.034  16.195 -0.0712 -0.6333 -0.3467
  865MPD2    C112693   1.905   4.673  16.298  0.3422  0.6547  0.4948
  865MPD2    C212694   1.879   0.010  16.423 -0.8406  0.1300  0.4121
  865MPD2    C312695   1.883   0.152  16.435 -0.2274 -0.2181  0.0988
  865MPD2    C412696   1.900   0.230  16.326 -0.3614  0.3995 -0.5531
  865MPD2    C512697   1.934   0.169  16.210 -1.1644  0.8581 -0.1877
  865MPD2     H12698   1.843   4.671  16.505  0.3154 -1.0631  0.0274
  865MPD2    H112699   1.892   0.338  16.315 -0.4165  0.4948  0.3791
  865MPD2    H212700   1.996   4.713  16.112  2.4639  1.2460  0.3394
  865MPD2    H312701   1.967   0.242  16.137  0.7752  0.3755  0.1869
  865MPD2     N12702   1.861   0.221  16.559 -0.3903  0.3963 -0.3250
  865MPD2    H512703   1.872   0.322  16.551  3.0199 -0.0440 -0.9325
  865MPD2    N112704   1.914   4.532  16.270 -0.2232  0.1441  0.1757
  865MPD2    H712705   1.962   4.513  16.182 -0.9232 -0.5760 -0.0472
  866MPD2     C12706   3.681   0.546  11.302 -0.4513  0.7547 -1.1355
  866MPD2    C112707   3.634   0.486  11.186  0.4412  0.4198 -0.2280
  866MPD2    C212708   3.508   0.497  11.142  0.0575 -0.7706  0.0367
  866MPD2    C312709   3.415   0.566  11.214 -0.1052 -0.5764 -0.4036
  866MPD2    C412710   3.452   0.623  11.333  0.5582  0.2139  0.0401
  866MPD2    C512711   3.585   0.617  11.373  0.6880  0.8214 -0.3155
  866MPD2     H12712   3.479   0.437  11.057  1.5823  0.7215 -1.5398
  866MPD2    H112713   3.388   0.681  11.398  1.4378  2.0082 -0.6753
  866MPD2    H212714   3.776   0.533  11.352 -0.9060  0.4378 -0.3478
  866MPD2    H312715   3.612   0.660  11.469 -1.1924  0.7358  0.2432
  866MPD2     N12716   3.280   0.576  11.169  0.1787 -0.2161 -0.1060
  866MPD2    H512717   3.207   0.604  11.232  1.9463 -1.0535  2.3010
  866MPD2    N112718   3.717   0.412  11.102  0.3631 -0.3535 -0.3977
  866MPD2    H712719   3.678   0.365  11.021 -2.9446  2.4096 -0.4125
  867MPD2     C12720   0.039   4.023  16.605 -0.5251  0.3823  0.2233
  867MPD2    C112721   0.114   4.054  16.715 -1.0073  0.4794  0.6725
  867MPD2    C212722   0.068   4.040  16.840  0.0193 -0.0165 -0.3284
  867MPD2    C312723   4.656   4.029  16.855  0.3177 -0.5465 -0.9926
  867MPD2    C412724   4.578   3.986  16.752 -0.3611 -0.3319  0.1416
  867MPD2    C512725   4.626   3.996  16.625  0.7224  0.1668 -0.5275
  867MPD2     H12726   0.125   4.048  16.932  3.1824 -0.6690 -2.2271
  867MPD2    H112727   4.474   3.962  16.775 -0.8065  2.1591  0.6996
  867MPD2    H212728   0.079   4.045  16.507  0.8084  0.8279  0.8536
  867MPD2    H312729   4.565   3.977  16.538  1.1148 -0.2122 -0.7203
  867MPD2     N12730   4.597   4.018  16.979  0.2585 -0.0078 -0.1122
  867MPD2    H512731   4.507   3.969  16.983 -0.9898  2.3621  0.8182
  867MPD2    N112732   0.250   4.083  16.689 -0.1378  0.4204  0.5137
  867MPD2    H712733   0.283   4.068  16.595 -1.3301 -1.9730  0.4669
  868MPD2     C12734   2.627   3.904  12.902 -0.2553  0.0961  0.2112
  868MPD2    C112735   2.629   3.769  12.868 -0.4642 -0.0650 -0.8012
  868MPD2    C212736   2.526   3.684  12.901 -0.0615  0.2069  1.0293
  868MPD2    C312737   2.419   3.736  12.971 -0.5220 -0.1698  0.3138
  868MPD2    C412738   2.411   3.869  13.006 -0.1927  0.0367  0.5635
  868MPD2    C512739   2.521   3.948  12.984  1.1552 -0.7878 -0.1679
  868MPD2     H12740   2.530   3.579  12.877  2.3782 -0.0465  2.6047
  868MPD2    H112741   2.327   3.915  13.058 -0.0297  1.9315 -0.8786
  868MPD2    H212742   2.709   3.970  12.877 -0.4916  0.1288 -0.4757
  868MPD2    H312743   2.522   4.048  13.025 -0.2144 -0.1035 -1.8356
  868MPD2     N12744   2.313   3.649  13.002 -0.1214  0.2665 -0.3672
  868MPD2    H512745   2.321   3.555  12.965 -3.0429  0.4491 -1.4501
  868MPD2    N112746   2.740   3.708  12.810  0.5847 -0.1020  0.4406
  868MPD2    H712747   2.734   3.607  12.797  1.5726  0.2129 -2.5688
  869MPD2     C12748   3.460   0.664   1.261 -0.2737 -0.1183  0.5523
  869MPD2    C112749   3.339   0.656   1.323  0.4560  0.0149  0.4308
  869MPD2    C212750   3.243   0.730   1.265  0.6057 -0.5818 -0.3387
  869MPD2    C312751   3.253   0.780   1.134 -0.9065 -0.3861 -0.2619
  869MPD2    C412752   3.377   0.780   1.072 -0.2116 -0.5175 -0.0270
  869MPD2    C512753   3.482   0.723   1.140  0.6062 -0.4932 -0.1601
  869MPD2     H12754   3.146   0.735   1.314  0.1928  2.2287 -1.4437
  869MPD2    H112755   3.385   0.813   0.969 -0.4429  1.5051  0.5980
  869MPD2    H212756   3.540   0.602   1.300  2.0793  2.3750 -0.2171
  869MPD2    H312757   3.585   0.732   1.107  0.3216  3.0638 -0.0270
  869MPD2     N12758   3.150   0.844   1.059 -0.2672 -0.0638 -0.0602
  869MPD2    H512759   3.176   0.886   0.970 -1.1001 -1.3662 -0.9184
  869MPD2    N112760   3.329   0.591   1.450  0.1651  0.5891  0.3178
  869MPD2    H712761   3.408   0.530   1.469  1.1876  1.7271 -0.2200
  870MPD2     C12762   1.810   0.182   1.646 -0.2339 -0.6127 -0.1634
  870MPD2    C112763   1.856   0.061   1.612  0.7940 -0.0172 -0.6096
  870MPD2    C212764   1.874   0.026   1.480 -0.5878  0.1274 -0.3616
  870MPD2    C312765   1.853   0.120   1.385  0.0139  0.0937 -0.0891
  870MPD2    C412766   1.786   0.238   1.422 -0.4452  0.2754  0.4007
  870MPD2    C512767   1.779   0.271   1.549 -0.6140  0.0372  0.3564
  870MPD2     H12768   1.934   4.661   1.458 -0.1562 -0.3862  2.8446
  870MPD2    H112769   1.748   0.320   1.362 -0.6074 -1.0837 -1.3951
  870MPD2    H212770   1.818   0.222   1.746  1.7562  1.1221 -1.0072
  870MPD2    H312771   1.740   0.368   1.579 -0.9987  0.4348 -1.4531
  870MPD2     N12772   1.885   0.091   1.247  0.2980  0.0408 -0.9174
  870MPD2    H512773   1.915   4.719   1.225  2.0008  0.2547  0.4181
  870MPD2    N112774   1.902   4.691   1.708 -0.2434 -0.4942  0.5069
  870MPD2    H712775   1.953   4.610   1.674 -3.5382 -1.7906 -1.3667
  871MPD2     C12776   4.140   4.450  16.195 -0.4237 -0.1176  0.0332
  871MPD2    C112777   4.119   4.354  16.288 -0.2896 -0.4781 -0.2086
  871MPD2    C212778   4.128   4.219  16.247 -0.8364  0.4022 -0.5145
  871MPD2    C312779   4.184   4.199  16.122  0.5239 -0.1223 -0.6377
  871MPD2    C412780   4.193   4.298  16.026 -0.3145 -0.1730 -0.1144
  871MPD2    C512781   4.175   4.426  16.064 -0.1063 -1.0311  0.2621
  871MPD2     H12782   4.107   4.142  16.321 -1.2171  2.0001  1.0492
  871MPD2    H112783   4.232   4.282  15.926 -1.0111  3.0342 -0.8926
  871MPD2    H212784   4.143   4.554  16.225 -0.2573  0.1244 -0.8439
  871MPD2    H312785   4.204   4.497  15.987 -1.1653 -0.0041  0.8185
  871MPD2     N12786   4.207   4.062  16.086 -0.1453  0.1629  0.2838
  871MPD2    H512787   4.172   3.993  16.152 -3.1259  0.2432 -1.2378
  871MPD2    N112788   4.080   4.392  16.420 -0.5360  0.4807 -0.4395
  871MPD2    H712789   4.063   4.491  16.437 -0.8125  0.3238  0.1808
  872MPD2     C12790   0.376   2.601  14.083 -0.0942 -0.1348 -0.0629
  872MPD2    C112791   0.398   2.471  14.032 -0.3492 -0.1952  0.4114
  872MPD2    C212792   0.295   2.375  14.033 -0.1337  0.2385  0.2174
  872MPD2    C312793   0.174   2.404  14.089  0.1283  0.0593  0.5310
  872MPD2    C412794   0.151   2.536  14.134 -0.2939 -1.2676  0.3413
  872MPD2    C512795   0.250   2.630  14.139  0.5048 -0.7677 -0.1936
  872MPD2     H12796   0.309   2.277  13.987 -0.1581 -0.8277  2.4842
  872MPD2    H112797   0.055   2.578  14.163  0.9302  1.3220  0.6077
  872MPD2    H212798   0.448   2.680  14.070 -1.6594  1.2395 -0.4572
  872MPD2    H312799   0.228   2.730  14.175  0.5458 -0.8950  0.1885
  872MPD2     N12800   0.068   2.305  14.100  0.7144 -0.3202  0.0740
  872MPD2    H512801   4.700   2.339  14.129 -0.1338 -1.4230 -1.3296
  872MPD2    N112802   0.519   2.436  13.971 -0.5316 -0.1537 -0.2242
  872MPD2    H712803   0.524   2.346  13.923 -2.2082  0.3853 -1.3955
  873MPD2     C12804   1.526   1.851   0.616 -0.0886  0.0728  0.0135
  873MPD2    C112805   1.552   1.756   0.714  0.4285  0.3427  0.0380
  873MPD2    C212806   1.640   1.658   0.673 -0.9629 -0.3594  0.3184
  873MPD2    C312807   1.690   1.650   0.546 -0.5785 -0.1299 -0.4973
  873MPD2    C412808   1.665   1.748   0.457  0.2507 -0.6552  0.3130
  873MPD2    C512809   1.576   1.844   0.491  0.3767  0.4308 -0.1715
  873MPD2     H12810   1.665   1.581   0.746  1.3627  0.4613  0.3628
  873MPD2    H112811   1.712   1.757   0.360  0.5956 -1.2741  0.4252
  873MPD2    H212812   1.456   1.931   0.638 -0.2814 -0.0993  0.0243
  873MPD2    H312813   1.553   1.929   0.429 -1.5361  0.6407  0.8365
  873MPD2     N12814   1.785   1.552   0.511 -0.3338  0.2837 -0.1932
  873MPD2    H512815   1.805   1.534   0.413 -0.3188 -1.6120  0.1567
  873MPD2    N112816   1.489   1.771   0.840 -0.1749 -0.0145 -0.3586
  873MPD2    H712817   1.421   1.846   0.843  1.5662  1.5466  0.7042
  874MPD2     C12818   1.501   2.327  16.314 -0.7058  0.1227 -0.2026
  874MPD2    C112819   1.585   2.273  16.410  0.2853 -0.5450  0.1263
  874MPD2    C212820   1.718   2.310  16.421  1.0413 -0.2991 -0.1252
  874MPD2    C312821   1.760   2.410  16.335  0.2442 -0.1512 -0.7422
  874MPD2    C412822   1.674   2.469  16.240 -0.0308  0.7975  0.1333
  874MPD2    C512823   1.540   2.428  16.237 -0.0162  1.0984 -0.5808
  874MPD2     H12824   1.783   2.265  16.496  1.3409 -0.3687 -0.4232
  874MPD2    H112825   1.712   2.543  16.171 -0.0478 -1.2612 -2.0910
  874MPD2    H212826   1.398   2.294  16.301 -0.3161 -1.2979  0.3561
  874MPD2    H312827   1.476   2.465  16.157  0.1235  1.5637 -0.4778
  874MPD2     N12828   1.896   2.452  16.349 -0.7686  0.1563  0.2403
  874MPD2    H512829   1.952   2.407  16.421  1.4707  1.4426 -0.6825
  874MPD2    N112830   1.533   2.154  16.468  0.3721 -0.2132 -0.4610
  874MPD2    H712831   1.446   2.120  16.428 -0.4462 -1.4312  2.3754
  875MPD2     C12832   2.887   0.599  14.047 -0.4645 -0.2277 -0.1573
  875MPD2    C112833   2.757   0.561  14.082 -0.2295  0.1713  0.0020
  875MPD2    C212834   2.725   0.551  14.215  0.0611 -0.2000 -0.6034
  875MPD2    C312835   2.825   0.582  14.313  1.1747 -0.6000 -0.8911
  875MPD2    C412836   2.951   0.593  14.281  0.3899  0.7935 -0.4065
  875MPD2    C512837   2.981   0.601  14.152  0.2429 -0.6470 -0.2101
  875MPD2     H12838   2.622   0.527  14.236 -0.1100  2.3481  1.4158
  875MPD2    H112839   3.026   0.629  14.350  1.3998  0.9685 -1.5743
  875MPD2    H212840   2.931   0.605  13.948  1.3425 -0.0659  0.6376
  875MPD2    H312841   3.077   0.645  14.127 -0.5061  0.6493 -0.8561
  875MPD2     N12842   2.796   0.586  14.450  0.0215  0.5827  0.4217
  875MPD2    H512843   2.873   0.613  14.511  0.6564 -0.0300 -0.1109
  875MPD2    N112844   2.660   0.551  13.978 -0.0280  0.4597  0.1724
  875MPD2    H712845   2.565   0.530  14.005 -0.1720  1.2002  0.2438
  876MPD2     C12846   1.686   2.148  15.977  0.1337 -0.2571  0.4627
  876MPD2    C112847   1.778   2.054  15.940  0.0455  0.2359  0.1759
  876MPD2    C212848   1.760   1.920  15.969  0.2830  0.3672  0.0805
  876MPD2    C312849   1.649   1.880  16.046  0.0926 -0.8006  0.0861
  876MPD2    C412850   1.556   1.974  16.090 -0.1783 -0.0962 -0.1457
  876MPD2    C512851   1.578   2.103  16.054 -0.5323  0.2140  0.5438
  876MPD2     H12852   1.829   1.844  15.935 -1.4872  0.1274 -2.9405
  876MPD2    H112853   1.465   1.950  16.143  0.0652 -1.2876 -0.2673
  876MPD2    H212854   1.699   2.255  15.962  1.0676 -0.5220 -0.5812
  876MPD2    H312855   1.511   2.181  16.088  2.5911  2.6824  1.0859
  876MPD2     N12856   1.631   1.742  16.061 -0.2266  0.0264 -0.3771
  876MPD2    H512857   1.680   1.680  15.997  1.1854  0.0680  0.6673
  876MPD2    N112858   1.886   2.100  15.861 -0.3749  0.1587  0.5871
  876MPD2    H712859   1.893   2.200  15.846  1.7441  0.1018  1.1137
  877MPD2     C12860   1.789   2.286  15.165  0.1392 -0.2115  0.3277
  877MPD2    C112861   1.931   2.297  15.167  0.1696 -0.4936  0.1726
  877MPD2    C212862   1.996   2.285  15.047  0.7823 -1.2376 -0.2132
  877MPD2    C312863   1.926   2.285  14.927 -0.5337  0.8379 -0.0554
  877MPD2    C412864   1.784   2.272  14.925 -0.2322  0.7439 -0.5773
  877MPD2    C512865   1.718   2.274  15.046  0.5383  0.0481 -0.0232
  877MPD2     H12866   2.102   2.306  15.041  0.9212 -1.3064  2.1035
  877MPD2    H112867   1.730   2.279  14.832 -1.1586 -1.9449 -0.2456
  877MPD2    H212868   1.737   2.305  15.258  0.2301  0.8329  0.1683
  877MPD2    H312869   1.610   2.264  15.042  0.4043  0.1907  2.8784
  877MPD2     N12870   1.989   2.280  14.805  0.4149 -0.1608 -0.4867
  877MPD2    H512871   1.928   2.265  14.725 -1.8768  0.0347  1.2143
  877MPD2    N112872   1.997   2.297  15.292  0.5864  0.1747 -0.4839
  877MPD2    H712873   2.097   2.302  15.280  0.7873  2.4837  2.1804
  878MPD2     C12874   1.653   1.968  13.352  0.1364 -0.3040 -0.4249
  878MPD2    C112875   1.603   1.857  13.279 -0.3017  0.6979 -0.2012
  878MPD2    C212876   1.561   1.739  13.346 -0.3090  0.3010  0.3161
  878MPD2    C312877   1.579   1.734  13.487  0.6134 -0.5853 -0.7257
  878MPD2    C412878   1.631   1.842  13.551  0.0093  0.3028 -0.5156
  878MPD2    C512879   1.676   1.955  13.488  0.1134  0.5977 -0.4502
  878MPD2     H12880   1.543   1.647  13.290 -0.7918  1.5679 -1.6061
  878MPD2    H112881   1.665   1.833  13.653 -3.3237  1.8384  0.6907
  878MPD2    H212882   1.670   2.063  13.301  2.2264 -1.6568 -2.2539
  878MPD2    H312883   1.722   2.034  13.547  0.0069 -0.6521  1.2880
  878MPD2     N12884   1.541   1.614  13.552 -0.7181 -0.2712  0.3150
  878MPD2    H512885   1.504   1.541  13.493 -0.2347 -0.7310  0.5796
  878MPD2    N112886   1.587   1.874  13.136 -0.3919  0.2985 -0.0934
  878MPD2    H712887   1.627   1.950  13.082 -0.2616 -0.2707 -0.7989
  879MPD2     C12888   2.162   2.068  16.942 -0.5009  0.5958 -0.2621
  879MPD2    C112889   2.091   2.098  17.051 -0.6463  0.4700  0.3663
  879MPD2    C212890   1.955   2.132  17.037  0.0929  0.5805 -0.7537
  879MPD2    C312891   1.889   2.120  16.916  0.4824  0.0029 -0.6083
  879MPD2    C412892   1.967   2.088  16.805  0.0830  0.1172  0.4977
  879MPD2    C512893   2.102   2.063  16.821 -0.1047 -0.3003  0.2587
  879MPD2     H12894   1.896   2.176  17.116  1.0962 -1.8095  1.3209
  879MPD2    H112895   1.921   2.085  16.707 -1.0924  4.1345  0.9156
  879MPD2    H212896   2.269   2.060  16.958 -0.6658  1.1156  1.1086
  879MPD2    H312897   2.163   2.040  16.735 -1.5277  1.6671 -1.2823
  879MPD2     N12898   1.754   2.150  16.902  0.3837  0.0728  0.2364
  879MPD2    H512899   1.729   2.171  16.806  0.0449  0.9776  0.5245
  879MPD2    N112900   2.160   2.105  17.178  0.1511  0.2673 -0.0942
  879MPD2    H712901   2.259   2.084  17.170  0.9106  2.7199  3.2088
  880MPD2     C12902   2.724   4.313   0.905 -0.2666  0.0345  0.2973
  880MPD2    C112903   2.772   4.283   0.784 -0.3478 -0.7138 -0.0288
  880MPD2    C212904   2.819   4.150   0.750 -0.1636  0.1013  0.7336
  880MPD2    C312905   2.798   4.055   0.851  0.8263 -0.5278 -0.0625
  880MPD2    C412906   2.738   4.089   0.971  0.1764  0.4485 -0.3321
  880MPD2    C512907   2.718   4.218   1.004  0.0447  0.0770 -0.4266
  880MPD2     H12908   2.858   4.123   0.652 -2.4168 -2.2766  0.5039
  880MPD2    H112909   2.738   4.026   1.059  0.6655 -1.1199 -1.4508
  880MPD2    H212910   2.702   4.416   0.932  1.8434  0.5458  0.1266
  880MPD2    H312911   2.686   4.244   1.104 -2.1653  1.4248 -1.4974
  880MPD2     N12912   2.831   3.924   0.814  0.2708  0.1911  0.1812
  880MPD2    H512913   2.870   3.921   0.720  1.0504 -1.3159  0.5522
  880MPD2    N112914   2.763   4.392   0.692 -1.0934 -0.0506  0.5454
  880MPD2    H712915   2.700   4.466   0.721  0.4788  1.2217  0.6409
  881MPD2     C12916   2.743   0.149  17.402  0.3916 -0.2211  0.4112
  881MPD2    C112917   2.865   0.136  17.459  0.7224  0.6421  0.0734
  881MPD2    C212918   2.877   0.063  17.578  0.0555 -0.2252  0.1741
  881MPD2    C312919   2.764   0.016  17.639 -0.2497 -0.9181 -0.6211
  881MPD2    C412920   2.640   0.031  17.581 -0.7669  0.1744 -0.8335
  881MPD2    C512921   2.635   0.099  17.462  0.0846 -0.2317  0.7553
  881MPD2     H12922   2.971   0.045  17.629  0.7109  0.2357 -0.8708
  881MPD2    H112923   2.552   4.718  17.633  0.5574  0.8776  1.8901
  881MPD2    H212924   2.728   0.205  17.311  1.7223 -2.6600 -1.3288
  881MPD2    H312925   2.542   0.140  17.428 -0.5058 -2.5728 -0.4791
  881MPD2     N12926   2.762   4.660   0.066 -0.1244  0.3566 -0.6728
  881MPD2    H512927   2.670   4.640   0.102  0.4952  2.1221  1.9223
  881MPD2    N112928   2.966   0.150  17.365  0.2555 -0.1821 -0.3079
  881MPD2    H712929   2.950   0.198  17.277  2.5508  2.6847  0.8390
  882MPD2     C12930   1.849   2.100  14.044 -0.0910 -0.7864  0.3936
  882MPD2    C112931   1.828   2.180  14.156 -0.2464  0.0874 -0.7774
  882MPD2    C212932   1.699   2.221  14.175  0.0295  0.8989 -0.0025
  882MPD2    C312933   1.587   2.170  14.100  0.1546 -0.5091  0.1736
  882MPD2    C412934   1.613   2.087  13.992 -0.0207  0.0586  0.4691
  882MPD2    C512935   1.744   2.052  13.971 -0.2791 -0.7995  0.2094
  882MPD2     H12936   1.680   2.285  14.260  0.6131  0.8014  0.1974
  882MPD2    H112937   1.528   2.055  13.932  0.0594  0.3067  0.2267
  882MPD2    H212938   1.950   2.072  14.016  1.2918  2.0369  2.5669
  882MPD2    H312939   1.779   1.985  13.893  4.8081  2.2586 -0.1388
  882MPD2     N12940   1.453   2.212  14.122 -0.0438 -0.5651 -0.5740
  882MPD2    H512941   1.389   2.168  14.058  0.7045  0.1379 -1.8007
  882MPD2    N112942   1.936   2.202  14.237  0.8163  0.0631 -0.0229
  882MPD2    H712943   2.022   2.158  14.206  0.8605  0.2205 -0.1231
  883MPD2     C12944   3.406   1.737  16.336  0.4266 -0.2852  0.0898
  883MPD2    C112945   3.483   1.809  16.238 -0.1551 -0.1622  0.3861
  883MPD2    C212946   3.605   1.860  16.271 -0.1076  0.6258 -0.3403
  883MPD2    C312947   3.650   1.869  16.397  0.5795  0.2187 -0.0936
  883MPD2    C412948   3.569   1.811  16.494  0.1663 -0.0570 -0.2640
  883MPD2    C512949   3.462   1.739  16.463 -0.0431 -0.1129  0.7506
  883MPD2     H12950   3.661   1.910  16.193  2.8619 -1.9314  0.1699
  883MPD2    H112951   3.576   1.821  16.601 -1.1929  2.8831 -0.4527
  883MPD2    H212952   3.310   1.693  16.309 -0.0643  1.3994 -0.9494
  883MPD2    H312953   3.404   1.706  16.548 -1.2131  1.3577  0.5302
  883MPD2     N12954   3.766   1.941  16.428  0.4091  0.1962 -0.5047
  883MPD2    H512955   3.816   1.982  16.349  0.4504  2.0714  0.4958
  883MPD2    N112956   3.439   1.813  16.100  0.2562 -0.5145 -0.4093
  883MPD2    H712957   3.499   1.861  16.033 -0.6115  0.1836 -0.6978
  884MPD2     C12958   0.858   2.804  15.434  0.4215 -0.2409 -0.3707
  884MPD2    C112959   0.845   2.901  15.337 -0.4153  0.5391  0.7375
  884MPD2    C212960   0.719   2.966  15.330 -0.4523  0.7356 -0.9952
  884MPD2    C312961   0.614   2.924  15.404 -0.0405  0.3821  1.0917
  884MPD2    C412962   0.630   2.815  15.492  0.0136  0.2807 -0.3279
  884MPD2    C512963   0.756   2.768  15.512  0.2314 -0.2677 -0.2440
  884MPD2     H12964   0.709   3.055  15.269 -0.3023  1.0397 -0.5716
  884MPD2    H112965   0.547   2.769  15.545  1.0340  0.6436  1.5345
  884MPD2    H212966   0.956   2.769  15.462  0.0484 -0.2241  0.9652
  884MPD2    H312967   0.778   2.694  15.589 -2.9947 -2.7181 -1.6815
  884MPD2     N12968   0.490   2.994  15.389  0.0802  0.3028  0.8429
  884MPD2    H512969   0.485   3.063  15.315  1.8346  0.2079  0.6532
  884MPD2    N112970   0.947   2.951  15.247 -0.8127 -0.0577  0.2331
  884MPD2    H712971   0.918   3.019  15.177 -0.5599 -0.5327 -0.3325
  885MPD2     C12972   3.439   2.508  17.382 -0.2019 -0.6373 -0.4377
  885MPD2    C112973   3.569   2.555  17.389 -0.6299 -0.7078  0.7448
  885MPD2    C212974   3.622   2.643  17.293 -0.0936  0.0810 -0.1524
  885MPD2    C312975   3.540   2.697  17.193 -0.1112 -0.5634 -0.4131
  885MPD2    C412976   3.411   2.650  17.187  0.6536 -0.3325  0.0990
  885MPD2    C512977   3.365   2.553  17.275 -0.1935 -0.6437  0.1355
  885MPD2     H12978   3.723   2.680  17.303  0.5665 -1.1602 -2.1352
  885MPD2    H112979   3.349   2.669  17.100  1.3570  0.9901 -0.1051
  885MPD2    H212980   3.394   2.429  17.440 -1.8613  2.0078  1.8681
  885MPD2    H312981   3.270   2.509  17.247 -0.7599 -0.5083  1.8294
  885MPD2     N12982   3.598   2.783  17.099  0.0005 -0.4990  0.6050
  885MPD2    H512983   3.696   2.801  17.117 -0.6870  1.0252  2.8398
  885MPD2    N112984   3.650   2.488  17.485 -0.1114  0.1840 -0.1754
  885MPD2    H712985   3.609   2.412  17.539 -0.9251  1.2382  0.6994
  886MPD2     C12986   0.240   1.341  15.288 -0.1407 -0.0277  0.3372
  886MPD2    C112987   0.356   1.375  15.351 -0.0535  0.5626 -0.1652
  886MPD2    C212988   0.387   1.515  15.365 -0.3326  0.5208 -0.3043
  886MPD2    C312989   0.308   1.609  15.311  0.2898  0.7710 -0.9256
  886MPD2    C412990   0.200   1.566  15.241  0.0436 -0.3143 -0.0698
  886MPD2    C512991   0.165   1.442  15.232  0.1180 -0.1698 -0.0366
  886MPD2     H12992   0.482   1.556  15.397 -0.7138  1.9483 -0.9728
  886MPD2    H112993   0.130   1.638  15.198 -2.1912 -1.5093  1.5263
  886MPD2    H212994   0.208   1.240  15.264  0.2098  0.1760 -0.9625
  886MPD2    H312995   0.069   1.415  15.191  0.3804 -1.3618  0.1277
  886MPD2     N12996   0.338   1.742  15.320 -0.3746 -0.5680 -0.6275
  886MPD2    H512997   0.291   1.812  15.264  2.2654  0.5337 -1.4782
  886MPD2    N112998   0.462   1.281  15.379  0.2832  0.7811 -0.0305
  886MPD2    H712999   0.553   1.309  15.412  2.1987 -2.0847 -2.8309
  887MPD2     C13000   1.099   1.374  15.307 -0.0045  0.5181 -0.0899
  887MPD2    C113001   0.997   1.366  15.406 -0.6330  0.3509  0.6066
  887MPD2    C213002   0.982   1.472  15.489  0.6142  0.0686 -0.5380
  887MPD2    C313003   1.054   1.587  15.478  0.0154 -0.5864  0.2408
  887MPD2    C413004   1.154   1.597  15.382  0.5555 -0.5568 -0.1583
  887MPD2    C513005   1.172   1.492  15.300 -0.5031  0.1752 -0.4495
  887MPD2     H13006   0.902   1.474  15.562  1.5334  0.5611  0.4496
  887MPD2    H113007   1.226   1.678  15.376  1.5422 -1.3903  0.3656
  887MPD2    H213008   1.121   1.294  15.237  0.7871  1.1658 -0.5908
  887MPD2    H313009   1.250   1.491  15.225  0.5812  1.0463  0.6777
  887MPD2     N13010   1.032   1.685  15.574  0.1773  0.2336  0.1803
  887MPD2    H513011   0.970   1.659  15.649  0.9253 -0.4199  0.5777
  887MPD2    N113012   0.911   1.261  15.424  0.4705 -0.1789 -0.5720
  887MPD2    H713013   0.834   1.281  15.487  0.2450 -1.2887 -0.4976
  888MPD2     C13014   2.916   1.545  14.870  0.3927 -0.5438 -0.0423
  888MPD2    C113015   2.993   1.606  14.967  0.0111  0.4852  0.1333
  888MPD2    C213016   3.051   1.734  14.942 -0.1664  0.2298 -0.1567
  888MPD2    C313017   3.025   1.799  14.824  0.1918  0.1492  0.6403
  888MPD2    C413018   2.954   1.730  14.729  0.7220  0.0124 -0.3425
  888MPD2    C513019   2.895   1.605  14.750 -0.4727 -0.0222  0.3747
  888MPD2     H13020   3.104   1.783  15.023  0.2919 -1.4952  0.5886
  888MPD2    H113021   2.925   1.785  14.640 -2.1551  0.6293  0.9998
  888MPD2    H213022   2.876   1.445  14.882  1.0109 -0.9549 -1.3578
  888MPD2    H313023   2.843   1.546  14.675 -1.3174 -1.4712  2.1017
  888MPD2     N13024   3.065   1.930  14.810 -0.2865 -0.2698 -0.1609
  888MPD2    H513025   3.095   1.978  14.894  0.4020  1.5988 -1.4739
  888MPD2    N113026   3.031   1.546  15.091  0.4336 -0.4553  0.6651
  888MPD2    H713027   3.111   1.577  15.144  0.3077 -2.2194  1.8736
  889MPD2     C13028   1.912   1.363  12.521  0.6166  0.3554  0.3329
  889MPD2    C113029   2.014   1.366  12.605 -0.3159  0.5794  0.3921
  889MPD2    C213030   2.023   1.478  12.690 -0.2853 -0.4278 -0.3301
  889MPD2    C313031   1.944   1.585  12.667 -0.5573 -0.4937  0.4864
  889MPD2    C413032   1.840   1.578  12.577 -0.2251 -0.1004  1.4554
  889MPD2    C513033   1.823   1.466  12.508  0.3088  0.1785 -0.5605
  889MPD2     H13034   2.109   1.481  12.756  0.4058 -0.8090 -1.2316
  889MPD2    H113035   1.770   1.660  12.568 -0.8517 -0.7017  0.8113
  889MPD2    H213036   1.888   1.269  12.470 -2.6968 -0.1143  2.7208
  889MPD2    H313037   1.738   1.458  12.441  1.2901  1.7264 -1.9898
  889MPD2     N13038   1.971   1.698  12.751 -0.2155  0.1328  0.3053
  889MPD2    H513039   2.046   1.699  12.820  1.6522 -0.7855 -1.6850
  889MPD2    N113040   2.067   1.238  12.626 -0.1566 -0.1055  0.0738
  889MPD2    H713041   2.043   1.172  12.554  2.1547  0.2467 -1.0094
  890MPD2     C13042   1.244   2.839  14.775  0.4450  0.4609 -0.8598
  890MPD2    C113043   1.364   2.892  14.777  0.3079 -0.4725 -0.1031
  890MPD2    C213044   1.465   2.830  14.851 -0.2601  0.3251 -0.1464
  890MPD2    C313045   1.440   2.717  14.925 -0.4880 -0.2768  0.3599
  890MPD2    C413046   1.316   2.660  14.918  0.2586 -0.1478  0.6399
  890MPD2    C513047   1.221   2.720  14.838 -0.7066  0.2849  0.1510
  890MPD2     H13048   1.564   2.876  14.854  0.8891 -2.2962  2.3704
  890MPD2    H113049   1.285   2.561  14.949  0.6088 -0.6640 -0.6721
  890MPD2    H213050   1.162   2.895  14.731 -0.3864 -1.0823 -1.2606
  890MPD2    H313051   1.119   2.683  14.837 -0.5751 -0.0530 -0.7707
  890MPD2     N13052   1.542   2.678  15.012  0.0154 -0.0605 -0.5375
  890MPD2    H513053   1.619   2.744  15.012  0.6058 -0.7309 -1.4407
  890MPD2    N113054   1.382   3.022  14.727 -0.4245  0.2195  0.2220
  890MPD2    H713055   1.294   3.066  14.699 -1.0656 -0.2942  1.4113
  891MPD2     C13056   4.385   1.347  16.382  0.1703  0.0442 -0.3967
  891MPD2    C113057   4.344   1.355  16.510 -0.2569  0.3008  0.0426
  891MPD2    C213058   4.398   1.265  16.599  0.1105 -0.2046 -0.0432
  891MPD2    C313059   4.474   1.160  16.556  0.1357  0.7011  0.6158
  891MPD2    C413060   4.513   1.150  16.424 -0.6573  0.0126 -0.3464
  891MPD2    C513061   4.466   1.244  16.330  0.4171 -0.0321  0.2771
  891MPD2     H13062   4.377   1.270  16.705 -0.8148  0.2054 -0.2472
  891MPD2    H113063   4.557   1.064  16.376 -2.7316  0.1751 -2.5918
  891MPD2    H213064   4.334   1.408  16.308 -0.1287  1.0782  0.6544
  891MPD2    H313065   4.489   1.233  16.225  0.1504  1.1509  0.0875
  891MPD2     N13066   4.495   1.053  16.640 -0.0254  0.1886 -0.7795
  891MPD2    H513067   4.464   1.069  16.736 -2.9137 -2.9391 -1.2046
  891MPD2    N113068   4.247   1.456  16.544  0.6361  0.4893 -0.0868
  891MPD2    H713069   4.229   1.518  16.465 -2.7156 -2.1002 -1.3428
  892MPD2     C13070   0.913   2.518  14.968  0.2214  0.1171 -0.4565
  892MPD2    C113071   0.839   2.537  14.856 -0.3142  0.6276  0.4776
  892MPD2    C213072   0.887   2.489  14.737 -0.1808  0.0542  0.1594
  892MPD2    C313073   1.006   2.416  14.732 -0.5405 -0.7252 -0.8847
  892MPD2    C413074   1.075   2.387  14.847 -0.1387 -0.6018  0.4902
  892MPD2    C513075   1.027   2.439  14.964 -0.0776 -0.1372  0.4094
  892MPD2     H13076   0.821   2.500  14.651 -0.7275  0.3287  0.6135
  892MPD2    H113077   1.168   2.331  14.853  0.4422  0.3114 -0.0187
  892MPD2    H213078   0.874   2.547  15.065  1.5236  1.6527 -0.3926
  892MPD2    H313079   1.084   2.417  15.053 -3.0238 -1.3607  1.9929
  892MPD2     N13080   1.068   2.376  14.607  0.1247  0.4323 -0.1756
  892MPD2    H513081   1.153   2.321  14.619 -0.3212 -0.4006 -0.8921
  892MPD2    N113082   0.701   2.574  14.860 -0.2528 -0.0087  0.4519
  892MPD2    H713083   0.645   2.568  14.776 -2.0726 -0.8299  1.7170
  893MPD2     C13084   1.848   0.583   1.246 -0.1376  0.2491 -0.1788
  893MPD2    C113085   1.900   0.548   1.375 -0.2764  0.4033 -0.0424
  893MPD2    C213086   1.834   0.598   1.492 -0.5891 -0.1249  0.3901
  893MPD2    C313087   1.715   0.662   1.485  0.2674  0.1209  0.2279
  893MPD2    C413088   1.669   0.700   1.357  0.0315  0.8216 -0.5940
  893MPD2    C513089   1.739   0.664   1.245  0.3273  0.0615 -0.3147
  893MPD2     H13090   1.867   0.560   1.588 -0.0423  0.3452  0.3891
  893MPD2    H113091   1.578   0.758   1.354 -1.1124 -1.0352 -1.7641
  893MPD2    H213092   1.897   0.557   1.153 -0.3489 -0.3847 -0.1143
  893MPD2    H313093   1.696   0.692   1.150 -3.3042 -1.4048  0.9266
  893MPD2     N13094   1.636   0.696   1.598 -0.3119 -0.3716 -0.1278
  893MPD2    H513095   1.547   0.741   1.582  0.3761  0.4270 -1.7111
  893MPD2    N113096   2.018   0.467   1.376  0.0215 -0.0453 -0.2103
  893MPD2    H713097   2.053   0.434   1.287  2.4526 -3.3470  1.9555
  894MPD2     C13098   0.300   3.138   0.360  0.0420  0.3889  0.5133
  894MPD2    C113099   0.191   3.087   0.430  0.0734 -0.1471  0.3593
  894MPD2    C213100   0.166   3.142   0.553 -0.9457  0.9572 -0.4101
  894MPD2    C313101   0.244   3.250   0.600  0.4410  0.2454  0.0657
  894MPD2    C413102   0.350   3.302   0.527  0.1175  0.2726  0.4486
  894MPD2    C513103   0.374   3.243   0.404  0.2058 -0.4042 -0.2793
  894MPD2     H13104   0.080   3.119   0.615 -1.6447  0.8401 -1.4252
  894MPD2    H113105   0.411   3.387   0.555 -0.0897  0.6534 -0.2769
  894MPD2    H213106   0.320   3.103   0.260  0.9710 -1.9601  1.5158
  894MPD2    H313107   0.455   3.271   0.337 -0.2062  2.3902  0.4241
  894MPD2     N13108   0.209   3.306   0.725 -0.8456  0.6312  0.5788
  894MPD2    H513109   0.139   3.253   0.776 -0.0255 -1.0480 -0.0116
  894MPD2    N113110   0.108   2.982   0.391  0.9305  0.4433 -0.0289
  894MPD2    H713111   0.046   2.949   0.464  2.4329 -2.2958  0.0256
  895MPD2     C13112   0.103   1.265  13.391 -0.1105 -0.0942 -0.0840
  895MPD2    C113113   0.138   1.332  13.276 -0.6009 -0.1921  0.3970
  895MPD2    C213114   0.198   1.261  13.177  0.2351  0.3334  0.0418
  895MPD2    C313115   0.211   1.120  13.178 -0.7376  0.1795  0.0610
  895MPD2    C413116   0.167   1.057  13.296 -0.3833  0.1380  0.0270
  895MPD2    C513117   0.111   1.129  13.399 -0.3677  0.3023  0.6382
  895MPD2     H13118   0.218   1.316  13.086 -1.7898  0.3449 -0.3906
  895MPD2    H113119   0.167   0.948  13.301  1.6585  0.0605 -2.0051
  895MPD2    H213120   0.065   1.312  13.481  1.7165  1.8610 -0.3232
  895MPD2    H313121   0.079   1.077  13.488 -1.5187  0.8324  0.5344
  895MPD2     N13122   0.254   1.040  13.066 -0.6826 -0.5682  0.2231
  895MPD2    H513123   0.260   0.940  13.085 -2.6188 -0.5203  1.1322
  895MPD2    N113124   0.110   1.466  13.248 -0.1389  0.2826  0.3614
  895MPD2    H713125   0.128   1.497  13.153  3.1935  0.8748  1.2029
  896MPD2     C13126   1.172   3.676   1.386  1.1102  0.3594 -0.5582
  896MPD2    C113127   1.263   3.573   1.349  0.0353 -1.0080  0.7764
  896MPD2    C213128   1.224   3.474   1.261  0.6016  0.1420  0.1108
  896MPD2    C313129   1.090   3.472   1.213 -0.4164  0.2396  0.4165
  896MPD2    C413130   1.002   3.563   1.262 -0.0479 -0.2130 -0.4312
  896MPD2    C513131   1.044   3.656   1.352 -0.8232  0.1086  0.2339
  896MPD2     H13132   1.292   3.398   1.225  0.1583 -0.1942 -0.0123
  896MPD2    H113133   0.895   3.559   1.243  0.3578 -0.9353 -2.5071
  896MPD2    H213134   1.187   3.764   1.446 -3.9146  0.8819 -0.0643
  896MPD2    H313135   0.972   3.727   1.392 -0.0769  0.2694  1.2955
  896MPD2     N13136   1.060   3.375   1.108  0.0791 -0.1979  0.4216
  896MPD2    H513137   1.130   3.305   1.085 -2.3424 -3.0239  1.7173
  896MPD2    N113138   1.401   3.588   1.383  0.0019  0.1788 -0.3371
  896MPD2    H713139   1.434   3.665   1.440 -0.6290 -0.1335  0.4533
  897MPD2     C13140   3.654   0.914  10.311 -0.0358 -0.8350 -0.0978
  897MPD2    C113141   3.630   1.047  10.323  0.9574 -0.3496 -0.2461
  897MPD2    C213142   3.547   1.090  10.427  0.5340  0.1330  0.4166
  897MPD2    C313143   3.469   0.994  10.499 -0.0523  0.9201 -1.2054
  897MPD2    C413144   3.490   0.857  10.473  0.0055 -0.3547  0.1946
  897MPD2    C513145   3.591   0.820  10.391 -0.3166 -0.5102  0.5096
  897MPD2     H13146   3.519   1.195  10.438 -1.4036 -0.6023  2.4407
  897MPD2    H113147   3.433   0.776  10.518  0.6683 -1.3391 -0.7681
  897MPD2    H213148   3.720   0.866  10.240 -0.1330  0.6098 -1.1652
  897MPD2    H313149   3.616   0.715  10.382 -0.8797 -0.6389  0.4476
  897MPD2     N13150   3.391   1.034  10.603 -0.2219  0.4533 -0.2064
  897MPD2    H513151   3.381   1.135  10.615 -0.2571  0.3546  0.5857
  897MPD2    N113152   3.708   1.134  10.241 -0.0999 -0.6199 -0.6100
  897MPD2    H713153   3.759   1.095  10.163 -0.5628 -1.2098 -0.6208
  898MPD2     C13154   0.362   1.995  17.130 -0.8989 -0.0310 -0.3297
  898MPD2    C113155   0.434   2.106  17.095  0.4674 -0.0104 -0.1103
  898MPD2    C213156   0.358   2.216  17.053  0.0568 -0.2503  0.0966
  898MPD2    C313157   0.222   2.216  17.040 -0.2010  0.3348  0.3349
  898MPD2    C413158   0.154   2.106  17.078 -0.0779 -0.6378 -0.3153
  898MPD2    C513159   0.228   2.003  17.126 -0.0032  0.4798  0.9005
  898MPD2     H13160   0.421   2.300  17.023 -0.8919  0.7509  0.9182
  898MPD2    H113161   0.047   2.095  17.065  0.0321 -0.0263 -1.7623
  898MPD2    H213162   0.404   1.903  17.167 -2.2330 -0.4371  0.1849
  898MPD2    H313163   0.180   1.912  17.161 -0.5960  0.0405 -1.0331
  898MPD2     N13164   0.161   2.335  16.997 -0.8079 -0.1837 -0.1327
  898MPD2    H513165   0.216   2.412  16.962  2.5893 -1.4570  2.4484
  898MPD2    N113166   0.576   2.107  17.094 -0.2263  0.2475  0.3409
  898MPD2    H713167   0.618   2.195  17.065  0.1017  0.9545  2.9355
  899MPD2     C13168   0.784   2.415  17.324  0.9654  0.8454  0.6042
  899MPD2    C113169   0.883   2.483  17.384  0.4590 -0.4647 -0.1963
  899MPD2    C213170   0.903   2.467  17.523 -0.3683 -0.0580 -0.7910
  899MPD2    C313171   0.827   2.381  17.602  0.8519  0.4202  0.5597
  899MPD2    C413172   0.731   2.308  17.530 -0.6222  0.4806  0.5772
  899MPD2    C513173   0.706   2.327  17.398  0.2036 -0.5668  0.4350
  899MPD2     H13174   0.983   2.525  17.566  0.7465 -0.7580 -1.8995
  899MPD2    H113175   0.675   2.234  17.585  1.9664 -1.3934  0.6885
  899MPD2    H213176   0.752   2.436  17.223  0.6775 -1.9082  0.1225
  899MPD2    H313177   0.627   2.273  17.350  0.5595 -0.7855  0.0973
  899MPD2     N13178   0.838   2.367   0.052  0.1519  0.0221 -0.0955
  899MPD2    H513179   0.774   2.312   0.110  0.1420 -1.7691 -1.7918
  899MPD2    N113180   0.962   2.575  17.309 -0.1037 -0.6153  0.4657
  899MPD2    H713181   0.927   2.604  17.219 -1.3810  0.1104  1.2007
  900MPD2     C13182   1.394   4.531  11.987 -0.1428 -0.3080 -0.1875
  900MPD2    C113183   1.314   4.422  12.006 -1.0719  0.3664  0.0853
  900MPD2    C213184   1.173   4.445  12.013  0.1377 -0.1437 -0.6823
  900MPD2    C313185   1.113   4.574  12.016  0.0208 -0.2218 -0.0559
  900MPD2    C413186   1.199   4.683  12.000  0.0338  0.4784  0.6855
  900MPD2    C513187   1.336   4.660  12.000 -0.3375  0.2990 -0.2225
  900MPD2     H13188   1.107   4.362  12.034  0.1935  0.0076  0.0975
  900MPD2    H113189   1.163   0.061  12.016  0.2494  0.4290  1.5031
  900MPD2    H213190   1.502   4.535  11.978 -0.3333  0.3008 -2.1287
  900MPD2    H313191   1.406   0.019  12.014 -1.7178  1.0965  2.1185
  900MPD2     N13192   0.973   4.579  12.019 -0.3343 -0.6463  0.5940
  900MPD2    H513193   0.922   4.491  12.023 -1.9627  0.2237 -0.7448
  900MPD2    N113194   1.372   4.292  12.006 -0.0847 -0.2350  0.5116
  900MPD2    H713195   1.473   4.291  11.994 -0.0198  0.8251  0.9495
  901MPD2     C13196   1.298   3.207  11.874 -0.2608 -0.2989 -0.6774
  901MPD2    C113197   1.393   3.218  11.974  0.1573  0.0043  0.3118
  901MPD2    C213198   1.441   3.341  12.005  0.1126 -0.1668 -0.3274
  901MPD2    C313199   1.389   3.456  11.962  0.5253 -0.0067  0.1522
  901MPD2    C413200   1.285   3.443  11.873 -0.0406  0.4632  0.2651
  901MPD2    C513201   1.256   3.327  11.815  0.2505  0.1731  0.0356
  901MPD2     H13202   1.510   3.341  12.090 -0.6840  1.2536  0.3205
  901MPD2    H113203   1.242   3.531  11.827  0.0575  0.1934 -0.3461
  901MPD2    H213204   1.259   3.111  11.841 -0.5873 -0.5559  0.4287
  901MPD2    H313205   1.194   3.317  11.726 -0.9468  2.0348  0.6693
  901MPD2     N13206   1.441   3.588  11.999 -0.2828 -0.4457  0.1324
  901MPD2    H513207   1.526   3.603  12.053 -0.5911  0.9492  0.2432
  901MPD2    N113208   1.438   3.093  12.021  0.4946  0.8864 -0.4095
  901MPD2    H713209   1.391   3.016  11.974  2.5795 -1.2136  1.0041
  902MPD2     C13210   0.122   2.605  12.977  0.2077  0.3332 -0.5012
  902MPD2    C113211   0.127   2.492  12.893 -0.4510  0.8937  1.0996
  902MPD2    C213212   0.246   2.438  12.852 -0.9147 -0.4046 -0.0053
  902MPD2    C313213   0.363   2.511  12.873  0.3793  0.4581 -0.0827
  902MPD2    C413214   0.352   2.617  12.960  0.1309  0.0780  1.6883
  902MPD2    C513215   0.235   2.662  13.018  0.3161  0.1163  0.1480
  902MPD2     H13216   0.247   2.345  12.795  0.6037  0.0145 -0.6634
  902MPD2    H113217   0.431   2.687  12.984 -0.0223  0.1404  2.0070
  902MPD2    H213218   0.027   2.654  12.996 -0.6885 -1.5167 -0.1924
  902MPD2    H313219   0.227   2.747  13.085  0.6228 -0.2006  0.5847
  902MPD2     N13220   0.478   2.484  12.792 -0.2868 -0.7037  0.2271
  902MPD2    H513221   0.492   2.387  12.767 -1.3918 -0.6105 -0.7355
  902MPD2    N113222   0.000   2.439  12.857 -0.2672  0.2617  0.1177
  902MPD2    H713223   4.638   2.483  12.891 -0.6549 -0.6282  0.3025
  903MPD2     C13224   0.342   2.761  12.172  0.1357  0.0151 -0.0476
  903MPD2    C113225   0.384   2.630  12.179 -0.8390 -0.0268 -0.1848
  903MPD2    C213226   0.337   2.539  12.083 -0.0203  0.7703 -0.2585
  903MPD2    C313227   0.240   2.568  11.988 -0.1269 -0.5284  0.9964
  903MPD2    C413228   0.181   2.691  12.003 -0.7451 -0.8770 -0.5304
  903MPD2    C513229   0.243   2.787  12.089  0.4995 -0.0926 -0.2125
  903MPD2     H13230   0.384   2.441  12.074  0.5833  1.0681 -0.3235
  903MPD2    H113231   0.093   2.719  11.946 -0.4095 -0.0110 -0.6282
  903MPD2    H213232   0.368   2.832  12.249  0.2913 -0.2140  0.1135
  903MPD2    H313233   0.190   2.881  12.104  0.7475 -0.0554  0.4333
  903MPD2     N13234   0.208   2.469  11.897 -0.0863 -0.3318  0.4136
  903MPD2    H513235   0.243   2.375  11.908  1.0282  0.0496  0.0626
  903MPD2    N113236   0.476   2.595  12.281 -0.3215  0.4472  1.0855
  903MPD2    H713237   0.494   2.669  12.348  1.4048  2.1146 -1.1926
  904MPD2     C13238   4.717   0.911  13.961  0.5841 -0.5626 -0.7123
  904MPD2    C113239   0.029   1.035  13.908 -0.2773 -0.6648  0.1563
  904MPD2    C213240   0.143   1.098  13.961 -0.0698 -0.3957  0.2743
  904MPD2    C313241   0.212   1.045  14.064  1.1199 -0.0664 -0.0196
  904MPD2    C413242   0.176   0.926  14.125  0.1612 -0.2474 -0.2098
  904MPD2    C513243   0.071   0.858  14.067  0.2788 -0.0032  0.0211
  904MPD2     H13244   0.175   1.191  13.915  2.5872 -1.1644  0.5727
  904MPD2    H113245   0.218   0.894  14.220  0.4779  0.8976  0.0308
  904MPD2    H213246   4.630   0.855  13.930 -0.1585  0.4104 -0.3731
  904MPD2    H313247   0.029   0.766  14.105  0.9823 -0.4173 -0.2169
  904MPD2     N13248   0.334   1.110  14.100  0.5399 -0.4818 -0.2338
  904MPD2    H513249   0.348   1.199  14.053 -0.0149  0.2874  1.0344
  904MPD2    N113250   4.684   1.090  13.793 -0.3392  0.1832 -0.1344
  904MPD2    H713251   4.703   1.187  13.768  0.1738  0.0700 -0.1763
  905MPD2     C13252   4.546   1.403  13.088  0.1405  0.6106  0.1715
  905MPD2    C113253   4.559   1.274  13.118 -0.5035  0.0987  0.1919
  905MPD2    C213254   4.619   1.187  13.034 -0.0182 -0.5596 -0.2204
  905MPD2    C313255   4.650   1.229  12.902 -0.1624 -0.6798  0.2984
  905MPD2    C413256   4.641   1.360  12.864 -0.3202 -0.3434 -0.4315
  905MPD2    C513257   4.589   1.444  12.961  0.1187 -0.2178  0.3936
  905MPD2     H13258   4.626   1.083  13.062  0.6048 -0.1664  1.1213
  905MPD2    H113259   4.658   1.399  12.764 -0.2949  1.2952  0.2151
  905MPD2    H213260   4.507   1.475  13.159 -1.3075  1.2264 -1.2556
  905MPD2    H313261   4.586   1.547  12.930  1.7471 -0.5540 -0.8356
  905MPD2     N13262   4.698   1.141  12.792  0.7391  0.0422 -0.2080
  905MPD2    H513263   0.001   1.183  12.703 -1.5176  1.3804 -0.2239
  905MPD2    N113264   4.512   1.239  13.253  0.2839  0.8331 -0.6232
  905MPD2    H713265   4.488   1.323  13.305 -0.2724  0.6074 -0.5218
  906MPD2     C13266   2.142   1.557  11.314  0.8287 -0.0393  0.3910
  906MPD2    C113267   2.145   1.493  11.188  0.0699 -0.2430  0.5808
  906MPD2    C213268   2.122   1.357  11.181  0.1971  0.5203 -0.4215
  906MPD2    C313269   2.089   1.285  11.293 -0.2135 -0.9954  0.1910
  906MPD2    C413270   2.102   1.338  11.421 -0.3950  0.1999  0.8216
  906MPD2    C513271   2.123   1.477  11.427 -0.3075 -0.7930 -0.0208
  906MPD2     H13272   2.133   1.320  11.080  0.5208 -0.4266 -0.0337
  906MPD2    H113273   2.091   1.280  11.512 -2.0309 -0.8363 -0.0159
  906MPD2    H213274   2.164   1.663  11.319  1.9235 -0.3272  1.5459
  906MPD2    H313275   2.129   1.525  11.524  0.2692  0.1230 -0.5093
  906MPD2     N13276   2.055   1.150  11.289  0.0977 -0.1060 -0.2845
  906MPD2    H513277   2.042   1.094  11.372  0.7324 -1.5157 -1.1250
  906MPD2    N113278   2.176   1.553  11.062  0.2313  0.0526 -0.6732
  906MPD2    H713279   2.139   1.499  10.984 -1.8318  1.5184 -0.7165
  907MPD2     C13280   0.333   0.086  15.361  0.1774  0.4311 -0.4299
  907MPD2    C113281   0.446   0.011  15.375  0.1164  0.0662 -0.2684
  907MPD2    C213282   0.500   4.722  15.502 -0.1770 -0.1178  0.0981
  907MPD2    C313283   0.433   0.052  15.617 -0.4477 -0.2560 -0.5209
  907MPD2    C413284   0.315   0.110  15.596  1.0285 -0.1258 -0.2264
  907MPD2    C513285   0.269   0.141  15.473  0.1042  0.7957  0.1849
  907MPD2     H13286   0.592   4.666  15.514 -1.4048 -1.7940  1.6987
  907MPD2    H113287   0.250   0.142  15.677 -0.7037 -3.4443 -0.3029
  907MPD2    H213288   0.290   0.096  15.262 -0.1457 -1.1163 -0.4445
  907MPD2    H313289   0.169   0.183  15.461 -1.1723 -2.0390  0.8033
  907MPD2     N13290   0.487   0.034  15.745  0.1276 -0.1104  0.3407
  907MPD2    H513291   0.581   4.719  15.745  0.7788  1.4834  0.3664
  907MPD2    N113292   0.509   4.655  15.274  0.0982  0.5321 -1.0541
  907MPD2    H713293   0.574   4.588  15.314  2.1278  2.7547 -0.6391
  908MPD2     C13294   3.690   0.897   9.463  0.2072  0.1397 -0.6573
  908MPD2    C113295   3.676   0.862   9.595 -0.8960 -0.5311 -0.1683
  908MPD2    C213296   3.696   0.957   9.690 -0.7234 -0.0684  0.2037
  908MPD2    C313297   3.736   1.080   9.664  0.1972 -0.1441 -0.0381
  908MPD2    C413298   3.749   1.120   9.535  0.4006  0.0160 -0.9362
  908MPD2    C513299   3.729   1.027   9.437 -0.8268 -0.2346  0.4735
  908MPD2     H13300   3.690   0.924   9.793 -2.3443  0.8030  0.3872
  908MPD2    H113301   3.778   1.220   9.506 -0.4314  0.9725  1.5479
  908MPD2    H213302   3.678   0.836   9.375 -0.9956 -0.8271  0.1809
  908MPD2    H313303   3.746   1.059   9.334 -1.8559  0.8908  0.6471
  908MPD2     N13304   3.760   1.166   9.774  0.0264 -0.4047  0.6113
  908MPD2    H513305   3.734   1.123   9.862  1.1609 -0.9996  0.6593
  908MPD2    N113306   3.647   0.737   9.645  0.3804 -0.1106 -0.0537
  908MPD2    H713307   3.648   0.725   9.746  1.4737  0.9433  0.0496
  909MPD2     C13308   3.921   4.015  11.572 -0.5842 -0.1152 -0.2071
  909MPD2    C113309   3.880   4.139  11.528  0.5146  0.3060 -0.6574
  909MPD2    C213310   3.783   4.212  11.604 -0.3566 -0.0027  0.5553
  909MPD2    C313311   3.727   4.157  11.716 -0.3925  0.5672  0.5437
  909MPD2    C413312   3.775   4.042  11.769 -0.4824 -0.3305 -0.1319
  909MPD2    C513313   3.868   3.976  11.695  0.1286  0.3372  0.0245
  909MPD2     H13314   3.758   4.315  11.583 -2.6893 -0.4965  0.9737
  909MPD2    H113315   3.749   4.005  11.867  1.6267 -0.1816  0.4848
  909MPD2    H213316   3.991   3.944  11.528  1.1172  1.4422 -0.0416
  909MPD2    H313317   3.901   3.883  11.741  1.0143  0.4157 -0.4482
  909MPD2     N13318   3.635   4.238  11.785  0.6892 -0.3693 -0.7779
  909MPD2    H513319   3.598   4.323  11.742 -1.1058 -1.3175 -1.1199
  909MPD2    N113320   3.930   4.198  11.411 -0.5849 -0.4956 -0.5215
  909MPD2    H713321   3.892   4.290  11.390 -0.1966 -0.5669 -1.5101
  910MPD2     C13322   0.014   0.582  15.461  0.1049 -0.4263 -0.6717
  910MPD2    C113323   0.125   0.661  15.502 -0.2567  0.3785 -0.0961
  910MPD2    C213324   0.194   0.729  15.407  1.1852 -0.0544 -0.1697
  910MPD2    C313325   0.136   0.740  15.279 -0.3457 -0.0698 -0.8179
  910MPD2    C413326   0.018   0.680  15.243 -0.5941  0.1360  0.4441
  910MPD2    C513327   4.691   0.597  15.334 -0.3289 -0.7246 -0.1721
  910MPD2     H13328   0.286   0.777  15.439  2.2222 -1.9785 -0.2529
  910MPD2    H113329   4.702   0.677  15.142 -1.2750  0.0041  0.7065
  910MPD2    H213330   4.693   0.498  15.513 -1.7482  1.5011  0.8892
  910MPD2    H313331   4.607   0.537  15.302 -1.7907 -0.2930  2.8242
  910MPD2     N13332   0.198   0.812  15.177 -0.0034 -0.4013  0.5585
  910MPD2    H513333   0.139   0.860  15.110 -2.1818 -0.4129  2.4532
  910MPD2    N113334   0.173   0.679  15.632 -0.0575 -0.2675  0.2406
  910MPD2    H713335   0.251   0.743  15.639 -0.6797  0.6747 -1.3946
  911MPD2     C13336   2.423   1.069  16.255  0.0247 -0.0610  0.8453
  911MPD2    C113337   2.498   1.146  16.341 -0.0728 -0.0923  0.2340
  911MPD2    C213338   2.440   1.259  16.382  0.4909  0.0324 -0.8069
  911MPD2    C313339   2.320   1.300  16.327 -0.6142  0.2261  0.4862
  911MPD2    C413340   2.247   1.217  16.246 -0.0015 -0.1093  0.3983
  911MPD2    C513341   2.300   1.101  16.207 -0.1264  0.2318 -0.5261
  911MPD2     H13342   2.495   1.320  16.453  0.2742 -0.0476 -0.5728
  911MPD2    H113343   2.163   1.238  16.181  1.0818 -1.0356 -1.3214
  911MPD2    H213344   2.461   0.974  16.219 -0.2225  0.1109  0.1253
  911MPD2    H313345   2.245   1.045  16.132  2.5082 -2.7870 -0.2152
  911MPD2     N13346   2.266   1.435  16.343  0.4857 -0.2446  0.0499
  911MPD2    H513347   2.177   1.455  16.298  0.4162 -0.2767  0.1715
  911MPD2    N113348   2.631   1.103  16.372  0.1336  0.0506  0.0616
  911MPD2    H713349   2.665   1.012  16.345 -0.2212  0.0853 -0.5011
  912MPD2     C13350   2.195   1.590  15.765  0.3602 -0.0080 -0.4643
  912MPD2    C113351   2.114   1.543  15.867 -0.4238 -0.4419 -0.2752
  912MPD2    C213352   2.069   1.413  15.865  0.3367 -0.1176 -0.2138
  912MPD2    C313353   2.108   1.329  15.764 -0.4764 -1.1986  0.0068
  912MPD2    C413354   2.187   1.377  15.664  0.0471  0.1696  0.0019
  912MPD2    C513355   2.241   1.504  15.665 -0.3450 -0.0868  0.0748
  912MPD2     H13356   2.009   1.372  15.945  0.8438 -0.5434 -0.0537
  912MPD2    H113357   2.221   1.307  15.588  0.5253 -1.3554  1.6143
  912MPD2    H213358   2.242   1.685  15.787  1.5581 -0.5179 -0.8279
  912MPD2    H313359   2.312   1.537  15.590  0.9873 -1.4586  0.7480
  912MPD2     N13360   2.066   1.197  15.781  0.9099 -0.6986  0.6052
  912MPD2    H513361   2.016   1.188  15.869 -0.0182  1.2058  0.2782
  912MPD2    N113362   2.104   1.634  15.977  0.5111 -1.0468  0.2274
  912MPD2    H713363   2.145   1.726  15.962  1.6543 -1.3371  1.5988
  913MPD2     C13364   3.273   2.677  10.057 -0.1410 -0.8895 -1.0894
  913MPD2    C113365   3.338   2.781   9.996  0.8458  0.2897  0.5838
  913MPD2    C213366   3.268   2.851   9.895  0.2001 -0.0628  0.0135
  913MPD2    C313367   3.155   2.799   9.844 -0.5232 -0.1929  0.1413
  913MPD2    C413368   3.095   2.693   9.905  0.4880 -0.6904 -0.5071
  913MPD2    C513369   3.154   2.637  10.018 -0.3691 -0.2905 -0.1673
  913MPD2     H13370   3.314   2.940   9.854  0.0308 -0.6183 -1.3739
  913MPD2    H113371   3.004   2.656   9.861 -0.3733 -0.1495  0.8182
  913MPD2    H213372   3.319   2.621  10.138  3.8694  1.4081 -1.7830
  913MPD2    H313373   3.101   2.558  10.069  0.1241 -1.0327 -0.7965
  913MPD2     N13374   3.093   2.852   9.731 -0.8777 -0.0450  0.2824
  913MPD2    H513375   3.011   2.802   9.697 -0.5053 -0.1224 -0.4974
  913MPD2    N113376   3.464   2.821  10.054  0.5187 -0.5322 -0.2857
  913MPD2    H713377   3.507   2.757  10.119 -0.5311 -1.7060 -0.7630
  914MPD2     C13378   0.894   2.689  11.768  0.8564 -0.4797  0.0627
  914MPD2    C113379   0.955   2.817  11.770 -0.1148 -0.0066 -0.5236
  914MPD2    C213380   1.058   2.850  11.857 -0.0356  0.1856  0.2337
  914MPD2    C313381   1.101   2.744  11.945  0.4745  0.3250  0.6043
  914MPD2    C413382   1.033   2.624  11.946 -0.1142  0.8673 -0.1096
  914MPD2    C513383   0.938   2.591  11.851  0.1051  0.8205 -0.4124
  914MPD2     H13384   1.116   2.941  11.856  0.6612 -0.2555  0.4566
  914MPD2    H113385   1.059   2.541  12.010  2.7661  2.0900  0.3018
  914MPD2    H213386   0.838   2.664  11.678 -2.9595 -0.8099  2.5436
  914MPD2    H313387   0.898   2.491  11.848  0.9166  0.4496  0.8687
  914MPD2     N13388   1.209   2.772  12.028 -0.2560 -0.1278  0.3241
  914MPD2    H513389   1.247   2.867  12.025  1.4274 -0.7760  1.2635
  914MPD2    N113390   0.919   2.912  11.674 -0.0851  0.2760 -0.6841
  914MPD2    H713391   0.854   2.879  11.604  0.7064  0.0545 -1.3184
  915MPD2     C13392   3.497   2.106  15.446  0.5996  0.2712 -0.0911
  915MPD2    C113393   3.547   2.224  15.389  0.2795 -0.5803 -0.6890
  915MPD2    C213394   3.544   2.341  15.469  0.7179  1.4453  0.6227
  915MPD2    C313395   3.486   2.337  15.593  0.0655 -0.1598  0.0483
  915MPD2    C413396   3.427   2.219  15.637 -0.3183 -0.0373  0.4457
  915MPD2    C513397   3.432   2.103  15.562 -0.0292 -0.3053  0.7530
  915MPD2     H13398   3.590   2.432  15.432 -1.2916  1.6055 -1.5178
  915MPD2    H113399   3.376   2.224  15.732 -0.4685 -0.8217  0.4076
  915MPD2    H213400   3.499   2.014  15.389  1.2091 -0.3763  0.9693
  915MPD2    H313401   3.376   2.014  15.589  0.3038 -0.3397  1.3336
  915MPD2     N13402   3.469   2.439  15.684  0.1918  0.6011  0.2001
  915MPD2    H513403   3.445   2.415  15.779 -1.5559  0.0171 -0.3858
  915MPD2    N113404   3.599   2.210  15.263 -0.0805  0.2351 -0.1477
  915MPD2    H713405   3.600   2.119  15.219 -0.6713  0.4936 -0.6902
  916MPD2     C13406   1.794   1.347  15.631 -0.2315  0.5291  0.0845
  916MPD2    C113407   1.708   1.265  15.704  0.5316  0.0986 -0.0896
  916MPD2    C213408   1.672   1.147  15.645 -0.3742 -0.0325 -0.2263
  916MPD2    C313409   1.727   1.101  15.525 -0.4020 -0.3266 -0.1711
  916MPD2    C413410   1.813   1.183  15.450  0.0066  0.0301 -0.4746
  916MPD2    C513411   1.841   1.304  15.508 -0.1224 -0.2300 -0.7855
  916MPD2     H13412   1.604   1.080  15.697  0.2183 -0.2069  0.3201
  916MPD2    H113413   1.861   1.155  15.357 -0.9283 -0.0750 -0.9266
  916MPD2    H213414   1.806   1.450  15.663 -0.5635  0.2398  1.1428
  916MPD2    H313415   1.901   1.373  15.450 -0.9330 -0.3627 -1.7829
  916MPD2     N13416   1.687   0.974  15.485  0.1239  0.7859 -0.1300
  916MPD2    H513417   1.642   0.909  15.549  0.2677  1.9248  1.1270
  916MPD2    N113418   1.657   1.314  15.819 -0.2760  0.4261  0.3203
  916MPD2    H713419   1.685   1.409  15.842  0.6971  0.5043 -1.2260
  917MPD2     C13420   2.610   3.543  10.521 -0.6130 -0.3809  0.3055
  917MPD2    C113421   2.654   3.617  10.630 -1.4445 -0.6102 -0.7272
  917MPD2    C213422   2.725   3.732  10.608  0.2957  0.8591  0.2435
  917MPD2    C313423   2.739   3.797  10.486  0.0917 -0.3550  0.0937
  917MPD2    C413424   2.688   3.724  10.379 -0.8327  0.6251  0.2915
  917MPD2    C513425   2.637   3.600  10.400  0.7253  0.4604  0.0842
  917MPD2     H13426   2.758   3.781  10.698  2.2409 -2.0845  1.1528
  917MPD2    H113427   2.691   3.768  10.280 -0.0618  1.5170  0.7123
  917MPD2    H213428   2.556   3.450  10.530  0.1338 -0.8600 -0.1835
  917MPD2    H313429   2.614   3.537  10.315  0.4501 -1.4046  1.5423
  917MPD2     N13430   2.797   3.918  10.467 -0.1525 -0.1102 -0.5640
  917MPD2    H513431   2.796   3.954  10.372 -1.5589 -2.7008 -1.5299
  917MPD2    N113432   2.615   3.575  10.764 -0.0345  0.7265 -0.5717
  917MPD2    H713433   2.566   3.488  10.780 -1.2476  1.5393  0.1016
  918MPD2     C13434   2.917   4.054  11.587  0.2436  0.0694 -0.2954
  918MPD2    C113435   2.978   3.932  11.561 -0.4301  0.2581  0.3315
  918MPD2    C213436   2.907   3.834  11.494 -0.8452  0.2950  0.0537
  918MPD2    C313437   2.779   3.855  11.446  0.2470 -0.0946 -0.2895
  918MPD2    C413438   2.717   3.977  11.477  0.4039  0.0571 -0.5448
  918MPD2    C513439   2.780   4.072  11.549 -0.8198 -0.2934  0.1821
  918MPD2     H13440   2.946   3.736  11.469 -3.8627 -1.2638  1.3699
  918MPD2    H113441   2.613   3.988  11.450  0.0565  0.5396  1.0562
  918MPD2    H213442   2.966   4.135  11.640  0.4231  0.3467 -0.8849
  918MPD2    H313443   2.728   4.165  11.571 -0.4968 -0.2812  0.9194
  918MPD2     N13444   2.721   3.755  11.368  0.1508  0.0147 -0.2913
  918MPD2    H513445   2.780   3.678  11.337  2.5835  1.4064  0.9432
  918MPD2    N113446   3.112   3.894  11.603  0.0216 -0.3920 -0.5421
  918MPD2    H713447   3.142   3.801  11.576  3.2959 -0.0638  1.8628
  919MPD2     C13448   3.426   2.936  11.437  0.0926  0.7124  0.1991
  919MPD2    C113449   3.461   2.804  11.405  0.7202  0.3345 -0.6456
  919MPD2    C213450   3.501   2.773  11.280 -0.2293  0.0029 -0.0481
  919MPD2    C313451   3.477   2.862  11.173 -0.1206  0.3937 -0.2292
  919MPD2    C413452   3.440   2.993  11.204 -0.4433 -0.5386  0.0100
  919MPD2    C513453   3.426   3.023  11.336  0.2417 -0.2217 -0.4275
  919MPD2     H13454   3.524   2.668  11.266 -2.3622 -0.3125 -1.2737
  919MPD2    H113455   3.439   3.081  11.140 -0.7980  0.1407  0.9483
  919MPD2    H213456   3.421   2.977  11.537  0.9905 -1.5208  1.1601
  919MPD2    H313457   3.381   3.119  11.355 -1.3387 -1.3226  1.3800
  919MPD2     N13458   3.492   2.823  11.040  0.2377 -0.0040 -0.3344
  919MPD2    H513459   3.431   2.863  10.969  2.9733  1.9346 -1.5964
  919MPD2    N113460   3.464   2.700  11.499 -0.0908  0.2215 -0.1190
  919MPD2    H713461   3.488   2.608  11.464 -3.0015 -0.5074 -0.2417
  920MPD2     C13462   2.980   2.800  10.324  0.5899 -0.3326  0.2100
  920MPD2    C113463   3.018   2.668  10.348  0.4048  0.8677  0.9174
  920MPD2    C213464   3.149   2.642  10.396  0.2879 -0.1262 -0.0948
  920MPD2    C313465   3.230   2.747  10.439  0.4275  0.6329 -0.1188
  920MPD2    C413466   3.189   2.875  10.413  0.1372  0.3082  0.0166
  920MPD2    C513467   3.068   2.902  10.351 -0.2263  0.2696  0.7788
  920MPD2     H13468   3.176   2.540  10.420  1.7291  0.5574  1.1548
  920MPD2    H113469   3.241   2.967  10.441 -2.0976  1.2884  0.9858
  920MPD2    H213470   2.888   2.825  10.273 -0.5352  1.0311  2.8900
  920MPD2    H313471   3.047   3.006  10.329  0.6155  0.4240  0.7215
  920MPD2     N13472   3.356   2.712  10.495  0.6784 -0.2617 -0.2596
  920MPD2    H513473   3.383   2.614  10.496 -1.1034 -0.7393  1.9799
  920MPD2    N113474   2.934   2.563  10.327  0.0951 -0.7372  0.5233
  920MPD2    H713475   2.959   2.476  10.373 -0.8533 -0.3786  1.7253
  921MPD2     C13476   3.455   1.508  16.895  1.2381 -0.2782  0.0774
  921MPD2    C113477   3.480   1.441  16.777 -0.3789 -0.0955  0.5588
  921MPD2    C213478   3.376   1.367  16.715 -0.2401 -0.4262  0.0444
  921MPD2    C313479   3.251   1.358  16.775 -0.0064 -0.4005  0.3162
  921MPD2    C413480   3.228   1.437  16.889  0.1725 -0.4007 -0.1369
  921MPD2    C513481   3.325   1.519  16.945  0.2047  0.8884  0.6990
  921MPD2     H13482   3.405   1.304  16.632 -1.0234 -2.7222  1.5130
  921MPD2    H113483   3.136   1.424  16.945 -0.1144  0.5350 -0.3825
  921MPD2    H213484   3.526   1.579  16.937  1.2872 -1.1480  1.4515
  921MPD2    H313485   3.304   1.586  17.028  1.2055  0.1305  1.5564
  921MPD2     N13486   3.140   1.272  16.745 -0.0025 -0.2608 -0.8142
  921MPD2    H513487   3.050   1.269  16.791  0.2058  1.2086 -0.3161
  921MPD2    N113488   3.605   1.443  16.716  1.1330  0.1976 -0.4659
  921MPD2    H713489   3.616   1.415  16.619  0.5080  1.2537 -0.8469
  922MPD2     C13490   4.228   4.128  17.111 -0.6684  0.3885  0.9269
  922MPD2    C113491   4.124   4.088  17.185 -0.0479  0.3714  0.3689
  922MPD2    C213492   4.064   3.966  17.163 -0.2095  0.0358 -0.3382
  922MPD2    C313493   4.104   3.892  17.048 -0.4316 -0.2537 -1.0251
  922MPD2    C413494   4.199   3.938  16.965  0.1679  0.0889 -0.2108
  922MPD2    C513495   4.267   4.048  17.006 -0.2864 -0.0105 -0.7706
  922MPD2     H13496   3.987   3.927  17.228  2.2656 -3.2399  0.5927
  922MPD2    H113497   4.234   3.888  16.875  0.7299 -1.1741  0.7171
  922MPD2    H213498   4.288   4.216  17.129 -0.0587  0.2729 -0.4976
  922MPD2    H313499   4.352   4.075  16.943 -0.3547 -2.9906 -2.1354
  922MPD2     N13500   4.033   3.770  17.025 -0.0703  0.2616 -0.0373
  922MPD2    H513501   3.949   3.746  17.077  0.0291 -0.2316 -0.1041
  922MPD2    N113502   4.077   4.167  17.297 -0.3506  0.1775 -0.0507
  922MPD2    H713503   4.009   4.120  17.357 -0.3207 -0.7338 -0.7178
  923MPD2     C13504   1.480   2.060   9.156  0.1222 -0.0400  0.2895
  923MPD2    C113505   1.429   1.941   9.185 -0.3471  0.2245  0.6568
  923MPD2    C213506   1.515   1.831   9.183 -0.1693  0.4173  0.8945
  923MPD2    C313507   1.644   1.850   9.150 -0.5439 -0.3238  0.6351
  923MPD2    C413508   1.692   1.972   9.110  0.0961 -0.0448  0.8860
  923MPD2    C513509   1.609   2.077   9.111 -0.1647 -0.0852 -0.0077
  923MPD2     H13510   1.478   1.731   9.207 -1.7619  0.8195  0.1222
  923MPD2    H113511   1.794   1.998   9.084 -0.0430 -1.0641 -0.6451
  923MPD2    H213512   1.425   2.153   9.169 -0.7320 -0.5442  0.2456
  923MPD2    H313513   1.648   2.177   9.092  1.1490 -0.6276 -0.1607
  923MPD2     N13514   1.738   1.745   9.164 -0.2909 -0.7349 -0.7587
  923MPD2    H513515   1.836   1.767   9.149  0.0724 -1.1056  1.1091
  923MPD2    N113516   1.290   1.932   9.236  0.1018  0.1934  0.4663
  923MPD2    H713517   1.234   2.014   9.217 -0.9177 -0.5207  0.3370
  924MPD2     C13518   0.134   4.392  16.576  0.5856 -1.0032 -0.2946
  924MPD2    C113519   0.269   4.429  16.601 -0.1203  0.1742  0.6537
  924MPD2    C213520   0.353   4.441  16.495  0.4596  0.5346 -0.3252
  924MPD2    C313521   0.310   4.437  16.363 -0.1698 -0.2193 -0.7609
  924MPD2    C413522   0.181   4.400  16.341  0.7262 -0.6316  0.3722
  924MPD2    C513523   0.096   4.365  16.448 -0.0106 -0.4567 -0.3154
  924MPD2     H13524   0.454   4.475  16.515  0.6991 -0.4886  0.2386
  924MPD2    H113525   0.129   4.403  16.246 -1.1575  0.1509  1.4213
  924MPD2    H213526   0.067   4.382  16.660  0.4758  0.1866 -0.2395
  924MPD2    H313527   4.721   4.332  16.416 -1.7193  1.8551  2.5415
  924MPD2     N13528   0.381   4.481  16.250 -0.1207 -0.1748  0.7085
  924MPD2    H513529   0.332   4.460  16.163 -0.6023  0.1847  0.8893
  924MPD2    N113530   0.307   4.488  16.726  0.0569 -0.0067 -0.4490
  924MPD2    H713531   0.233   4.539  16.772 -0.7187 -1.1700 -0.4068
  925MPD2     C13532   4.542   2.007  14.793 -0.0117 -0.0031  0.4306
  925MPD2    C113533   4.510   1.904  14.712 -0.1410 -0.1723 -0.6028
  925MPD2    C213534   4.422   1.803  14.754 -0.4285  0.3372  0.1454
  925MPD2    C313535   4.355   1.828  14.878 -0.2281 -0.1165  0.3268
  925MPD2    C413536   4.392   1.932  14.960  0.7211 -0.1557  0.1683
  925MPD2    C513537   4.487   2.016  14.914 -0.3132 -0.7909  0.3770
  925MPD2     H13538   4.393   1.731  14.678 -0.9882 -0.8708  1.5111
  925MPD2    H113539   4.364   1.953  15.062  2.5644  1.1040  0.4156
  925MPD2    H213540   4.609   2.086  14.763 -0.1020  0.3462  1.1563
  925MPD2    H313541   4.522   2.089  14.986  0.1167 -0.3527 -0.2761
  925MPD2     N13542   4.262   1.742  14.935 -0.0385  0.2258 -0.0456
  925MPD2    H513543   4.223   1.756  15.028  0.2763 -1.2374  0.3116
  925MPD2    N113544   4.556   1.898  14.574  0.0370  0.0435  0.2891
  925MPD2    H713545   4.522   1.822  14.516 -0.7368  0.2028  0.5354
  926MPD2     C13546   3.307   0.765  13.288 -0.2481 -0.0430 -0.1775
  926MPD2    C113547   3.246   0.886  13.289  0.6216 -0.0381 -0.3002
  926MPD2    C213548   3.282   0.987  13.202 -0.1966  0.4847  0.9412
  926MPD2    C313549   3.381   0.966  13.106 -0.6630 -0.1991  0.6112
  926MPD2    C413550   3.444   0.841  13.099 -0.4843 -0.1691  0.0554
  926MPD2    C513551   3.398   0.743  13.187 -0.8394 -0.2100  0.5413
  926MPD2     H13552   3.244   1.088  13.207  0.2091  0.4929  3.6925
  926MPD2    H113553   3.519   0.819  13.024  1.1301  1.7773  1.0849
  926MPD2    H213554   3.258   0.683  13.340 -0.9341 -0.5256 -1.5720
  926MPD2    H313555   3.428   0.639  13.180 -1.9082 -0.4033 -1.0647
  926MPD2     N13556   3.439   1.061  13.020  0.9263 -0.4543 -0.1214
  926MPD2    H513557   3.517   1.032  12.962  1.0366 -0.6433  0.1241
  926MPD2    N113558   3.147   0.924  13.388  0.4437 -0.7611  0.2984
  926MPD2    H713559   3.096   1.011  13.374  1.0708 -0.3773  0.3972
  927MPD2     C13560   2.999   2.832   0.813  1.0589 -0.5642 -0.4768
  927MPD2    C113561   3.040   2.727   0.888 -0.6392  0.2931  0.2680
  927MPD2    C213562   3.144   2.652   0.855 -0.4759  0.0728 -0.8415
  927MPD2    C313563   3.213   2.680   0.739  0.0942 -0.0346 -0.6336
  927MPD2    C413564   3.169   2.787   0.664  0.2379  0.0173 -0.1193
  927MPD2    C513565   3.065   2.865   0.695  0.0125  0.0520 -0.4093
  927MPD2     H13566   3.168   2.569   0.921 -2.6575  0.1699  0.0775
  927MPD2    H113567   3.228   2.812   0.577  0.4761 -4.7394 -1.3308
  927MPD2    H213568   2.923   2.899   0.852  0.6390 -1.6512  0.5462
  927MPD2    H313569   3.039   2.958   0.645  3.4589  0.4043 -1.5542
  927MPD2     N13570   3.315   2.591   0.706 -0.0623 -0.4586  0.4358
  927MPD2    H513571   3.331   2.516   0.772  0.9217 -1.8171 -1.3203
  927MPD2    N113572   2.961   2.718   1.005 -0.2916  0.2810  0.1921
  927MPD2    H713573   2.885   2.786   1.006  2.0214  2.8691  1.3921
  928MPD2     C13574   0.911   0.525   0.896  0.4568 -1.0478 -0.4918
  928MPD2    C113575   1.030   0.574   0.951 -0.2976 -0.0323 -0.0985
  928MPD2    C213576   1.146   0.546   0.879  0.3061  0.4841 -0.9762
  928MPD2    C313577   1.150   0.493   0.756  0.1595 -0.1376 -0.4046
  928MPD2    C413578   1.025   0.460   0.702 -0.2402  1.0071 -0.4019
  928MPD2    C513579   0.912   0.473   0.772 -0.9366  0.5783 -0.2642
  928MPD2     H13580   1.244   0.566   0.919 -0.0814  0.2480  0.1003
  928MPD2    H113581   1.019   0.432   0.597 -0.0499  1.6240 -0.5777
  928MPD2    H213582   0.824   0.537   0.960  0.6401 -0.9886 -0.2511
  928MPD2    H313583   0.822   0.439   0.722 -0.2532 -0.2682 -0.9261
  928MPD2     N13584   1.267   0.494   0.674  0.0563 -0.0328 -0.6758
  928MPD2    H513585   1.249   0.452   0.583 -0.3683 -1.8111  0.2391
  928MPD2    N113586   1.023   0.643   1.073 -0.0020 -0.4816  0.0888
  928MPD2    H713587   0.932   0.638   1.117 -0.3594  2.4356 -0.3162
  929MPD2     C13588   1.826   1.471  10.175 -0.0030 -0.0580  0.2805
  929MPD2    C113589   1.742   1.384  10.232 -0.0102 -0.2601 -0.3723
  929MPD2    C213590   1.640   1.330  10.156 -0.0508  0.1514  0.0874
  929MPD2    C313591   1.611   1.384  10.033  0.8315  0.3898  0.5704
  929MPD2    C413592   1.697   1.474   9.976 -0.3304 -0.4265 -0.3778
  929MPD2    C513593   1.805   1.514  10.050 -0.0868 -0.2013 -0.0384
  929MPD2     H13594   1.564   1.270  10.206 -2.2977  1.2898 -1.9964
  929MPD2    H113595   1.667   1.520   9.882  2.1418  1.4548 -0.2286
  929MPD2    H213596   1.904   1.518  10.233  1.3993 -1.5003 -0.4370
  929MPD2    H313597   1.875   1.588  10.014 -0.9479  0.7019  0.1324
  929MPD2     N13598   1.503   1.354   9.951  0.5155 -0.6186  0.1328
  929MPD2    H513599   1.499   1.410   9.866  4.9718 -0.3933  0.0368
  929MPD2    N113600   1.776   1.344  10.365 -0.3878  0.1385 -0.1012
  929MPD2    H713601   1.842   1.404  10.413  0.7920 -0.5423 -0.8601
  930MPD2     C13602   2.650   3.410  13.706 -0.2402 -0.1676  0.1556
  930MPD2    C113603   2.779   3.438  13.673  0.7262 -0.7058 -0.2264
  930MPD2    C213604   2.836   3.372  13.565 -0.4973  0.1612  0.6646
  930MPD2    C313605   2.765   3.292  13.484 -0.5133 -0.0017  0.8146
  930MPD2    C413606   2.631   3.268  13.522 -0.5219  0.0870 -0.6366
  930MPD2    C513607   2.580   3.328  13.627 -0.2281  0.0163 -0.0244
  930MPD2     H13608   2.938   3.383  13.530 -0.1247 -0.0663  1.6699
  930MPD2    H113609   2.573   3.206  13.454 -0.5412  0.5927 -1.0813
  930MPD2    H213610   2.589   3.465  13.776 -1.6745  1.2575 -2.2298
  930MPD2    H313611   2.478   3.308  13.659 -0.5812  1.6218 -0.1691
  930MPD2     N13612   2.812   3.211  13.380 -1.1874  0.3963  0.1256
  930MPD2    H513613   2.759   3.125  13.374  0.2300 -0.4856  0.2629
  930MPD2    N113614   2.861   3.524  13.746 -0.4490  0.2640 -0.1398
  930MPD2    H713615   2.818   3.558  13.831 -1.2110  0.9523 -0.8072
  931MPD2     C13616   2.693   2.395   1.834 -0.3918  0.4110 -0.0145
  931MPD2    C113617   2.710   2.361   1.703 -0.7928 -0.0534  0.1379
  931MPD2    C213618   2.688   2.228   1.670  0.2921  0.7989 -0.5455
  931MPD2    C313619   2.630   2.132   1.749 -0.1805  0.0584  0.5146
  931MPD2    C413620   2.612   2.173   1.882  0.3831 -0.7296  0.7614
  931MPD2    C513621   2.658   2.294   1.924 -0.2091  0.7937  0.1296
  931MPD2     H13622   2.710   2.197   1.568 -0.7097  0.1479 -0.5569
  931MPD2    H113623   2.569   2.102   1.952  1.8685 -1.1413  1.2609
  931MPD2    H213624   2.706   2.488   1.887 -2.0944 -0.4767  1.9574
  931MPD2    H313625   2.635   2.312   2.029  1.0574  0.8320  0.3960
  931MPD2     N13626   2.570   2.012   1.707 -0.4788  0.3973  0.0545
  931MPD2    H513627   2.526   1.959   1.781 -0.2789 -1.2864 -1.0458
  931MPD2    N113628   2.736   2.466   1.612  0.1099 -0.7530  0.1378
  931MPD2    H713629   2.739   2.558   1.656  0.4432  0.3129 -2.0650
  932MPD2     C13630   0.848   1.825  11.218 -0.4492 -0.6742 -0.6084
  932MPD2    C113631   0.781   1.866  11.331  0.3774 -0.6577 -0.1789
  932MPD2    C213632   0.841   1.839  11.454 -0.0326 -0.2313  0.0057
  932MPD2    C313633   0.964   1.774  11.462 -0.4664 -0.0997  0.6792
  932MPD2    C413634   1.024   1.728  11.348 -0.6415  0.2543 -0.3279
  932MPD2    C513635   0.968   1.754  11.227  0.1564 -0.5984 -0.0692
  932MPD2     H13636   0.796   1.886  11.540  0.1267 -0.8007  0.3993
  932MPD2    H113637   1.111   1.665  11.354 -0.6700  0.2240 -0.2278
  932MPD2    H213638   0.820   1.849  11.116 -0.4342  0.9227 -0.2308
  932MPD2    H313639   1.023   1.718  11.141 -1.3280 -1.9026 -0.4671
  932MPD2     N13640   1.013   1.751  11.589 -0.5862  0.0794  1.0817
  932MPD2    H513641   0.967   1.783  11.673 -0.9447  0.7565  0.6265
  932MPD2    N113642   0.673   1.956  11.334 -0.1667  0.0997 -0.3056
  932MPD2    H713643   0.632   1.981  11.423 -0.0255  0.7483 -0.4268
  933MPD2     C13644   0.711   1.179   1.669 -0.7886  0.1301 -0.6195
  933MPD2    C113645   0.724   1.162   1.528  0.4289 -0.4287 -0.7131
  933MPD2    C213646   0.654   1.245   1.441 -0.4063 -0.8594 -0.1743
  933MPD2    C313647   0.564   1.336   1.498 -0.3633  0.1855 -0.1551
  933MPD2    C413648   0.554   1.361   1.641  0.4142 -0.4494  0.6698
  933MPD2    C513649   0.642   1.289   1.716  0.0843  0.2511 -0.5164
  933MPD2     H13650   0.665   1.231   1.334  0.8467  0.0610 -0.1711
  933MPD2    H113651   0.489   1.437   1.683 -1.0709 -2.5336  2.1213
  933MPD2    H213652   0.768   1.111   1.732  0.1568 -0.1120 -1.7099
  933MPD2    H313653   0.635   1.322   1.819  2.3786 -0.2869 -0.1858
  933MPD2     N13654   0.483   1.401   1.402 -0.9077  0.0581  0.3528
  933MPD2    H513655   0.489   1.383   1.303  0.4140  0.9384  0.2767
  933MPD2    N113656   0.819   1.070   1.485 -0.0857  0.0245  0.9338
  933MPD2    H713657   0.874   1.025   1.557  0.3922  1.4309  1.4672
  934MPD2     C13658   1.845   3.308   1.661 -0.8780  0.0256  0.3960
  934MPD2    C113659   1.743   3.347   1.738  0.1384  0.4259 -0.1091
  934MPD2    C213660   1.613   3.324   1.689  0.6885 -0.1041  0.6758
  934MPD2    C313661   1.593   3.270   1.563  0.6662 -0.0780  0.2399
  934MPD2    C413662   1.704   3.245   1.481  0.1959  0.3259 -0.0989
  934MPD2    C513663   1.829   3.251   1.537 -0.3848 -0.1460  0.1130
  934MPD2     H13664   1.528   3.339   1.755  0.7982  2.5496  0.2153
  934MPD2    H113665   1.686   3.219   1.378  0.7179  1.6518 -0.5200
  934MPD2    H213666   1.949   3.322   1.691 -1.4473  0.7450  2.0134
  934MPD2    H313667   1.918   3.223   1.482  0.1882  1.0224  0.4603
  934MPD2     N13668   1.467   3.250   1.506  0.1455 -0.2840 -0.8039
  934MPD2    H513669   1.465   3.192   1.422 -0.3858 -0.1074 -0.9168
  934MPD2    N113670   1.763   3.408   1.862  0.1926  0.1385 -0.3255
  934MPD2    H713671   1.685   3.427   1.925  1.2725  0.2840  0.9847
  935MPD2     C13672   1.087   2.350   1.461 -0.0492  0.4459  0.4692
  935MPD2    C113673   1.192   2.426   1.414  0.1616  0.6647  0.1748
  935MPD2    C213674   1.178   2.562   1.400 -0.3498  0.4334  0.5001
  935MPD2    C313675   1.073   2.630   1.455 -0.0234  0.4228 -0.4356
  935MPD2    C413676   0.968   2.556   1.504  0.0938 -0.2504 -0.0380
  935MPD2    C513677   0.975   2.419   1.506 -0.1821  0.5050  0.5459
  935MPD2     H13678   1.258   2.611   1.347 -0.9824 -1.4295 -2.1489
  935MPD2    H113679   0.881   2.610   1.541  0.2698 -1.3865  2.0099
  935MPD2    H213680   1.078   2.242   1.459  0.7685  0.3607  0.8901
  935MPD2    H313681   0.896   2.353   1.539 -1.0558  0.1881 -2.1162
  935MPD2     N13682   1.061   2.775   1.456  0.0435  0.7662 -0.4705
  935MPD2    H513683   0.971   2.821   1.469 -0.8423 -0.3229 -2.5280
  935MPD2    N113684   1.308   2.380   1.364 -0.2594  0.1744  0.0573
  935MPD2    H713685   1.378   2.446   1.332 -1.0156  0.3279 -1.2270
  936MPD2     C13686   0.249   0.600  12.527  0.1541 -0.3330  0.1444
  936MPD2    C113687   0.366   0.574  12.599 -0.3330  0.4413 -1.2353
  936MPD2    C213688   0.461   0.675  12.610 -0.0556  0.4704  0.0832
  936MPD2    C313689   0.439   0.797  12.557  1.0468 -0.2561  0.2485
  936MPD2    C413690   0.320   0.819  12.492 -0.3403 -0.8531 -0.3762
  936MPD2    C513691   0.231   0.721  12.470 -0.0837 -0.6146 -0.3462
  936MPD2     H13692   0.547   0.665  12.676  0.0858  0.0114 -0.1677
  936MPD2    H113693   0.296   0.919  12.457  2.0421  0.8882  2.9459
  936MPD2    H213694   0.172   0.528  12.500 -0.6479  0.9539 -0.9803
  936MPD2    H313695   0.130   0.727  12.430  1.1227 -0.3743 -3.3423
  936MPD2     N13696   0.531   0.898  12.593  0.0237 -0.6795 -0.0242
  936MPD2    H513697   0.600   0.864  12.659 -0.6519 -0.9343  0.5597
  936MPD2    N113698   0.384   0.460  12.681 -0.8070  0.1150  0.3139
  936MPD2    H713699   0.466   0.459  12.741 -0.0919  0.2957 -0.6629
  937MPD2     C13700   3.500   2.010  11.416 -0.6216  0.1132  0.4073
  937MPD2    C113701   3.534   2.140  11.405 -0.6312  0.3130 -0.1015
  937MPD2    C213702   3.597   2.179  11.292  0.0793 -1.1126  0.1923
  937MPD2    C313703   3.651   2.089  11.204  0.0247 -0.3355 -0.6258
  937MPD2    C413704   3.613   1.957  11.223  0.5953  0.4799 -0.5396
  937MPD2    C513705   3.531   1.920  11.319  0.1665 -0.0645  0.5989
  937MPD2     H13706   3.606   2.286  11.278  1.1662 -1.0283  1.6330
  937MPD2    H113707   3.664   1.881  11.166 -1.1499 -0.5496 -0.6971
  937MPD2    H213708   3.442   1.977  11.501 -2.1240  2.6369  0.3520
  937MPD2    H313709   3.495   1.818  11.324 -0.4629  0.1392  0.2663
  937MPD2     N13710   3.737   2.131  11.097 -0.1780  0.5164  0.6727
  937MPD2    H513711   3.759   2.230  11.096  1.3203  0.1805  1.2829
  937MPD2    N113712   3.487   2.240  11.490 -0.4635  0.1291  0.2222
  937MPD2    H713713   3.503   2.336  11.461  3.1745 -0.7849 -0.8016
  938MPD2     C13714   1.137   1.655   0.725  0.2871 -0.5378 -0.5905
  938MPD2    C113715   1.055   1.750   0.780  0.6475  0.2704 -0.0034
  938MPD2    C213716   1.007   1.742   0.905  0.2079  0.0820 -0.3961
  938MPD2    C313717   1.041   1.634   0.987  0.1912 -0.0786  0.3478
  938MPD2    C413718   1.120   1.539   0.932 -0.5153 -0.2127 -0.6965
  938MPD2    C513719   1.172   1.556   0.804 -0.5219  0.4899  0.3411
  938MPD2     H13720   0.944   1.823   0.938  0.3913  0.0190  0.1104
  938MPD2    H113721   1.173   1.453   0.973  1.2540  0.1737 -2.1617
  938MPD2    H213722   1.177   1.655   0.624 -0.0618 -0.8816 -0.7314
  938MPD2    H313723   1.241   1.486   0.757  0.6026  1.9488 -0.2031
  938MPD2     N13724   0.983   1.616   1.115 -0.0938 -0.1626 -0.4876
  938MPD2    H513725   1.009   1.530   1.162  1.2248  0.8074  0.5503
  938MPD2    N113726   1.028   1.876   0.709 -0.3220 -0.5383  0.1066
  938MPD2    H713727   0.973   1.948   0.754 -0.7004 -1.3728  0.9665
  939MPD2     C13728   2.057   3.652   0.672  0.2707  0.5771  0.6417
  939MPD2    C113729   2.046   3.788   0.689  0.8094 -0.1948  0.5556
  939MPD2    C213730   2.118   3.874   0.594  0.4420 -0.7289  0.0738
  939MPD2    C313731   2.182   3.827   0.486  0.3202  0.0880  0.6953
  939MPD2    C413732   2.194   3.696   0.476 -0.6261 -0.5841  0.4640
  939MPD2    C513733   2.132   3.611   0.562 -0.1837  1.0336  0.1537
  939MPD2     H13734   2.111   3.980   0.616  1.2514 -0.1912 -2.3392
  939MPD2    H113735   2.246   3.656   0.390 -1.8533  2.1963 -1.5695
  939MPD2    H213736   2.010   3.571   0.726 -0.7421  0.7676  0.0387
  939MPD2    H313737   2.138   3.504   0.547 -1.3534  0.7874  1.5366
  939MPD2     N13738   2.237   3.914   0.389  0.0241 -0.0091  0.1979
  939MPD2    H513739   2.215   4.013   0.389  0.5933  0.1244 -1.5083
  939MPD2    N113740   1.969   3.835   0.797 -0.3363  0.4820  0.4604
  939MPD2    H713741   1.933   3.768   0.864  3.0862  0.0624  1.8850
  940MPD2     C13742   1.194   4.149  12.922  0.0243 -0.6166  0.0807
  940MPD2    C113743   1.214   4.222  13.036 -0.1189 -0.0575  0.7820
  940MPD2    C213744   1.189   4.354  13.032  0.0286 -0.4427 -0.3257
  940MPD2    C313745   1.127   4.417  12.922 -0.1227 -0.5381  0.7443
  940MPD2    C413746   1.113   4.339  12.811  0.4218  0.5288  0.1341
  940MPD2    C513747   1.150   4.203  12.809  0.4235 -0.1002  0.5856
  940MPD2     H13748   1.210   4.406  13.124 -1.3156  0.7711 -0.6986
  940MPD2    H113749   1.069   4.379  12.720  1.3411 -1.0100 -0.9801
  940MPD2    H213750   1.194   4.041  12.928 -0.1411 -0.5802  0.8384
  940MPD2    H313751   1.127   4.142  12.723 -1.3698  1.1770  0.1742
  940MPD2     N13752   1.090   4.553  12.909 -0.3872 -0.0337 -0.1757
  940MPD2    H513753   1.046   4.574  12.820 -1.0259  1.0235  0.3945
  940MPD2    N113754   1.234   4.161  13.155 -0.2201 -0.2818  0.1154
  940MPD2    H713755   1.243   4.217  13.239 -1.6119 -1.4992  1.0823
  941MPD2     C13756   0.501   0.071   9.788  0.2760 -0.5709 -0.8493
  941MPD2    C113757   0.539   4.687   9.709 -0.1762  0.5130 -0.3610
  941MPD2    C213758   0.503   4.560   9.738 -0.3688 -0.1969 -0.0786
  941MPD2    C313759   0.414   4.537   9.846 -0.0913  0.1008  0.6098
  941MPD2    C413760   0.367   4.641   9.915  1.0425  0.1020  0.2710
  941MPD2    C513761   0.415   0.051   9.890 -0.2968 -1.1565 -0.8252
  941MPD2     H13762   0.544   4.480   9.678 -0.8449 -1.3579  1.1260
  941MPD2    H113763   0.299   4.612   9.994  0.9230  1.0316  0.5125
  941MPD2    H213764   0.531   0.171   9.759 -0.1381 -0.5015 -1.0461
  941MPD2    H313765   0.382   0.138   9.946  0.4624 -1.0426 -0.5485
  941MPD2     N13766   0.360   4.408   9.879 -0.2979 -0.2232 -0.4237
  941MPD2    H513767   0.294   4.400   9.955  2.2548  0.6858  1.8926
  941MPD2    N113768   0.626   4.709   9.599 -0.4355 -0.3016 -0.2370
  941MPD2    H713769   0.654   4.633   9.537  2.0853  2.0865 -2.0433
  942MPD2     C13770   0.777   1.817   9.039 -0.8995  0.2707  0.3441
  942MPD2    C113771   0.861   1.708   9.058 -0.4682 -0.0721  0.1525
  942MPD2    C213772   0.986   1.714   9.001 -0.0977  0.2467  0.0096
  942MPD2    C313773   1.035   1.820   8.939 -0.2724  0.4998  1.0376
  942MPD2    C413774   0.954   1.926   8.926 -0.4083 -0.1031 -0.0854
  942MPD2    C513775   0.827   1.927   8.973  0.1652 -0.6692 -0.2201
  942MPD2     H13776   1.048   1.627   9.015  1.8654  1.8251  1.2643
  942MPD2    H113777   0.993   2.012   8.873 -0.8058 -1.0360 -1.8950
  942MPD2    H213778   0.672   1.822   9.066 -1.4916 -0.1664 -1.8267
  942MPD2    H313779   0.759   2.009   8.954 -1.9233 -2.0335  1.3172
  942MPD2     N13780   1.170   1.831   8.891  0.5411  0.2039  0.1424
  942MPD2    H513781   1.204   1.921   8.858 -0.3962  1.0145  1.4063
  942MPD2    N113782   0.825   1.593   9.121 -0.0524 -0.3017  0.0222
  942MPD2    H713783   0.883   1.509   9.121  0.9493  0.3773  2.3578
  943MPD2     C13784   3.897   4.418   9.207 -0.2082  0.1614  0.9184
  943MPD2    C113785   3.865   4.292   9.253 -0.0434  0.2528 -0.2291
  943MPD2    C213786   3.955   4.238   9.348  0.9921 -0.1680  0.8321
  943MPD2    C313787   4.055   4.307   9.401 -0.6174 -0.0353 -0.4146
  943MPD2    C413788   4.096   4.431   9.353 -0.0826  0.3167  0.2903
  943MPD2    C513789   4.009   4.478   9.260 -0.5146  0.4782 -0.0429
  943MPD2     H13790   3.949   4.135   9.379  0.8973 -0.4524 -0.1230
  943MPD2    H113791   4.170   4.501   9.390 -0.9609  1.1601  0.4391
  943MPD2    H213792   3.837   4.465   9.131  0.7390  1.7001  1.1172
  943MPD2    H313793   4.026   4.582   9.235 -1.9401  1.0275  1.2643
  943MPD2     N13794   4.142   4.253   9.502 -0.3327  0.8177 -0.0002
  943MPD2    H513795   4.218   4.310   9.536  1.9468 -1.5145 -1.1396
  943MPD2    N113796   3.742   4.232   9.197  0.3495 -1.0174 -0.1840
  943MPD2    H713797   3.689   4.288   9.132  0.8999  0.2745  0.4899
  944MPD2     C13798   3.667   3.280  10.225 -0.0827  0.1613 -0.3188
  944MPD2    C113799   3.792   3.279  10.282 -0.6056 -0.2471  0.5444
  944MPD2    C213800   3.808   3.239  10.410  0.1038 -0.1804  0.0885
  944MPD2    C313801   3.704   3.196  10.489  0.3545 -0.1595 -0.3655
  944MPD2    C413802   3.578   3.189  10.433  0.3836  0.3954 -0.0574
  944MPD2    C513803   3.556   3.236  10.297  0.4034 -0.9192  0.0996
  944MPD2     H13804   3.905   3.240  10.458  1.3544 -1.1508 -2.4026
  944MPD2    H113805   3.491   3.151  10.486 -0.9592  0.5496 -2.1268
  944MPD2    H213806   3.655   3.316  10.124 -0.9328 -1.0579 -0.6580
  944MPD2    H313807   3.457   3.224  10.253  1.5482 -0.4842 -2.5644
  944MPD2     N13808   3.728   3.162  10.626 -0.4950 -0.3511  0.5201
  944MPD2    H513809   3.828   3.157  10.643 -0.1093  0.9987 -1.3748
  944MPD2    N113810   3.896   3.329  10.200  0.0574  0.2046 -0.0606
  944MPD2    H713811   3.868   3.366  10.110 -2.7256 -1.3181  0.1941
    1TCq1    O113812   2.020   3.751  13.801 -0.2602  0.0118  0.1067
    1TCq1    C113813   2.086   3.647  13.857  0.2508 -0.1421  1.2366
    1TCq1    O213814   2.093   3.541  13.794  0.6299 -0.3031 -0.2031
    1TCq1    C213815   2.065   3.664  14.000 -0.2624 -0.4144  0.0739
    1TCq1    C313816   2.009   3.556  14.062 -0.0796  0.5719  0.0906
    1TCq1    C413817   1.957   3.564  14.193  0.2023 -0.5824 -0.7744
    1TCq1    C513818   1.966   3.681  14.256 -0.5462  0.0894 -0.2835
    1TCq1    C613819   2.029   3.788  14.196  0.1123 -0.4205 -0.3252
    1TCq1    C713820   2.075   3.787  14.061  0.0733 -0.7177 -0.3559
    1TCq1    C813821   2.047   3.908  14.280 -1.2280 -0.0867  0.2172
    1TCq1    O413822   2.026   3.903  14.404 -0.6316 -0.2844  0.4381
    1TCq1    C913823   1.894   3.449  14.249  0.2780 -0.4852 -0.2440
    1TCq1    O513824   1.916   3.446  14.376 -0.3319 -0.7412  0.2128
    1TCq1    O613825   1.873   3.346  14.185  0.3237  0.2587  0.6506
    1TCq1    H113826   2.045   3.840  13.835 -0.3834 -0.7701  2.2585
    1TCq1    H213827   1.992   3.470  13.998 -2.1773 -0.5217  2.1359
    1TCq1    H313828   1.929   3.689  14.357  1.3182 -3.5367  0.7059
    1TCq1    H413829   2.131   3.869  14.019 -0.5432  0.6832  1.5531
    2MPD2     C13830   2.098   4.408  14.373 -0.0506 -0.3428 -0.3378
    2MPD2    C113831   2.103   4.383  14.234  1.0238  0.2083 -0.5033
    2MPD2    C213832   2.102   4.257  14.182 -0.7544 -0.3096  0.4627
    2MPD2    C313833   2.106   4.146  14.267  0.3205  0.2160 -0.3430
    2MPD2    C413834   2.115   4.165  14.407 -0.4832 -0.2355 -0.3249
    2MPD2    C513835   2.114   4.297  14.453  0.1334  0.2988 -0.5820
    2MPD2     H13836   2.097   4.230  14.077 -0.9720 -4.2740  1.4993
    2MPD2    H113837   2.120   4.090  14.486  1.2060 -2.0107 -2.1168
    2MPD2    H213838   2.112   4.508  14.410  1.4768 -0.9299  0.6746
    2MPD2    H313839   2.129   4.317  14.558 -1.7486 -2.2665  0.1753
    2MPD2     N13840   2.076   4.018  14.208 -0.0564 -0.2702 -0.0261
    2MPD2    H513841   2.074   4.010  14.107 -0.8592  0.1895 -0.0531
    2MPD2    N113842   2.085   4.502  14.150 -0.7455  0.0773 -0.3724
    2MPD2    H713843   2.065   4.590  14.197 -1.7446 -0.9830  1.1946
    3TMC2    C113844   2.044   4.628  13.948  0.4711  0.7185  0.4004
    3TMC2    C213845   2.096   0.017  14.002 -0.2510  0.1086  0.4432
    3TMC2    C313846   2.115   0.133  13.930 -0.5234 -0.0090 -0.2191
    3TMC2    C413847   2.011   4.632  13.810  0.0492  0.8021 -0.1048
    3TMC2    C513848   2.018   0.035  13.745 -0.5950 -0.1610  0.2273
    3TMC2    C613849   2.073   0.144  13.799 -0.4008 -0.2036  0.0317
    3TMC2     C13850   2.075   4.499  14.013  0.1249 -0.0796 -0.0712
    3TMC2     O13851   2.111   4.411  13.936  0.1956 -0.0579  0.3155
    3TMC2     H13852   2.135   0.010  14.103  1.1602 -0.0427 -0.1172
    3TMC2    H113853   1.967   4.543  13.767  3.7209 -1.7402  1.3733
    3TMC2    H213854   2.096   0.234  13.744 -0.6529 -1.5716 -2.2963
    3TMC2    C713855   1.939   0.044  13.623  0.1899 -0.4636 -0.0206
    3TMC2    C813856   2.205   0.244  13.972 -0.5626 -0.1759  0.3710
    3TMC2    O113857   1.883   4.666  13.591 -0.1663 -0.0158  0.0668
    3TMC2    O213858   2.198   0.359  13.934  0.3385  0.0391 -0.2656
    3TMC2    O513859   2.259   0.202  14.091  0.4937 -0.0852  0.2543
    3TMC2    H513860   2.278   0.106  14.084 -2.7004 -0.6335 -1.2025
    4MPD2     C13861   0.815   0.969  13.411  0.1116  0.0631 -0.1635
    4MPD2    C113862   0.878   1.044  13.312 -0.2166  0.3547 -0.0427
    4MPD2    C213863   1.017   1.026  13.299 -0.0274 -0.0076 -0.0122
    4MPD2    C313864   1.087   0.928  13.370  0.2966  0.3862  0.0993
    4MPD2    C413865   1.020   0.849  13.459  0.2462 -0.0541 -0.2150
    4MPD2    C513866   0.885   0.873  13.479  0.8162 -0.6451 -0.6444
    4MPD2     H13867   1.080   1.081  13.229 -0.7315 -1.5173 -1.8319
    4MPD2    H113868   1.074   0.781  13.523 -1.4426 -1.7494 -0.6026
    4MPD2    H213869   0.711   0.981  13.441  1.1694  2.7977  2.4250
    4MPD2    H313870   0.848   0.813  13.562  0.5253  0.7574  0.2406
    4MPD2     N13871   1.227   0.918  13.354 -0.8144  0.0382 -0.0843
    4MPD2    H513872   1.278   0.990  13.305 -1.9907  0.7930 -0.2039
    4MPD2    N113873   0.804   1.135  13.230 -0.5109 -0.1573  0.5144
    4MPD2    H713874   0.708   1.158  13.254 -0.7728 -1.3000  0.5748
    5TCq2    C113875   1.306   0.816  13.386 -0.1893  0.1150  0.3967
    5TCq2    O213876   1.276   0.711  13.444  0.3837 -0.5387 -0.2724
    5TCq2    C213877   1.440   0.843  13.349  0.1381  0.1993 -0.1789
    5TCq2    C313878   1.490   0.966  13.349  0.0739  0.4722  0.2672
    5TCq2    C413879   1.626   0.973  13.345 -0.3495 -0.8958 -0.1735
    5TCq2    C513880   1.716   0.868  13.334  0.2279 -0.2707 -0.5663
    5TCq2    C613881   1.660   0.746  13.336  0.2103 -0.3435 -0.5494
    5TCq2    C713882   1.522   0.735  13.348  0.3701 -0.5226  0.0799
    5TCq2    C813883   1.742   0.631  13.376  0.2874 -0.0008 -0.0217
    5TCq2    O413884   1.810   0.643  13.478  0.1824 -0.8919  0.7369
    5TCq2    C913885   1.687   1.099  13.328  0.5015  0.3695 -0.0134
    5TCq2    O513886   1.755   1.106  13.225 -0.4522  0.0492 -0.0270
    5TCq2    O613887   1.638   1.192  13.396  0.4732 -0.0272  0.4838
    5TCq2    H213888   1.428   1.055  13.343 -0.1314  0.3066 -0.0811
    5TCq2    H313889   1.824   0.869  13.335  0.2067  0.4476  0.6861
    5TCq2    H413890   1.474   0.638  13.344 -0.8514  0.2132 -2.7452
    6MPD1     C13891   4.482   2.451  13.166 -0.1382 -0.0918  0.1918
    6MPD1    C113892   4.571   2.528  13.229 -0.5039  0.5582 -0.3872
    6MPD1    C213893   4.698   2.487  13.248  0.5138 -0.3785  0.2269
    6MPD1    C313894   0.012   2.361  13.202 -0.4397 -0.2155 -1.1478
    6MPD1    C413895   4.651   2.289  13.125  0.0253 -0.3437  0.8650
    6MPD1    C513896   4.521   2.331  13.119  0.0711  0.4397 -0.7011
    6MPD1     H13897   0.047   2.540  13.309 -1.2967 -0.6125  2.5847
    6MPD1    H113898   4.674   2.198  13.070 -0.4180 -0.2333  0.4926
    6MPD1    H213899   4.378   2.477  13.149  0.0777 -0.2181 -1.3667
    6MPD1    H313900   4.439   2.272  13.081  0.8247 -2.2100  1.7701
    6MPD1     N13901   0.144   2.312  13.217  0.4466 -0.7488  0.0764
    6MPD1    H513902   0.159   2.236  13.152  1.2861  0.7927 -1.5223
    6MPD1    N113903   4.533   2.654  13.290  0.2707 -0.1648 -0.4805
    6MPD1    H613904   4.445   2.690  13.254 -0.4802 -0.7890  0.7184
    6MPD1    H713905   4.603   2.727  13.279 -0.9491  1.1235  0.2680
    7MPD2     C13906   0.500   1.728  13.546  0.7640 -0.0792  0.7156
    7MPD2    C113907   0.492   1.766  13.413 -0.3420  0.3769 -0.4478
    7MPD2    C213908   0.489   1.667  13.313 -0.2129 -0.4102 -0.0152
    7MPD2    C313909   0.487   1.534  13.348 -0.3598 -0.1430  0.2170
    7MPD2    C413910   0.501   1.504  13.482 -0.2065  0.7942  0.5369
    7MPD2    C513911   0.506   1.596  13.578  0.0933  0.4494  0.4341
    7MPD2     H13912   0.485   1.705  13.212 -1.8224  0.1014  0.2537
    7MPD2    H113913   0.510   1.398  13.503 -1.1004  1.0154  2.0757
    7MPD2    H213914   0.506   1.804  13.622  1.6252 -0.6845  1.2415
    7MPD2    H313915   0.513   1.559  13.680 -0.7131  1.8544  1.0012
    7MPD2     N13916   0.495   1.434  13.244  0.4356 -0.1178 -0.0226
    7MPD2    H513917   0.525   1.341  13.271  0.2678  0.3269  1.7127
    7MPD2    N113918   0.499   1.905  13.371  0.2430  0.0101  0.3803
    7MPD2    H713919   0.488   1.915  13.271 -0.2567 -1.7553  0.2534
    8TMC3    C113920   0.559   1.382  13.032  0.5704  0.2517 -0.3473
    8TMC3    C213921   0.643   1.301  13.107  0.2897  0.4445 -0.5447
    8TMC3    C313922   0.769   1.299  13.069 -0.2446  0.7039 -0.1386
    8TMC3    C413923   0.602   1.453  12.924  0.1851 -0.4314 -0.4820
    8TMC3    C513924   0.737   1.457  12.893 -0.2604 -0.3280  0.1575
    8TMC3    C613925   0.819   1.381  12.971  0.6669  0.5534  0.1233
    8TMC3     C13926   0.464   1.462  13.112 -0.1013 -0.2630 -0.0785
    8TMC3     O13927   0.391   1.550  13.063  0.4143  0.5682 -0.3496
    8TMC3     H13928   0.594   1.218  13.155  0.8074 -1.3192 -3.0256
    8TMC3    H113929   0.537   1.529  12.882 -1.0207 -1.0856  0.1964
    8TMC3    H213930   0.924   1.406  12.963  0.7110 -0.4382 -2.1320
    8TMC3    C713931   0.769   1.595  12.883 -0.0379  0.3446 -0.0795
    8TMC3    C813932   0.853   1.198  13.117  0.1688 -0.6089 -0.5569
    8TMC3    O113933   0.815   1.642  12.987 -0.1282  0.4048  0.1765
    8TMC3    O213934   0.952   1.173  13.051 -0.2615  0.1275  0.3639
    9TMC3    C113935   0.366   2.307  13.284  0.5156 -0.2791  0.1739
    9TMC3    C213936   0.400   2.292  13.150  0.7395 -0.5733 -0.3896
    9TMC3    C313937   0.498   2.203  13.127 -0.0376 -0.3699  1.0301
    9TMC3    C413938   0.418   2.231  13.384  0.0405  0.1238  0.3881
    9TMC3    C513939   0.508   2.132  13.352 -0.2782  0.0652 -0.2601
    9TMC3    C613940   0.549   2.119  13.219  0.8239 -0.7103  0.3255
    9TMC3     C13941   0.236   2.358  13.306 -0.2646 -0.3368 -0.6006
    9TMC3     O13942   0.232   2.446  13.389  0.0333 -0.1267  0.2686
    9TMC3     H13943   0.351   2.351  13.074  0.5285 -1.2894 -0.8104
    9TMC3    H113944   0.383   2.243  13.486  0.6885 -1.9710  0.8685
    9TMC3    H213945   0.645   2.071  13.204  1.1911 -0.1551  0.9072
    9TMC3    C713946   0.510   2.022  13.445 -0.1092 -0.9869 -0.0937
    9TMC3    C813947   0.521   2.168  12.987  0.7360  0.0070  0.2927
    9TMC3    O113948   0.514   2.038  13.573 -0.0159 -0.1101 -0.3198
    9TMC3    O213949   0.470   2.231  12.898 -0.2007  0.2649  0.5530
   10MPD2     C13950   0.662   1.828  12.625 -0.2830  0.0241 -0.4563
   10MPD2    C113951   0.685   1.780  12.754 -0.1564  0.0571 -0.0141
   10MPD2    C213952   0.652   1.846  12.868 -0.2096 -0.0116 -0.5025
   10MPD2    C313953   0.588   1.968  12.860  0.2349 -1.0117 -0.0034
   10MPD2    C413954   0.577   2.022  12.737  0.1976  0.8039  0.2735
   10MPD2    C513955   0.600   1.951  12.626  0.4930 -0.0979  0.1296
   10MPD2     H13956   0.661   1.805  12.967 -1.5413  1.7116  0.3291
   10MPD2    H113957   0.539   2.122  12.722 -1.2105  0.3236  0.6147
   10MPD2    H213958   0.693   1.768  12.540  0.4019  0.7514 -0.7124
   10MPD2    H313959   0.581   1.998  12.530  1.5244  0.9294  0.4352
   10MPD2     N13960   0.564   2.040  12.978 -0.0210 -0.5304 -0.0483
   10MPD2    H513961   0.588   1.995  13.065 -1.7260  1.4491  1.4566
   10MPD2    N113962   0.719   1.646  12.763  0.0910 -0.3959 -0.1357
   10MPD2    H713963   0.709   1.589  12.680 -3.2102  0.1631 -0.1163
   11MPD2     C13964   1.810   0.118  13.376 -0.1641 -0.5482  0.6848
   11MPD2    C113965   1.854   0.211  13.467 -0.0788  0.2468 -0.5792
   11MPD2    C213966   1.825   0.345  13.448 -0.0977 -0.5770 -0.0769
   11MPD2    C313967   1.751   0.383  13.331 -0.4901  0.2592 -0.3347
   11MPD2    C413968   1.697   0.284  13.247  0.0751  0.9926 -0.8191
   11MPD2    C513969   1.735   0.150  13.270 -0.4281 -0.2761  0.1233
   11MPD2     H13970   1.856   0.416  13.523  0.8916 -1.3016  0.2051
   11MPD2    H113971   1.626   0.310  13.170 -0.3793  0.8433 -0.4492
   11MPD2    H213972   1.830   0.012  13.378 -1.0909 -0.7819 -2.7974
   11MPD2    H313973   1.698   0.079  13.196 -0.5692  0.5173 -0.5609
   11MPD2     N13974   1.712   0.519  13.305 -0.7592  0.1018  0.1426
   11MPD2    H513975   1.654   0.537  13.224  1.5168 -2.7688 -2.1219
   11MPD2    N113976   1.927   0.173  13.581 -0.6474  0.5202 -0.3380
   11MPD2    H713977   1.988   0.242  13.624 -1.2055 -1.0066  2.9289
    1MPD1     C13978   0.513   2.266  16.716 -0.6251  0.8838  0.4185
    1MPD1    C113979   0.379   2.297  16.678 -0.0294  0.4616 -0.0492
    1MPD1    C213980   0.285   2.198  16.679  0.0560 -0.3116 -0.1957
    1MPD1    C313981   0.316   2.069  16.718  0.5288 -0.4646  0.8080
    1MPD1    C413982   0.444   2.034  16.750 -0.1578 -0.0329  0.3260
    1MPD1    C513983   0.536   2.136  16.752 -0.1372 -0.1046  0.6222
    1MPD1     H13984   0.184   2.228  16.653 -0.3548 -0.9311  0.6735
    1MPD1    H113985   0.485   1.936  16.767  1.6475  0.7045  0.2011
    1MPD1    H213986   0.598   2.333  16.716 -1.0415  1.3995 -1.0347
    1MPD1    H313987   0.642   2.113  16.764 -0.0414  0.1676  0.3183
    1MPD1     N13988   0.227   1.958  16.716 -0.2597  0.0665 -0.0111
    1MPD1    H513989   0.253   1.863  16.743 -0.6391 -0.2877 -0.9000
    1MPD1    N113990   0.347   2.430  16.645 -0.0001 -0.1221 -0.1259
    1MPD1    H613991   0.423   2.488  16.680 -0.4897 -0.4628  1.4858
    1MPD1    H713992   0.251   2.456  16.670  0.2724  0.5989  0.1710
    2MPD1     C13993   4.002   1.720  17.036 -0.0434 -0.2093 -0.5330
    2MPD1    C113994   4.120   1.698  17.107 -0.2655 -0.1641 -0.2145
    2MPD1    C213995   4.235   1.715  17.032  0.3639 -0.3005  0.0563
    2MPD1    C313996   4.238   1.765  16.905  0.7991 -0.3680  0.1978
    2MPD1    C413997   4.121   1.803  16.844  0.1606  0.2497 -0.7789
    2MPD1    C513998   4.006   1.792  16.918  0.3643 -0.4704  0.2802
    2MPD1     H13999   4.332   1.698  17.078  1.1960 -2.2065 -2.4702
    2MPD1    H114000   4.124   1.855  16.749 -0.6056 -1.8893 -1.9806
    2MPD1    H214001   3.912   1.711  17.096 -0.6889 -0.3057 -1.5317
    2MPD1    H314002   3.910   1.817  16.875  0.2296 -2.0304 -0.3581
    2MPD1     N14003   4.363   1.786  16.842 -0.1717  0.2467 -0.2632
    2MPD1    H514004   4.445   1.775  16.901 -0.6461 -0.8383  0.1816
    2MPD1    N114005   4.126   1.633  17.234  0.6506  0.4345  0.6472
    2MPD1    H614006   4.202   1.669  17.291  0.7978  0.1863  0.6083
    2MPD1    H714007   4.049   1.649  17.299  0.9585  2.1632  0.5818
    3TMC3    C114008   4.518   1.790  16.660  0.1493  0.2357  1.1160
    3TMC3    C214009   4.553   1.709  16.558  0.3293  0.3032  0.6649
    3TMC3    C314010   4.687   1.696  16.521 -1.5482  0.1952  0.2570
    3TMC3    C414011   4.609   1.860  16.727 -0.2785  0.6196  0.1841
    3TMC3    C514012   0.018   1.847  16.695  0.0598  0.6174  0.3016
    3TMC3    C614013   0.060   1.764  16.592  0.5025  0.0247  0.7658
    3TMC3     C14014   4.378   1.797  16.703 -0.3079  0.9010  0.3165
    3TMC3     O14015   4.300   1.772  16.613  0.4039 -0.0655  0.1488
    3TMC3     H14016   4.481   1.644  16.510  0.6365 -0.6768  1.5312
    3TMC3    H114017   4.589   1.928  16.809  0.5369 -0.0173  0.9110
    3TMC3    H214018   0.167   1.753  16.575  0.5248 -0.8369  1.4731
    3TMC3    C714019   0.093   1.974  16.706 -0.7569  0.2603  0.3351
    3TMC3    C814020   0.009   1.598  16.421 -0.0147 -0.3639  0.4444
    3TMC3    O114021   0.028   2.076  16.700  0.2851  0.0693 -0.3538
    3TMC3    O214022   0.116   1.542  16.444 -0.4712 -0.4022  0.0555
    4MPD1     C14023   4.671   1.398  15.951  0.2256  0.0861  0.2182
    4MPD1    C114024   4.551   1.473  15.980 -0.1817  0.8243 -0.7826
    4MPD1    C214025   4.541   1.528  16.105 -0.4751 -0.3946 -0.1707
    4MPD1    C314026   4.650   1.517  16.192 -0.3122  0.2093  0.4750
    4MPD1    C414027   0.043   1.448  16.164 -0.5993  0.2418  0.4075
    4MPD1    C514028   0.056   1.394  16.038 -0.2079 -0.0442 -0.3306
    4MPD1     H14029   4.460   1.594  16.132  0.2542  1.2633 -1.9964
    4MPD1    H114030   0.127   1.451  16.232 -1.1266  0.7451  1.0340
    4MPD1    H214031   4.685   1.345  15.858 -1.6490  0.2501 -0.1493
    4MPD1    H314032   0.143   1.339  16.004  1.4965  2.7419 -0.4878
    4MPD1     N14033   4.638   1.575  16.319  0.7814  0.2059  0.0364
    4MPD1    H514034   4.551   1.624  16.333  0.2600 -0.7358  0.1267
    4MPD1    N114035   4.454   1.492  15.883 -0.4593  0.3509 -0.0888
    4MPD1    H614036   4.497   1.509  15.793  1.9072  1.6197  1.2970
    4MPD1    H714037   4.397   1.576  15.895 -0.9637  0.2035 -1.4012
    1TCq1    O114038   1.863   1.792  12.226 -0.3169 -0.0150  0.1978
    1TCq1    C114039   1.975   1.738  12.281  0.4358 -0.1252  0.3137
    1TCq1    O214040   2.056   1.802  12.353 -0.3924  0.0657  0.2192
    1TCq1    C214041   2.010   1.609  12.225 -0.0490 -0.4170 -0.7093
    1TCq1    C314042   1.950   1.572  12.108  0.5865  0.2551 -0.5723
    1TCq1    C414043   1.999   1.480  12.027  0.4364  0.5343  0.0696
    1TCq1    C514044   2.112   1.408  12.072 -1.0016  0.6682  0.5253
    1TCq1    C614045   2.171   1.448  12.189  0.0161  0.1308  0.6283
    1TCq1    C714046   2.127   1.554  12.259 -0.2009 -0.0965  0.8816
    1TCq1    C814047   2.307   1.408  12.223  0.2308  0.0676  0.2360
    1TCq1    O414048   2.341   1.416  12.340 -0.8867  0.2483 -0.0319
    1TCq1    C914049   1.923   1.428  11.918 -0.2984  0.1426 -0.5828
    1TCq1    O514050   1.799   1.452  11.900  0.3490 -0.0597 -0.4952
    1TCq1    O614051   1.987   1.352  11.842 -0.6935 -0.2464 -0.1932
    1TCq1    H114052   1.793   1.725  12.210  0.3247 -0.6038 -0.1662
    1TCq1    H214053   1.859   1.621  12.076  0.7524  1.5259  0.8749
    1TCq1    H314054   2.144   1.317  12.022 -2.8616  0.4277 -0.2531
    1TCq1    H414055   2.180   1.593  12.346  0.0965  2.7876 -0.5849
    2MPD1     C14056   2.779   1.334  12.023  0.2518  0.3156 -0.6496
    2MPD1    C114057   2.686   1.354  11.919  0.3592  0.3036  0.4167
    2MPD1    C214058   2.554   1.357  11.953  0.4015  0.6021 -0.4078
    2MPD1    C314059   2.507   1.373  12.080 -0.3351  0.1794  0.0371
    2MPD1    C414060   2.604   1.370  12.182 -0.0010 -0.1661  0.1395
    2MPD1    C514061   2.735   1.340  12.153 -0.7153  0.7995  0.6329
    2MPD1     H14062   2.486   1.345  11.870 -0.9005  1.3161  0.5675
    2MPD1    H114063   2.583   1.383  12.287  0.1537  0.3719  0.1034
    2MPD1    H214064   2.883   1.314  12.000  0.0393 -0.7418 -0.6990
    2MPD1    H314065   2.796   1.316  12.240  0.1281  1.4663  0.2137
    2MPD1     N14066   2.366   1.392  12.104 -0.2493  0.2725 -0.1541
    2MPD1    H514067   2.309   1.393  12.020 -1.1151  0.2477  0.4359
    2MPD1    N114068   2.722   1.353  11.785  0.2962 -0.2633  0.2817
    2MPD1    H614069   2.812   1.394  11.760  0.3190 -0.6002 -0.1833
    2MPD1    H714070   2.653   1.400  11.728 -2.6007 -1.5832  2.7014
    1TCq1    O114071   3.658   0.683   1.682  0.0138 -1.0573  0.2258
    1TCq1    C114072   3.601   0.796   1.730 -0.4180  0.6622  0.1800
    1TCq1    O214073   3.550   0.892   1.671  0.0830 -0.2236 -0.1699
    1TCq1    C214074   3.636   0.809   1.871 -0.1716  0.0935 -0.8060
    1TCq1    C314075   3.728   0.727   1.926 -0.9199 -0.2367  0.5540
    1TCq1    C414076   3.774   0.764   2.050  0.0410 -0.6501 -0.0224
    1TCq1    C514077   3.725   0.872   2.122 -0.7736 -0.1292 -0.3821
    1TCq1    C614078   3.627   0.956   2.059 -0.0481 -0.1036  0.1540
    1TCq1    C714079   3.593   0.920   1.935 -0.5653 -0.1554  0.3919
    1TCq1    C814080   3.644   1.100   2.067 -0.4211  0.0310 -0.1803
    1TCq1    O414081   3.618   1.167   1.965  0.7071  0.1615 -0.0212
    1TCq1    C914082   3.845   0.657   2.117  0.4571  0.2660 -0.4573
    1TCq1    O514083   3.845   0.551   2.055  0.1359  0.5244 -0.0998
    1TCq1    O614084   3.884   0.678   2.235 -0.5598  0.1925  0.0328
    1TCq1    H114085   3.663   0.611   1.749 -0.4843 -1.5844 -0.3016
    1TCq1    H214086   3.783   0.649   1.876 -1.1186  0.6066 -0.9862
    1TCq1    H314087   3.751   0.868   2.227 -2.1392  1.5478  0.0369
    1TCq1    H414088   3.518   0.976   1.879  0.9518  1.9824  0.4927
    2MPD1     C14089   3.823   1.515   2.329 -0.2413  0.1758  0.2485
    2MPD1    C114090   3.851   1.403   2.408 -0.2294  0.4539  0.4761
    2MPD1    C214091   3.817   1.274   2.349  0.0524  0.2437  0.3234
    2MPD1    C314092   3.756   1.262   2.220  0.0226  0.0071 -0.3985
    2MPD1    C414093   3.744   1.375   2.146  0.7154  1.2034 -0.3905
    2MPD1    C514094   3.779   1.500   2.199 -0.0551  0.2544  0.0389
    2MPD1     H14095   3.836   1.182   2.404 -0.4492  1.8414  3.1638
    2MPD1    H114096   3.705   1.367   2.045 -0.1728 -3.6826  0.3466
    2MPD1    H214097   3.843   1.615   2.365 -0.9114  0.1676  0.6383
    2MPD1    H314098   3.763   1.590   2.141 -2.8730 -1.0042 -1.1071
    2MPD1     N14099   3.708   1.133   2.182  0.0119  0.2848 -0.3468
    2MPD1    H514100   3.702   1.064   2.256  1.6648  1.5712  0.9947
    2MPD1    N114101   3.889   1.408   2.544  0.6348  0.1890  0.3264
    2MPD1    H614102   3.942   1.490   2.571 -1.7538  1.5273  1.0159
    2MPD1    H714103   3.958   1.338   2.568  1.8726  1.5064  0.6193
    1MPD1     C14104   2.265   2.451  11.436  0.3372 -0.0888 -0.6091
    1MPD1    C114105   2.333   2.444  11.552 -0.1987 -0.6935 -0.4544
    1MPD1    C214106   2.449   2.520  11.570 -0.2087  0.2804 -1.0349
    1MPD1    C314107   2.495   2.598  11.461  0.3588 -0.6861 -0.2961
    1MPD1    C414108   2.434   2.596  11.341  0.1289  0.4107 -0.4746
    1MPD1    C514109   2.319   2.523  11.333  0.7473  0.0443 -0.4776
    1MPD1     H14110   2.496   2.519  11.668 -2.8005  0.8005  0.2198
    1MPD1    H114111   2.473   2.639  11.249  0.1040  1.4750  0.0086
    1MPD1    H214112   2.165   2.410  11.428  0.5049 -0.2256 -2.1109
    1MPD1    H314113   2.265   2.540  11.241  0.7608  0.3625 -0.4284
    1MPD1     N14114   2.616   2.669  11.475  0.4159  0.1415  0.2651
    1MPD1    H514115   2.662   2.641  11.561  2.3006  0.5323 -0.6147
    1MPD1    N114116   2.271   2.386  11.671 -0.4414  0.4108  0.4366
    1MPD1    H614117   2.213   2.306  11.647  0.1607  0.3043 -0.6568
    1MPD1    H714118   2.343   2.352  11.735  0.2921 -2.0454 -1.6862
    2MPD1     C14119   1.896   2.200  11.538  0.8464  0.1008 -0.0518
    2MPD1    C114120   2.021   2.144  11.516 -0.0029 -0.4227  0.0207
    2MPD1    C214121   2.073   2.144  11.386  1.1131 -0.5036 -0.3098
    2MPD1    C314122   1.994   2.190  11.279 -0.6902  0.4884 -0.1047
    2MPD1    C414123   1.867   2.232  11.309 -0.3309  0.7378  0.2372
    2MPD1    C514124   1.817   2.231  11.435  0.3228 -0.0688  0.1789
    2MPD1     H14125   2.175   2.111  11.370  1.7618  0.5295  1.7689
    2MPD1    H114126   1.795   2.272  11.239 -0.7680  1.2376  0.9706
    2MPD1    H214127   1.851   2.215  11.635  1.2247  0.1224  0.1226
    2MPD1    H314128   1.715   2.263  11.453  0.5864  0.1271  1.3312
    2MPD1     N14129   2.036   2.196  11.145 -0.0102 -0.3079 -0.0066
    2MPD1    H514130   1.971   2.240  11.080 -0.9724 -0.7780  0.6359
    2MPD1    N114131   2.099   2.108  11.627 -0.0840 -0.4869 -0.6334
    2MPD1    H614132   2.047   2.075  11.708 -0.1223  1.0801 -0.0005
    2MPD1    H714133   2.173   2.043  11.604  3.1645  2.3843  1.5223
    3MPD1     C14134   1.913   1.831  10.206 -0.1662 -0.0182  0.5913
    3MPD1    C114135   2.033   1.910  10.193  0.3796  0.0932  0.0384
    3MPD1    C214136   2.100   1.954  10.309  0.0930 -0.1265 -0.6609
    3MPD1    C314137   2.048   1.941  10.434 -0.1123  0.1089  0.2619
    3MPD1    C414138   1.929   1.859  10.445  0.4622  0.3380 -0.1912
    3MPD1    C514139   1.876   1.800  10.331  0.4621  0.0210  0.4446
    3MPD1     H14140   2.191   2.011  10.296  0.2301  0.0384  0.9986
    3MPD1    H114141   1.875   1.849  10.538  1.6286 -1.8519  0.2633
    3MPD1    H214142   1.853   1.782  10.130 -1.0623  0.9528  0.6821
    3MPD1    H314143   1.786   1.740  10.344  2.3658 -2.6129  1.6134
    3MPD1     N14144   2.119   1.989  10.547 -0.0063 -0.9856 -0.1705
    3MPD1    H514145   2.212   2.023  10.526 -0.8174  0.6370 -1.1675
    3MPD1    N114146   2.098   1.917  10.066  0.1139 -0.1205 -0.4907
    3MPD1    H614147   2.147   2.005  10.053 -2.3026  1.4456  0.9417
    3MPD1    H714148   2.030   1.913   9.990  2.4518 -0.9647 -2.5389
    4MPD2     C14149   3.090   2.816  10.907 -0.3343  0.1162  0.0879
    4MPD2    C114150   3.127   2.745  11.016 -0.6250 -0.3128  0.0189
    4MPD2    C214151   3.188   2.617  11.002  0.2009  0.3304 -0.5145
    4MPD2    C314152   3.206   2.553  10.879  0.5580  0.0401 -0.2824
    4MPD2    C414153   3.170   2.627  10.768 -0.0424 -0.0967  0.6652
    4MPD2    C514154   3.109   2.752  10.788 -0.9219 -0.5018  0.7172
    4MPD2     H14155   3.227   2.561  11.086 -1.8304  0.2078  0.3387
    4MPD2    H114156   3.167   2.579  10.671 -0.5021  2.3895 -0.5591
    4MPD2    H214157   3.026   2.902  10.918  1.2429  1.6047 -2.1638
    4MPD2    H314158   3.058   2.796  10.703 -3.0119 -2.0372  1.1939
    4MPD2     N14159   3.258   2.424  10.873 -0.1891 -0.0946  0.0225
    4MPD2    H514160   3.272   2.375  10.961 -0.3113 -3.3773 -1.7701
    4MPD2    N114161   3.118   2.796  11.145  0.4305  0.4408  0.7002
    4MPD2    H714162   3.154   2.733  11.216 -1.6720 -2.5791 -0.9077
    5TMC3    C114163   3.003   2.880  11.331  0.6357 -0.3566 -0.2619
    5TMC3    C214164   2.866   2.881  11.341 -0.1061  0.0593 -0.3687
    5TMC3    C314165   2.812   2.786  11.422 -0.0231  0.2463 -0.0782
    5TMC3    C414166   3.077   2.789  11.397 -0.3731 -0.0059 -0.6258
    5TMC3    C514167   3.020   2.694  11.475 -0.1031  0.8795 -0.2046
    5TMC3    C614168   2.883   2.694  11.490 -0.2135 -0.5742  0.0176
    5TMC3     C14169   3.034   2.891  11.185  0.3205  0.1815  0.3772
    5TMC3     O14170   2.980   2.985  11.129  0.5104  0.3018  0.1489
    5TMC3     H14171   2.808   2.935  11.267  1.4503 -0.2387 -1.8114
    5TMC3    H114172   3.184   2.796  11.381  0.0323  0.0113  2.0869
    5TMC3    H214173   2.822   2.614  11.530 -2.4585  0.0286 -2.1815
    5TMC3    C714174   3.075   2.565  11.447  0.8311  0.5125 -0.1462
    5TMC3    C814175   2.678   2.746  11.378 -0.1449 -0.0741 -0.6117
    5TMC3    O114176   3.179   2.562  11.383 -0.1637 -0.1926  0.1126
    5TMC3    O214177   2.637   2.798  11.277  0.1788 -0.0513  0.0658
    6TMC3    C114178   2.179   2.177  10.959 -0.4073  0.0291  0.1087
    6TMC3    C214179   2.114   2.083  10.888  0.3596  0.3696 -0.0523
    6TMC3    C314180   2.168   2.049  10.758  0.2265  0.7081 -0.1429
    6TMC3    C414181   2.308   2.215  10.913  0.2345 -0.3531  0.4677
    6TMC3    C514182   2.360   2.169  10.795  0.6072  0.2701  0.2793
    6TMC3    C614183   2.285   2.096  10.707 -0.0182  0.0061 -0.0075
    6TMC3     C14184   2.164   2.162  11.101 -0.1830 -0.5117 -0.6383
    6TMC3     O14185   2.264   2.141  11.168 -0.3919  1.2629  0.3758
    6TMC3     H14186   2.022   2.039  10.923  0.6117  0.2059  0.4140
    6TMC3    H114187   2.364   2.287  10.972  1.1570 -0.2984 -0.4798
    6TMC3    H214188   2.340   2.033  10.638  0.9924 -0.1830  0.9645
    6TMC3    C714189   2.485   2.100  10.815  1.2564 -0.3916  0.0250
    6TMC3    C814190   2.071   1.985  10.673 -0.2013 -0.6924 -0.5759
    6TMC3    O114191   2.558   2.071  10.719  0.8080  0.5889 -0.1013
    6TMC3    O214192   1.965   1.944  10.720 -0.0315  0.8478 -0.5739
    7MPD2     C14193   3.074   2.058  11.447 -0.4633  0.5478  0.0290
    7MPD2    C114194   3.132   2.149  11.351  0.0039 -0.1358  0.5584
    7MPD2    C214195   3.105   2.285  11.375 -0.1144 -1.1384 -0.2443
    7MPD2    C314196   3.026   2.324  11.488  0.4660  0.1945 -0.2796
    7MPD2    C414197   2.978   2.230  11.577 -0.4152  1.2285  0.2139
    7MPD2    C514198   3.002   2.096  11.555  0.2820  0.7404  0.0212
    7MPD2     H14199   3.112   2.363  11.300  1.0173 -0.0277  1.0339
    7MPD2    H114200   2.917   2.261  11.661  1.4625 -0.2129  2.1260
    7MPD2    H214201   3.086   1.953  11.424  2.5529  0.9665 -0.2611
    7MPD2    H314202   2.970   2.025  11.630  3.7048  0.1503  0.9194
    7MPD2     N14203   3.003   2.460  11.504  0.3497 -0.2495 -0.6604
    7MPD2    H514204   2.918   2.488  11.552 -0.8829 -2.8801 -1.3445
    7MPD2    N114205   3.189   2.103  11.227  0.8345  0.0496  0.3523
    7MPD2    H714206   3.192   2.002  11.216 -0.8130 -0.0413  0.7342
    8TMC3    C114207   3.309   2.103  11.026  0.3030  0.0187  0.1426
    8TMC3    C214208   3.226   2.003  10.986 -0.2951 -0.0676  0.0590
    8TMC3    C314209   3.173   2.016  10.864 -1.1250 -0.2064 -0.6801
    8TMC3    C414210   3.356   2.193  10.936 -0.0188  0.3529  0.2369
    8TMC3    C514211   3.310   2.206  10.810 -0.0278  0.2442 -1.0606
    8TMC3    C614212   3.213   2.106  10.771 -0.4245 -0.0078 -0.0248
    8TMC3     C14213   3.258   2.181  11.145 -0.4805 -0.2073 -0.1304
    8TMC3     O14214   3.288   2.300  11.147 -0.1018  0.2865 -0.4376
    8TMC3     H14215   3.208   1.915  11.047 -2.6282  0.3764 -0.0082
    8TMC3    H114216   3.436   2.259  10.966  0.4478 -0.4863  0.8082
    8TMC3    H214217   3.165   2.120  10.675  0.3044  2.0808 -0.0979
    8TMC3    C714218   3.285   2.343  10.761  0.9735 -0.9026  0.8297
    8TMC3    C814219   3.029   2.006  10.860  0.2371  1.4415  0.2815
    8TMC3    O114220   3.293   2.371  10.645  0.0150  0.3900  0.3720
    8TMC3    O214221   2.979   2.045  10.753 -0.6336 -0.5144  0.3323
    9MPD2     C14222   2.817   1.915  11.145 -0.2846  1.0905  0.4769
    9MPD2    C114223   2.834   1.947  11.013 -0.2844  0.0715 -0.3960
    9MPD2    C214224   2.729   2.002  10.940  0.3008 -0.6560 -0.2065
    9MPD2    C314225   2.606   2.021  11.007 -0.3696 -0.0095 -0.0442
    9MPD2    C414226   2.588   1.976  11.133  0.4392  0.0218 -0.9142
    9MPD2    C514227   2.691   1.922  11.203 -0.6296  0.4783 -0.1997
    9MPD2     H14228   2.747   2.040  10.840  1.0362 -2.3771 -0.7172
    9MPD2    H114229   2.497   1.990  11.189 -0.3527 -1.0322 -1.9334
    9MPD2    H214230   2.897   1.884  11.211  0.5941  2.1031 -0.1113
    9MPD2    H314231   2.681   1.909  11.310 -0.5622 -0.2643 -0.2833
    9MPD2     N14232   2.493   2.080  10.945 -0.0981 -0.7184 -0.1210
    9MPD2    H514233   2.410   2.099  11.000 -1.7000 -0.4897 -2.6343
    9MPD2    N114234   2.970   1.960  10.978 -0.5981  0.0078 -0.5054
    9MPD2    H714235   3.030   1.938  11.056 -0.7985  0.9570 -0.0818
    1MPD1     C14236   0.930   4.541   0.299  0.4445  0.2236  0.4670
    1MPD1    C114237   1.010   4.634   0.350 -0.4212  0.0725  0.0360
    1MPD1    C214238   0.985   4.692   0.475  0.4248 -0.3893  0.2231
    1MPD1    C314239   0.869   4.659   0.544  0.7533 -0.3791  0.0404
    1MPD1    C414240   0.776   4.584   0.471  0.1190  0.6821  0.4080
    1MPD1    C514241   0.811   4.517   0.357  0.0452  0.0015 -0.3251
    1MPD1     H14242   1.056   0.034   0.525  0.3654  0.6175 -1.0182
    1MPD1    H114243   0.678   4.569   0.515 -0.2577  0.8243 -0.3797
    1MPD1    H214244   0.948   4.503   0.198  1.8531 -1.1212  1.2261
    1MPD1    H314245   0.738   4.452   0.308 -0.1858  1.2260 -1.6114
    1MPD1     N14246   0.823   4.715   0.665 -0.0830 -0.6609 -0.7214
    1MPD1    H514247   0.730   4.686   0.694  0.1812 -2.3927 -1.5994
    1MPD1    N114248   1.122   4.667   0.275 -0.6843 -0.4037 -0.1693
    1MPD1    H614249   1.159   0.038   0.292  2.9476 -1.9592  0.6393
    1MPD1    H714250   1.112   4.637   0.179  1.5746 -1.1190 -0.1893
    2MPD1     C14251   1.357   0.388   1.400 -0.7745 -0.0324  0.9632
    2MPD1    C114252   1.349   0.438   1.268 -0.0915  0.1289  0.2881
    2MPD1    C214253   1.242   0.398   1.194 -0.0289  0.1142  0.2097
    2MPD1    C314254   1.135   0.332   1.245  0.3222  0.6162  0.6293
    2MPD1    C414255   1.145   0.282   1.381  0.1008  0.0603  0.0742
    2MPD1    C514256   1.255   0.314   1.451  0.4315 -0.5267 -0.0049
    2MPD1     H14257   1.241   0.427   1.090 -0.3654 -2.2422 -0.4231
    2MPD1    H114258   1.079   0.205   1.422 -1.1268  0.5371 -1.0178
    2MPD1    H214259   1.442   0.405   1.464  2.0233 -1.6107 -2.3325
    2MPD1    H314260   1.277   0.264   1.545 -0.6782 -0.6685  0.1757
    2MPD1     N14261   1.032   0.293   1.159  0.3788  0.0082 -0.2491
    2MPD1    H514262   1.035   0.330   1.064 -1.5086 -1.6727 -0.9586
    2MPD1    N114263   1.458   0.498   1.200 -0.0136  0.5094 -0.4231
    2MPD1    H614264   1.419   0.562   1.131  1.7154  2.7667  0.6487
    2MPD1    H714265   1.500   0.565   1.265 -0.5113  0.5213 -0.1124
    3TCq2    C114266   0.908   0.245   1.208  0.1482  0.3217  0.5035
    3TCq2    O214267   0.855   0.229   1.318  0.4817 -0.3713 -0.2186
    3TCq2    C214268   0.835   0.205   1.086 -0.5138  0.1482 -0.2634
    3TCq2    C314269   0.703   0.171   1.109  0.1860  0.0706 -0.0785
    3TCq2    C414270   0.637   0.101   1.010 -0.5004  0.6053  0.7512
    3TCq2    C514271   0.698   0.063   0.892  0.6735  0.1550 -0.7039
    3TCq2    C614272   0.830   0.102   0.871  0.7125 -0.3039  0.1280
    3TCq2    C714273   0.895   0.181   0.965 -0.6249  0.1245  0.0566
    3TCq2    C814274   0.901   0.067   0.751  0.1303  0.1321  0.3397
    3TCq2    O414275   1.020   0.100   0.739 -0.3926  0.4696 -0.4218
    3TCq2    C914276   0.509   0.045   1.039 -0.1722 -0.1371  0.2246
    3TCq2    O514277   0.450   0.076   1.144 -0.0987 -0.2680  0.1985
    3TCq2    O614278   0.468   4.688   0.954 -0.3294 -0.1842  0.6770
    3TCq2    H214279   0.657   0.182   1.207 -1.2697  0.5245 -0.8267
    3TCq2    H314280   0.644   4.713   0.834 -2.6744  0.4298  2.0912
    3TCq2    H414281   0.996   0.214   0.944 -0.6402  0.4655  0.5314
    1TCq1    O114282   4.264   4.301  12.313 -0.4189 -0.1593  0.5763
    1TCq1    C114283   4.379   4.357  12.286 -0.9473  0.8845  0.2787
    1TCq1    O214284   4.420   4.413  12.188 -0.2570 -0.1425 -0.1306
    1TCq1    C214285   4.467   4.310  12.395  0.5606 -0.1878 -0.4910
    1TCq1    C314286   4.435   4.211  12.480  0.2219 -0.8960 -0.6559
    1TCq1    C414287   4.527   4.179  12.576 -0.1870 -0.7189  0.1522
    1TCq1    C514288   4.648   4.243  12.590  0.1452 -0.6442  0.2718
    1TCq1    C614289   4.673   4.349  12.505 -0.0343 -0.4088  0.7022
    1TCq1    C714290   4.580   4.382  12.405  0.0067 -0.5578  0.1493
    1TCq1    C814291   0.075   4.415  12.503 -0.6574  0.0250 -0.4349
    1TCq1    O414292   0.099   4.476  12.402  0.0737 -0.0326 -0.0397
    1TCq1    C914293   4.503   4.063  12.649  1.1302 -0.2107  0.1606
    1TCq1    O514294   4.583   4.018  12.737  0.1874 -0.1344 -0.1667
    1TCq1    O614295   4.393   4.007  12.631  0.1913 -0.0644  0.2269
    1TCq1    H114296   4.252   4.275  12.406 -0.3805 -1.8684  0.1105
    1TCq1    H214297   4.349   4.146  12.471  0.2779 -0.9990 -0.4248
    1TCq1    H314298   0.001   4.208  12.658 -2.0498 -0.5920  2.7610
    1TCq1    H414299   4.583   4.473  12.346 -1.4084 -1.8533 -1.8890
    2MPD2     C14300   0.275   4.624  12.580  0.3816 -0.3045 -0.1865
    2MPD2    C114301   0.260   4.500  12.649 -0.5895 -0.2983 -0.1768
    2MPD2    C214302   0.339   4.475  12.756 -0.1589  0.1096  0.4740
    2MPD2    C314303   0.442   4.558  12.799  0.8563  0.2962  0.1023
    2MPD2    C414304   0.469   4.668  12.719 -0.4015  0.5495  0.2575
    2MPD2    C514305   0.389   4.703  12.614 -0.4216  0.1376  1.3589
    2MPD2     H14306   0.309   4.389  12.814 -4.3543  0.1341 -1.6023
    2MPD2    H114307   0.552   0.012  12.735 -2.0488  2.7108 -0.3247
    2MPD2    H214308   0.200   4.659  12.510  0.3179 -0.9963 -0.4617
    2MPD2    H314309   0.408   0.071  12.558  1.2480 -0.3043  1.2209
    2MPD2     N14310   0.509   4.524  12.916  0.5054  0.0099 -0.0499
    2MPD2    H514311   0.493   4.432  12.955  3.1673 -0.5091 -0.1214
    2MPD2    N114312   0.145   4.424  12.618 -0.0915  0.5417 -0.8122
    2MPD2    H714313   0.117   4.359  12.691 -1.5477  1.5280 -0.5057
    3TCq1    O114314   0.833   4.226  12.886 -0.3426 -0.2380  0.1808
    3TCq1    C114315   0.871   4.229  13.014 -0.5417 -0.1667 -0.1760
    3TCq1    O214316   0.884   4.127  13.083 -0.5014 -0.0143  0.7982
    3TCq1    C214317   0.815   4.353  13.083  0.3166 -1.2778 -0.4709
    3TCq1    C314318   0.891   4.427  13.172  0.3310  0.3062  0.1010
    3TCq1    C414319   0.835   4.537  13.234  0.5127  0.7131  0.4279
    3TCq1    C514320   0.729   4.594  13.180  0.3551 -0.1705  0.0374
    3TCq1    C614321   0.672   4.527  13.078 -0.5239 -0.2886 -0.2091
    3TCq1    C714322   0.706   4.404  13.039 -0.1608  0.1588  0.6592
    3TCq1    C814323   0.599   4.598  12.978  0.1853 -0.4347  0.6409
    3TCq1    O414324   0.620   4.715  12.955  0.2341 -1.0703  0.6695
    3TCq1    C914325   0.907   4.604  13.339  0.7634  0.6570 -0.1166
    3TCq1    O514326   0.878   0.001  13.361 -0.0503  0.4708 -0.5061
    3TCq1    O614327   0.992   4.539  13.398 -0.3270 -0.2476  0.3286
    3TCq1    H114328   0.843   4.314  12.845 -2.3925  0.3635  1.0176
    3TCq1    H214329   0.982   4.383  13.211  1.0121  2.0617  0.4861
    3TCq1    H314330   0.690   4.690  13.211  2.8906  0.7617  0.4153
    3TCq1    H414331   0.657   4.348  12.960 -0.3384  1.0946  0.0996
    1MPD2     C14332   4.588   0.395  14.336 -0.3398 -0.1547 -0.3023
    1MPD2    C114333   4.456   0.388  14.292  0.1826 -0.0066 -0.1237
    1MPD2    C214334   4.373   0.292  14.356  0.6304 -0.5396 -0.1679
    1MPD2    C314335   4.418   0.217  14.469 -0.3155  0.6144  0.5174
    1MPD2    C414336   4.553   0.236  14.510 -0.0252 -0.6001  0.2800
    1MPD2    C514337   4.635   0.324  14.443 -0.3918 -0.8641  0.4807
    1MPD2     H14338   4.272   0.278  14.321  0.0188  3.2536  0.0527
    1MPD2    H114339   4.604   0.187  14.593  1.7707  0.5280 -0.1645
    1MPD2    H214340   4.660   0.460  14.286  0.6434 -0.4162  0.7802
    1MPD2    H314341   0.011   0.332  14.485 -0.8602  1.6922  1.1279
    1MPD2     N14342   4.333   0.126  14.536 -0.9385  0.0657  0.1983
    1MPD2    H514343   4.363   0.086  14.625 -1.5223 -1.1044 -0.1278
    1MPD2    N114344   4.425   0.460  14.175 -0.0523 -0.4202  0.3198
    1MPD2    H714345   4.496   0.525  14.141 -1.3960  1.0555  0.3228
    2TMC3    C114346   4.271   0.544  14.004  0.0029  0.2199 -0.1538
    2TMC3    C214347   4.141   0.514  13.970 -0.6596  0.0667  0.4899
    2TMC3    C314348   4.059   0.620  13.960 -0.5617  0.0960 -0.1342
    2TMC3    C414349   4.328   0.669  14.024  0.0323  0.4763 -1.0178
    2TMC3    C514350   4.233   0.771  14.013 -0.2418 -0.2438 -0.7211
    2TMC3    C614351   4.102   0.745  13.980 -0.4291  0.3966  0.0282
    2TMC3     C14352   4.309   0.444  14.100  0.4818  0.3845 -0.0613
    2TMC3     O14353   4.213   0.373  14.130  0.0852 -0.2083  0.5776
    2TMC3     H14354   4.108   0.414  13.946  0.7957 -0.3389  0.1696
    2TMC3    H114355   4.431   0.692  14.049 -0.5466  0.5553  1.2806
    2TMC3    H214356   4.027   0.823  13.991 -0.2490  0.3908  1.3586
    2TMC3    C714357   4.284   0.911  14.009 -0.4214 -0.1948 -0.8965
    2TMC3    C814358   3.940   0.593  14.044  0.2565 -0.0882  0.4501
    2TMC3    O114359   4.209   0.993  13.957 -0.3252 -0.0270 -0.3181
    2TMC3    O214360   3.838   0.668  14.041 -0.0743 -0.5897  0.5274
    3TCq1    O114361   0.411   0.861  14.710  0.9944 -0.2243 -0.3518
    3TCq1    C114362   0.293   0.898  14.663  0.6046 -0.4811  0.2580
    3TCq1    O214363   0.190   0.851  14.704 -0.3985  0.3196  0.0472
    3TCq1    C214364   0.305   1.009  14.574  0.9405 -0.1663 -0.2830
    3TCq1    C314365   0.413   1.091  14.584 -0.5794  0.2826  0.3562
    3TCq1    C414366   0.415   1.213  14.522 -0.1370  0.2429 -0.3126
    3TCq1    C514367   0.300   1.263  14.462 -0.3263 -0.0285  0.3669
    3TCq1    C614368   0.198   1.187  14.461 -0.0700  0.4385 -0.1102
    3TCq1    C714369   0.193   1.061  14.514  0.0935 -0.2578 -0.0124
    3TCq1    C814370   0.098   1.233  14.364 -1.0189  0.9342 -0.0185
    3TCq1    O414371   0.123   1.334  14.296  0.1824 -0.1806 -0.9258
    3TCq1    C914372   0.529   1.299  14.521 -0.2241  0.5346 -0.1950
    3TCq1    O514373   0.634   1.261  14.576  0.0864  0.1773 -0.4831
    3TCq1    O614374   0.518   1.398  14.446  0.7467 -0.2890  0.1709
    3TCq1    H114375   0.486   0.896  14.656  1.7697 -2.8416 -1.0043
    3TCq1    H214376   0.497   1.062  14.647  0.8129  0.4595 -1.4332
    3TCq1    H314377   0.299   1.363  14.419 -0.4575 -0.4960 -0.7264
    3TCq1    H414378   0.106   0.997  14.519  2.0691 -3.0281 -0.8726
    4MPD2     C14379   4.587   1.287  14.185 -0.5261 -0.3604  0.3557
    4MPD2    C114380   4.616   1.171  14.263  0.7336  0.1245 -0.6974
    4MPD2    C214381   4.536   1.061  14.232 -0.4416  0.2806  0.4770
    4MPD2    C314382   4.445   1.054  14.129 -0.0850  0.3864  0.8142
    4MPD2    C414383   4.413   1.168  14.060  0.1973  0.6359 -0.6722
    4MPD2    C514384   4.486   1.280  14.086 -0.3599  0.0522  0.1958
    4MPD2     H14385   4.548   0.974  14.295 -1.4795 -1.1252 -1.2780
    4MPD2    H114386   4.329   1.171  13.991 -1.1025 -2.5080  0.7802
    4MPD2    H214387   4.642   1.380  14.199 -1.1080 -0.0755  0.7705
    4MPD2    H314388   4.472   1.363  14.017  2.1703  3.2013  3.4679
    4MPD2     N14389   4.384   0.930  14.100  0.1243 -0.6387  0.0446
    4MPD2    H514390   4.413   0.851  14.156  1.5202 -0.1245  0.0344
    4MPD2    N114391   4.721   1.150  14.353  0.1840  0.0314  0.5655
    4MPD2    H714392   0.010   1.054  14.382  0.3456  0.6568  2.5208
    5TMC2    C114393   3.898   4.685  14.571  0.0819 -0.0668 -0.3267
    5TMC2    C214394   3.891   4.702  14.706 -0.2055  0.0669  0.5062
    5TMC2    C314395   4.012   4.716  14.771  0.7396 -0.6367  0.0697
    5TMC2    C414396   4.018   4.677  14.507  0.2263  0.2724 -0.4108
    5TMC2    C514397   4.135   4.710  14.568  0.2200  0.4002  0.7416
    5TMC2    C614398   4.135   4.716  14.704 -0.2906 -0.0068  0.3414
    5TMC2     C14399   3.798   0.031  14.497  0.6409  0.2166 -0.4952
    5TMC2     O14400   3.679   0.016  14.518  0.1762  0.3125 -0.1264
    5TMC2     H14401   3.799   4.693  14.762  0.5224  2.1791  2.0495
    5TMC2    H114402   4.023   4.644  14.404  1.6089  0.2529 -0.3427
    5TMC2    H214403   4.219   0.024  14.765  0.2381 -1.7286  0.4940
    5TMC2    C714404   4.210   0.083  14.488  0.0621 -0.1512  0.0746
    5TMC2    C814405   4.003   0.057  14.904  0.5303  0.2756 -0.2780
    5TMC2    O114406   4.135   0.137  14.404 -0.1225 -0.0404 -0.3859
    5TMC2    O214407   4.102   0.111  14.945 -0.1682  0.3937  0.3729
    5TMC2    O514408   3.926   4.691  14.970  0.0930 -0.5348  0.3235
    5TMC2    H514409   3.877   4.625  14.916 -0.7863  0.4617 -0.0869
    6MPD2     C14410   3.707   0.444  14.197  0.3658  0.3743  0.7877
    6MPD2    C114411   3.851   0.419  14.197  0.5783 -0.3589 -0.1939
    6MPD2    C214412   3.894   0.314  14.272  0.4070  0.3094  0.5881
    6MPD2    C314413   3.802   0.235  14.344  0.1284  0.0687 -0.3905
    6MPD2    C414414   3.662   0.264  14.342  0.2993 -0.2944 -0.8583
    6MPD2    C514415   3.617   0.366  14.266 -0.7318 -0.4880 -0.5914
    6MPD2     H14416   3.999   0.289  14.265  0.2700 -0.6032  1.7827
    6MPD2    H114417   3.591   0.190  14.378  2.5814 -1.4860  1.1772
    6MPD2    H214418   3.658   0.524  14.141  1.5222  0.5842  0.0686
    6MPD2    H314419   3.513   0.393  14.253 -0.3970  0.9088 -0.3565
    6MPD2     N14420   3.858   0.121  14.410  0.4838  0.1900  0.0125
    6MPD2    H514421   3.957   0.107  14.391  0.2304 -0.7775 -0.5550
    6MPD2    N114422   3.956   0.476  14.118 -0.3405 -0.4189 -0.0316
    6MPD2    H714423   4.050   0.438  14.120  0.7574  2.2297 -0.5801
  945NH3     N114424   1.860   1.791  11.869 -0.4050  0.3747  0.3687
  945NH3     H214425   1.907   1.785  11.959  1.8024  1.3858 -0.7380
  945NH3     H314426   1.940   1.780  11.808 -0.8770  2.5542 -0.6403
  945NH3     H414427   1.834   1.886  11.848  0.2316  0.2803 -0.8070
  946SOD     NA14428   2.881   3.499  15.032  0.1850 -0.0669 -0.0438
  947SOD     NA14429   0.869   1.740  14.933  0.2569  0.2104 -0.1882
  948SOD     NA14430   4.177   0.382  13.526  0.1611 -0.0176 -0.4637
  949SOD     NA14431   0.555   3.042   6.885 -0.0037  0.3137  0.5242
  950SOD     NA14432   4.301   4.659  10.363 -0.3445 -0.1120  0.2459
  951SOD     NA14433   0.877   0.592  14.691 -0.1481 -0.0512 -0.0094
  952SOD     NA14434   2.261   0.345   2.923  0.1762 -0.3376  0.4709
  953SOD     NA14435   4.573   4.401  10.118 -0.4132  0.0068 -0.0665
  954SOD     NA14436   1.822   1.318  11.691  0.1213 -0.1683 -0.2635
  955SOD     NA14437   2.504   0.908  15.419  0.1778  0.0533 -0.1540
  956SOD     NA14438   1.917   3.219  15.154 -0.1290 -0.1402 -0.0690
  957SOD     NA14439   2.295   1.160   8.063 -0.4219 -0.1829 -0.3190
  958SOD     NA14440   0.791   1.865   0.020 -0.3379 -0.4889 -0.2333
  959SOD     NA14441   1.271   0.725  15.791  0.1475  0.3291  0.2949
  960SOD     NA14442   1.943   3.617  13.601  0.4415  0.4081  0.4773
  961SOD     NA14443   0.608   1.737   9.746  0.7285 -0.0428 -0.1429
  962SOD     NA14444   0.178   4.562  12.225 -0.0163  0.3542  0.1185
  963SOD     NA14445   1.482   0.421   6.319  0.2411  0.2175  0.2000
  964SOD     NA14446   4.721   3.571  10.261 -0.3777  0.2359  0.2479
  965SOD     NA14447   0.415   0.903   2.274  0.3491  0.5901 -0.2840
  966SOD     NA14448   1.712   1.622  11.803 -0.2896 -0.0715 -0.2400
  967SOD     NA14449   0.755   0.334  11.648 -0.1281 -0.2924  0.0168
  968SOD     NA14450   0.346   4.244   1.086  0.0609  0.1475 -0.1672
  969SOD     NA14451   0.003   4.063   9.013 -0.3698  0.3276 -0.0501
  970SOD     NA14452   4.493   3.438  10.472 -0.2750  0.1658 -0.2622
  971SOD     NA14453   0.993   4.129  12.218 -0.0331 -0.6615 -0.6036
  972SOD     NA14454   0.843   4.054  11.729 -0.1218  0.0980 -0.1293
  973SOD     NA14455   1.305   4.408  13.616 -0.2025  0.3416  0.0659
  974SOD     NA14456   4.189   3.949  12.640  0.3096 -0.3613 -0.3967
  975SOD     NA14457   1.078   2.920  16.745 -0.3932  0.1063 -0.6276
  976SOD     NA14458   2.125   3.439  14.442 -0.4692 -0.7751 -0.0114
  977SOD     NA14459   0.236   2.239   1.435  0.1006  0.0970 -0.2634
  978SOD     NA14460   1.678   3.796   4.910 -0.1830  0.3836  0.1728
  979SOD     NA14461   1.307   0.403  11.340  0.1090  0.5229 -0.2242
  980SOD     NA14462   1.627   1.371  11.988  0.2896  0.0344  0.0971
  981SOD     NA14463   3.644   2.730   8.238 -0.3327  0.2320 -0.3660
  982SOD     NA14464   0.111   4.380   2.648  0.3834  0.0236 -0.2282
  983SOD     NA14465   3.517   3.784  11.051 -0.6346  0.2713  0.6389
  984SOD     NA14466   4.334   4.330  10.290  0.3041 -0.2909  0.0783
  985SOD     NA14467   4.186   3.353  10.541 -0.2954 -0.5947 -0.0216
  986SOD     NA14468   0.955   0.611  15.663  0.1656  0.2161 -0.5490
  987SOD     NA14469   4.509   3.862  10.090 -0.3155  0.5320  0.2134
  988SOD     NA14470   3.772   0.384   1.951  0.0371  0.0662  0.4004
  989SOD     NA14471   4.582   4.125  10.264 -0.0709  0.0580 -0.2063
  990SOD     NA14472   0.082   1.112   1.618  0.0858  0.3239  0.9136
  991SOD     NA14473   0.820   0.391  14.438  0.2314  0.5546 -0.5780
  992SOD     NA14474   0.717   1.456  14.611  0.4248  0.0012  0.6238
  993SOD     NA14475   0.312   4.612   8.797 -0.6060  0.1574  0.5869
  994SOD     NA14476   1.634   4.244  14.287  0.0352 -0.1138  0.3875
  995SOD     NA14477   4.691   0.682   0.432  0.0341  0.5969 -0.1457
  996SOD     NA14478   1.507   3.573   0.987 -0.0603  0.0532 -0.4109
  997SOD     NA14479   3.387   4.554  10.750  0.3408  0.6752 -0.5031
  998SOD     NA14480   2.032   2.694   1.419  0.2619  0.2000 -0.2826
  999SOD     NA14481   1.459   2.882   3.013  0.0304  0.0093 -0.4169
 1000SOD     NA14482   0.770   1.114  14.632 -0.0980  0.0086 -0.4973
 1001SOD     NA14483   3.824   3.970   4.373 -0.0249 -0.2067 -0.1017
 1002SOD     NA14484   2.594   0.600  12.942 -0.1110  0.5171  0.1067
 1003SOD     NA14485   1.737   1.275  13.069  0.2814  0.0373 -0.1125
 1004SOD     NA14486   1.832   2.975  14.183  0.0219 -0.4422  0.2491
 1005SOD     NA14487   4.096   2.869  16.416 -0.0997  0.5157 -0.0673
 1006SOD     NA14488   2.041   4.423   0.326 -0.2779  0.1602  0.0141
 1007SOD     NA14489   1.205   3.413  16.790 -0.2008 -0.3001 -0.4855
 1008SOD     NA14490   0.444   0.359  11.750 -0.0932 -0.1765 -0.2280
 1009SOD     NA14491   2.926   1.400   1.124  0.2233 -0.0963 -0.0982
 1010SOD     NA14492   3.550   0.129   1.965 -0.0563  0.5168 -0.6741
 1011SOD     NA14493   2.913   1.503  11.086 -0.2751 -0.0462 -0.0040
 1012SOL     OW14494   0.035   2.372   1.438  0.4785 -0.1560 -0.4229
 1012SOL    HW114495   4.683   2.313   1.442  1.4210 -1.2066  1.3864
 1012SOL    HW214496   4.721   2.453   1.402  0.2437  0.1581  0.5301
 1013SOL     OW14497   3.104   4.459   3.281  0.8075 -0.2916  0.4982
 1013SOL    HW114498   3.110   4.527   3.347  0.5685 -0.5072  0.7435
 1013SOL    HW214499   3.143   4.497   3.202 -2.8066 -1.4525 -1.8810
 1014SOL     OW14500   1.367   1.317   8.284  0.0893  0.1933  0.2046
 1014SOL    HW114501   1.324   1.319   8.369 -2.0115  0.3769 -0.8706
 1014SOL    HW214502   1.315   1.242   8.256 -1.2171  0.6574  1.3812
 1015SOL     OW14503   3.113   3.734   2.187  0.2206  0.1402 -0.1503
 1015SOL    HW114504   3.046   3.777   2.240  0.2101 -1.3666  1.0692
 1015SOL    HW214505   3.127   3.663   2.250 -1.5021  0.6921  0.8775
 1016SOL     OW14506   4.013   0.164   0.175 -0.0681  0.5334 -0.2530
 1016SOL    HW114507   3.967   0.111   0.110  2.0768 -0.6656 -0.7801
 1016SOL    HW214508   4.098   0.125   0.153 -0.7856 -1.4436  0.4339
 1017SOL     OW14509   3.898   2.240   8.291 -0.1658  0.4896 -0.1133
 1017SOL    HW114510   3.923   2.148   8.289 -2.3829 -0.1100 -0.0971
 1017SOL    HW214511   3.962   2.275   8.354  0.3591 -0.3694 -0.1663
 1018SOL     OW14512   2.061   2.239   8.243  0.0148 -0.0573 -0.2238
 1018SOL    HW114513   2.091   2.295   8.171 -0.2835  0.6714  0.2209
 1018SOL    HW214514   2.083   2.153   8.206 -0.4991 -0.9258  1.4957
 1019SOL     OW14515   4.076   3.360   5.771  0.4000  0.6042  0.1289
 1019SOL    HW114516   4.145   3.336   5.709 -2.3246  0.9510 -3.0481
 1019SOL    HW214517   4.068   3.455   5.762 -0.9564  0.4996  0.2159
 1020SOL     OW14518   0.554   2.170   3.357 -0.3603  0.2258 -0.1746
 1020SOL    HW114519   0.497   2.173   3.280  1.0227  2.7272 -1.0966
 1020SOL    HW214520   0.590   2.083   3.342  1.2244  1.3672 -3.1269
 1021SOL     OW14521   0.817   1.029   5.384  0.2720 -0.1682  0.2351
 1021SOL    HW114522   0.730   1.009   5.350 -0.1258  1.4607  0.3354
 1021SOL    HW214523   0.834   0.951   5.437  0.6448 -0.3869 -0.2066
 1022SOL     OW14524   2.522   2.665   7.643 -0.0218  0.1085  0.2299
 1022SOL    HW114525   2.461   2.601   7.681  0.2378  0.0118  0.4825
 1022SOL    HW214526   2.482   2.744   7.682  1.9801  1.1783  0.0901
 1023SOL     OW14527   1.892   2.770   8.692 -0.1702 -0.2367  0.4653
 1023SOL    HW114528   1.986   2.771   8.711 -0.0575 -0.9197 -0.0813
 1023SOL    HW214529   1.860   2.716   8.764 -0.7512 -1.1846 -0.4948
 1024SOL     OW14530   0.805   2.876   7.305  0.2537  0.3507 -0.0623
 1024SOL    HW114531   0.711   2.894   7.297  0.5458  1.3774 -1.1366
 1024SOL    HW214532   0.838   2.953   7.259  0.3190 -0.4039 -1.2835
 1025SOL     OW14533   3.375   2.039   6.703 -0.2818  0.5814 -0.0284
 1025SOL    HW114534   3.313   1.976   6.668  0.3773  1.1156 -2.1428
 1025SOL    HW214535   3.379   2.002   6.791 -0.6546  0.6669  0.0260
 1026SOL     OW14536   4.545   3.542   6.773 -0.0256 -0.0042 -0.2519
 1026SOL    HW114537   4.624   3.552   6.825 -1.5492 -1.0911  2.2657
 1026SOL    HW214538   4.583   3.508   6.692  1.0337 -0.7458  0.5678
 1027SOL     OW14539   0.164   0.576   0.393 -0.6881  0.3468  0.3373
 1027SOL    HW114540   0.219   0.498   0.403 -0.8032 -0.0945 -2.5799
 1027SOL    HW214541   0.214   0.625   0.328 -0.9416 -0.5803 -0.5611
 1028SOL     OW14542   4.574   1.032  17.346  0.2939 -0.1861  0.1928
 1028SOL    HW114543   4.599   1.070  17.430  0.7434  1.8430 -0.8468
 1028SOL    HW214544   4.557   1.113  17.297 -0.0132  1.2681  2.6768
 1029SOL     OW14545   1.450   4.717  17.659  0.0374 -0.9709 -0.0084
 1029SOL    HW114546   1.440   4.636   0.016 -0.4643 -1.5572 -1.0424
 1029SOL    HW214547   1.538   4.700  17.623 -0.5103 -2.9745 -0.3970
 1030SOL     OW14548   0.355   3.122  16.258  0.1548 -0.2804 -0.0969
 1030SOL    HW114549   0.445   3.153  16.243 -0.0637  0.8127  0.8606
 1030SOL    HW214550   0.326   3.170  16.336 -1.7649  0.4623 -1.2718
 1031SOL     OW14551   2.919   1.355  10.133 -0.0645 -0.2127  0.2377
 1031SOL    HW114552   3.004   1.391  10.107  1.0222 -2.4931  0.6039
 1031SOL    HW214553   2.866   1.416  10.082  0.0715 -1.1865 -1.0774
 1032SOL     OW14554   1.969   2.772  14.132 -0.0970 -0.6704  1.1429
 1032SOL    HW114555   1.931   2.717  14.064  1.5644 -0.4871  0.0712
 1032SOL    HW214556   2.059   2.743  14.123  1.2686  3.6356  1.2251
 1033SOL     OW14557   3.221   3.395   7.430 -0.0620  0.0313  0.0313
 1033SOL    HW114558   3.185   3.337   7.363 -0.4713  2.0654 -1.4949
 1033SOL    HW214559   3.143   3.416   7.481 -2.1096 -0.4386 -2.8679
 1034SOL     OW14560   1.499   1.593  14.524 -0.0666  0.7223 -0.0008
 1034SOL    HW114561   1.409   1.591  14.494  0.8599 -1.8604 -2.6505
 1034SOL    HW214562   1.523   1.674  14.480  1.7332  0.7347  0.9945
 1035SOL     OW14563   1.310   2.020   7.408  0.9695 -0.2074  0.4614
 1035SOL    HW114564   1.322   1.954   7.476 -3.1489  1.9137  3.2372
 1035SOL    HW214565   1.397   2.020   7.369  0.6886  1.3793 -0.1816
 1036SOL     OW14566   3.565   1.201   7.439  0.2651  0.0837  0.2697
 1036SOL    HW114567   3.659   1.188   7.426  0.6443  1.6172  1.4761
 1036SOL    HW214568   3.563   1.128   7.501 -1.6013 -1.7618 -1.9679
 1037SOL     OW14569   3.227   2.328   5.694  0.0985  0.1871 -0.0789
 1037SOL    HW114570   3.306   2.378   5.673  0.4591 -0.6021 -0.5966
 1037SOL    HW214571   3.262   2.248   5.734 -0.1036 -1.1435 -2.5483
 1038SOL     OW14572   3.874   2.702   8.247  0.2331 -0.8675 -0.1974
 1038SOL    HW114573   3.933   2.777   8.258 -0.0687 -0.8095  0.9294
 1038SOL    HW214574   3.919   2.647   8.183 -1.2095 -0.6797 -1.3696
 1039SOL     OW14575   0.664   3.793   5.515  0.5790 -0.1962 -0.0099
 1039SOL    HW114576   0.587   3.850   5.518 -1.7513 -3.1902 -1.9324
 1039SOL    HW214577   0.733   3.849   5.550  0.6052 -1.5537  2.1481
 1040SOL     OW14578   1.615   0.830   6.674 -0.2051 -0.0569  0.2850
 1040SOL    HW114579   1.587   0.913   6.636  1.3820  0.1921 -0.3322
 1040SOL    HW214580   1.667   0.795   6.602 -0.9280  1.6559 -1.0479
 1041SOL     OW14581   0.254   0.342   5.534 -0.1448 -0.2180  0.7059
 1041SOL    HW114582   0.172   0.389   5.554 -0.0430 -0.0053  0.6234
 1041SOL    HW214583   0.230   0.262   5.581 -0.7380 -1.4873 -1.7476
 1042SOL     OW14584   1.076   0.907   3.863  0.4338 -0.1883 -0.1541
 1042SOL    HW114585   1.105   0.880   3.776 -0.1087  0.3218 -0.4936
 1042SOL    HW214586   1.145   0.963   3.897  0.3537 -0.8655  1.1636
 1043SOL     OW14587   1.594   2.269   5.112  0.6528 -0.6804 -0.2552
 1043SOL    HW114588   1.674   2.305   5.073  1.5794 -5.6620 -2.8869
 1043SOL    HW214589   1.540   2.278   5.034  0.5201  1.3888  0.0702
 1044SOL     OW14590   1.780   0.056   5.052  0.6562  0.7396 -0.0503
 1044SOL    HW114591   1.695   0.090   5.080 -0.2026  1.0037 -2.9506
 1044SOL    HW214592   1.815   0.019   5.133 -0.8503 -2.0908 -0.6883
 1045SOL     OW14593   0.837   1.648   5.280 -0.1052 -0.2311  0.2328
 1045SOL    HW114594   0.879   1.733   5.274  0.3291 -0.4996 -0.5770
 1045SOL    HW214595   0.905   1.596   5.237 -0.5715 -0.9082  0.3144
 1046SOL     OW14596   2.866   2.721   0.348  0.2423 -0.3760 -0.2725
 1046SOL    HW114597   2.800   2.655   0.327  1.6436 -1.5399 -1.0134
 1046SOL    HW214598   2.847   2.744   0.439 -0.9148  0.4781 -0.7354
 1047SOL     OW14599   1.825   1.717  14.292 -0.2321 -0.0946  0.7674
 1047SOL    HW114600   1.756   1.746  14.352 -0.9970 -0.8278  0.2400
 1047SOL    HW214601   1.798   1.734  14.202  1.7638  1.0845  0.4033
 1048SOL     OW14602   0.918   2.974  14.770  0.0805 -0.4677  0.0344
 1048SOL    HW114603   0.840   3.004  14.817 -0.8124  0.5303 -2.0763
 1048SOL    HW214604   0.871   2.909  14.717  2.5453 -0.2231 -2.4240
 1049SOL     OW14605   3.729   1.800   8.335  0.3996 -0.0102  0.1663
 1049SOL    HW114606   3.787   1.729   8.306 -0.5111 -0.6307 -0.1208
 1049SOL    HW214607   3.692   1.759   8.414  0.6107  0.2175  0.3854
 1050SOL     OW14608   1.394   1.090   6.954  0.4048 -0.1098  0.6542
 1050SOL    HW114609   1.410   1.059   7.043 -1.3020 -0.6848  0.7607
 1050SOL    HW214610   1.438   1.017   6.910  0.8337  0.5354  0.0350
 1051SOL     OW14611   1.453   0.179   8.914  0.1348  0.7965 -0.2631
 1051SOL    HW114612   1.382   0.141   8.967  0.4991 -0.0490 -0.3783
 1051SOL    HW214613   1.497   0.098   8.888 -2.0556 -0.4195 -0.2254
 1052SOL     OW14614   2.846   1.022   5.051 -0.2162  0.0521  0.1555
 1052SOL    HW114615   2.764   1.055   5.088 -0.8275 -2.1888  0.7516
 1052SOL    HW214616   2.849   1.061   4.964  1.9440 -0.2427  0.0903
 1053SOL     OW14617   4.423   0.119  13.792  0.0566  0.4005  0.4424
 1053SOL    HW114618   4.431   0.117  13.696  0.2460 -1.1281  0.5050
 1053SOL    HW214619   4.490   0.186  13.806  1.8312 -1.3328  0.2533
 1054SOL     OW14620   1.258   2.808   3.459  0.5802  1.1996  0.1819
 1054SOL    HW114621   1.298   2.727   3.492  0.0792  0.4837 -0.9469
 1054SOL    HW214622   1.166   2.788   3.445  0.7391 -0.0932  0.9960
 1055SOL     OW14623   2.238   4.689   7.642  0.0320 -0.6628 -0.7031
 1055SOL    HW114624   2.226   4.597   7.664 -0.4768 -0.2808  0.6260
 1055SOL    HW214625   2.155   4.714   7.683  0.1916 -0.3402 -0.5736
 1056SOL     OW14626   1.933   2.897  16.810 -0.0853 -0.2936  0.2037
 1056SOL    HW114627   1.948   2.804  16.826  1.8205 -0.3300 -1.6739
 1056SOL    HW214628   1.838   2.899  16.818 -0.2908 -3.0398 -1.7103
 1057SOL     OW14629   1.358   0.735   4.534  0.1499  0.1724  0.5351
 1057SOL    HW114630   1.360   0.830   4.525  0.1435 -0.0344 -1.4906
 1057SOL    HW214631   1.298   0.724   4.608 -0.1058 -0.6484  0.2085
 1058SOL     OW14632   2.322   2.304  12.876 -0.0700 -0.0678  0.1111
 1058SOL    HW114633   2.311   2.300  12.781  1.9486 -0.6142 -0.1063
 1058SOL    HW214634   2.414   2.328  12.870  0.2924 -1.0839  1.7132
 1059SOL     OW14635   4.656   2.474  10.048 -0.1805 -0.0803 -0.0678
 1059SOL    HW114636   4.628   2.431   9.967 -0.6601 -0.4470  0.2913
 1059SOL    HW214637   4.594   2.434  10.110 -0.1917 -2.0541 -1.3468
 1060SOL     OW14638   4.449   1.443   2.164 -0.4612 -0.1115 -0.2925
 1060SOL    HW114639   4.395   1.472   2.090 -1.6114  0.6161  0.8467
 1060SOL    HW214640   4.383   1.403   2.220 -0.7118  1.2644  0.3819
 1061SOL     OW14641   3.079   0.631   7.769 -0.1121  0.2313  0.4805
 1061SOL    HW114642   3.023   0.564   7.732  1.7922 -0.4371 -1.2425
 1061SOL    HW214643   3.021   0.700   7.800 -0.7995 -1.2320  2.4364
 1062SOL     OW14644   4.705   1.265   8.255 -0.2313  0.0783  0.3633
 1062SOL    HW114645   0.061   1.314   8.231  0.5368 -0.4394  1.7909
 1062SOL    HW214646   4.670   1.250   8.168  1.6802  0.4212 -0.4830
 1063SOL     OW14647   2.942   4.505   4.099 -0.0098  0.2559  0.2500
 1063SOL    HW114648   3.010   4.569   4.077  1.1606 -0.9366  0.3806
 1063SOL    HW214649   2.883   4.553   4.157  0.1163  0.2548  0.3812
 1064SOL     OW14650   3.819   2.365   0.641 -0.3017  0.3234 -0.1547
 1064SOL    HW114651   3.877   2.386   0.715 -1.1035  0.8826  0.3047
 1064SOL    HW214652   3.766   2.445   0.644  1.5609  1.5923 -0.8847
 1065SOL     OW14653   1.877   2.274   7.162 -0.6342 -0.5721  0.6526
 1065SOL    HW114654   1.788   2.287   7.194 -0.8166 -2.7819  0.9855
 1065SOL    HW214655   1.932   2.255   7.239 -2.7641 -1.0709  2.0400
 1066SOL     OW14656   1.628   0.262  17.361  0.0401  0.2936  0.6823
 1066SOL    HW114657   1.609   0.355  17.351 -0.7715  0.0688  0.0842
 1066SOL    HW214658   1.722   0.271  17.372  0.0031  1.7073 -0.1992
 1067SOL     OW14659   0.818   4.448   3.633 -0.0182  0.1137 -0.0560
 1067SOL    HW114660   0.842   4.525   3.684  3.1295 -0.8310 -0.1070
 1067SOL    HW214661   0.895   4.426   3.580  1.3307  1.8437  1.1889
 1068SOL     OW14662   4.052   1.807  11.820 -0.1622 -0.6687 -0.0931
 1068SOL    HW114663   4.107   1.844  11.890  0.4283  1.0365 -1.4659
 1068SOL    HW214664   3.975   1.865  11.820  0.6695  0.4381 -0.1682
 1069SOL     OW14665   1.541   4.718  11.610  0.3274  0.4971 -0.3576
 1069SOL    HW114666   1.453   4.715  11.646  1.5627 -2.6550  2.3919
 1069SOL    HW214667   1.540   0.068  11.548  0.3214  1.6134  0.9504
 1070SOL     OW14668   0.206   3.930   8.974  0.3898  0.3382  0.5559
 1070SOL    HW114669   0.262   3.917   8.897  3.2272  0.0284  2.6630
 1070SOL    HW214670   0.254   4.000   9.018  1.0972  0.0995  0.1605
 1071SOL     OW14671   1.314   4.374  15.979 -0.2905  0.1824  0.6661
 1071SOL    HW114672   1.390   4.431  15.968  0.0090 -0.3331  0.0626
 1071SOL    HW214673   1.254   4.430  16.029  0.1844  1.4761 -0.2233
 1072SOL     OW14674   1.130   3.152  14.670  0.3377 -0.4269  0.1086
 1072SOL    HW114675   1.086   3.231  14.638  2.1655  0.5392 -0.0888
 1072SOL    HW214676   1.059   3.096  14.699 -1.3621  0.9539 -1.4215
 1073SOL     OW14677   4.547   4.106   9.651 -0.2090  0.1404 -0.1394
 1073SOL    HW114678   4.509   4.194   9.658 -2.2991 -0.7487 -0.1719
 1073SOL    HW214679   4.639   4.127   9.663  0.2101 -1.1054 -1.1331
 1074SOL     OW14680   4.032   1.505  11.185  0.4622 -0.6659 -0.1767
 1074SOL    HW114681   3.949   1.505  11.233  1.7450 -0.5824  2.0448
 1074SOL    HW214682   4.015   1.586  11.137 -0.7378 -0.1976  1.0214
 1075SOL     OW14683   2.527   1.163   0.538  0.0829  0.0910  0.0372
 1075SOL    HW114684   2.533   1.190   0.447  0.8135 -0.4671 -0.0763
 1075SOL    HW214685   2.577   1.081   0.541 -1.0220 -0.5983 -0.4456
 1076SOL     OW14686   0.719   3.295  10.345  0.2021  0.0083 -1.3549
 1076SOL    HW114687   0.625   3.314  10.350  0.3841  0.0744  2.3974
 1076SOL    HW214688   0.720   3.228  10.414 -3.1627  1.3252 -0.0183
 1077SOL     OW14689   3.649   4.260  14.193  0.4192 -0.5314  0.1715
 1077SOL    HW114690   3.622   4.239  14.104  0.5363 -0.7680  0.1910
 1077SOL    HW214691   3.740   4.234  14.177  1.7339  3.2364  1.6209
 1078SOL     OW14692   1.537   3.184  17.393 -0.1531  0.1455 -0.0211
 1078SOL    HW114693   1.496   3.214  17.311 -2.0865 -0.1115  0.8501
 1078SOL    HW214694   1.577   3.267  17.418  1.1882 -0.6024  0.2484
 1079SOL     OW14695   0.651   3.549   3.730  0.3549  0.6911  0.5278
 1079SOL    HW114696   0.564   3.556   3.692  1.2341  1.5328 -1.3207
 1079SOL    HW214697   0.683   3.638   3.745  2.4780 -0.2589  1.6230
 1080SOL     OW14698   2.017   2.091   2.766  0.1291 -0.2155 -0.1844
 1080SOL    HW114699   2.020   2.026   2.837 -0.3845  0.8980  0.8561
 1080SOL    HW214700   2.038   2.036   2.691  0.0953 -1.7324  0.8988
 1081SOL     OW14701   4.551   1.813   4.640  0.0813  0.1072 -0.3475
 1081SOL    HW114702   4.455   1.818   4.647  0.0408  1.4987 -1.7375
 1081SOL    HW214703   4.578   1.728   4.672 -0.9267  0.9215  2.6395
 1082SOL     OW14704   1.523   0.222   0.113 -0.2788  0.0237 -0.1447
 1082SOL    HW114705   1.494   0.173   0.036  1.2119 -1.1074  0.0422
 1082SOL    HW214706   1.453   0.213   0.178 -0.8136  0.0955 -0.7136
 1083SOL     OW14707   3.378   3.841  10.858  0.0131  0.0544  0.2043
 1083SOL    HW114708   3.420   3.898  10.794  0.7040  0.5481  1.0916
 1083SOL    HW214709   3.312   3.791  10.810  0.7884  0.2214 -1.0265
 1084SOL     OW14710   4.689   1.295   3.873 -0.6734 -0.0623  0.1316
 1084SOL    HW114711   0.047   1.243   3.872  0.0674  0.9943  4.1371
 1084SOL    HW214712   4.695   1.354   3.798 -0.4791  0.8779  0.8880
 1085SOL     OW14713   1.433   3.349   6.105  0.2393 -0.4587 -0.4082
 1085SOL    HW114714   1.399   3.290   6.173  2.5963  0.5498  1.6561
 1085SOL    HW214715   1.519   3.364   6.144  0.2157  1.2375 -1.0251
 1086SOL     OW14716   2.848   0.745  15.060 -0.1105 -0.2225  0.0753
 1086SOL    HW114717   2.814   0.672  15.111 -0.8947  0.4401  0.5009
 1086SOL    HW214718   2.804   0.823  15.093 -1.5815  0.2701 -2.9835
 1087SOL     OW14719   0.651   1.817   2.548 -0.1187  0.1766 -0.4921
 1087SOL    HW114720   0.571   1.866   2.530 -0.5224 -0.2784  0.0603
 1087SOL    HW214721   0.642   1.813   2.643 -1.4334 -0.4475 -0.6444
 1088SOL     OW14722   3.961   3.761  14.859 -0.4500 -0.1325  0.3425
 1088SOL    HW114723   3.891   3.800  14.910 -2.2080 -1.6126 -0.9350
 1088SOL    HW214724   4.009   3.841  14.839  0.0221  0.2249  2.9589
 1089SOL     OW14725   2.379   4.553  14.852  0.0044 -0.3369  0.4965
 1089SOL    HW114726   2.453   4.607  14.881 -1.0784  1.9480 -1.0658
 1089SOL    HW214727   2.385   4.546  14.757  0.4323 -0.9735  0.5650
 1090SOL     OW14728   4.392   4.693   6.187 -0.0912 -0.0932  0.7299
 1090SOL    HW114729   4.312   4.647   6.212  1.5536 -2.4698  1.6628
 1090SOL    HW214730   4.423   4.648   6.108  0.2203  0.2931  0.6324
 1091SOL     OW14731   4.308   3.751   5.921 -0.3891 -0.2807  0.2195
 1091SOL    HW114732   4.219   3.785   5.922 -0.7442 -1.1800 -0.3734
 1091SOL    HW214733   4.280   3.660   5.931 -1.1434 -0.0950 -0.2799
 1092SOL     OW14734   2.185   2.192   3.764 -0.3966 -0.4134 -0.4735
 1092SOL    HW114735   2.120   2.131   3.796 -0.8265 -0.3966 -1.2984
 1092SOL    HW214736   2.268   2.150   3.789 -1.1325 -0.5843  1.6443
 1093SOL     OW14737   2.017   2.526  11.074 -0.3741  0.7227  0.0637
 1093SOL    HW114738   1.980   2.611  11.097  2.3484  2.1936 -0.9923
 1093SOL    HW214739   2.106   2.553  11.050  0.4043  0.3945  2.5974
 1094SOL     OW14740   3.158   2.384   4.292  0.6819 -0.7954  0.0134
 1094SOL    HW114741   3.227   2.341   4.241  1.1455 -1.9713  1.6490
 1094SOL    HW214742   3.206   2.380   4.375 -0.7831 -0.6777  0.8696
 1095SOL     OW14743   4.300   2.492   8.688 -0.0510  0.3742 -0.8714
 1095SOL    HW114744   4.208   2.518   8.696 -0.2422 -0.6981  0.5222
 1095SOL    HW214745   4.318   2.471   8.780  1.0915  0.8844 -0.9881
 1096SOL     OW14746   0.077   1.719   2.206  0.3387  0.4750 -0.3681
 1096SOL    HW114747   0.007   1.781   2.187  0.0313  0.0153 -0.7205
 1096SOL    HW214748   0.142   1.771   2.254 -0.0046 -0.5583  1.2102
 1097SOL     OW14749   4.278   0.883  10.156  0.0726  0.0565  0.0909
 1097SOL    HW114750   4.270   0.787  10.160  0.9872 -0.0005  0.5196
 1097SOL    HW214751   4.194   0.916  10.188 -0.6588  0.8848 -2.6982
 1098SOL     OW14752   3.335   4.135  10.303 -0.1746 -0.4650  0.4364
 1098SOL    HW114753   3.423   4.174  10.304 -0.0397 -0.7737  0.4410
 1098SOL    HW214754   3.282   4.195  10.250 -0.6245 -0.3914  0.9738
 1099SOL     OW14755   1.223   4.470   4.557 -0.1749 -0.4888  0.3164
 1099SOL    HW114756   1.305   4.501   4.595  0.9606 -0.8287 -1.8600
 1099SOL    HW214757   1.216   4.382   4.594  1.3029 -0.1276  1.4736
 1100SOL     OW14758   1.721   0.419   4.641 -0.1192  0.3498  0.3935
 1100SOL    HW114759   1.742   0.372   4.722  0.0058 -1.2981 -0.5910
 1100SOL    HW214760   1.749   0.356   4.575  0.6116  0.5128  0.5470
 1101SOL     OW14761   3.368   0.282   2.389 -0.6372 -0.6204  0.6908
 1101SOL    HW114762   3.277   0.252   2.387 -1.1001  1.0237 -3.7005
 1101SOL    HW214763   3.425   0.220   2.434 -0.8074  0.6058  2.6141
 1102SOL     OW14764   1.681   2.992   2.630 -0.4842 -0.7179  0.0561
 1102SOL    HW114765   1.637   3.067   2.590  1.9574  0.6519 -0.0823
 1102SOL    HW214766   1.712   2.935   2.560 -2.4551  0.4829 -1.8036
 1103SOL     OW14767   2.160   1.597   2.018 -0.6214  0.3938 -0.5325
 1103SOL    HW114768   2.147   1.683   1.976 -1.9600 -0.7221 -2.4400
 1103SOL    HW214769   2.248   1.614   2.051 -1.0773  1.5778  0.0925
 1104SOL     OW14770   2.842   2.567   4.854 -0.3675  1.0152 -0.0742
 1104SOL    HW114771   2.759   2.614   4.863  0.0566  1.5108  1.1747
 1104SOL    HW214772   2.904   2.637   4.835 -0.5121  0.8564 -1.1561
 1105SOL     OW14773   3.093   1.214   6.819  0.5653  0.4934 -0.4244
 1105SOL    HW114774   3.098   1.183   6.910 -0.7130 -0.5436 -0.7123
 1105SOL    HW214775   3.079   1.132   6.771 -1.4600 -0.2505  1.4360
 1106SOL     OW14776   0.809   2.018   4.752 -0.1714 -0.2387  0.3225
 1106SOL    HW114777   0.780   1.962   4.680  1.1950  0.8047 -1.0429
 1106SOL    HW214778   0.727   2.054   4.787  0.6817  1.7401  0.3275
 1107SOL     OW14779   4.287   0.484   7.989  0.2928 -0.2251 -0.1633
 1107SOL    HW114780   4.278   0.515   8.079 -0.9962  0.8713 -0.6771
 1107SOL    HW214781   4.226   0.539   7.941 -1.9893 -2.2162  0.4577
 1108SOL     OW14782   3.493   2.994   8.567 -0.4404 -0.3901  0.0029
 1108SOL    HW114783   3.462   2.905   8.583  2.0816 -1.4852 -1.1522
 1108SOL    HW214784   3.438   3.049   8.622  1.5776  0.1710  1.4604
 1109SOL     OW14785   1.265   0.501   5.671 -1.0725 -0.1177  0.0144
 1109SOL    HW114786   1.350   0.545   5.663 -0.9766 -0.2292  0.4264
 1109SOL    HW214787   1.292   0.411   5.654  1.4120  0.9878 -1.7889
 1110SOL     OW14788   3.346   3.990   2.075  0.1971  0.2056 -0.4173
 1110SOL    HW114789   3.294   4.036   2.008 -3.2827 -0.8905  1.5509
 1110SOL    HW214790   3.396   4.053   2.127  1.8298  0.5958 -2.4489
 1111SOL     OW14791   0.729   2.889  14.991 -0.0641 -0.5291 -0.6718
 1111SOL    HW114792   0.646   2.924  15.026 -0.2974  0.6398 -2.4075
 1111SOL    HW214793   0.738   2.823  15.059 -1.5942 -1.3541 -1.2740
 1112SOL     OW14794   1.455   1.340   6.907 -0.5040 -0.1309 -0.1721
 1112SOL    HW114795   1.549   1.322   6.903 -0.2125  1.5841 -0.9734
 1112SOL    HW214796   1.414   1.255   6.923 -0.5589 -0.0335  0.2061
 1113SOL     OW14797   2.816   3.275   5.972  0.2748 -0.0024 -0.2394
 1113SOL    HW114798   2.734   3.323   5.960 -1.5010 -3.0739 -0.3481
 1113SOL    HW214799   2.870   3.318   5.906  0.6625 -2.0501 -1.2669
 1114SOL     OW14800   3.388   2.206   1.990  0.0467  0.3612  0.2906
 1114SOL    HW114801   3.322   2.141   1.967  1.6268 -1.1725  0.0094
 1114SOL    HW214802   3.330   2.282   1.996  0.7155  0.6860  2.7161
 1115SOL     OW14803   0.501   4.579   6.346  0.6379 -0.0427  0.3479
 1115SOL    HW114804   0.510   4.569   6.441  1.6587  3.0229  0.5558
 1115SOL    HW214805   0.513   4.673   6.339  1.3195 -0.2738 -1.7758
 1116SOL     OW14806   0.757   0.116   2.101 -0.6918 -0.4964  0.0413
 1116SOL    HW114807   0.820   0.150   2.038  0.4609  0.8830  1.9440
 1116SOL    HW214808   0.717   0.041   2.057 -2.6799  2.0684 -2.4732
 1117SOL     OW14809   1.511   3.117  13.944  0.4302  0.1222  0.0726
 1117SOL    HW114810   1.594   3.153  13.974  0.6933  0.0346 -0.5629
 1117SOL    HW214811   1.527   3.024  13.961 -2.8218 -0.5424 -0.3983
 1118SOL     OW14812   1.778   4.550   8.430  0.6845 -0.4411 -0.0945
 1118SOL    HW114813   1.744   4.473   8.477 -2.1036 -0.4168 -2.1074
 1118SOL    HW214814   1.865   4.513   8.414  1.5874  1.3013  0.7549
 1119SOL     OW14815   4.144   0.226   8.173  0.4634  0.3972  0.0447
 1119SOL    HW114816   4.236   0.232   8.144 -0.0576 -1.7168 -2.0362
 1119SOL    HW214817   4.159   0.223   8.267 -1.5685 -0.4736  0.3201
 1120SOL     OW14818   1.342   4.632   9.550  0.2985  0.3352  0.8697
 1120SOL    HW114819   1.251   4.642   9.577 -0.5624  0.7110 -2.1897
 1120SOL    HW214820   1.338   4.542   9.516  5.1016  1.1932 -1.9489
 1121SOL     OW14821   3.427   3.328   1.938  0.2125  0.0123  0.0117
 1121SOL    HW114822   3.413   3.331   2.032 -0.9494  1.1713 -0.1924
 1121SOL    HW214823   3.394   3.243   1.910  2.6420  0.6131 -4.6611
 1122SOL     OW14824   3.930   2.187   2.469 -0.2410 -0.1475 -0.1554
 1122SOL    HW114825   3.836   2.201   2.483 -0.8677 -1.5871 -2.8605
 1122SOL    HW214826   3.962   2.276   2.458 -1.5096  0.2563 -0.6054
 1123SOL     OW14827   1.185   0.138  11.027  0.0374  0.2446  0.2591
 1123SOL    HW114828   1.280   0.148  11.034  0.2168 -0.2532 -1.4931
 1123SOL    HW214829   1.174   0.127  10.932 -1.5397 -0.7639  0.5682
 1124SOL     OW14830   1.387   3.489   4.665 -0.4417  0.0962  0.1971
 1124SOL    HW114831   1.366   3.508   4.574 -1.0418  0.5349  0.4272
 1124SOL    HW214832   1.301   3.509   4.703  0.1682 -1.6177  2.5328
 1125SOL     OW14833   3.581   0.177   7.991 -0.1200 -0.0974  0.0624
 1125SOL    HW114834   3.511   0.240   7.973  0.7722  1.2316  1.1360
 1125SOL    HW214835   3.621   0.191   8.078 -2.4838  2.9567  0.6522
 1126SOL     OW14836   2.676   2.629   3.278 -0.4172 -0.0812 -0.0583
 1126SOL    HW114837   2.770   2.612   3.287 -0.8349 -1.3376  1.8621
 1126SOL    HW214838   2.646   2.651   3.366 -0.2661 -0.6544  0.1404
 1127SOL     OW14839   1.463   3.639   3.549 -0.3778 -0.2885 -0.5181
 1127SOL    HW114840   1.520   3.673   3.619 -0.3231  0.6953 -1.0432
 1127SOL    HW214841   1.450   3.722   3.504 -1.8750  0.0089  0.4589
 1128SOL     OW14842   4.367   2.489   6.764  0.5092 -0.1285  0.6076
 1128SOL    HW114843   4.430   2.423   6.790  2.4786  0.7363 -2.0190
 1128SOL    HW214844   4.397   2.569   6.806  0.3107 -0.0622  0.6247
 1129SOL     OW14845   0.894   1.774   6.270  0.2527 -0.0812  0.7212
 1129SOL    HW114846   0.963   1.710   6.251  2.5080  2.9908 -1.2836
 1129SOL    HW214847   0.850   1.792   6.187 -1.3420  0.7718  1.7536
 1130SOL     OW14848   4.581   1.918   5.034 -0.2259  0.1794  0.3170
 1130SOL    HW114849   4.487   1.896   5.034 -0.1464 -0.1919  2.7138
 1130SOL    HW214850   4.575   2.012   5.052  1.9236  0.1641  1.0135
 1131SOL     OW14851   4.173   2.143   5.524  0.1293 -0.0388  0.6208
 1131SOL    HW114852   4.248   2.191   5.558  0.6325 -0.8210  0.6047
 1131SOL    HW214853   4.211   2.116   5.441 -1.4915 -0.0929 -0.1084
 1132SOL     OW14854   1.310   2.936  14.274  0.3561  0.1749 -0.1393
 1132SOL    HW114855   1.389   2.976  14.237 -0.5315 -0.4284 -2.6415
 1132SOL    HW214856   1.335   2.844  14.265 -0.8311 -0.0975 -0.6759
 1133SOL     OW14857   4.484   3.490   2.334 -0.1087  0.5791 -0.0147
 1133SOL    HW114858   4.534   3.492   2.252  0.8803 -2.3047  0.5020
 1133SOL    HW214859   4.411   3.545   2.308 -0.0454  2.1341  3.0977
 1134SOL     OW14860   0.358   2.309  12.548  0.0255 -0.1370  0.1918
 1134SOL    HW114861   0.298   2.265  12.608  0.1017 -0.6326 -0.0952
 1134SOL    HW214862   0.295   2.372  12.515 -0.3736 -0.0018  1.2193
 1135SOL     OW14863   2.142   0.222  14.781 -0.0702  0.5743 -0.3297
 1135SOL    HW114864   2.229   0.197  14.750 -1.6262 -0.2866 -4.0393
 1135SOL    HW214865   2.165   0.261  14.865  0.0803 -0.5191  0.1311
 1136SOL     OW14866   2.384   3.236  14.177 -0.2206  0.1295  0.2638
 1136SOL    HW114867   2.309   3.239  14.117  0.7746  1.1674 -0.9327
 1136SOL    HW214868   2.390   3.144  14.202 -0.0576  0.2211  0.5727
 1137SOL     OW14869   0.732   3.841  11.840  0.9163  0.0676  0.8409
 1137SOL    HW114870   0.764   3.826  11.929  2.3711  3.5344  0.8899
 1137SOL    HW214871   0.683   3.759  11.831  0.0562  0.7540 -0.8400
 1138SOL     OW14872   4.160   0.650   7.825 -0.2886  0.5045  0.1956
 1138SOL    HW114873   4.068   0.676   7.822 -0.9529 -1.7861  1.1783
 1138SOL    HW214874   4.153   0.589   7.752  2.0184 -0.1022  0.5060
 1139SOL     OW14875   0.657   3.912   1.678  0.0315  0.0218 -0.5287
 1139SOL    HW114876   0.734   3.910   1.621  0.6279  1.0135  0.2418
 1139SOL    HW214877   0.698   3.951   1.755 -1.1692  0.6274 -0.1953
 1140SOL     OW14878   2.296   4.604   1.689  0.4943  0.5119  0.1558
 1140SOL    HW114879   2.375   4.581   1.640  0.6739  1.3740  0.0416
 1140SOL    HW214880   2.232   4.607   1.618  0.2865 -0.7788  0.2932
 1141SOL     OW14881   0.532   0.879   5.021  0.1613 -0.1512 -0.1569
 1141SOL    HW114882   0.450   0.912   4.984 -0.6053 -0.8041  0.9374
 1141SOL    HW214883   0.599   0.918   4.966 -0.6437 -0.4269 -1.3161
 1142SOL     OW14884   1.393   4.081   1.696 -0.1161 -0.3008  0.0200
 1142SOL    HW114885   1.392   4.157   1.754 -1.8794 -0.3202 -0.0045
 1142SOL    HW214886   1.487   4.070   1.677 -0.4559 -1.8764 -0.7510
 1143SOL     OW14887   0.058   3.071   7.069 -0.1152  0.1446  0.3320
 1143SOL    HW114888   0.094   3.052   7.156 -0.5411  1.2853  0.7559
 1143SOL    HW214889   4.717   3.003   7.049 -0.2890  0.5355 -0.4226
 1144SOL     OW14890   1.298   4.153  16.142 -0.3362 -0.1938 -0.2351
 1144SOL    HW114891   1.211   4.121  16.116 -1.9898  2.7916  1.6184
 1144SOL    HW214892   1.311   4.239  16.101 -2.8589  0.4787  0.3259
 1145SOL     OW14893   1.391   2.424   3.216 -0.2288  0.2638 -0.1833
 1145SOL    HW114894   1.321   2.433   3.281 -0.8802  1.6478 -1.0910
 1145SOL    HW214895   1.386   2.329   3.202  2.0357 -0.0370  1.0155
 1146SOL     OW14896   2.122   4.157  10.677  0.1729  0.0536 -0.3049
 1146SOL    HW114897   2.123   4.120  10.588 -3.2868 -0.3187 -0.1981
 1146SOL    HW214898   2.147   4.246  10.654  1.8564  0.0006  1.3745
 1147SOL     OW14899   3.922   0.306   4.150 -0.0490 -0.3584  0.4087
 1147SOL    HW114900   3.956   0.250   4.080  2.6671  1.4258  0.3078
 1147SOL    HW214901   4.010   0.327   4.181  0.3869 -2.8743  0.8659
 1148SOL     OW14902   0.719   0.544  11.568  0.1083 -0.7079 -0.2977
 1148SOL    HW114903   0.728   0.602  11.644 -1.4729  0.2570 -0.8547
 1148SOL    HW214904   0.695   0.609  11.503  1.5356 -0.4584 -0.5863
 1149SOL     OW14905   2.459   2.888   4.581  0.6121 -0.5144 -0.1591
 1149SOL    HW114906   2.425   2.961   4.529  0.7746 -1.6734 -1.8898
 1149SOL    HW214907   2.375   2.856   4.615 -0.2541  1.0348 -0.8691
 1150SOL     OW14908   1.400   3.731   2.742 -0.2759 -0.4270  0.9319
 1150SOL    HW114909   1.305   3.739   2.733  0.2134  1.1779 -2.7495
 1150SOL    HW214910   1.429   3.822   2.747  2.7793 -1.2289 -2.7391
 1151SOL     OW14911   3.148   0.520   8.925 -0.5541 -0.0635 -0.3178
 1151SOL    HW114912   3.232   0.525   8.880 -0.2307 -0.1506  0.2873
 1151SOL    HW214913   3.109   0.605   8.904 -0.0943  0.5098  1.1756
 1152SOL     OW14914   3.261   3.539  16.860  0.5320  0.0399 -0.0531
 1152SOL    HW114915   3.227   3.460  16.818 -2.1419 -0.2469  2.7319
 1152SOL    HW214916   3.177   3.572  16.890  0.8715  1.4398 -0.6605
 1153SOL     OW14917   2.753   3.317   6.859  0.1120 -0.0367  0.0845
 1153SOL    HW114918   2.777   3.403   6.824 -2.6433  0.3523 -0.8528
 1153SOL    HW214919   2.744   3.264   6.779  0.2642  0.0931 -0.0168
 1154SOL     OW14920   0.553   2.562  16.820  0.2846 -0.8744  0.4278
 1154SOL    HW114921   0.554   2.658  16.817 -1.2469 -0.8656  0.5151
 1154SOL    HW214922   0.494   2.545  16.893 -1.6116 -1.8959 -1.3490
 1155SOL     OW14923   3.974   2.948   5.901  0.0694  0.6593  0.5675
 1155SOL    HW114924   3.954   2.875   5.959  0.0171 -0.7118 -1.1865
 1155SOL    HW214925   3.924   3.018   5.943  0.8636  2.5203 -1.5459
 1156SOL     OW14926   3.429   1.978   7.156 -0.7619 -0.2238 -0.3441
 1156SOL    HW114927   3.474   2.016   7.080 -1.5749  0.1744 -0.6341
 1156SOL    HW214928   3.482   1.900   7.171 -1.5761 -0.6658  0.2064
 1157SOL     OW14929   0.253   0.446  14.440  0.5906  0.0149  0.5562
 1157SOL    HW114930   0.347   0.464  14.436  1.2928 -3.2731  2.2590
 1157SOL    HW214931   0.254   0.365  14.390 -0.2423 -0.5985  1.5242
 1158SOL     OW14932   2.345   3.792  12.632 -0.1549  0.4292  0.2858
 1158SOL    HW114933   2.403   3.779  12.707 -0.2277  1.0198  0.4407
 1158SOL    HW214934   2.408   3.839  12.577 -2.1565 -0.1324 -2.4911
 1159SOL     OW14935   0.938   0.254   1.896 -0.0467  0.4267  0.1283
 1159SOL    HW114936   0.863   0.266   1.837  0.2285  1.0377 -0.0923
 1159SOL    HW214937   0.978   0.340   1.904 -1.3067  0.7242  3.1891
 1160SOL     OW14938   4.331   0.923   6.410 -0.1762  0.4989 -0.2592
 1160SOL    HW114939   4.302   1.010   6.383  1.4749  1.5926  1.5002
 1160SOL    HW214940   4.347   0.947   6.501 -2.9634  1.0895  0.0573
 1161SOL     OW14941   3.527   0.494   4.507  0.9227  0.3265  0.6154
 1161SOL    HW114942   3.583   0.503   4.429 -2.6803  1.5333 -1.8656
 1161SOL    HW214943   3.509   0.401   4.504 -1.6689  0.8444  0.0691
 1162SOL     OW14944   1.585   0.744   7.919 -0.7108  0.1808  0.3189
 1162SOL    HW114945   1.653   0.809   7.902  2.0695 -2.5602  0.7628
 1162SOL    HW214946   1.626   0.671   7.873  0.2735  0.7685  0.2649
 1163SOL     OW14947   3.789   4.341   7.395 -0.2076  0.5683  0.1719
 1163SOL    HW114948   3.776   4.432   7.420  2.2724  0.4040  2.0638
 1163SOL    HW214949   3.884   4.342   7.386  0.0074 -1.6680  2.3385
 1164SOL     OW14950   3.240   4.103  11.220 -0.3235  0.0780 -0.0103
 1164SOL    HW114951   3.247   4.120  11.126 -3.9875  0.7514 -0.1760
 1164SOL    HW214952   3.165   4.161  11.238 -0.4427  0.2583 -1.0872
 1165SOL     OW14953   2.504   1.548   5.776  0.5038 -0.1173  0.0073
 1165SOL    HW114954   2.500   1.509   5.864 -0.3983 -0.9221 -0.3934
 1165SOL    HW214955   2.594   1.531   5.749  0.4201 -0.4953 -0.0368
 1166SOL     OW14956   3.581   2.999   6.921  0.1726  0.8316  0.4909
 1166SOL    HW114957   3.537   3.084   6.918 -1.4379  0.0683  2.4128
 1166SOL    HW214958   3.575   2.982   7.015  0.3874  0.0522  0.3656
 1167SOL     OW14959   4.684   3.428   7.538 -0.4844 -0.4196 -0.2316
 1167SOL    HW114960   4.593   3.451   7.517 -0.3353 -0.3130 -0.7744
 1167SOL    HW214961   4.686   3.470   7.624  3.1882  1.5659 -1.2900
 1168SOL     OW14962   3.285   1.142   8.525  0.0515 -0.9008 -0.3405
 1168SOL    HW114963   3.256   1.069   8.579 -1.1804 -0.9354 -1.0290
 1168SOL    HW214964   3.205   1.195   8.527  0.7584  0.1243  0.2532
 1169SOL     OW14965   0.892   2.145  16.730 -0.6423  0.2703 -0.2245
 1169SOL    HW114966   0.842   2.086  16.673  1.1156 -0.4670 -0.9991
 1169SOL    HW214967   0.966   2.088  16.753 -1.1007 -0.9044 -1.6436
 1170SOL     OW14968   0.735   0.191  11.014  0.6463 -0.4301 -0.1594
 1170SOL    HW114969   0.716   0.156  11.101  0.3814 -0.3734 -0.1930
 1170SOL    HW214970   0.799   0.258  11.036 -0.4094 -0.0228  1.6746
 1171SOL     OW14971   4.150   4.715   2.245  0.3995  0.1505 -0.0330
 1171SOL    HW114972   4.209   0.060   2.277 -0.4859  1.5718 -1.4461
 1171SOL    HW214973   4.167   4.646   2.310 -1.5423  1.2972  1.6930
 1172SOL     OW14974   4.309   3.815   7.153  0.1578  0.5792  0.0248
 1172SOL    HW114975   4.393   3.841   7.192  0.8070 -0.8088 -0.4337
 1172SOL    HW214976   4.343   3.739   7.106 -1.2754 -0.6877  1.0657
 1173SOL     OW14977   1.645   2.359   0.646 -0.0098 -0.0566  0.2057
 1173SOL    HW114978   1.579   2.314   0.700 -1.7010  1.4045 -0.6627
 1173SOL    HW214979   1.682   2.280   0.606  4.3015  1.9869  0.2241
 1174SOL     OW14980   1.050   2.744   2.461  0.1732  0.2409 -0.4476
 1174SOL    HW114981   1.076   2.653   2.453 -2.9382 -0.6599 -0.3103
 1174SOL    HW214982   1.083   2.770   2.547 -0.9260  1.7451 -0.4649
 1175SOL     OW14983   2.112   4.083   2.249 -0.7692  0.0771 -0.2717
 1175SOL    HW114984   2.107   3.992   2.276  1.1376 -0.3180 -1.2721
 1175SOL    HW214985   2.194   4.092   2.200  0.7333  0.6168  2.3673
 1176SOL     OW14986   1.272   1.900   6.235 -0.7635 -0.4460 -0.3513
 1176SOL    HW114987   1.295   1.813   6.267  0.6819 -0.0694 -0.3707
 1176SOL    HW214988   1.357   1.939   6.255  1.5540 -4.7581 -1.8455
 1177SOL     OW14989   2.684   0.884   3.931 -0.3848  0.2523  0.1618
 1177SOL    HW114990   2.675   0.925   4.017  2.6548 -0.3556  0.7781
 1177SOL    HW214991   2.779   0.891   3.921 -0.6677 -0.0948 -2.5866
 1178SOL     OW14992   2.066   1.614   2.441 -0.3738  0.8255 -0.2898
 1178SOL    HW114993   2.148   1.646   2.404  0.1915  0.8550  0.9800
 1178SOL    HW214994   2.038   1.557   2.369  1.4190  2.1070 -2.0095
 1179SOL     OW14995   1.428   0.910  14.042 -0.6062 -0.6536  0.4265
 1179SOL    HW114996   1.508   0.864  14.018 -0.7430 -1.1736  0.9635
 1179SOL    HW214997   1.365   0.855  13.995 -0.4004 -1.1912  0.7897
 1180SOL     OW14998   4.407   2.046   3.034  0.0265 -0.3212 -0.2760
 1180SOL    HW114999   4.343   2.022   2.966 -2.3343  1.8768  1.1613
 1180SOL    HW215000   4.348   2.085   3.099  1.4991  2.4045 -0.5938
 1181SOL     OW15001   3.361   0.581  11.729  0.5004 -0.1116 -0.3575
 1181SOL    HW115002   3.331   0.630  11.805  0.9739  1.7451 -1.3529
 1181SOL    HW215003   3.445   0.627  11.725  0.7576 -0.5150  0.3460
 1182SOL     OW15004   3.894   2.094   9.317  0.4882 -0.0815  0.0339
 1182SOL    HW115005   3.875   2.048   9.398 -4.1268  1.3793 -0.1919
 1182SOL    HW215006   3.927   2.181   9.342 -2.0836  1.4242 -1.7171
 1183SOL     OW15007   1.574   0.070   2.632  0.3450  0.6362  0.2003
 1183SOL    HW115008   1.581   0.017   2.553  0.6812  2.5066 -1.0212
 1183SOL    HW215009   1.499   0.119   2.601 -0.9025 -1.9243 -0.8473
 1184SOL     OW15010   3.548   4.674  14.860 -0.0777  0.3850  0.1496
 1184SOL    HW115011   3.488   4.705  14.792  0.8290 -0.0712 -0.8486
 1184SOL    HW215012   3.580   0.036  14.890  0.1906  0.6906 -1.0262
 1185SOL     OW15013   3.465   4.200   2.183  0.1123  0.3678  0.3925
 1185SOL    HW115014   3.457   4.192   2.278 -2.5437  2.2025  0.3415
 1185SOL    HW215015   3.520   4.278   2.175 -0.3407  0.4455 -2.1839
 1186SOL     OW15016   2.966   3.851  11.146  0.1649 -0.2106 -0.3198
 1186SOL    HW115017   2.990   3.900  11.067  0.0631 -0.4723 -0.5118
 1186SOL    HW215018   2.926   3.922  11.196 -0.3821 -0.0484 -0.9852
 1187SOL     OW15019   0.226   0.467   0.654 -0.1870  0.2248  0.3491
 1187SOL    HW115020   0.191   0.397   0.709 -2.2729  1.8229  1.0290
 1187SOL    HW215021   0.199   0.439   0.567  1.4885  0.9754 -0.4061
 1188SOL     OW15022   0.426   3.968   2.727  0.4045  0.4513  0.0414
 1188SOL    HW115023   0.344   4.014   2.710  1.7661  2.2124 -1.8589
 1188SOL    HW215024   0.489   4.039   2.737  3.0957 -2.1018  1.4254
 1189SOL     OW15025   3.091   2.713   6.883  0.2811 -0.0114 -0.1018
 1189SOL    HW115026   3.179   2.678   6.898  0.1745  0.1783  0.9361
 1189SOL    HW215027   3.103   2.807   6.897  0.1582  0.1106 -0.8029
 1190SOL     OW15028   1.989   1.477   8.504 -0.2283 -0.7869  0.3295
 1190SOL    HW115029   2.059   1.454   8.565  0.1799  0.3190  0.2921
 1190SOL    HW215030   1.936   1.400   8.523 -0.3619 -0.3753  1.6003
 1191SOL     OW15031   3.689   3.535   3.405 -0.3763  0.6910 -0.2912
 1191SOL    HW115032   3.635   3.497   3.336  0.2509  0.0746 -0.4353
 1191SOL    HW215033   3.739   3.459   3.435 -3.1364 -2.1921 -2.9968
 1192SOL     OW15034   3.201   2.269  17.417  0.4937 -0.1633 -0.4022
 1192SOL    HW115035   3.152   2.232  17.490  0.9061  1.0802  0.5137
 1192SOL    HW215036   3.285   2.227  17.436  1.0604  0.7434 -0.8925
 1193SOL     OW15037   0.071   1.662  13.631  0.4342 -0.5698 -0.0161
 1193SOL    HW115038   4.712   1.683  13.676  0.4720  1.6715 -0.9856
 1193SOL    HW215039   0.038   1.624  13.549  0.0330 -0.1310 -0.0626
 1194SOL     OW15040   0.814   1.236   2.751 -0.2275 -0.1021 -0.5283
 1194SOL    HW115041   0.754   1.163   2.762 -1.9321  1.0547 -2.1670
 1194SOL    HW215042   0.901   1.196   2.749  0.0214  0.3292  1.4765
 1195SOL     OW15043   2.333   0.969   5.612  0.1395  0.8854 -0.4236
 1195SOL    HW115044   2.374   1.051   5.639  1.4189  0.4985 -1.2063
 1195SOL    HW215045   2.367   0.906   5.675 -1.7131 -0.2331 -0.5311
 1196SOL     OW15046   0.125   2.185   5.199 -0.0690  0.0141 -0.4193
 1196SOL    HW115047   0.195   2.121   5.215  0.5273  0.7060 -0.2817
 1196SOL    HW215048   0.165   2.221   5.120  0.0596 -2.3542 -1.4464
 1197SOL     OW15049   1.114   1.231  14.351 -0.0091 -0.3048  0.5042
 1197SOL    HW115050   1.193   1.259  14.397  2.1550 -1.8263 -2.2566
 1197SOL    HW215051   1.159   1.168  14.295 -0.1844  1.6567 -1.8806
 1198SOL     OW15052   3.886   3.779  10.536  0.2829  0.2758 -0.2698
 1198SOL    HW115053   3.823   3.799  10.467 -0.4705 -1.2024 -0.0150
 1198SOL    HW215054   3.878   3.853  10.596 -1.8812  0.5083 -0.8523
 1199SOL     OW15055   2.354   2.487  14.747  0.1969  0.0510  0.3710
 1199SOL    HW115056   2.342   2.403  14.791 -3.0289 -0.0434 -0.6582
 1199SOL    HW215057   2.301   2.548  14.798  3.0116  3.7633 -1.2057
 1200SOL     OW15058   1.757   2.811   8.172  0.3304 -0.0743 -0.3947
 1200SOL    HW115059   1.812   2.846   8.241  0.7505  0.2988 -0.9171
 1200SOL    HW215060   1.672   2.823   8.215  0.2367  0.8592 -0.8322
 1201SOL     OW15061   3.778   1.983   5.715  0.1114 -0.4358  0.0188
 1201SOL    HW115062   3.753   2.067   5.677 -2.0333 -2.1928 -2.4501
 1201SOL    HW215063   3.742   1.985   5.804 -0.8951  1.6614 -0.4227
 1202SOL     OW15064   3.211   4.134   1.074  0.5774  0.2674  0.4036
 1202SOL    HW115065   3.296   4.119   1.117 -0.2436 -0.3981  1.8002
 1202SOL    HW215066   3.163   4.056   1.102  0.6751  0.2792  0.6049
 1203SOL     OW15067   3.266   3.445  15.183  0.2525 -0.0034  0.6403
 1203SOL    HW115068   3.226   3.362  15.158 -1.7748  1.7239 -1.8440
 1203SOL    HW215069   3.234   3.497  15.109  1.0181 -1.3308 -0.6198
 1204SOL     OW15070   0.554   1.785   4.840 -0.0530 -0.3284  0.4592
 1204SOL    HW115071   0.603   1.810   4.761 -2.3979 -1.6419 -1.4144
 1204SOL    HW215072   0.469   1.824   4.819  1.0912  1.0868 -1.5596
 1205SOL     OW15073   1.646   2.460   8.035 -0.1558  0.9180 -0.6394
 1205SOL    HW115074   1.723   2.427   7.989 -0.6434  0.8018 -1.3601
 1205SOL    HW215075   1.685   2.494   8.116  0.4212 -2.5253  0.5077
 1206SOL     OW15076   3.928   3.786   1.865 -0.2767  0.1844  0.2295
 1206SOL    HW115077   3.885   3.817   1.785 -0.9802  0.5051  0.7314
 1206SOL    HW215078   3.867   3.814   1.933 -1.6526 -1.8011 -0.1905
 1207SOL     OW15079   0.632   4.254   1.434  0.2451 -0.5312  0.2430
 1207SOL    HW115080   0.609   4.214   1.518 -0.6357 -3.2338 -1.3064
 1207SOL    HW215081   0.717   4.216   1.412  0.3051 -1.8709  2.7720
 1208SOL     OW15082   3.419   3.645   6.455  0.3854  0.4812  0.5604
 1208SOL    HW115083   3.490   3.605   6.504  2.0855  1.5606 -1.0397
 1208SOL    HW215084   3.341   3.592   6.476 -0.5589  1.3463 -0.7788
 1209SOL     OW15085   3.478   3.665   5.552  0.2198 -0.4606  0.3443
 1209SOL    HW115086   3.403   3.714   5.586  1.7496 -0.1956  3.4108
 1209SOL    HW215087   3.548   3.701   5.606 -1.6629  5.0228 -0.8936
 1210SOL     OW15088   0.299   4.026   7.395  0.4486  0.1467 -0.3611
 1210SOL    HW115089   0.340   3.941   7.408 -1.9674 -0.9550  0.1994
 1210SOL    HW215090   0.267   4.009   7.307 -1.3438  0.8496  0.1407
 1211SOL     OW15091   0.183   1.863   5.266  0.0576  0.1150  0.4049
 1211SOL    HW115092   0.116   1.850   5.334 -0.3587  0.7643  0.1184
 1211SOL    HW215093   0.255   1.859   5.330  0.9412 -0.0121 -0.6000
 1212SOL     OW15094   1.547   1.930   2.748  0.2279  0.6574  0.3109
 1212SOL    HW115095   1.607   1.999   2.721  0.4008  1.3227  2.4208
 1212SOL    HW215096   1.610   1.858   2.752 -0.0666  0.2869 -1.2409
 1213SOL     OW15097   0.132   2.214   5.895 -0.1273 -0.0003 -0.0070
 1213SOL    HW115098   0.214   2.166   5.912 -1.7833 -2.4202  1.1493
 1213SOL    HW215099   0.158   2.305   5.882 -1.1095  0.3762  0.7052
 1214SOL     OW15100   0.913   3.705   6.663 -1.0761  0.6367 -0.0897
 1214SOL    HW115101   0.977   3.688   6.594 -1.5430 -1.8899  0.1187
 1214SOL    HW215102   0.880   3.618   6.683 -0.5080  0.5114  0.2943
 1215SOL     OW15103   0.872   2.855  16.659  0.5546 -0.0737 -0.2318
 1215SOL    HW115104   0.800   2.871  16.599  0.7668 -2.1708 -1.0610
 1215SOL    HW215105   0.877   2.759  16.656  1.8965  0.0001 -0.6391
 1216SOL     OW15106   0.626   4.044  11.659 -0.6590  0.3374  0.2947
 1216SOL    HW115107   0.565   3.976  11.685 -1.3478  0.9199  0.1888
 1216SOL    HW215108   0.565   4.095  11.606 -0.3969 -1.6416 -1.8948
 1217SOL     OW15109   3.147   1.605   1.621 -0.0423 -0.0100 -0.3252
 1217SOL    HW115110   3.056   1.599   1.592  0.5091  0.5507 -2.1560
 1217SOL    HW215111   3.144   1.655   1.703 -1.5797 -1.0665  0.2799
 1218SOL     OW15112   4.541   4.407   3.898  0.2400 -0.5041  0.3550
 1218SOL    HW115113   4.612   4.350   3.869 -1.2505 -1.9075 -0.4883
 1218SOL    HW215114   4.506   4.360   3.974 -1.1634 -0.8947 -0.5476
 1219SOL     OW15115   0.498   4.394  15.736 -0.1246 -0.3738  0.2725
 1219SOL    HW115116   0.583   4.351  15.750  0.0131 -0.9437 -2.2380
 1219SOL    HW215117   0.511   4.457  15.665  0.7912  1.4001  2.0395
 1220SOL     OW15118   1.829   1.134   2.236 -0.3226  0.0785 -0.1503
 1220SOL    HW115119   1.767   1.062   2.236  1.6542 -1.6287 -1.2478
 1220SOL    HW215120   1.783   1.203   2.187 -1.8852 -0.9395 -0.0918
 1221SOL     OW15121   2.092   3.214   5.420 -0.9663 -0.1904 -0.0148
 1221SOL    HW115122   2.160   3.196   5.355 -2.1420 -1.4899 -0.8659
 1221SOL    HW215123   2.099   3.307   5.398 -0.8565  0.3754  2.3998
 1222SOL     OW15124   1.769   1.399   6.092 -0.5543 -0.6692 -0.6162
 1222SOL    HW115125   1.814   1.383   6.176 -1.2065  1.4372  0.1289
 1222SOL    HW215126   1.840   1.413   6.029 -0.9037  1.2289 -0.5807
 1223SOL     OW15127   2.327   1.607   3.276 -0.6637 -0.6493 -0.5702
 1223SOL    HW115128   2.395   1.662   3.236 -0.5026 -0.2882  0.2087
 1223SOL    HW215129   2.341   1.524   3.231  1.8911 -0.7614  0.4638
 1224SOL     OW15130   2.541   2.336   1.261 -0.2151 -0.6470  0.0832
 1224SOL    HW115131   2.472   2.395   1.292  1.3143  0.9478  0.3868
 1224SOL    HW215132   2.595   2.320   1.338 -1.4377  0.9752  1.2773
 1225SOL     OW15133   3.600   4.440   4.570 -0.6565  0.1993 -0.7047
 1225SOL    HW115134   3.513   4.470   4.599 -0.5357  1.9883 -2.1850
 1225SOL    HW215135   3.578   4.385   4.495 -0.6840  2.8053 -2.5816
 1226SOL     OW15136   4.164   1.197   5.519 -0.4888 -0.0156  0.2572
 1226SOL    HW115137   4.069   1.200   5.523 -0.4939  0.8766 -0.5533
 1226SOL    HW215138   4.173   1.128   5.453 -1.1858  1.7903 -1.7127
 1227SOL     OW15139   0.741   3.025  13.452  0.3966 -0.0198 -0.5320
 1227SOL    HW115140   0.690   3.024  13.371  0.9959  0.3197 -0.9150
 1227SOL    HW215141   0.790   2.944  13.441 -0.0297 -0.2987 -0.3735
 1228SOL     OW15142   1.580   2.101   7.353 -0.2468  0.0345 -0.0294
 1228SOL    HW115143   1.619   2.089   7.267  0.8372  0.3104  0.4232
 1228SOL    HW215144   1.658   2.082   7.407  0.5026  2.9954 -0.1090
 1229SOL     OW15145   2.970   0.820   8.516 -0.0803  0.5040 -0.5024
 1229SOL    HW115146   3.052   0.823   8.467 -0.4284 -1.0462 -1.1873
 1229SOL    HW215147   2.916   0.762   8.462 -1.7746 -0.1505  1.8911
 1230SOL     OW15148   3.935   1.285   4.210 -0.2525 -0.1096  0.5657
 1230SOL    HW115149   3.963   1.201   4.173  1.4646  0.0835  1.4595
 1230SOL    HW215150   4.012   1.341   4.206 -0.3483 -0.0002  0.2461
 1231SOL     OW15151   2.088   1.368   2.612  0.2891 -0.3086  0.3805
 1231SOL    HW115152   2.104   1.452   2.570 -1.3138  0.3589  1.0933
 1231SOL    HW215153   1.997   1.378   2.640  0.2086 -0.9881  0.3538
 1232SOL     OW15154   1.715   4.052   2.322 -0.4156  0.0617 -0.1272
 1232SOL    HW115155   1.662   3.973   2.331 -0.5716  0.1790 -0.0063
 1232SOL    HW215156   1.746   4.049   2.413 -0.6005  2.1456  0.0111
 1233SOL     OW15157   2.219   4.529   1.427 -0.4669 -0.2064 -0.3257
 1233SOL    HW115158   2.294   4.529   1.367 -1.4121 -2.1676 -1.4961
 1233SOL    HW215159   2.149   4.529   1.363  0.8559  1.5789 -1.7849
 1234SOL     OW15160   4.469   3.841   4.223 -0.4689 -0.3597  0.6483
 1234SOL    HW115161   4.557   3.841   4.186 -0.6275 -1.5839  0.2790
 1234SOL    HW215162   4.457   3.748   4.245  2.0679 -1.0274 -0.8498
 1235SOL     OW15163   1.499   2.705   3.143 -0.1119 -0.1405 -0.0933
 1235SOL    HW115164   1.483   2.611   3.150  1.8159 -0.3981  0.9298
 1235SOL    HW215165   1.569   2.707   3.209  0.2657  1.3589 -0.5221
 1236SOL     OW15166   1.665   2.588  14.181 -0.1515 -0.3184  0.5599
 1236SOL    HW115167   1.618   2.505  14.187  0.0216 -0.2930  2.3443
 1236SOL    HW215168   1.747   2.566  14.138 -0.6412  0.0173 -0.5374
 1237SOL     OW15169   1.395   3.926  12.684  0.1542 -0.2652 -0.0071
 1237SOL    HW115170   1.442   3.890  12.759  0.7428 -0.5763 -0.5263
 1237SOL    HW215171   1.305   3.902  12.707  0.0140  2.1438  1.9302
 1238SOL     OW15172   4.678   3.847   5.694 -0.8992 -0.4919  0.4835
 1238SOL    HW115173   0.020   3.879   5.756 -0.8594  1.2844 -0.4578
 1238SOL    HW215174   4.622   3.786   5.743 -0.4409 -0.6743  0.7799
 1239SOL     OW15175   1.915   2.854  12.054  0.0431  0.1521  0.2537
 1239SOL    HW115176   1.898   2.906  11.975  1.0036 -2.5964 -1.7631
 1239SOL    HW215177   1.950   2.924  12.109 -0.9247  2.3283 -1.9169
 1240SOL     OW15178   3.549   2.876  13.800  0.0097  0.1524 -0.0269
 1240SOL    HW115179   3.600   2.803  13.766 -0.8268 -1.0218  1.2420
 1240SOL    HW215180   3.533   2.850  13.891 -0.4236 -0.6016 -0.3205
 1241SOL     OW15181   2.634   0.056  15.954  0.3555  0.4244 -0.5853
 1241SOL    HW115182   2.662   0.011  16.033  0.4590 -0.0101 -0.8674
 1241SOL    HW215183   2.704   0.114  15.924  0.7028  0.8169  0.9881
 1242SOL     OW15184   0.234   2.567   3.253 -0.0242 -0.1220  0.0791
 1242SOL    HW115185   0.262   2.634   3.316 -2.2269 -0.2534  1.2155
 1242SOL    HW215186   0.321   2.563   3.212  0.0213  1.2849  0.0238
 1243SOL     OW15187   2.976   2.356   0.351 -0.4327 -0.5409  0.2859
 1243SOL    HW115188   3.071   2.347   0.351 -0.5868 -2.2989  1.9664
 1243SOL    HW215189   2.973   2.342   0.446 -1.9773 -0.3646  0.2611
 1244SOL     OW15190   4.064   2.494   4.121  0.0370 -0.1131  0.4397
 1244SOL    HW115191   4.081   2.582   4.086 -1.7944 -0.0725 -0.3827
 1244SOL    HW215192   4.130   2.495   4.190  3.7861  2.6147 -3.2045
 1245SOL     OW15193   0.467   2.291   2.388 -0.3736 -0.1699 -0.2349
 1245SOL    HW115194   0.408   2.358   2.354 -1.7138 -0.1508  2.1180
 1245SOL    HW215195   0.457   2.212   2.335 -1.8743  0.5783 -1.0476
 1246SOL     OW15196   2.192   1.162   4.526  0.3168  0.2725 -0.2298
 1246SOL    HW115197   2.099   1.169   4.547  0.1668  1.8611 -1.3807
 1246SOL    HW215198   2.192   1.197   4.437 -1.9090  1.0622  0.0770
 1247SOL     OW15199   4.691   3.328  13.715 -1.0376  0.3023 -0.0419
 1247SOL    HW115200   4.697   3.236  13.690 -1.0631  0.4481 -0.5820
 1247SOL    HW215201   4.621   3.320  13.779 -0.1487 -0.4759  0.8362
 1248SOL     OW15202   3.163   3.260   2.665 -0.2446 -0.3617  0.0169
 1248SOL    HW115203   3.123   3.176   2.686  0.2962 -0.5617  0.2373
 1248SOL    HW215204   3.151   3.266   2.570  0.9450 -0.4372 -0.1286
 1249SOL     OW15205   2.990   1.027   3.472  0.2248  0.6527 -0.3096
 1249SOL    HW115206   2.914   1.064   3.517 -1.0850 -3.2830  0.6995
 1249SOL    HW215207   2.993   1.088   3.398  1.2649  1.9356  0.7987
 1250SOL     OW15208   1.623   3.948   0.626  0.3465 -0.3002  0.3363
 1250SOL    HW115209   1.558   3.958   0.696  2.3969  0.3270  2.1457
 1250SOL    HW215210   1.592   3.875   0.572 -1.5717  0.2224  0.7077
 1251SOL     OW15211   2.380   3.813   9.524  0.2842 -0.2495 -0.5567
 1251SOL    HW115212   2.296   3.795   9.566 -0.4832  2.5515 -0.9165
 1251SOL    HW215213   2.364   3.907   9.516 -1.1650 -0.5723 -1.4002
 1252SOL     OW15214   4.183   2.394   2.218  0.1322  0.8732  0.2852
 1252SOL    HW115215   4.110   2.445   2.183 -1.6418  0.2260  3.0443
 1252SOL    HW215216   4.177   2.312   2.168  1.7131 -0.6794  2.6326
 1253SOL     OW15217   3.229   2.227   5.135  0.0140 -0.1031  0.1923
 1253SOL    HW115218   3.205   2.135   5.118  2.5569 -1.2938  3.0308
 1253SOL    HW215219   3.197   2.236   5.225  1.2443 -2.3667  0.8796
 1254SOL     OW15220   0.421   4.610   0.324 -0.4034 -0.5254  0.2152
 1254SOL    HW115221   0.343   4.586   0.274 -0.1279 -0.5191 -0.2138
 1254SOL    HW215222   0.475   4.652   0.258 -1.3051  3.1557  1.8142
 1255SOL     OW15223   3.840   0.233   6.520 -0.2755 -0.4106 -0.0098
 1255SOL    HW115224   3.851   0.139   6.537  0.2049 -0.5204 -0.9278
 1255SOL    HW215225   3.840   0.272   6.608 -0.1721 -1.3954  0.4285
 1256SOL     OW15226   1.163   4.212   4.291 -0.2409 -0.1521 -0.5089
 1256SOL    HW115227   1.089   4.208   4.352 -0.2565 -2.9105 -0.6827
 1256SOL    HW215228   1.218   4.274   4.339 -0.7205 -0.6001  0.6294
 1257SOL     OW15229   2.830   0.158   3.685 -0.2237  0.3910 -0.5220
 1257SOL    HW115230   2.821   0.153   3.589  0.9007 -1.4508 -0.5243
 1257SOL    HW215231   2.807   0.067   3.707  0.4698  0.0803 -1.0740
 1258SOL     OW15232   4.541   2.298   3.433  0.1712  0.0227  0.0612
 1258SOL    HW115233   4.547   2.262   3.345 -1.6857  1.4670 -0.6473
 1258SOL    HW215234   4.605   2.369   3.429 -0.5007  0.7104  1.2802
 1259SOL     OW15235   3.120   4.679  16.197  0.3283 -0.3496 -0.1213
 1259SOL    HW115236   3.202   4.636  16.219  0.3442 -0.3409 -0.1626
 1259SOL    HW215237   3.057   4.619  16.236  2.7815 -3.5928 -1.1563
 1260SOL     OW15238   4.619   3.611   3.287  0.3299  0.3825  0.1592
 1260SOL    HW115239   4.674   3.683   3.316 -2.8873  2.0797  2.0463
 1260SOL    HW215240   4.688   3.549   3.263  0.2151  0.5454 -0.5741
 1261SOL     OW15241   0.964   3.932   0.801  0.1076 -0.2131  0.3405
 1261SOL    HW115242   0.982   3.847   0.841  0.4146 -1.1662 -1.8660
 1261SOL    HW215243   0.899   3.906   0.735 -0.7176 -1.8579  1.8012
 1262SOL     OW15244   3.617   1.757  10.079 -0.3279  0.1803 -0.6062
 1262SOL    HW115245   3.634   1.777   9.987 -1.6859 -0.1174 -0.9160
 1262SOL    HW215246   3.535   1.710  10.067  0.0144 -0.2822 -1.1329
 1263SOL     OW15247   0.489   4.173   5.627  0.5260 -0.6477 -0.3268
 1263SOL    HW115248   0.470   4.262   5.599 -0.1476 -0.8382 -0.4640
 1263SOL    HW215249   0.501   4.180   5.722 -0.4161  1.4763 -0.3786
 1264SOL     OW15250   2.557   4.619   8.450 -0.4840 -0.2874 -0.7469
 1264SOL    HW115251   2.491   4.561   8.490 -1.7516  0.2431 -2.1007
 1264SOL    HW215252   2.640   4.584   8.483 -0.5574 -0.2647 -0.5376
 1265SOL     OW15253   3.932   4.614   0.734 -0.2606 -0.3194 -0.1914
 1265SOL    HW115254   3.933   4.532   0.783  0.4002  0.8725  1.7975
 1265SOL    HW215255   3.842   4.628   0.708  0.0942  0.7731 -0.7963
 1266SOL     OW15256   2.887   2.267   7.246 -0.2103 -0.0010  0.0449
 1266SOL    HW115257   2.971   2.280   7.203  0.5847  0.5877  1.7419
 1266SOL    HW215258   2.879   2.173   7.256 -2.8901  0.2383  0.1090
 1267SOL     OW15259   0.277   3.034  11.896  0.1987  0.4300  0.0320
 1267SOL    HW115260   0.232   3.057  11.815 -1.4787  0.7465  1.0589
 1267SOL    HW215261   0.347   2.985  11.852  0.4826  0.4844  0.4206
 1268SOL     OW15262   0.877   0.721   4.686 -0.6178 -0.0392  0.0013
 1268SOL    HW115263   0.805   0.665   4.658 -0.4857 -0.0882 -0.2389
 1268SOL    HW215264   0.839   0.785   4.746  0.4424 -1.0519  1.7466
 1269SOL     OW15265   3.640   1.224   7.957  0.4989  0.1617  1.2734
 1269SOL    HW115266   3.618   1.312   7.926 -0.1950 -0.7207 -0.7717
 1269SOL    HW215267   3.551   1.191   7.967  0.6413 -0.7849 -0.5808
 1270SOL     OW15268   2.469   4.305  10.213 -0.1689 -0.4562 -0.2167
 1270SOL    HW115269   2.445   4.378  10.157  1.9118 -0.7444 -1.4653
 1270SOL    HW215270   2.559   4.323  10.239  0.2135 -1.2148 -1.0134
 1271SOL     OW15271   4.049   0.699   4.756  0.2715 -0.0994 -0.5355
 1271SOL    HW115272   4.070   0.696   4.663  1.5862 -1.8683 -0.1903
 1271SOL    HW215273   3.957   0.725   4.753 -0.0933 -1.1377  1.4996
 1272SOL     OW15274   4.585   1.726  17.009 -0.4540  0.5522  0.3062
 1272SOL    HW115275   4.671   1.737  17.051 -0.0573  0.6306 -0.5366
 1272SOL    HW215276   4.573   1.632  17.023  1.8438  0.4383  1.6125
 1273SOL     OW15277   2.443   4.678   3.728  0.3094  0.0324  0.4063
 1273SOL    HW115278   2.412   0.026   3.671  0.2710 -0.6155 -0.3822
 1273SOL    HW215279   2.415   4.714   3.812  0.3945 -1.1411  0.9355
 1274SOL     OW15280   2.273   2.979  10.178  0.2637  0.6760 -0.1252
 1274SOL    HW115281   2.358   2.958  10.217 -0.3947 -2.5731 -0.4615
 1274SOL    HW215282   2.286   3.037  10.103  0.4253 -0.8287 -1.2436
 1275SOL     OW15283   2.182   0.482   7.591 -0.1113  0.4719  0.2429
 1275SOL    HW115284   2.107   0.466   7.534  0.2407  0.4095 -0.2006
 1275SOL    HW215285   2.135   0.461   7.672  1.2902  1.3248  1.2661
 1276SOL     OW15286   0.075   2.469  16.610 -0.0973 -0.3578 -0.2294
 1276SOL    HW115287   4.710   2.498  16.634  0.9772  1.0403  1.9958
 1276SOL    HW215288   0.112   2.556  16.595  0.6066 -0.5884  0.1382
 1277SOL     OW15289   2.565   2.622   0.572 -0.0992  0.4306  0.2337
 1277SOL    HW115290   2.654   2.656   0.563 -0.2443  0.7261 -0.1228
 1277SOL    HW215291   2.580   2.530   0.593 -0.5682  0.2449 -0.2283
 1278SOL     OW15292   1.124   1.535   7.006  0.0077  0.5777 -0.6370
 1278SOL    HW115293   1.030   1.552   6.998  0.5532  2.4772 -3.2201
 1278SOL    HW215294   1.122   1.452   6.959  2.9838  0.5216 -0.6023
 1279SOL     OW15295   0.042   4.175   8.818 -0.3613 -0.2001  0.2516
 1279SOL    HW115296   0.048   4.270   8.822 -0.4757 -0.2869  2.2628
 1279SOL    HW215297   0.084   4.168   8.732 -0.1273 -0.6228  0.4027
 1280SOL     OW15298   0.123   2.649   1.179  0.7314  0.1809  0.4890
 1280SOL    HW115299   0.149   2.732   1.218  2.2828  0.1215 -0.4076
 1280SOL    HW215300   0.054   2.635   1.244  1.0188 -2.1933  0.2970
 1281SOL     OW15301   1.912   2.775  10.539  0.3900  0.0095 -0.5159
 1281SOL    HW115302   1.922   2.767  10.634  1.4670  1.6320 -0.4838
 1281SOL    HW215303   1.850   2.849  10.538  1.2112  0.7022 -0.2889
 1282SOL     OW15304   0.058   0.819  12.142 -0.0453 -0.4786  0.3566
 1282SOL    HW115305   0.033   0.865  12.222  0.5463  0.7924 -0.1831
 1282SOL    HW215306   0.148   0.847  12.126 -0.3748  1.1244  1.2762
 1283SOL     OW15307   4.687   0.406   3.261 -0.1006  0.4088 -0.0364
 1283SOL    HW115308   4.669   0.363   3.345 -0.7890  1.7867  0.5431
 1283SOL    HW215309   4.668   0.498   3.281 -0.2089  0.3153  0.2969
 1284SOL     OW15310   3.278   2.863   1.736 -1.0336  0.3352 -0.6840
 1284SOL    HW115311   3.231   2.934   1.692 -1.5436 -0.2282 -1.0398
 1284SOL    HW215312   3.313   2.798   1.675  0.5539 -1.4257  2.0636
 1285SOL     OW15313   4.241   3.202   9.383  0.0992  0.2529 -0.2218
 1285SOL    HW115314   4.222   3.133   9.446  0.1992  1.1090  0.7560
 1285SOL    HW215315   4.166   3.260   9.398  0.7897  1.6205 -2.0712
 1286SOL     OW15316   0.169   1.948  12.270  0.4072  0.0198  0.3099
 1286SOL    HW115317   0.192   1.959  12.362  0.6372  1.9551  0.0219
 1286SOL    HW215318   0.090   2.002  12.264  0.0407 -0.4067  1.3704
 1287SOL     OW15319   4.176   2.570   5.563 -0.3385 -0.0951  0.4552
 1287SOL    HW115320   4.097   2.597   5.515  0.5374  0.8637 -0.4609
 1287SOL    HW215321   4.178   2.475   5.561  0.5819 -0.0434 -1.1167
 1288SOL     OW15322   3.899   1.529  17.395  0.4821 -0.1677  0.4667
 1288SOL    HW115323   3.849   1.482  17.328 -0.1792  2.1684 -0.6962
 1288SOL    HW215324   3.968   1.464  17.411  0.0943 -0.6408  0.1933
 1289SOL     OW15325   2.801   0.537   2.254  0.6449  0.2585  0.4143
 1289SOL    HW115326   2.748   0.536   2.175  0.7960 -2.9221  0.3525
 1289SOL    HW215327   2.886   0.540   2.211 -0.4349  1.3676 -1.6037
 1290SOL     OW15328   0.876   4.047   9.655  0.4684 -0.4094  0.1283
 1290SOL    HW115329   0.893   3.978   9.720  0.0381 -0.0888  0.5827
 1290SOL    HW215330   0.835   4.117   9.705 -0.2674  0.8886 -2.3414
 1291SOL     OW15331   3.703   1.602   9.113 -0.3203 -0.9356  0.4023
 1291SOL    HW115332   3.721   1.644   9.197  0.6428 -0.9771  0.2099
 1291SOL    HW215333   3.692   1.511   9.140  0.4867 -0.7799  1.2522
 1292SOL     OW15334   0.323   3.614   8.828  0.1133  0.1104  0.4210
 1292SOL    HW115335   0.391   3.597   8.894  0.2229 -0.4699  0.1618
 1292SOL    HW215336   0.319   3.527   8.789  1.0389  0.4427 -0.4148
 1293SOL     OW15337   2.624   0.452   4.640  0.2129  0.4672 -0.0658
 1293SOL    HW115338   2.718   0.470   4.630  0.3913  0.9686  2.5017
 1293SOL    HW215339   2.613   0.505   4.719 -0.9984 -1.5217  1.0770
 1294SOL     OW15340   3.371   2.003   5.565  0.4876 -0.6174  0.2265
 1294SOL    HW115341   3.297   1.943   5.562  0.7885 -1.0146  0.7163
 1294SOL    HW215342   3.392   2.002   5.472  0.4616 -1.5550  0.2356
 1295SOL     OW15343   2.173   2.513   1.997 -0.4605 -0.4895  0.0792
 1295SOL    HW115344   2.085   2.536   1.967 -0.0459 -0.0959 -0.8399
 1295SOL    HW215345   2.179   2.550   2.085 -0.6782 -0.7536  0.2049
 1296SOL     OW15346   2.035   4.375   6.194  0.7299 -0.2866  0.2020
 1296SOL    HW115347   1.989   4.441   6.246 -0.5713 -0.5709 -0.5757
 1296SOL    HW215348   1.967   4.312   6.169 -1.4005  2.3636 -0.6596
 1297SOL     OW15349   2.480   2.120   4.127 -0.1697  0.4703 -0.4841
 1297SOL    HW115350   2.439   2.204   4.147  0.3115  0.5168  0.2990
 1297SOL    HW215351   2.571   2.142   4.146  0.1108 -0.1020 -1.1729
 1298SOL     OW15352   0.530   3.961   4.621  1.2308  0.5118  0.5566
 1298SOL    HW115353   0.476   4.034   4.592 -0.4256 -0.2650  1.6756
 1298SOL    HW215354   0.620   3.993   4.625  0.5504  2.6926 -1.6622
 1299SOL     OW15355   0.521   0.981   3.867  0.0797 -0.3951  0.0039
 1299SOL    HW115356   0.552   0.893   3.886 -1.7753 -0.7310  1.4416
 1299SOL    HW215357   0.538   0.980   3.773 -0.3236  2.4179 -0.1108
 1300SOL     OW15358   0.624   3.526   0.966  0.7296  0.0762 -0.3739
 1300SOL    HW115359   0.717   3.508   0.983  0.6604  1.2296  1.2268
 1300SOL    HW215360   0.586   3.448   1.005 -2.1460  1.4846 -0.3807
 1301SOL     OW15361   0.767   2.056  14.753 -0.1339 -0.2157 -0.1423
 1301SOL    HW115362   0.689   2.087  14.706 -0.4406  1.1435  1.2577
 1301SOL    HW215363   0.733   1.970  14.781 -0.2356 -0.4978 -1.1260
 1302SOL     OW15364   1.787   3.090   5.615 -1.4610  0.4354  0.5423
 1302SOL    HW115365   1.825   3.054   5.536 -1.9070 -1.1597  1.0514
 1302SOL    HW215366   1.840   3.044   5.680  2.5565  0.9158 -2.4518
 1303SOL     OW15367   2.783   0.973   3.208 -0.2805 -0.2317 -0.0257
 1303SOL    HW115368   2.820   1.010   3.128 -2.2277  1.0000 -0.3641
 1303SOL    HW215369   2.746   1.045   3.259 -2.8953 -1.1859 -0.5428
 1304SOL     OW15370   0.050   0.493   4.457  0.3440 -0.1096 -0.6501
 1304SOL    HW115371   0.115   0.562   4.475  1.0459 -1.2156  0.9998
 1304SOL    HW215372   0.054   0.496   4.361 -0.9657 -1.1258 -0.7358
 1305SOL     OW15373   4.593   3.625   0.399  0.0628  0.5453 -0.1281
 1305SOL    HW115374   4.657   3.689   0.366  0.9399 -1.1640 -1.7453
 1305SOL    HW215375   4.566   3.655   0.485  2.0064 -0.8071  0.9650
 1306SOL     OW15376   0.454   1.240  16.597 -0.1329 -0.7017 -0.1827
 1306SOL    HW115377   0.419   1.329  16.589  1.6671  0.2503  2.3649
 1306SOL    HW215378   0.396   1.180  16.552 -0.0176 -1.4343  0.6330
 1307SOL     OW15379   1.342   2.585   3.600  0.7922  0.3009 -0.0364
 1307SOL    HW115380   1.303   2.500   3.619  3.9853 -1.1519  0.0884
 1307SOL    HW215381   1.424   2.552   3.561 -0.2023  0.3730 -2.1934
 1308SOL     OW15382   0.659   1.849   4.562  0.2824  0.4428  0.2340
 1308SOL    HW115383   0.674   1.842   4.468 -0.0232  1.9119  0.0846
 1308SOL    HW215384   0.574   1.804   4.555  0.7808 -0.2334 -1.4662
 1309SOL     OW15385   4.009   2.552  11.296  0.0910  0.2488 -0.4890
 1309SOL    HW115386   4.060   2.630  11.275 -0.0320  0.1690 -1.0871
 1309SOL    HW215387   4.036   2.508  11.215  0.5599  1.0596 -0.7752
 1310SOL     OW15388   0.561   3.764   1.133  0.2325 -0.0635  0.2765
 1310SOL    HW115389   0.470   3.738   1.152 -0.0739  0.9676  0.2336
 1310SOL    HW215390   0.592   3.699   1.071  1.7943  0.1821  0.8041
 1311SOL     OW15391   0.089   2.423   2.607  0.3141 -0.4333  0.5728
 1311SOL    HW115392   0.020   2.396   2.668 -3.0002  1.4022 -2.3246
 1311SOL    HW215393   0.046   2.487   2.549 -2.3207 -1.8116  1.0012
 1312SOL     OW15394   2.638   0.207  14.769  0.3645  0.1471 -0.2190
 1312SOL    HW115395   2.710   0.215  14.707  2.5782 -2.9685  1.9043
 1312SOL    HW215396   2.675   0.145  14.832  1.8036  0.9653 -0.2557
 1313SOL     OW15397   1.632   2.174  15.645 -0.4262  0.1820 -0.2078
 1313SOL    HW115398   1.595   2.256  15.676  0.7635  0.7786 -0.3704
 1313SOL    HW215399   1.691   2.189  15.571  1.2316 -1.0291  0.8368
 1314SOL     OW15400   3.587   3.178  12.144  0.4746 -0.3885  0.2052
 1314SOL    HW115401   3.541   3.102  12.108  1.7440 -1.4996  0.9341
 1314SOL    HW215402   3.534   3.248  12.106 -1.6425 -2.3292 -0.4383
 1315SOL     OW15403   3.717   3.160   8.722  0.1663 -0.0712 -0.1736
 1315SOL    HW115404   3.650   3.098   8.694  0.2221  0.8878 -2.5081
 1315SOL    HW215405   3.739   3.140   8.813  1.1972 -1.3520 -0.6965
 1316SOL     OW15406   0.174   3.791   2.775  0.9570 -0.3786  0.3412
 1316SOL    HW115407   0.142   3.801   2.685 -0.3493  4.5749  1.3019
 1316SOL    HW215408   0.255   3.743   2.758  0.7725 -0.4964 -0.2039
 1317SOL     OW15409   0.031   0.645   6.370  0.1528  0.7597  0.2931
 1317SOL    HW115410   4.684   0.701   6.402  0.3956  1.1315  0.1687
 1317SOL    HW215411   4.705   0.600   6.302 -0.0126  0.5045  0.5767
 1318SOL     OW15412   0.459   1.512   2.836 -0.0538  0.1519  0.4564
 1318SOL    HW115413   0.425   1.460   2.764  3.1196 -1.6646  0.2897
 1318SOL    HW215414   0.551   1.487   2.837  0.0540  0.4857 -2.1119
 1319SOL     OW15415   4.719   4.130  11.471 -0.0254 -0.1664  0.4380
 1319SOL    HW115416   4.681   4.105  11.387 -1.3738  2.3599  0.3040
 1319SOL    HW215417   4.699   4.061  11.534 -1.2958  1.8832  2.2794
 1320SOL     OW15418   1.599   3.770   5.147  0.2834  0.2698 -0.7408
 1320SOL    HW115419   1.517   3.733   5.181  1.1341 -0.2614  0.7638
 1320SOL    HW215420   1.659   3.699   5.173  0.5993  0.8836  0.1903
 1321SOL     OW15421   1.015   2.655  13.487  0.5924  0.2967 -0.1167
 1321SOL    HW115422   0.948   2.698  13.540  0.6093  0.4091 -0.1871
 1321SOL    HW215423   1.080   2.653  13.557  0.1872  0.1799  0.2589
 1322SOL     OW15424   2.720   2.405   9.518  0.1461  0.6783 -0.4146
 1322SOL    HW115425   2.810   2.401   9.552 -0.3969  2.1227  1.1860
 1322SOL    HW215426   2.737   2.418   9.424 -1.3788  1.0885 -0.6263
 1323SOL     OW15427   0.783   0.231   7.513  0.0112  0.0015 -0.5742
 1323SOL    HW115428   0.766   0.325   7.502 -1.8281 -0.0961  1.6435
 1323SOL    HW215429   0.800   0.220   7.607  0.2121  0.3025 -0.5752
 1324SOL     OW15430   1.491   1.400   6.118  0.1389 -0.4177  0.3620
 1324SOL    HW115431   1.508   1.327   6.178 -2.1235  1.4682  3.2507
 1324SOL    HW215432   1.582   1.415   6.092 -0.2053 -0.3909 -0.8684
 1325SOL     OW15433   1.644   0.115  12.186  0.3114 -0.1008  0.0646
 1325SOL    HW115434   1.713   0.051  12.173 -0.4877 -1.1850  1.0983
 1325SOL    HW215435   1.694   0.195  12.203  1.2993 -0.2994 -1.9490
 1326SOL     OW15436   2.746   0.547  10.279  0.1777 -0.1415  0.6441
 1326SOL    HW115437   2.797   0.611  10.230  1.8439  1.0684  3.9586
 1326SOL    HW215438   2.698   0.514  10.203  2.7366  1.7155 -1.7916
 1327SOL     OW15439   4.654   3.454  13.304  0.1596  0.6454 -0.0091
 1327SOL    HW115440   4.585   3.509  13.341  0.7079  0.1930  1.6679
 1327SOL    HW215441   4.622   3.455  13.214  3.2120  0.6848 -1.1084
 1328SOL     OW15442   0.544   4.715  10.872  0.3649  0.2592 -0.0107
 1328SOL    HW115443   0.451   0.015  10.875  0.3087  0.1203 -0.8795
 1328SOL    HW215444   0.597   0.068  10.895  2.9134 -2.0003  1.5528
 1329SOL     OW15445   3.109   2.170  13.174 -0.2546 -0.2319 -0.2401
 1329SOL    HW115446   3.155   2.253  13.182  0.0788 -0.3078 -1.5194
 1329SOL    HW215447   3.023   2.203  13.202 -0.6117 -0.2480 -1.3208
 1330SOL     OW15448   4.178   2.110   9.244 -0.2843  0.3982  0.4550
 1330SOL    HW115449   4.212   2.122   9.155 -0.9061  1.6850  0.3896
 1330SOL    HW215450   4.253   2.075   9.292 -0.3141  1.8028  1.5241
 1331SOL     OW15451   3.272   3.393  13.682 -0.1541  0.0711  0.1941
 1331SOL    HW115452   3.215   3.324  13.648  2.9837 -2.3273 -0.1431
 1331SOL    HW215453   3.312   3.343  13.753 -0.0631  0.6555  0.5535
 1332SOL     OW15454   0.982   3.369   2.195 -0.3282  0.0141 -0.2693
 1332SOL    HW115455   1.014   3.400   2.280 -2.8905 -1.3831  1.2148
 1332SOL    HW215456   1.067   3.372   2.151  0.2430  3.3088  1.0831
 1333SOL     OW15457   0.681   4.151   7.647  0.4631  0.2057  0.4275
 1333SOL    HW115458   0.771   4.142   7.615  0.9490 -2.5790  2.5796
 1333SOL    HW215459   0.672   4.070   7.696 -3.2902  0.2770 -0.1673
 1334SOL     OW15460   4.290   4.313   1.638 -0.1167  0.3365 -0.0923
 1334SOL    HW115461   4.261   4.227   1.608  1.3289 -0.1725 -0.0466
 1334SOL    HW215462   4.324   4.352   1.557 -2.0577  1.7348 -0.2260
 1335SOL     OW15463   3.197   2.480   7.447  0.3948 -0.8476 -0.2014
 1335SOL    HW115464   3.270   2.430   7.412  3.0823  1.3819  2.1829
 1335SOL    HW215465   3.245   2.540   7.504 -2.4143  3.8153 -2.7545
 1336SOL     OW15466   0.228   1.508   6.930  0.8859  0.1194  0.0388
 1336SOL    HW115467   0.255   1.452   7.002  0.5583  0.3139  0.3117
 1336SOL    HW215468   0.181   1.448   6.871  0.4712  0.6598 -0.1894
 1337SOL     OW15469   1.967   3.977   9.595  0.4343 -0.3778  0.3153
 1337SOL    HW115470   1.874   3.990   9.617  0.7389  1.8881  0.2677
 1337SOL    HW215471   1.978   4.010   9.506  0.5247 -0.8021  0.1694
 1338SOL     OW15472   4.244   0.156   4.218 -0.0937 -0.7436 -0.8822
 1338SOL    HW115473   4.158   0.138   4.180  0.2987 -2.1607 -1.1062
 1338SOL    HW215474   4.241   0.085   4.282 -2.1833 -1.1346 -1.4408
 1339SOL     OW15475   3.336   2.819   9.392 -0.5155 -0.1609  0.0451
 1339SOL    HW115476   3.275   2.819   9.318 -2.3820 -0.0927  1.5898
 1339SOL    HW215477   3.302   2.745   9.442  2.8905 -1.3412  0.5948
 1340SOL     OW15478   3.222   4.544   6.882  0.6567 -0.4161  0.2628
 1340SOL    HW115479   3.150   4.549   6.946  2.1224 -2.6337  2.0873
 1340SOL    HW215480   3.199   4.464   6.836 -0.2515 -0.5502  0.9435
 1341SOL     OW15481   0.221   0.690   7.352 -0.1351 -0.4376 -0.0407
 1341SOL    HW115482   0.238   0.755   7.421  1.0029 -0.7528 -0.0232
 1341SOL    HW215483   0.299   0.691   7.296 -0.2176  1.8438 -0.1333
 1342SOL     OW15484   0.136   0.451  14.098  0.0197  0.6007 -0.3174
 1342SOL    HW115485   0.074   0.516  14.065  1.0308  1.7245 -0.0078
 1342SOL    HW215486   0.124   0.383  14.033  1.7673  1.6323 -1.7038
 1343SOL     OW15487   1.456   2.413  14.817  0.1002  0.5436  0.2592
 1343SOL    HW115488   1.513   2.416  14.740  0.4425 -0.5116  0.4676
 1343SOL    HW215489   1.385   2.463  14.778 -0.7318 -0.4738  0.4767
 1344SOL     OW15490   3.515   4.352   1.015 -0.2844  0.2620  0.1602
 1344SOL    HW115491   3.482   4.415   1.079 -0.2876  1.1214 -0.7051
 1344SOL    HW215492   3.496   4.270   1.061  1.8446 -0.1640  0.2951
 1345SOL     OW15493   1.998   0.649   7.239 -0.0630 -0.5036 -0.1278
 1345SOL    HW115494   1.985   0.719   7.176  1.1051 -1.7157 -1.7428
 1345SOL    HW215495   2.069   0.687   7.290 -1.0630  1.7858 -0.4379
 1346SOL     OW15496   4.357   3.294   0.078  0.1344  0.0234  0.5938
 1346SOL    HW115497   4.398   3.342   0.150 -0.0433  2.3990 -0.8870
 1346SOL    HW215498   4.274   3.339   0.063 -0.7199 -1.7649 -0.0077
 1347SOL     OW15499   1.198   4.267  17.543  0.0188  0.6592 -0.0625
 1347SOL    HW115500   1.184   4.222  17.626 -1.8714  2.1218  0.4163
 1347SOL    HW215501   1.293   4.265  17.527 -0.0587 -0.3962 -0.3914
 1348SOL     OW15502   1.712   0.919   7.222  0.0331  0.5491  0.2956
 1348SOL    HW115503   1.701   0.855   7.152  0.9595 -0.2108  0.8492
 1348SOL    HW215504   1.677   0.866   7.294 -2.6146  1.1446 -0.5723
 1349SOL     OW15505   0.790   3.687   7.326 -0.5017  0.0399  0.4500
 1349SOL    HW115506   0.766   3.600   7.359  0.8416  0.8872  3.6083
 1349SOL    HW215507   0.701   3.721   7.333 -1.0221 -0.9821 -1.1666
 1350SOL     OW15508   4.363   2.932   5.686  0.1039  0.1430  0.1247
 1350SOL    HW115509   4.331   2.954   5.774 -0.1092 -2.3491  0.6860
 1350SOL    HW215510   4.315   2.850   5.672  1.0651 -0.4755  0.4353
 1351SOL     OW15511   4.689   2.337   9.717  0.5363 -0.2876 -0.4162
 1351SOL    HW115512   0.048   2.384   9.707  0.8266 -0.5078  1.0719
 1351SOL    HW215513   4.633   2.404   9.677 -0.0203 -1.5928 -1.8445
 1352SOL     OW15514   4.230   0.397   5.196 -0.2984  0.3369 -0.0778
 1352SOL    HW115515   4.199   0.470   5.143  0.4966  1.1757  0.6152
 1352SOL    HW215516   4.224   0.333   5.125 -0.3765 -0.7011  0.8716
 1353SOL     OW15517   4.028   2.770   1.827 -0.2401  0.6302 -0.3343
 1353SOL    HW115518   4.007   2.677   1.842 -0.5275  0.7899  0.2749
 1353SOL    HW215519   4.061   2.766   1.737 -1.2245  0.5586 -0.6884
 1354SOL     OW15520   0.329   1.333   2.649  0.3600  0.0870 -0.4093
 1354SOL    HW115521   0.271   1.321   2.573 -0.9979 -1.8770  0.9207
 1354SOL    HW215522   0.259   1.295   2.703  0.3867 -0.5581 -0.8248
 1355SOL     OW15523   3.376   1.112   2.497 -0.1030  0.2542  0.0748
 1355SOL    HW115524   3.373   1.204   2.470 -1.8951  0.3824  0.6652
 1355SOL    HW215525   3.403   1.110   2.588 -0.3152  0.7585  0.1494
 1356SOL     OW15526   2.225   0.349   7.204 -0.1007  0.9710 -0.1608
 1356SOL    HW115527   2.204   0.306   7.287 -1.2265 -0.3979 -1.1491
 1356SOL    HW215528   2.318   0.329   7.190 -0.5804 -1.8257  0.6519
 1357SOL     OW15529   1.937   3.083   6.935  0.3452 -0.2837  0.0790
 1357SOL    HW115530   2.005   3.061   6.871  2.2881  1.1997  1.6431
 1357SOL    HW215531   1.864   3.091   6.873 -1.3374  1.5670  2.3299
 1358SOL     OW15532   4.670   0.680   3.350 -0.3681 -0.5414 -0.3839
 1358SOL    HW115533   4.598   0.685   3.412 -0.0081 -0.3090  0.0128
 1358SOL    HW215534   0.017   0.680   3.415  0.2729 -2.5545 -1.0938
 1359SOL     OW15535   3.582   0.094  13.628  0.4289 -0.0685  0.0903
 1359SOL    HW115536   3.536   0.080  13.711 -0.6101 -0.0232 -0.4731
 1359SOL    HW215537   3.502   0.084  13.577  1.4831 -1.1373 -1.3503
 1360SOL     OW15538   2.263   3.240   0.068  0.1662  0.2461 -0.3698
 1360SOL    HW115539   2.351   3.213   0.041  0.0995 -0.2508 -0.0925
 1360SOL    HW215540   2.263   3.190   0.150 -0.2334 -0.7988 -1.0001
 1361SOL     OW15541   0.307   0.087   6.934 -0.3663 -0.0854  0.6784
 1361SOL    HW115542   0.365   0.157   6.962 -0.4597  0.0574  0.5147
 1361SOL    HW215543   0.240   0.071   7.000 -0.3890  2.3562  1.2311
 1362SOL     OW15544   4.139   4.209   4.972 -0.5773  0.5858  0.4594
 1362SOL    HW115545   4.045   4.222   4.986 -0.3467  1.6705  0.9705
 1362SOL    HW215546   4.170   4.278   5.031  0.6414  0.8640 -0.5064
 1363SOL     OW15547   0.005   1.584   1.956  0.0365 -0.3711  0.6121
 1363SOL    HW115548   4.695   1.622   2.038  0.9913  2.7365 -0.4490
 1363SOL    HW215549   4.643   1.560   1.919 -0.0260  0.0898  0.4488
 1364SOL     OW15550   2.663   2.004   5.262  0.5416  0.3122 -0.4311
 1364SOL    HW115551   2.581   1.959   5.282  0.8846  0.5311  1.4774
 1364SOL    HW215552   2.725   1.933   5.248  0.2180 -0.0195 -0.1779
 1365SOL     OW15553   3.807   1.711   9.343  0.2612 -0.3184 -0.3035
 1365SOL    HW115554   3.893   1.754   9.346  0.5037 -0.9635  1.4960
 1365SOL    HW215555   3.812   1.650   9.416 -3.0098 -0.8536 -0.5335
 1366SOL     OW15556   3.502   1.428   8.728  0.4564 -0.3512  0.8135
 1366SOL    HW115557   3.594   1.412   8.750  0.5739 -0.9480 -0.1369
 1366SOL    HW215558   3.485   1.350   8.676  1.6786 -0.6300  0.8275
 1367SOL     OW15559   3.237   3.930   8.485  0.2433  0.1497 -0.7424
 1367SOL    HW115560   3.242   3.926   8.581  0.2782  0.5449 -0.7290
 1367SOL    HW215561   3.324   3.965   8.463 -1.0065  2.6798 -1.6210
 1368SOL     OW15562   3.703   2.943  17.447  0.0049 -0.5383  0.4699
 1368SOL    HW115563   3.766   3.000  17.405  0.2387 -0.7855  0.4893
 1368SOL    HW215564   3.619   2.987  17.435  0.6557  0.5357 -0.1469
 1369SOL     OW15565   2.470   2.754   7.176 -0.1968  0.1139 -0.3801
 1369SOL    HW115566   2.452   2.692   7.247 -1.8715  0.5278 -0.4365
 1369SOL    HW215567   2.467   2.839   7.220 -2.0366  0.1020 -0.4641
 1370SOL     OW15568   2.273   3.391  12.280 -0.1935 -0.3037 -0.1343
 1370SOL    HW115569   2.183   3.420  12.272 -0.2194 -0.0693  0.9755
 1370SOL    HW215570   2.318   3.474  12.264 -1.2560  0.0298 -1.3476
 1371SOL     OW15571   1.568   2.886   4.654  0.6440  0.5191  0.3185
 1371SOL    HW115572   1.478   2.893   4.684  1.1058  0.9721  1.5836
 1371SOL    HW215573   1.599   2.803   4.691  0.8306  0.2680 -0.4020
 1372SOL     OW15574   1.372   4.490   9.839  0.5124  0.3230 -0.1603
 1372SOL    HW115575   1.320   4.475   9.760 -1.0536 -0.8520  1.0871
 1372SOL    HW215576   1.433   4.555   9.804  1.5155  0.3328  1.5825
 1373SOL     OW15577   1.673   3.227   4.705  0.1238 -0.3396 -0.2110
 1373SOL    HW115578   1.585   3.206   4.737  0.5225 -1.8406 -0.1007
 1373SOL    HW215579   1.671   3.322   4.689  2.1222 -0.3660 -0.6617
 1374SOL     OW15580   2.686   3.265   7.252  0.5719 -0.2043  0.1088
 1374SOL    HW115581   2.593   3.245   7.267  0.9566 -0.8607  1.6311
 1374SOL    HW215582   2.672   3.359   7.246 -0.4592 -0.3248  0.4787
 1375SOL     OW15583   2.402   0.463   5.830 -0.4576 -0.8425  0.1670
 1375SOL    HW115584   2.324   0.510   5.800  0.1594  0.5949  0.8183
 1375SOL    HW215585   2.471   0.500   5.775 -2.2057  0.6606 -1.0445
 1376SOL     OW15586   2.645   4.179   6.156  0.4806  0.3088  0.0029
 1376SOL    HW115587   2.676   4.098   6.118 -1.9943 -1.4962  1.7935
 1376SOL    HW215588   2.576   4.215   6.100  0.9039 -0.6552 -1.1347
 1377SOL     OW15589   2.553   0.459   7.374 -0.4630 -0.0774  0.0431
 1377SOL    HW115590   2.586   0.484   7.460 -0.0950 -1.5403  0.3197
 1377SOL    HW215591   2.550   0.363   7.375 -2.3057 -0.0327 -1.8052
 1378SOL     OW15592   0.315   3.654   6.231 -0.0430 -0.3775 -0.2285
 1378SOL    HW115593   0.328   3.716   6.302 -1.1700 -1.6242  1.0647
 1378SOL    HW215594   0.260   3.588   6.274 -0.0691  0.4572  1.0152
 1379SOL     OW15595   2.339   3.270  14.961 -0.0118 -0.2773 -0.3509
 1379SOL    HW115596   2.403   3.312  14.903  3.4801  0.5842  4.1041
 1379SOL    HW215597   2.378   3.187  14.990 -2.8657 -1.6572 -0.5201
 1380SOL     OW15598   1.417   0.478   3.026 -0.1686  0.5887 -0.5780
 1380SOL    HW115599   1.328   0.458   3.053  0.4183 -1.9259 -0.4702
 1380SOL    HW215600   1.467   0.401   3.053 -3.2423 -1.0233  0.4666
 1381SOL     OW15601   0.815   3.296  15.355  0.4756 -0.4088  0.1022
 1381SOL    HW115602   0.763   3.287  15.435  1.2333  1.6327  0.8062
 1381SOL    HW215603   0.754   3.344  15.299 -0.3469 -0.3729  1.0327
 1382SOL     OW15604   4.642   2.753   4.742  0.1417  0.0261 -0.0422
 1382SOL    HW115605   4.694   2.681   4.706  0.6672  0.9918 -1.2265
 1382SOL    HW215606   4.699   2.820   4.780  1.5934 -0.3122 -1.6191
 1383SOL     OW15607   3.273   1.966   1.061 -0.1814  0.2025 -0.5122
 1383SOL    HW115608   3.279   2.025   0.986 -0.8307  1.5459  0.5138
 1383SOL    HW215609   3.278   1.879   1.020  0.2744  0.1745 -0.4055
 1384SOL     OW15610   1.216   2.691   0.075  0.2126 -0.5055 -0.6708
 1384SOL    HW115611   1.156   2.618   0.058 -0.6294  0.6407 -2.5684
 1384SOL    HW215612   1.251   2.667   0.161 -0.6335 -1.9750 -0.7326
 1385SOL     OW15613   0.388   0.187  14.720  0.3371  0.2378 -0.3448
 1385SOL    HW115614   0.366   0.095  14.739  0.0407  0.1041 -1.3451
 1385SOL    HW215615   0.412   0.211  14.810 -1.0463  2.4984 -0.5977
 1386SOL     OW15616   4.453   0.650   4.254 -0.6140  0.1421 -0.1719
 1386SOL    HW115617   4.485   0.654   4.344  1.9181  0.1227 -1.0647
 1386SOL    HW215618   4.423   0.562   4.230  2.3979 -1.2388  1.2360
 1387SOL     OW15619   2.769   4.660   6.131  0.3983 -0.3708  0.0841
 1387SOL    HW115620   2.755   4.599   6.203  0.1714 -0.0091  0.3512
 1387SOL    HW215621   2.731   4.609   6.059  1.3621 -0.5545 -0.3009
 1388SOL     OW15622   4.687   2.156  15.175  0.4592  0.2802  0.0914
 1388SOL    HW115623   0.019   2.210  15.232  1.5259 -1.4801  0.7270
 1388SOL    HW215624   4.617   2.139  15.238  0.5271  0.4419  0.2101
 1389SOL     OW15625   1.091   1.623   6.596  0.0014  0.1506  0.4892
 1389SOL    HW115626   1.008   1.576   6.607  0.0259 -0.4449 -1.8717
 1389SOL    HW215627   1.137   1.551   6.553  2.8998  2.5911 -0.4398
 1390SOL     OW15628   3.863   0.605   3.347  0.4351  0.5183  0.0481
 1390SOL    HW115629   3.933   0.564   3.296 -1.5582  1.8511 -3.7490
 1390SOL    HW215630   3.912   0.679   3.383 -0.3881  1.5055 -0.8728
 1391SOL     OW15631   3.804   0.573   2.471  0.0072  0.1830  0.4689
 1391SOL    HW115632   3.823   0.588   2.378 -0.5198  0.1228  0.3486
 1391SOL    HW215633   3.710   0.559   2.462  0.1033 -0.7938  0.9138
 1392SOL     OW15634   4.161   2.716  15.369  0.2119 -0.1759  0.3846
 1392SOL    HW115635   4.175   2.666  15.449  0.5219 -0.1354  0.3566
 1392SOL    HW215636   4.155   2.807  15.398 -1.0049  0.1540 -0.8853
 1393SOL     OW15637   0.999   2.090   3.917 -0.2608 -0.0685 -0.6870
 1393SOL    HW115638   1.074   2.144   3.942 -0.3675  0.7117 -2.0234
 1393SOL    HW215639   1.002   2.100   3.822  1.2010  3.2026 -0.3110
 1394SOL     OW15640   3.599   0.023   7.274  1.1185  0.3406 -0.0066
 1394SOL    HW115641   3.507   4.720   7.283  1.5061 -2.1053 -3.2929
 1394SOL    HW215642   3.616   0.057   7.186  0.3020 -2.4416 -1.2227
 1395SOL     OW15643   2.706   2.356   0.569  0.6099  0.2838 -0.4796
 1395SOL    HW115644   2.676   2.269   0.542  3.3863 -0.9083  0.3246
 1395SOL    HW215645   2.730   2.348   0.662  3.1625 -1.1682 -1.2563
 1396SOL     OW15646   1.563   4.576   3.765 -0.4280  0.4962 -0.3195
 1396SOL    HW115647   1.471   4.553   3.777  0.6023 -2.7898  1.3344
 1396SOL    HW215648   1.552   4.669   3.747 -3.1198 -0.0159 -1.2246
 1397SOL     OW15649   4.417   1.681   7.030 -0.0032  0.8497  0.2682
 1397SOL    HW115650   4.474   1.655   6.958  0.5765  1.8453  0.3639
 1397SOL    HW215651   4.351   1.715   6.971  1.5252  2.3042 -0.6094
 1398SOL     OW15652   4.539   1.215   8.840 -0.4146 -0.1612 -0.0395
 1398SOL    HW115653   4.474   1.279   8.868  0.4149  0.2289  1.0381
 1398SOL    HW215654   4.605   1.268   8.796 -0.8223  0.9224  0.6433
 1399SOL     OW15655   3.891   2.035  11.933 -0.3671 -0.6488  0.4291
 1399SOL    HW115656   3.897   2.130  11.943 -0.6057 -0.5077 -0.8399
 1399SOL    HW215657   3.897   2.011  12.026  1.3534  1.8059  0.9704
 1400SOL     OW15658   4.161   0.350  14.760 -0.5796 -0.0368 -0.0480
 1400SOL    HW115659   4.248   0.388  14.771 -0.7471  0.0556  1.0095
 1400SOL    HW215660   4.157   0.295  14.839  0.6825 -0.3751 -0.2272
 1401SOL     OW15661   3.516   2.534   6.883  0.0502 -0.6897  0.3235
 1401SOL    HW115662   3.435   2.574   6.913  0.1527 -0.0680 -0.2220
 1401SOL    HW215663   3.476   2.510   6.799  0.6406 -0.8617  0.0917
 1402SOL     OW15664   1.184   4.464  11.119  0.0426  0.5220 -0.2661
 1402SOL    HW115665   1.265   4.496  11.078  1.0234  1.5213  2.4765
 1402SOL    HW215666   1.121   4.536  11.129 -0.0193  0.1524  1.9611
 1403SOL     OW15667   0.312   0.709   2.215 -0.4263 -0.1745  0.5775
 1403SOL    HW115668   0.326   0.634   2.157  1.7736 -0.0117  0.8762
 1403SOL    HW215669   0.217   0.720   2.216 -0.4716 -0.7080  1.6414
 1404SOL     OW15670   1.388   1.238  15.045  0.3156 -0.2664  0.1780
 1404SOL    HW115671   1.475   1.226  15.007  0.2872 -1.2627  0.4350
 1404SOL    HW215672   1.405   1.204  15.132  1.1126  1.8674  0.8596
 1405SOL     OW15673   1.121   0.734  11.489 -0.0879  0.1151 -0.3908
 1405SOL    HW115674   1.134   0.744  11.395  1.4462  1.7904 -0.0029
 1405SOL    HW215675   1.128   0.640  11.501  0.7302  0.3868  1.2197
 1406SOL     OW15676   0.064   4.393   7.101  0.0264  0.2898 -0.2635
 1406SOL    HW115677   0.136   4.443   7.139  0.2981  0.0278 -0.4308
 1406SOL    HW215678   0.011   4.398   7.180  0.3680  1.2306 -0.1012
 1407SOL     OW15679   0.898   2.033   7.344  0.5836  0.3522  0.7665
 1407SOL    HW115680   0.835   2.091   7.301  0.2724 -0.1171  0.5788
 1407SOL    HW215681   0.980   2.067   7.308 -1.1353  2.5074 -1.1390
 1408SOL     OW15682   0.024   1.424  16.814 -1.2146 -0.6200 -0.7322
 1408SOL    HW115683   4.651   1.427  16.817 -1.0753  2.9282  0.6735
 1408SOL    HW215684   0.038   1.359  16.745 -1.6347 -0.9315 -0.5285
 1409SOL     OW15685   4.317   2.838   6.718  0.9940 -0.0542  0.4468
 1409SOL    HW115686   4.253   2.825   6.647  0.4420  0.1581  0.9000
 1409SOL    HW215687   4.398   2.825   6.669  0.1375  1.0102 -1.2808
 1410SOL     OW15688   3.374   4.214   8.659  0.1348  0.1711 -0.1716
 1410SOL    HW115689   3.342   4.237   8.746 -0.6796 -2.9304  0.3329
 1410SOL    HW215690   3.468   4.221   8.676 -0.3892 -0.1836  2.9111
 1411SOL     OW15691   0.986   3.407   4.035  0.1157  0.3980  0.1574
 1411SOL    HW115692   1.031   3.490   4.018 -1.1774  1.5087  2.2138
 1411SOL    HW215693   1.041   3.358   3.973  1.1629  1.3762  0.2970
 1412SOL     OW15694   4.010   1.557  10.674 -0.1189 -0.5899  0.0105
 1412SOL    HW115695   3.968   1.490  10.621 -0.2446 -1.0142  0.6440
 1412SOL    HW215696   4.028   1.499  10.748  0.4263 -2.3573 -1.4933
 1413SOL     OW15697   4.101   4.165  14.970  0.3525  0.3542 -0.1966
 1413SOL    HW115698   4.127   4.245  14.924 -2.6625  2.2969  1.4676
 1413SOL    HW215699   4.090   4.208  15.055 -3.2670  1.3870 -1.1841
 1414SOL     OW15700   2.219   1.405   8.684 -0.6282  0.4851  0.2885
 1414SOL    HW115701   2.275   1.459   8.740  1.2626 -0.8405 -0.3021
 1414SOL    HW215702   2.295   1.350   8.666 -1.5945 -0.7475  0.0076
 1415SOL     OW15703   3.300   0.010   3.859 -0.4679  0.5760 -0.7300
 1415SOL    HW115704   3.258   0.051   3.784 -1.1525 -1.2627 -1.3681
 1415SOL    HW215705   3.307   4.640   3.838  1.9894  1.5149 -4.0158
 1416SOL     OW15706   3.394   4.356  11.422  0.3783 -0.0752 -0.0559
 1416SOL    HW115707   3.306   4.338  11.455  0.1290  2.1657  0.4842
 1416SOL    HW215708   3.369   4.439  11.381 -0.4150 -0.0127  0.5634
 1417SOL     OW15709   3.552   3.249   7.827 -0.3818 -0.1213 -0.8084
 1417SOL    HW115710   3.595   3.181   7.774  0.7252 -0.4847  0.5504
 1417SOL    HW215711   3.504   3.299   7.761 -1.1590 -0.5186 -0.5348
 1418SOL     OW15712   1.653   2.828   6.181  0.3931 -0.6318  0.1745
 1418SOL    HW115713   1.624   2.916   6.157  0.6420 -0.0531  2.0570
 1418SOL    HW215714   1.704   2.855   6.257 -0.2440  1.3591 -0.0988
 1419SOL     OW15715   2.068   3.310  15.007 -0.4662  0.3511 -0.2883
 1419SOL    HW115716   2.087   3.391  15.054 -1.5027  0.6208 -0.3287
 1419SOL    HW215717   2.154   3.277  14.982 -1.2470 -1.8289 -0.0695
 1420SOL     OW15718   2.332   2.146   8.044  0.2411  0.3779 -0.5723
 1420SOL    HW115719   2.372   2.180   7.964  1.7014  1.3335  0.5714
 1420SOL    HW215720   2.407   2.120   8.096 -0.2895  0.5951  0.2949
 1421SOL     OW15721   1.956   3.072   7.693  0.1348 -0.6495 -0.1385
 1421SOL    HW115722   1.921   3.154   7.729 -3.3908 -1.9036 -0.7047
 1421SOL    HW215723   1.893   3.013   7.732 -1.8300  0.5297 -1.5005
 1422SOL     OW15724   4.193   2.655  16.504  0.2108 -0.0566 -0.2782
 1422SOL    HW115725   4.233   2.609  16.429  0.0919 -1.1532  0.3277
 1422SOL    HW215726   4.169   2.581  16.560  1.1842 -1.7245 -2.0248
 1423SOL     OW15727   0.956   2.730   4.946  0.2918 -0.3926  0.1292
 1423SOL    HW115728   0.995   2.704   5.030  0.1339  1.2949  0.7278
 1423SOL    HW215729   0.956   2.825   4.956  1.5429 -0.2918 -0.8478
 1424SOL     OW15730   1.167   0.416   3.094 -0.1853  0.3312 -0.3375
 1424SOL    HW115731   1.112   0.482   3.053 -0.2005  0.6519  0.1948
 1424SOL    HW215732   1.108   0.345   3.067 -0.6348 -0.0001  1.4966
 1425SOL     OW15733   1.912   2.971   6.289 -0.0696 -0.1304  0.3128
 1425SOL    HW115734   1.953   2.909   6.349 -2.2621 -1.3280  0.5659
 1425SOL    HW215735   1.960   3.049   6.318  2.0734 -2.1873  2.2558
 1426SOL     OW15736   2.053   0.280   8.484  0.1422  0.3855 -0.2946
 1426SOL    HW115737   2.052   0.375   8.493 -1.9524  0.3589 -0.2326
 1426SOL    HW215738   2.094   0.253   8.566  0.2135  1.7020  0.1066
 1427SOL     OW15739   0.544   2.646  14.526 -0.0013  0.2654 -0.0407
 1427SOL    HW115740   0.537   2.607  14.439  1.2441 -0.0467 -0.0035
 1427SOL    HW215741   0.584   2.731  14.506 -1.2948  0.2255 -2.7582
 1428SOL     OW15742   0.996   3.037   0.358 -0.5448 -0.6435  0.2590
 1428SOL    HW115743   1.033   2.961   0.403  0.0003 -0.8334 -0.5236
 1428SOL    HW215744   0.942   3.085   0.421  1.2061  0.7185  0.7390
 1429SOL     OW15745   0.053   2.761   5.250  0.4719 -0.6298 -0.1747
 1429SOL    HW115746   0.098   2.829   5.200 -1.0078  0.4525 -0.0494
 1429SOL    HW215747   0.051   2.690   5.187 -3.6183  0.0548 -0.7999
 1430SOL     OW15748   1.217   0.845   7.755  0.0348  0.1472 -0.1447
 1430SOL    HW115749   1.234   0.766   7.806 -3.5055 -1.7517 -1.8782
 1430SOL    HW215750   1.282   0.904   7.793  1.1606 -1.6262  0.7198
 1431SOL     OW15751   4.271   3.802   7.764  0.3114 -0.2740  0.0835
 1431SOL    HW115752   4.269   3.758   7.679 -3.7777 -1.4370  0.8040
 1431SOL    HW215753   4.186   3.779   7.800  0.2176  1.0825  0.7422
 1432SOL     OW15754   3.583   3.119   4.450  0.4133 -0.4223 -0.3698
 1432SOL    HW115755   3.644   3.183   4.487  0.2080 -0.8526  0.7386
 1432SOL    HW215756   3.604   3.041   4.502  0.4027 -0.8947 -1.0875
 1433SOL     OW15757   4.126   3.375   7.491 -0.0614 -0.3563  0.3273
 1433SOL    HW115758   4.070   3.299   7.478  0.6693 -0.8379 -0.0174
 1433SOL    HW215759   4.137   3.410   7.403  0.4526  0.0892  0.5599
 1434SOL     OW15760   0.589   2.613   1.350 -0.1397  0.1548 -0.4591
 1434SOL    HW115761   0.513   2.637   1.298 -1.4268 -1.2078  0.7987
 1434SOL    HW215762   0.660   2.609   1.285 -1.5749  2.5774 -2.1657
 1435SOL     OW15763   0.871   1.714   8.080 -0.5366 -0.0185 -0.6733
 1435SOL    HW115764   0.840   1.650   8.145 -1.5132  1.3246  0.1932
 1435SOL    HW215765   0.806   1.700   8.011 -0.3321 -1.6650 -0.5254
 1436SOL     OW15766   2.513   4.523  15.708  0.1452 -0.4768  0.0600
 1436SOL    HW115767   2.456   4.592  15.741 -0.6145 -2.2832  2.4994
 1436SOL    HW215768   2.440   4.463  15.695  0.5105 -1.1576  1.2033
 1437SOL     OW15769   1.373   4.609   5.796 -0.2908 -0.2301  0.3922
 1437SOL    HW115770   1.310   4.621   5.867  0.3688 -1.2691  1.1510
 1437SOL    HW215771   1.399   4.519   5.813  0.0230 -0.0464  0.9031
 1438SOL     OW15772   1.972   0.021   6.875  0.1855  0.0621 -0.3632
 1438SOL    HW115773   1.886   4.702   6.868 -1.1980  2.8995 -0.6057
 1438SOL    HW215774   1.960   0.106   6.832  2.1940  0.6401  0.2407
 1439SOL     OW15775   1.379   4.008  15.338  0.4736  0.0025  0.5151
 1439SOL    HW115776   1.414   3.922  15.316 -1.4124 -0.8552  0.9213
 1439SOL    HW215777   1.433   4.060  15.279 -0.8070  0.7625  0.0147
 1440SOL     OW15778   0.274   0.755   8.097 -0.6869 -0.0540  0.0800
 1440SOL    HW115779   0.227   0.738   8.015 -0.7413 -1.0594  0.3210
 1440SOL    HW215780   0.337   0.683   8.098 -2.0090 -1.1657  2.4649
 1441SOL     OW15781   2.767   4.554   7.125 -0.4857 -0.1077 -0.2552
 1441SOL    HW115782   2.675   4.568   7.103 -0.5068  0.8005  0.3891
 1441SOL    HW215783   2.776   4.571   7.219 -2.1929  0.6469 -0.2295
 1442SOL     OW15784   1.864   1.818  11.470 -0.4520 -0.4703  0.4119
 1442SOL    HW115785   1.844   1.748  11.409  1.7295  0.5010 -1.4306
 1442SOL    HW215786   1.811   1.891  11.438 -0.0090  0.1968  1.1916
 1443SOL     OW15787   3.516   2.016  11.962 -0.4266 -0.1096  0.2243
 1443SOL    HW115788   3.453   1.945  11.962  1.6934 -1.9938 -0.5903
 1443SOL    HW215789   3.496   2.052  12.048 -0.3419 -0.8116  0.5336
 1444SOL     OW15790   3.001   4.319  15.594 -0.1574  0.1543 -0.2806
 1444SOL    HW115791   3.020   4.329  15.501 -0.5429  0.8634 -0.2767
 1444SOL    HW215792   3.083   4.278  15.623  0.2641  0.8496 -0.4898
 1445SOL     OW15793   3.074   2.578   2.183  0.4287 -0.8304  0.1710
 1445SOL    HW115794   2.979   2.576   2.194  0.4003  0.0938  0.0759
 1445SOL    HW215795   3.096   2.540   2.098  1.6782 -1.9762  1.0038
 1446SOL     OW15796   2.559   0.009  13.926  0.3881 -0.2914  0.2912
 1446SOL    HW115797   2.494   4.688  13.981  0.3333 -1.0722 -0.3871
 1446SOL    HW215798   2.509   0.076  13.880 -0.2607 -0.7153  0.3741
 1447SOL     OW15799   3.017   0.803   7.177  0.3814 -0.2606  0.3266
 1447SOL    HW115800   3.004   0.729   7.118  2.7963  0.3924 -1.0375
 1447SOL    HW215801   2.957   0.782   7.248  2.5617 -2.3964  1.5485
 1448SOL     OW15802   1.764   1.408  12.879  0.3038  0.4616  0.0677
 1448SOL    HW115803   1.816   1.427  12.801  1.3038  2.2039  1.1842
 1448SOL    HW215804   1.768   1.491  12.926  0.2894  1.1065 -1.0591
 1449SOL     OW15805   1.788   2.171  14.598  0.0409 -0.2284  0.5105
 1449SOL    HW115806   1.696   2.154  14.580 -0.5369 -0.2050  3.4858
 1449SOL    HW215807   1.801   2.248  14.541 -0.8125 -1.3709 -1.2169
 1450SOL     OW15808   3.592   0.405   1.501 -0.0879 -0.0014 -0.2238
 1450SOL    HW115809   3.610   0.317   1.533  0.8970  0.7092  1.2161
 1450SOL    HW215810   3.658   0.434   1.565  0.4566  0.2667 -0.9053
 1451SOL     OW15811   3.179   1.696   2.378 -0.4197  0.3328 -0.4304
 1451SOL    HW115812   3.225   1.743   2.309 -1.6896  2.2619  0.0344
 1451SOL    HW215813   3.181   1.605   2.351 -2.1076 -1.1204  4.2991
 1452SOL     OW15814   3.334   0.121   5.399 -0.2691  0.8706 -0.4719
 1452SOL    HW115815   3.428   0.128   5.415  0.0159 -0.1537 -1.7956
 1452SOL    HW215816   3.310   0.214   5.398  1.4329  1.3230  0.1800
 1453SOL     OW15817   3.500   3.878   0.459 -0.1921 -0.1018  1.0578
 1453SOL    HW115818   3.503   3.974   0.463 -1.1162  0.0423 -1.1939
 1453SOL    HW215819   3.424   3.863   0.403 -0.4065  1.3160  0.9734
 1454SOL     OW15820   1.916   0.834   1.003  0.0925  0.0256  0.7053
 1454SOL    HW115821   1.968   0.861   1.078 -1.9866  0.8346  1.8499
 1454SOL    HW215822   1.829   0.871   1.018  0.1600  0.4151  0.1457
 1455SOL     OW15823   2.223   2.212   8.478  0.5104 -0.2430 -0.2297
 1455SOL    HW115824   2.185   2.213   8.390  1.5450  0.2630 -0.6705
 1455SOL    HW215825   2.194   2.130   8.517 -0.0115  1.0269  2.0827
 1456SOL     OW15826   3.521   0.745   5.595 -0.0265 -0.6634  0.5176
 1456SOL    HW115827   3.616   0.730   5.600  0.1220  0.0898 -0.0139
 1456SOL    HW215828   3.511   0.820   5.653 -2.7044 -0.6223  0.0047
 1457SOL     OW15829   2.996   1.940   8.408  0.4842  0.0801 -0.0775
 1457SOL    HW115830   3.081   1.984   8.411  0.5005 -0.0356  1.5285
 1457SOL    HW215831   2.992   1.924   8.503 -0.4515  2.4494  0.2618
 1458SOL     OW15832   4.067   1.231   4.487 -0.3079 -0.3011  0.2920
 1458SOL    HW115833   4.081   1.320   4.519 -0.3007 -1.3100  3.1022
 1458SOL    HW215834   3.983   1.209   4.527 -1.3077 -0.1400 -1.7414
 1459SOL     OW15835   4.617   2.186   3.179  0.1686  0.3837 -0.1322
 1459SOL    HW115836   4.557   2.150   3.114  1.5178  0.4919 -1.4308
 1459SOL    HW215837   4.692   2.211   3.126  0.5235 -1.5626 -0.5459
 1460SOL     OW15838   0.417   2.450   4.340 -0.4524  0.1295  0.4910
 1460SOL    HW115839   0.352   2.409   4.284 -0.5773  1.6456 -0.4840
 1460SOL    HW215840   0.473   2.497   4.278 -0.3240  1.6896  1.7884
 1461SOL     OW15841   4.298   2.245  15.213  0.7843 -0.0305 -0.0748
 1461SOL    HW115842   4.261   2.329  15.187 -0.8536 -0.4225  0.9810
 1461SOL    HW215843   4.249   2.233  15.295 -0.6050  1.5665 -0.6810
 1462SOL     OW15844   3.077   2.865   1.973  0.4357  0.4945  0.3376
 1462SOL    HW115845   3.041   2.925   1.907  0.6329  1.0195  0.7008
 1462SOL    HW215846   3.038   2.781   1.949  1.3214 -0.1991  1.2926
 1463SOL     OW15847   0.655   1.302   5.709  0.5547  0.1236  0.1765
 1463SOL    HW115848   0.633   1.321   5.801  1.5575  0.9980  0.2442
 1463SOL    HW215849   0.622   1.213   5.697  0.3904 -0.0685  1.9551
 1464SOL     OW15850   0.687   2.332   3.106 -0.2201  0.7183  0.1806
 1464SOL    HW115851   0.782   2.324   3.101 -0.1829  1.2951 -0.0094
 1464SOL    HW215852   0.668   2.239   3.119 -1.0761  1.4617  4.1709
 1465SOL     OW15853   3.101   0.760   5.829  0.0093 -0.1173  0.2282
 1465SOL    HW115854   3.188   0.744   5.866 -0.1827 -1.0235  0.2978
 1465SOL    HW215855   3.113   0.745   5.735  0.9130 -0.1212  0.3417
 1466SOL     OW15856   2.858   0.399   3.058 -0.0260  0.4507  0.4064
 1466SOL    HW115857   2.930   0.371   3.002 -0.5386  1.7715 -0.9211
 1466SOL    HW215858   2.843   0.320   3.110  0.7277 -1.3707 -2.1682
 1467SOL     OW15859   0.691   4.362  16.934 -0.0098 -0.4263 -0.1030
 1467SOL    HW115860   0.644   4.375  17.016 -0.7115  3.4641 -1.1527
 1467SOL    HW215861   0.634   4.381  16.860 -2.1105 -1.6518  1.2104
 1468SOL     OW15862   0.923   3.207  13.439 -0.0319  0.0153 -0.3566
 1468SOL    HW115863   0.997   3.153  13.470  0.6419  0.8846 -0.4469
 1468SOL    HW215864   0.853   3.142  13.442 -0.2834  0.2558 -1.2397
 1469SOL     OW15865   3.438   4.014   2.463 -0.3974 -0.6808 -0.1668
 1469SOL    HW115866   3.381   3.955   2.512 -0.2063 -1.2647 -0.6477
 1469SOL    HW215867   3.470   3.951   2.398 -0.6336 -1.2523  0.2666
 1470SOL     OW15868   3.911   0.661  17.345  0.0822  0.6264 -0.1493
 1470SOL    HW115869   3.952   0.708  17.417  2.1753 -0.0077 -0.9057
 1470SOL    HW215870   3.952   0.574  17.345 -0.0889  0.5488  0.4232
 1471SOL     OW15871   2.238   4.570   4.826 -0.6492  0.3598  0.1634
 1471SOL    HW115872   2.317   4.522   4.798 -0.2213  1.0730  0.1503
 1471SOL    HW215873   2.255   4.574   4.921  0.9020 -1.8568 -0.0164
 1472SOL     OW15874   2.445   2.023  11.923  0.8220  0.1863 -0.0131
 1472SOL    HW115875   2.451   2.118  11.933 -1.6614  0.4500 -1.2650
 1472SOL    HW215876   2.363   2.001  11.967  0.1615 -0.8158 -1.7489
 1473SOL     OW15877   1.850   1.671   1.178 -0.8728 -0.3704  0.4656
 1473SOL    HW115878   1.843   1.664   1.082 -3.1943  0.7132  0.5391
 1473SOL    HW215879   1.825   1.763   1.190  1.0414  0.1762  0.2471
 1474SOL     OW15880   0.410   2.561   4.038 -0.8310  0.3674  0.4308
 1474SOL    HW115881   0.326   2.608   4.034 -0.5144  0.5473 -3.7995
 1474SOL    HW215882   0.421   2.505   3.961  0.5896 -1.4750  1.9798
 1475SOL     OW15883   4.459   4.371   9.608  0.5429  0.4912 -0.4460
 1475SOL    HW115884   4.492   4.426   9.537  0.4645  2.0691  0.7538
 1475SOL    HW215885   4.433   4.439   9.670 -0.9790 -1.7427  1.3637
 1476SOL     OW15886   1.659   1.626  12.271 -0.6528 -0.2833  0.2811
 1476SOL    HW115887   1.590   1.627  12.205 -0.4924 -1.4161  0.0936
 1476SOL    HW215888   1.613   1.669  12.343  3.8798  1.7485  1.9944
 1477SOL     OW15889   1.884   0.986  11.676  0.2838  0.6208 -0.6377
 1477SOL    HW115890   1.809   0.982  11.617  1.1784  2.6823 -1.9604
 1477SOL    HW215891   1.858   0.921  11.741 -0.6076  0.3546 -1.2617
 1478SOL     OW15892   1.742   4.487   7.910 -0.0585  0.4473 -0.0920
 1478SOL    HW115893   1.759   4.509   7.819 -0.4945 -2.3447 -0.8626
 1478SOL    HW215894   1.698   4.569   7.930 -1.0850 -0.6828  2.2660
 1479SOL     OW15895   2.850   3.623   8.028 -0.2886 -0.0907  0.0214
 1479SOL    HW115896   2.807   3.688   8.084 -1.3613 -0.8746  0.1217
 1479SOL    HW215897   2.836   3.539   8.074  2.2575 -1.3723 -1.5596
 1480SOL     OW15898   1.031   3.267   4.271  0.4076 -0.3876  0.0964
 1480SOL    HW115899   1.011   3.299   4.183  1.0660  1.1732  0.5154
 1480SOL    HW215900   1.069   3.185   4.238  0.6467 -1.0479  2.0572
 1481SOL     OW15901   3.762   3.506  10.701 -0.1044  0.3345 -0.6819
 1481SOL    HW115902   3.743   3.489  10.609 -2.3205 -1.1994  0.0567
 1481SOL    HW215903   3.681   3.550  10.727  0.4579  0.2173  1.3243
 1482SOL     OW15904   3.154   2.776  12.730 -0.7041 -0.4323 -0.6371
 1482SOL    HW115905   3.242   2.787  12.693 -1.2739  0.0926 -1.8566
 1482SOL    HW215906   3.181   2.781  12.821 -1.3227 -0.2873 -0.4609
 1483SOL     OW15907   2.645   3.231  12.421  0.1652 -0.3950  0.2262
 1483SOL    HW115908   2.721   3.237  12.479 -0.0059  4.8374 -0.1395
 1483SOL    HW215909   2.652   3.318  12.383  0.0106 -0.8384 -0.8075
 1484SOL     OW15910   3.228   1.759  11.508  0.4192  0.6273 -0.1986
 1484SOL    HW115911   3.296   1.818  11.543  0.8076 -0.2794  0.5806
 1484SOL    HW215912   3.292   1.689  11.492  0.6276  1.1204 -1.4792
 1485SOL     OW15913   0.467   3.885   3.728 -0.0625 -0.2482 -0.0516
 1485SOL    HW115914   0.480   3.895   3.822  0.2047 -0.6764 -0.0399
 1485SOL    HW215915   0.474   3.972   3.690 -0.7001 -0.8150 -1.4536
 1486SOL     OW15916   2.342   2.595   5.679  0.5405  0.2266  0.1128
 1486SOL    HW115917   2.398   2.532   5.724  0.8613 -1.9546 -3.3095
 1486SOL    HW215918   2.382   2.585   5.593 -1.3404 -3.0687 -0.3964
 1487SOL     OW15919   2.325   1.901  11.348  0.1150  0.0639  0.4979
 1487SOL    HW115920   2.319   1.833  11.280 -0.4027  1.1724 -0.5545
 1487SOL    HW215921   2.281   1.976  11.308  0.3264 -0.0815 -0.0191
 1488SOL     OW15922   2.685   2.728   9.719 -0.1424  0.9441  0.6238
 1488SOL    HW115923   2.635   2.765   9.791 -1.3277 -1.2516  0.9192
 1488SOL    HW215924   2.670   2.799   9.657  0.5321  0.3341 -0.2422
 1489SOL     OW15925   3.815   2.585   3.697  0.4136 -0.6162  0.3173
 1489SOL    HW115926   3.822   2.666   3.747 -3.8915  0.6734 -1.1888
 1489SOL    HW215927   3.908   2.561   3.694  0.6686  0.3343  0.3897
 1490SOL     OW15928   3.205   1.100   6.472 -0.1860  0.1398  0.3455
 1490SOL    HW115929   3.207   1.135   6.383  0.1609  0.0761  0.3271
 1490SOL    HW215930   3.283   1.045   6.474 -0.1030  0.2319 -0.1925
 1491SOL     OW15931   4.568   3.021   0.581  0.1473  0.2004  0.5712
 1491SOL    HW115932   4.519   3.092   0.623  3.0872  2.6274 -0.0860
 1491SOL    HW215933   4.571   3.057   0.493  2.4635 -0.2713  0.4588
 1492SOL     OW15934   0.500   4.253   5.894 -0.2282 -0.1500 -0.1054
 1492SOL    HW115935   0.417   4.254   5.941 -1.0555 -0.1734 -1.5441
 1492SOL    HW215936   0.549   4.321   5.940  0.6963 -1.2935  0.6017
 1493SOL     OW15937   0.379   2.881   7.530  0.4544  0.6320  0.3102
 1493SOL    HW115938   0.347   2.969   7.512  1.6316  1.0261  0.1759
 1493SOL    HW215939   0.371   2.886   7.625  0.8574 -2.5858  0.5197
 1494SOL     OW15940   1.365   1.433   9.107 -0.7148  0.0465  0.1034
 1494SOL    HW115941   1.435   1.494   9.131 -0.1758 -1.6193  2.7867
 1494SOL    HW215942   1.321   1.483   9.039 -0.4890 -0.1100 -0.1592
 1495SOL     OW15943   2.005   3.943  13.254 -0.5449  0.3758  0.5068
 1495SOL    HW115944   1.932   3.913  13.201 -0.0639 -0.4925  0.3287
 1495SOL    HW215945   2.064   3.868  13.241  0.4476  1.0131  1.3575
 1496SOL     OW15946   0.939   3.965  12.849 -0.6840 -0.5425 -0.2445
 1496SOL    HW115947   0.945   3.882  12.896  0.2197  0.6464  1.7093
 1496SOL    HW215948   0.928   4.036  12.911 -0.0309  0.6122 -1.4470
 1497SOL     OW15949   2.913   0.023  15.244 -0.2836  0.1806 -0.3462
 1497SOL    HW115950   2.851   4.678  15.217  0.3521 -0.1999 -0.8452
 1497SOL    HW215951   2.969   4.694  15.301 -1.6337 -1.9370 -0.9783
 1498SOL     OW15952   2.535   1.241   2.372 -0.0279  0.3315  0.3155
 1498SOL    HW115953   2.546   1.159   2.420  1.3165  0.2885 -0.0642
 1498SOL    HW215954   2.446   1.235   2.339  0.0478 -1.4336  0.4277
 1499SOL     OW15955   1.584   4.598   6.207  0.2324 -0.1014 -0.1297
 1499SOL    HW115956   1.598   4.587   6.113 -1.9160  1.1595 -0.5966
 1499SOL    HW215957   1.660   4.656   6.211  1.6973 -2.3051  3.5201
 1500SOL     OW15958   2.241   0.918   9.003  0.0661 -0.4189 -0.3869
 1500SOL    HW115959   2.160   0.903   8.954 -1.4456  1.0416  1.6976
 1500SOL    HW215960   2.269   0.832   9.035  2.5583  0.5845  0.1339
 1501SOL     OW15961   3.594   2.781   5.631 -0.3210 -0.4921 -0.5563
 1501SOL    HW115962   3.610   2.874   5.648 -0.1267 -0.4005 -1.2607
 1501SOL    HW215963   3.624   2.761   5.542 -0.4214 -0.4318 -0.6040
 1502SOL     OW15964   2.021   3.320   4.762  0.3227  0.0449  0.0636
 1502SOL    HW115965   2.070   3.240   4.741  1.4729  0.6193  0.5829
 1502SOL    HW215966   1.936   3.285   4.733  0.7680  0.5045 -1.8066
 1503SOL     OW15967   1.958   1.423   6.362  0.0035 -0.0597 -0.0127
 1503SOL    HW115968   2.032   1.482   6.348 -0.1963 -0.1261 -1.3132
 1503SOL    HW215969   1.925   1.451   6.447  0.2079 -1.6910  0.6181
 1504SOL     OW15970   4.240   3.863   2.921 -0.4211  0.1652 -0.1080
 1504SOL    HW115971   4.219   3.775   2.954  0.9312  0.2424  0.9779
 1504SOL    HW215972   4.192   3.918   2.983  1.9828  1.5903  0.4681
 1505SOL     OW15973   2.428   3.513   3.377  0.1649 -0.2150  0.5027
 1505SOL    HW115974   2.377   3.555   3.447 -0.8550  0.0645 -0.4064
 1505SOL    HW215975   2.353   3.487   3.323  0.4075 -1.5442  0.8199
 1506SOL     OW15976   3.962   0.360   2.207 -0.0676  0.4435  0.0840
 1506SOL    HW115977   3.949   0.440   2.156 -0.8936 -1.0567 -2.0506
 1506SOL    HW215978   4.047   0.327   2.177  0.1317 -1.2368  2.4923
 1507SOL     OW15979   4.355   2.645  11.325 -0.3443 -0.2044 -0.0602
 1507SOL    HW115980   4.335   2.614  11.414  1.8729  0.3989  0.6520
 1507SOL    HW215981   4.278   2.692  11.294 -1.4949 -0.9379  1.7164
 1508SOL     OW15982   0.955   1.378  15.966  0.2886 -0.4218  0.1062
 1508SOL    HW115983   1.018   1.440  16.004 -0.7773  0.6292  0.1631
 1508SOL    HW215984   0.987   1.297  16.005  0.1265  0.8515  2.9004
 1509SOL     OW15985   3.611   0.564   8.088  0.7783  0.3921 -0.3405
 1509SOL    HW115986   3.662   0.491   8.122  1.0337  0.4576 -0.5820
 1509SOL    HW215987   3.628   0.624   8.160  4.1170 -3.8641  2.3935
 1510SOL     OW15988   0.618   1.692   7.087 -0.0422  0.3984 -0.1211
 1510SOL    HW115989   0.651   1.726   7.003  3.3004  0.5039  1.2287
 1510SOL    HW215990   0.622   1.777   7.130 -0.3306  0.1669  0.3555
 1511SOL     OW15991   0.703   3.873  13.762  0.0293 -0.1095  0.6232
 1511SOL    HW115992   0.721   3.787  13.800 -1.6915  0.6056  3.0218
 1511SOL    HW215993   0.788   3.888  13.721  0.2017 -1.7400  0.4012
 1512SOL     OW15994   0.111   2.212   0.053  0.1059 -0.0030 -0.3453
 1512SOL    HW115995   0.031   2.213   0.105 -0.6704 -1.4183 -1.5316
 1512SOL    HW215996   0.101   2.278  17.678  2.1320  0.4479 -0.2273
 1513SOL     OW15997   0.668   4.021   3.402  0.5991  0.3072  0.6704
 1513SOL    HW115998   0.606   4.058   3.465  1.0803  0.1065  1.2632
 1513SOL    HW215999   0.712   4.103   3.381 -2.0438  1.3132 -0.8379
 1514SOL     OW16000   1.642   2.509   2.268 -0.1911 -0.0373  0.1230
 1514SOL    HW116001   1.625   2.436   2.209  2.4684 -1.4059  1.0354
 1514SOL    HW216002   1.686   2.569   2.208 -1.5030  0.1563 -0.6493
 1515SOL     OW16003   1.451   0.852  13.722  0.4682  0.1875 -0.8282
 1515SOL    HW116004   1.472   0.801  13.644  0.0346 -2.4310  0.7593
 1515SOL    HW216005   1.538   0.891  13.725  1.2172 -1.6157  0.8961
 1516SOL     OW16006   4.517   0.103   4.244 -0.6641  0.2207 -0.5766
 1516SOL    HW116007   4.538   0.041   4.314 -0.7665  0.3657 -0.4161
 1516SOL    HW216008   4.443   0.146   4.286 -0.1768  0.5168 -0.0186
 1517SOL     OW16009   3.131   3.009  17.114 -0.5480 -0.5265 -0.7776
 1517SOL    HW116010   3.148   3.030  17.206  0.7788 -0.2535 -1.0842
 1517SOL    HW216011   3.092   2.923  17.134 -0.2692 -0.8353 -1.5696
 1518SOL     OW16012   0.922   4.573   2.749 -0.3379  0.0082 -0.1345
 1518SOL    HW116013   0.875   4.518   2.812  1.3137 -0.9634  0.2731
 1518SOL    HW216014   0.878   4.556   2.666  1.5872 -1.6362 -0.8373
 1519SOL     OW16015   0.502   1.201  13.819 -0.6046  0.7669 -0.5736
 1519SOL    HW116016   0.592   1.167  13.823 -0.9241  0.1452  1.2746
 1519SOL    HW216017   0.453   1.129  13.780  0.6009  1.0678 -2.6485
 1520SOL     OW16018   1.514   2.790   1.345 -0.8874  0.2185 -0.7446
 1520SOL    HW116019   1.453   2.812   1.274 -0.9928  0.0433 -0.7098
 1520SOL    HW216020   1.452   2.803   1.416  0.2398 -0.9424  0.4417
 1521SOL     OW16021   0.091   1.305   7.533  0.1787  0.4630 -0.4582
 1521SOL    HW116022   0.183   1.280   7.522  0.5896  1.3340  1.0621
 1521SOL    HW216023   0.077   1.338   7.444  0.2692  2.1138  0.1367
 1522SOL     OW16024   2.802   3.954   4.110 -0.0541  0.1169 -0.1795
 1522SOL    HW116025   2.817   4.038   4.067  1.4486 -0.1730 -0.2339
 1522SOL    HW216026   2.827   3.897   4.037 -1.7358  2.7739 -2.8617
 1523SOL     OW16027   4.692   1.936   7.142 -1.2116 -0.0632  0.1820
 1523SOL    HW116028   4.633   1.895   7.205 -1.6362  0.0425 -0.1375
 1523SOL    HW216029   0.029   1.864   7.127 -0.7532  0.6771 -1.5728
 1524SOL     OW16030   1.619   4.211  13.899  0.5377 -0.4878  0.1663
 1524SOL    HW116031   1.576   4.171  13.975  1.7345  0.1304  1.1741
 1524SOL    HW216032   1.551   4.181  13.840  0.1740 -4.1423  2.4335
 1525SOL     OW16033   4.622   2.386   5.710  0.1511 -0.5678  0.2965
 1525SOL    HW116034   4.629   2.425   5.623  0.3138  1.1064  1.0581
 1525SOL    HW216035   4.713   2.372   5.738  0.8907  0.0924 -1.7523
 1526SOL     OW16036   1.249   0.563   3.771  0.3312 -0.4121  0.5021
 1526SOL    HW116037   1.167   0.612   3.760  0.7519  0.2452  0.3085
 1526SOL    HW216038   1.272   0.539   3.681  0.0686  0.9682  0.0664
 1527SOL     OW16039   3.102   2.468   3.070  0.0766 -0.2958  0.2150
 1527SOL    HW116040   3.189   2.506   3.081  0.2973 -1.2038  1.7077
 1527SOL    HW216041   3.103   2.373   3.082  3.5625 -0.4109 -1.1586
 1528SOL     OW16042   1.399   0.992   4.610  0.4134 -0.0714 -0.1140
 1528SOL    HW116043   1.365   1.056   4.548  0.0517  1.3513  1.5577
 1528SOL    HW216044   1.326   0.980   4.670  1.4164  2.2812  1.5428
 1529SOL     OW16045   1.197   0.076   8.299  0.4456  0.8013  0.0771
 1529SOL    HW116046   1.165   0.076   8.389  0.2207 -1.4206  0.0211
 1529SOL    HW216047   1.151   0.152   8.264  1.6015  1.5497  0.2141
 1530SOL     OW16048   4.015   2.792  17.386  0.7545 -0.2466  0.3185
 1530SOL    HW116049   4.047   2.848  17.457  1.6559 -0.2723 -0.0735
 1530SOL    HW216050   3.943   2.740  17.421  1.9504 -1.0653  1.5860
 1531SOL     OW16051   2.711   1.235  10.940 -0.2659 -0.2844 -0.7554
 1531SOL    HW116052   2.718   1.179  10.862  0.8107 -0.5808 -0.4378
 1531SOL    HW216053   2.797   1.274  10.927 -0.3775  0.1546 -0.1701
 1532SOL     OW16054   0.231   1.943  13.885  0.1830 -0.0888  0.0893
 1532SOL    HW116055   0.245   2.022  13.938  1.8169  0.7981 -1.6730
 1532SOL    HW216056   0.216   1.986  13.801  0.9102 -0.1058 -0.0484
 1533SOL     OW16057   3.193   1.329   2.595 -0.6784 -0.4542  0.7098
 1533SOL    HW116058   3.237   1.351   2.677 -0.5183 -0.5594  0.6519
 1533SOL    HW216059   3.110   1.373   2.609  1.1846  2.6889  1.7792
 1534SOL     OW16060   3.639   0.072  13.085  0.4609  0.1736 -0.3061
 1534SOL    HW116061   3.728   0.106  13.099  1.5470 -2.8071  0.0188
 1534SOL    HW216062   3.641   4.705  13.118  1.3801  1.0508  2.0321
 1535SOL     OW16063   2.167   1.905  11.991 -0.2631  0.5614 -0.3948
 1535SOL    HW116064   2.199   1.824  12.030  1.6507  0.5278 -2.0497
 1535SOL    HW216065   2.180   1.965  12.064 -1.6319 -0.8404  1.0089
 1536SOL     OW16066   1.446   2.774  13.839 -0.4933 -0.3598  0.2585
 1536SOL    HW116067   1.506   2.835  13.882  1.1334 -1.3202 -0.6764
 1536SOL    HW216068   1.477   2.774  13.749 -1.6288  0.0599 -0.1367
 1537SOL     OW16069   1.414   1.690  11.238 -0.2018 -0.6143  0.0040
 1537SOL    HW116070   1.418   1.616  11.298 -0.1440  0.5202  1.3860
 1537SOL    HW216071   1.482   1.747  11.275  0.7934 -1.2813 -0.7749
 1538SOL     OW16072   0.142   4.420   5.374 -0.3688  0.1817  0.5910
 1538SOL    HW116073   0.223   4.470   5.368  0.0909 -0.6871 -0.4741
 1538SOL    HW216074   0.079   4.482   5.335  0.2177  0.2679 -0.2172
 1539SOL     OW16075   3.064   2.282   7.043  0.5352 -0.2814  0.0302
 1539SOL    HW116076   3.151   2.245   7.030 -0.0157 -1.2910 -0.7268
 1539SOL    HW216077   3.027   2.290   6.956  2.6850  1.0875 -0.7630
 1540SOL     OW16078   1.869   2.890   5.753 -0.1520  0.0711 -0.2543
 1540SOL    HW116079   1.881   2.795   5.750 -1.0083 -0.0373 -0.3275
 1540SOL    HW216080   1.881   2.898   5.848  1.3006 -2.5671 -0.2143
 1541SOL     OW16081   3.433   2.452  10.320  0.0322  0.3914  0.3616
 1541SOL    HW116082   3.451   2.391  10.249  0.7698  0.6018  0.3725
 1541SOL    HW216083   3.348   2.413  10.339  0.4389 -0.6564  0.0333
 1542SOL     OW16084   1.333   2.635   6.862  0.2683  0.1907  0.1099
 1542SOL    HW116085   1.271   2.667   6.928 -1.0588 -0.2751 -0.9037
 1542SOL    HW216086   1.274   2.575   6.816 -0.3404  1.0855 -0.2798
 1543SOL     OW16087   4.657   0.430  13.672  0.6830 -0.1880 -0.3416
 1543SOL    HW116088   0.029   0.432  13.663  0.7898 -2.6249  0.1121
 1543SOL    HW216089   4.641   0.355  13.730  0.8313  0.1060  0.0733
 1544SOL     OW16090   1.525   3.391   7.283 -0.1684  0.2505 -0.2407
 1544SOL    HW116091   1.508   3.447   7.360  0.6979 -0.6229  0.5826
 1544SOL    HW216092   1.530   3.305   7.324 -1.4900 -0.3923 -1.4383
 1545SOL     OW16093   2.161   3.435   5.279  0.9495  0.3065  0.1878
 1545SOL    HW116094   2.185   3.418   5.188 -0.5010  1.3667 -0.3895
 1545SOL    HW216095   2.211   3.515   5.294  0.2655  0.3627  2.2796
 1546SOL     OW16096   3.662   2.243  15.913  0.0630 -0.5095 -0.0685
 1546SOL    HW116097   3.667   2.334  15.885  0.4255 -1.8483 -4.3394
 1546SOL    HW216098   3.752   2.214  15.899 -0.7723 -4.0493  1.7082
 1547SOL     OW16099   0.317   2.002   5.677  0.4260  0.3012 -0.5854
 1547SOL    HW116100   0.269   1.942   5.621 -0.0603  0.4721 -0.3544
 1547SOL    HW216101   0.372   2.053   5.617  0.6831  0.2174 -0.4188
 1548SOL     OW16102   4.519   3.887   9.860  0.1943  0.2612  0.4657
 1548SOL    HW116103   4.487   3.966   9.816  2.2692  1.8363  1.7961
 1548SOL    HW216104   4.599   3.861   9.814  0.8301  1.2947  0.9938
 1549SOL     OW16105   0.497   2.401   1.531 -0.2431  0.4460  0.0219
 1549SOL    HW116106   0.511   2.450   1.613  0.4012 -2.2888  1.5304
 1549SOL    HW216107   0.522   2.473   1.472 -0.8781 -0.4043 -1.2794
 1550SOL     OW16108   3.788   3.768   1.147 -0.0168 -0.3569 -0.2793
 1550SOL    HW116109   3.842   3.797   1.220 -0.1322 -0.6649 -0.0675
 1550SOL    HW216110   3.820   3.816   1.071 -1.5126 -0.6678 -1.1137
 1551SOL     OW16111   2.482   4.196  17.126 -0.4271 -0.5647  0.2615
 1551SOL    HW116112   2.462   4.285  17.157 -0.2325 -0.6058  0.5081
 1551SOL    HW216113   2.464   4.197  17.032 -2.6959  0.0403  0.6963
 1552SOL     OW16114   2.005   3.031  15.198 -0.4872  0.0674 -0.7097
 1552SOL    HW116115   1.981   2.972  15.270 -2.4496  1.4309 -0.2462
 1552SOL    HW216116   2.098   3.036  15.220 -1.1368  0.6817  1.8960
 1553SOL     OW16117   0.062   0.526   2.364  0.0474  0.1885 -0.0738
 1553SOL    HW116118   0.048   0.621   2.361 -1.5142  0.0018  1.2277
 1553SOL    HW216119   4.709   0.490   2.318  0.7096 -0.3698 -0.7184
 1554SOL     OW16120   3.892   4.596   4.749  0.0128  0.3730 -0.3467
 1554SOL    HW116121   3.908   4.664   4.683  0.3629  1.9578  1.3690
 1554SOL    HW216122   3.900   4.520   4.691 -1.6588 -0.8696  1.0485
 1555SOL     OW16123   2.218   2.693   8.168  0.8727 -0.2559 -0.1631
 1555SOL    HW116124   2.291   2.721   8.113 -0.0399  1.2858 -0.6008
 1555SOL    HW216125   2.259   2.692   8.255  0.9090  0.8465 -0.1625
 1556SOL     OW16126   2.058   4.657   8.270  0.0304 -0.3964  0.3694
 1556SOL    HW116127   2.081   0.020   8.306  1.0256 -0.9890  1.1300
 1556SOL    HW216128   1.984   4.682   8.214 -1.1185 -2.3893  0.9971
 1557SOL     OW16129   4.506   2.847   3.969  0.2279 -0.3386  0.0128
 1557SOL    HW116130   4.501   2.870   3.876  0.4669  0.8334  0.2984
 1557SOL    HW216131   4.416   2.861   3.998 -1.0286 -0.4333 -3.9142
 1558SOL     OW16132   1.872   0.092   7.996 -0.0467 -0.2518 -0.1276
 1558SOL    HW116133   1.804   0.030   8.022 -0.4763  0.7310  1.0975
 1558SOL    HW216134   1.896   0.136   8.078  0.0270 -0.4019 -0.0668
 1559SOL     OW16135   4.172   2.282   3.664  0.0314  0.3249  0.2857
 1559SOL    HW116136   4.262   2.257   3.682 -0.7897 -2.4877  0.4804
 1559SOL    HW216137   4.125   2.199   3.653  0.8981 -0.2410  0.8596
 1560SOL     OW16138   1.989   2.084   1.676 -0.8521  0.3151 -0.5919
 1560SOL    HW116139   1.983   2.036   1.593  0.0279  0.9017 -0.9937
 1560SOL    HW216140   1.922   2.042   1.729 -0.3589 -0.6802 -0.7423
 1561SOL     OW16141   0.096   1.866   5.735 -0.3026 -0.0623  0.1788
 1561SOL    HW116142   0.111   1.959   5.755  1.6491  0.2620 -2.7287
 1561SOL    HW216143   0.031   1.874   5.665 -0.4566  2.0166  0.5526
 1562SOL     OW16144   4.455   2.282   3.682 -0.5997  0.6274 -0.2385
 1562SOL    HW116145   4.477   2.375   3.688 -0.5032  0.6240 -0.5259
 1562SOL    HW216146   4.502   2.263   3.601  0.0581  0.3322  0.2133
 1563SOL     OW16147   3.356   2.360   3.297 -0.1322 -0.2465 -0.2620
 1563SOL    HW116148   3.318   2.286   3.345  1.1759 -1.5297 -1.2249
 1563SOL    HW216149   3.321   2.440   3.337 -0.3526 -1.1911  1.4374
 1564SOL     OW16150   2.208   4.284   0.463 -0.4501 -0.1591  0.5033
 1564SOL    HW116151   2.296   4.245   0.458  1.4589  3.6103  4.7153
 1564SOL    HW216152   2.193   4.271   0.556  1.5015  3.4431  1.3021
 1565SOL     OW16153   1.429   0.431  13.410  0.2082  0.4406  0.0507
 1565SOL    HW116154   1.353   0.452  13.355 -0.2475 -4.2435 -1.0843
 1565SOL    HW216155   1.415   0.338  13.426 -0.7789  0.5309 -0.2511
 1566SOL     OW16156   1.785   1.335   3.692 -0.1698  0.7315  0.1510
 1566SOL    HW116157   1.834   1.391   3.633  0.4111 -0.3232 -0.3811
 1566SOL    HW216158   1.801   1.375   3.778 -0.6405 -0.9932  1.0455
 1567SOL     OW16159   1.925   4.333   9.205  0.1297 -0.7338  0.5005
 1567SOL    HW116160   1.981   4.268   9.163  0.1322  0.3676 -1.2070
 1567SOL    HW216161   1.962   4.338   9.293 -0.2528  0.4395  0.6007
 1568SOL     OW16162   0.533   1.450   7.114  0.0024 -0.2636 -0.1689
 1568SOL    HW116163   0.453   1.459   7.166  0.0999  1.2636 -0.2914
 1568SOL    HW216164   0.558   1.542   7.104  0.4842 -0.4099 -0.2906
 1569SOL     OW16165   3.829   1.538   8.004  0.1970 -0.3962  0.2948
 1569SOL    HW116166   3.918   1.520   8.036  0.0840 -0.3096  0.6593
 1569SOL    HW216167   3.802   1.611   8.061 -0.9493  0.4698 -1.3797
 1570SOL     OW16168   1.220   1.514   7.829  0.1241 -0.2316 -0.6595
 1570SOL    HW116169   1.154   1.546   7.767 -0.0902  0.9025  0.1703
 1570SOL    HW216170   1.182   1.536   7.914  0.0352 -0.8572 -0.5380
 1571SOL     OW16171   3.652   2.849   7.484  0.2085 -0.5841 -0.3683
 1571SOL    HW116172   3.602   2.926   7.459 -1.8922 -1.6355  0.6239
 1571SOL    HW216173   3.734   2.877   7.526 -0.7910  1.6939  0.0223
 1572SOL     OW16174   3.030   4.538   5.069 -0.5342  0.4020  0.1891
 1572SOL    HW116175   2.988   4.470   5.120  0.4826 -2.1340 -2.3237
 1572SOL    HW216176   3.063   4.595   5.138  0.1348 -0.4469  0.5668
 1573SOL     OW16177   1.379   3.684  12.410 -0.4247 -0.0493  0.4119
 1573SOL    HW116178   1.474   3.679  12.409 -0.5170 -1.4706 -1.2567
 1573SOL    HW216179   1.371   3.775  12.382 -1.0235 -0.2664 -0.1461
 1574SOL     OW16180   4.452   0.250  11.423 -0.4370  0.3577  0.0028
 1574SOL    HW116181   4.482   0.205  11.502  0.1686  2.5021  1.0060
 1574SOL    HW216182   4.421   0.185  11.360 -1.6286  1.1306 -0.2177
 1575SOL     OW16183   3.516   1.531   6.233  0.0489 -0.2192 -0.1843
 1575SOL    HW116184   3.439   1.587   6.246  0.3404  0.1698 -0.1289
 1575SOL    HW216185   3.570   1.577   6.297 -0.5505  1.3560 -0.8287
 1576SOL     OW16186   3.683   0.609  15.025  0.2547 -0.4485 -0.0062
 1576SOL    HW116187   3.650   0.694  14.998 -1.4158 -0.8027  0.9174
 1576SOL    HW216188   3.756   0.595  14.964 -0.8566 -1.6685 -1.0742
 1577SOL     OW16189   1.142   1.396   6.450  0.6777 -0.7325 -0.0656
 1577SOL    HW116190   1.062   1.343   6.454  0.6794 -0.6347  1.5677
 1577SOL    HW216191   1.200   1.327   6.481  3.5450  1.0155 -1.5932
 1578SOL     OW16192   1.580   0.490  17.135  0.0889 -0.2464 -0.2963
 1578SOL    HW116193   1.640   0.562  17.153  1.7104 -1.6143 -0.2346
 1578SOL    HW216194   1.510   0.538  17.090  1.3511  0.2991 -1.6450
 1579SOL     OW16195   1.580   3.511   7.552  0.0747  0.2847 -0.1172
 1579SOL    HW116196   1.674   3.520   7.541  0.2589 -1.4020  0.0417
 1579SOL    HW216197   1.580   3.482   7.643  0.8865 -1.3250 -0.6331
 1580SOL     OW16198   3.885   2.017   6.538  0.4667  0.2074 -0.5285
 1580SOL    HW116199   3.900   2.081   6.468  1.6610  0.6984  0.1663
 1580SOL    HW216200   3.944   2.062   6.598  0.1912 -0.6504  0.3820
 1581SOL     OW16201   3.257   1.425   0.983  0.6385 -0.6846  0.1701
 1581SOL    HW116202   3.176   1.462   1.018  0.9972 -0.0237  0.3135
 1581SOL    HW216203   3.295   1.389   1.063  0.7258 -1.6076 -0.2924
 1582SOL     OW16204   1.107   0.135  11.606  0.5887  0.3091  0.9046
 1582SOL    HW116205   1.166   0.066  11.635  1.2080  0.7359  0.6677
 1582SOL    HW216206   1.157   0.167  11.531  1.5114 -1.1006  0.9372
 1583SOL     OW16207   0.288   0.194   1.646 -0.2196 -0.3563  0.1361
 1583SOL    HW116208   0.218   0.226   1.704 -0.9403 -0.8216 -0.4851
 1583SOL    HW216209   0.286   0.261   1.578  2.0440  1.0851  1.4782
 1584SOL     OW16210   0.380   1.328  15.966  0.0347 -0.2613  0.4512
 1584SOL    HW116211   0.471   1.343  15.939 -0.6756  1.0261 -1.2364
 1584SOL    HW216212   0.336   1.312  15.882  0.4167 -1.3420  0.4583
 1585SOL     OW16213   3.793   1.107   8.949 -0.1875  0.0605  0.2180
 1585SOL    HW116214   3.807   1.182   8.892  1.4022  0.0519  0.6006
 1585SOL    HW216215   3.700   1.127   8.962 -0.1282 -1.0351  2.2718
 1586SOL     OW16216   3.808   0.694   9.916 -0.0823  0.2307 -0.1198
 1586SOL    HW116217   3.787   0.610   9.958  0.1178  0.3814  0.2894
 1586SOL    HW216218   3.880   0.726   9.971 -0.9444  2.2661 -0.1967
 1587SOL     OW16219   4.668   1.059   4.508  0.3670 -0.0935  0.6377
 1587SOL    HW116220   4.627   1.003   4.573 -1.4797  2.2271  1.4930
 1587SOL    HW216221   0.024   1.008   4.493  0.7557  1.0239 -1.2629
 1588SOL     OW16222   3.627   3.245   2.204 -0.7906 -0.1543 -0.6547
 1588SOL    HW116223   3.538   3.276   2.188 -0.9259  0.5058  1.4464
 1588SOL    HW216224   3.660   3.230   2.115 -0.7789  1.5597 -0.9541
 1589SOL     OW16225   3.446   1.084   7.196 -0.5291 -0.0473  0.5441
 1589SOL    HW116226   3.376   1.042   7.247  0.3394 -0.5629  1.3056
 1589SOL    HW216227   3.487   1.129   7.270  1.6281  0.8308 -1.2121
 1590SOL     OW16228   4.711   2.728   7.252  0.1961  0.1495  0.1152
 1590SOL    HW116229   4.664   2.706   7.172  0.9310  2.7524 -1.0218
 1590SOL    HW216230   4.711   2.644   7.298 -0.3872 -1.0210 -1.9956
 1591SOL     OW16231   1.867   2.244   1.045  0.2436  0.0875 -0.3439
 1591SOL    HW116232   1.824   2.169   1.004  1.4756 -1.2086  0.7357
 1591SOL    HW216233   1.930   2.254   0.973  1.0622  1.3511  0.5415
 1592SOL     OW16234   0.226   2.660   0.708 -0.3901 -0.4202  0.7393
 1592SOL    HW116235   0.204   2.578   0.664  2.3113 -0.2744 -0.9061
 1592SOL    HW216236   0.280   2.702   0.641 -3.1965 -1.3088 -2.0717
 1593SOL     OW16237   2.815   4.194   6.717  0.1710 -0.2739 -0.7458
 1593SOL    HW116238   2.851   4.143   6.790  1.6221  0.4111 -0.9692
 1593SOL    HW216239   2.801   4.281   6.753  2.6981 -0.6965  1.2948
 1594SOL     OW16240   0.441   3.081   1.991 -0.0301 -0.5831 -0.1167
 1594SOL    HW116241   0.371   3.098   1.929  0.3232 -2.3700 -1.0078
 1594SOL    HW216242   0.508   3.133   1.946 -1.2260 -1.5146 -2.9032
 1595SOL     OW16243   0.246   2.100   7.802 -0.9074  0.1992 -0.3781
 1595SOL    HW116244   0.219   2.070   7.715  1.6800  1.5820 -1.6668
 1595SOL    HW216245   0.167   2.082   7.853 -1.1371  0.1599 -0.7480
 1596SOL     OW16246   1.303   2.002   0.822 -0.3681  0.1609  0.3058
 1596SOL    HW116247   1.266   2.007   0.910 -0.0249 -1.7325  0.5633
 1596SOL    HW216248   1.347   2.085   0.807 -0.9620 -0.1110 -2.9888
 1597SOL     OW16249   2.239   1.545   3.990 -0.0329  0.9697  0.1748
 1597SOL    HW116250   2.271   1.536   3.900  2.1259 -0.2919  1.0710
 1597SOL    HW216251   2.176   1.474   4.000 -2.7568  3.2430 -0.8741
 1598SOL     OW16252   4.679   3.394   1.708  0.1076 -0.0537  0.6234
 1598SOL    HW116253   0.047   3.403   1.679  0.1025 -2.9419 -0.2503
 1598SOL    HW216254   4.643   3.362   1.626 -1.0830  1.0430  0.7141
 1599SOL     OW16255   2.747   2.631   7.115 -0.2278 -0.2862 -0.4279
 1599SOL    HW116256   2.732   2.675   7.198 -1.2721 -2.0448  0.3324
 1599SOL    HW216257   2.739   2.707   7.058 -2.5116 -1.2402 -1.3978
 1600SOL     OW16258   3.858   4.274  15.438  0.1240 -0.0731 -0.1141
 1600SOL    HW116259   3.869   4.341  15.505  0.5311  1.1662 -1.4248
 1600SOL    HW216260   3.868   4.324  15.357  0.5517  0.9708  0.5943
 1601SOL     OW16261   2.049   3.194   6.337  0.4159  0.1186  0.3811
 1601SOL    HW116262   2.121   3.211   6.398 -0.6377 -1.1119  1.9862
 1601SOL    HW216263   2.010   3.281   6.343 -2.0991 -1.1651  2.8623
 1602SOL     OW16264   4.100   2.805   3.559 -0.2457  0.2725  0.3718
 1602SOL    HW116265   4.140   2.766   3.482  2.1203  2.6359  0.3960
 1602SOL    HW216266   4.054   2.731   3.598  0.3194  0.2450  0.9880
 1603SOL     OW16267   0.253   1.427  11.350  0.8379 -0.3189 -0.0708
 1603SOL    HW116268   0.330   1.482  11.341  0.0922  1.2942  3.3441
 1603SOL    HW216269   0.267   1.372  11.427  0.1518 -1.7800 -1.0099
 1604SOL     OW16270   1.482   3.352   4.991 -0.0120  0.3491 -0.0084
 1604SOL    HW116271   1.428   3.300   4.933  0.6634 -1.0109  0.5770
 1604SOL    HW216272   1.415   3.408   5.031  0.3958  2.3480 -2.1785
 1605SOL     OW16273   0.762   3.996   1.025  0.6601  0.0016 -1.1559
 1605SOL    HW116274   0.846   3.978   0.982  1.2764  0.8416 -0.3145
 1605SOL    HW216275   0.721   3.917   1.058 -3.2730  1.3880 -2.7506
 1606SOL     OW16276   1.035   3.501   4.439  0.1699  0.3622  0.0823
 1606SOL    HW116277   1.121   3.543   4.441 -0.1316  0.9220  1.4793
 1606SOL    HW216278   1.050   3.438   4.368 -1.2733 -0.5618  0.6022
 1607SOL     OW16279   0.842   2.001  14.408 -0.6219  0.1408  0.2279
 1607SOL    HW116280   0.796   1.926  14.369  1.1231 -1.2835  0.9588
 1607SOL    HW216281   0.774   2.031  14.469  0.4763  1.5951  0.7521
 1608SOL     OW16282   3.843   3.947   4.599 -0.1286 -0.0447  0.5681
 1608SOL    HW116283   3.837   3.870   4.655  0.7290  0.1252  0.8954
 1608SOL    HW216284   3.900   4.002   4.653 -1.8186  1.1890  1.0924
 1609SOL     OW16285   1.961   3.246   2.185 -0.5477  0.0587 -0.5423
 1609SOL    HW116286   1.885   3.218   2.134 -0.2849 -0.5176 -0.6137
 1609SOL    HW216287   1.926   3.247   2.274 -1.9852  0.6955 -1.1116
 1610SOL     OW16288   3.983   2.890  14.434  0.3633 -0.1155  0.3638
 1610SOL    HW116289   3.892   2.890  14.405  0.2288 -0.1063  0.7808
 1610SOL    HW216290   3.971   2.841  14.516 -1.1385  2.6870  1.8121
 1611SOL     OW16291   3.992   4.161   1.129 -0.7294 -0.2736 -0.6963
 1611SOL    HW116292   4.067   4.157   1.188 -0.2962 -1.2008 -1.3034
 1611SOL    HW216293   3.933   4.223   1.171  0.5387  1.0257 -0.8433
 1612SOL     OW16294   3.460   3.430   6.172 -0.3092 -0.4458  1.1102
 1612SOL    HW116295   3.545   3.413   6.213 -0.3263 -1.8427  0.5880
 1612SOL    HW216296   3.403   3.378   6.228 -3.8065  2.3177  0.0546
 1613SOL     OW16297   4.383   0.158   9.520 -0.3167  0.2642  0.1185
 1613SOL    HW116298   4.408   0.232   9.464 -2.6130  0.1221 -1.1017
 1613SOL    HW216299   4.299   0.141   9.477  0.6677 -0.5502 -1.4648
 1614SOL     OW16300   4.623   1.374   4.149 -0.2907  0.5476  0.2489
 1614SOL    HW116301   4.665   1.353   4.065  1.5079 -0.1640  1.3303
 1614SOL    HW216302   4.691   1.349   4.212  0.5141 -1.2780 -1.3349
 1615SOL     OW16303   1.151   2.863   7.907  0.5578 -0.0506 -0.4918
 1615SOL    HW116304   1.110   2.944   7.877 -2.4290 -0.6807  1.9224
 1615SOL    HW216305   1.114   2.795   7.851 -0.0336 -0.1498  0.0168
 1616SOL     OW16306   1.946   0.949   4.748  0.5730 -0.4314 -0.2611
 1616SOL    HW116307   2.040   0.932   4.755  0.0966 -1.7438  3.2515
 1616SOL    HW216308   1.917   0.859   4.731 -0.7085 -0.3782  1.5905
 1617SOL     OW16309   2.179   3.298   6.566  0.8872 -0.5649  0.4374
 1617SOL    HW116310   2.274   3.300   6.554  0.4238  0.6111 -3.1159
 1617SOL    HW216311   2.149   3.387   6.546  0.2280 -1.2338 -1.5756
 1618SOL     OW16312   0.554   3.743   6.109  0.2363  0.0358  0.3422
 1618SOL    HW116313   0.616   3.745   6.181 -0.5118 -1.4397  1.0285
 1618SOL    HW216314   0.489   3.710   6.170 -0.0410 -0.8929 -0.4487
 1619SOL     OW16315   0.203   0.898  16.580  0.4027  0.4204  0.3154
 1619SOL    HW116316   0.284   0.915  16.532 -1.1568 -0.4180 -2.6307
 1619SOL    HW216317   0.129   0.915  16.522  0.3202 -1.5440 -0.1606
 1620SOL     OW16318   0.012   1.886   4.332 -0.1572 -0.4118 -0.0583
 1620SOL    HW116319   0.017   1.981   4.321 -1.4546 -0.5777 -2.1767
 1620SOL    HW216320   0.104   1.867   4.346 -0.6873 -0.5687  3.2343
 1621SOL     OW16321   1.948   4.708  14.317 -0.0489  0.4528 -0.5038
 1621SOL    HW116322   2.000   0.025  14.386 -1.8083 -0.6735  1.4825
 1621SOL    HW216323   1.875   4.672  14.367  0.1206  2.2193  1.0131
 1622SOL     OW16324   3.173   2.968   6.623 -0.4700  0.2478 -0.2579
 1622SOL    HW116325   3.134   2.880   6.620  0.1507 -0.1044  1.9480
 1622SOL    HW216326   3.168   2.984   6.718  0.0246  0.8775 -0.3429
 1623SOL     OW16327   2.818   4.571  16.696  1.1342 -0.3424 -0.6123
 1623SOL    HW116328   2.774   4.622  16.765  0.3522 -0.1462 -1.2569
 1623SOL    HW216329   2.903   4.554  16.736 -0.8609  1.6067  4.4761
 1624SOL     OW16330   0.889   3.907  13.225 -0.2794 -0.2578  0.7611
 1624SOL    HW116331   0.887   3.994  13.185  0.8534 -1.3009 -1.5369
 1624SOL    HW216332   0.916   3.858  13.148  2.9748  0.7262  1.2653
 1625SOL     OW16333   3.069   4.569  15.352  0.3328 -0.3076  0.2731
 1625SOL    HW116334   3.156   4.592  15.387  1.4301 -0.9320 -2.0449
 1625SOL    HW216335   3.075   4.477  15.328  0.4713  0.2835 -1.9357
 1626SOL     OW16336   1.307   1.964  14.028  0.1381  0.5538  0.2141
 1626SOL    HW116337   1.305   1.909  13.950 -1.1689  1.3583 -0.3141
 1626SOL    HW216338   1.215   1.948  14.049 -0.0005 -0.2195 -0.9638
 1627SOL     OW16339   1.795   3.846   8.790  0.2879  0.2240 -0.1507
 1627SOL    HW116340   1.783   3.783   8.861  1.3507  1.6539  1.3389
 1627SOL    HW216341   1.799   3.794   8.710  2.5523 -2.0801  1.4379
 1628SOL     OW16342   1.522   1.418   8.077 -0.1972 -0.0577 -0.6643
 1628SOL    HW116343   1.526   1.325   8.099  0.2766  0.2498  0.5737
 1628SOL    HW216344   1.448   1.448   8.130 -0.6553  0.3396 -1.5287
 1629SOL     OW16345   0.035   2.680   3.685 -0.1440  0.4397  0.0063
 1629SOL    HW116346   4.716   2.764   3.664 -0.2662  0.5144  0.5467
 1629SOL    HW216347   4.680   2.637   3.719  0.0007  0.2905  0.1506
 1630SOL     OW16348   3.955   3.607   5.238 -0.6274 -0.9119  0.2276
 1630SOL    HW116349   3.947   3.519   5.274 -0.6089 -1.6002 -1.4321
 1630SOL    HW216350   3.874   3.649   5.269 -1.4419 -0.9684 -1.7827
 1631SOL     OW16351   3.609   4.589   1.264  0.5818 -0.2394 -0.3151
 1631SOL    HW116352   3.650   4.523   1.319  0.3377 -1.8298 -2.0210
 1631SOL    HW216353   3.521   4.554   1.251  0.1728  0.4730  0.5324
 1632SOL     OW16354   0.128   1.921   5.020  0.0208  0.3096 -0.3425
 1632SOL    HW116355   0.033   1.933   5.016  0.0777  0.7240 -0.5003
 1632SOL    HW216356   0.151   1.916   5.112 -0.2810 -1.0912 -0.3418
 1633SOL     OW16357   1.064   2.634   5.165 -0.2042 -0.1466  0.0160
 1633SOL    HW116358   1.108   2.555   5.197 -0.8196 -0.6331 -0.3472
 1633SOL    HW216359   1.085   2.694   5.237 -0.7340 -0.5193  0.4714
 1634SOL     OW16360   3.230   0.985   7.327  0.2111  0.0163 -0.2123
 1634SOL    HW116361   3.258   0.919   7.390 -3.2360  1.4369  2.8003
 1634SOL    HW216362   3.156   0.934   7.292  1.2810 -1.6391 -0.0655
 1635SOL     OW16363   2.703   4.458  15.881 -0.4712  0.3886 -0.2596
 1635SOL    HW116364   2.692   4.511  15.960 -2.7241 -0.8780  0.2893
 1635SOL    HW216365   2.625   4.474  15.828 -0.4664 -2.4021 -1.1250
 1636SOL     OW16366   3.635   4.299   5.925 -0.0378  0.0200  0.0407
 1636SOL    HW116367   3.659   4.372   5.868 -0.5710  0.2172  0.0646
 1636SOL    HW216368   3.688   4.322   6.002 -0.8574 -0.1238  0.6534
 1637SOL     OW16369   3.098   4.222   2.541 -0.2140  0.4843 -0.1460
 1637SOL    HW116370   3.145   4.229   2.458  0.7284 -1.5958  0.2233
 1637SOL    HW216371   3.055   4.307   2.536 -1.2530  0.0124  0.9384
 1638SOL     OW16372   1.538   2.272   6.421 -0.8583 -0.3996 -0.5182
 1638SOL    HW116373   1.529   2.245   6.513  0.7154 -1.7606 -0.7380
 1638SOL    HW216374   1.491   2.354   6.434 -0.5235 -0.3412  0.3641
 1639SOL     OW16375   0.164   2.750   1.917  0.2802 -0.7990  0.2274
 1639SOL    HW116376   0.080   2.751   1.871  1.4813  1.8529 -1.8768
 1639SOL    HW216377   0.147   2.749   2.012 -0.8433 -0.4400  0.0375
 1640SOL     OW16378   4.408   2.504   7.529 -0.5425 -0.5867 -0.0686
 1640SOL    HW116379   4.368   2.418   7.540 -0.5610 -0.6608 -0.7203
 1640SOL    HW216380   4.500   2.478   7.528 -0.6563 -0.9552 -1.6266
 1641SOL     OW16381   4.467   3.577   7.568 -0.1859 -0.4787  0.5332
 1641SOL    HW116382   4.521   3.656   7.571 -2.2112  0.9814 -1.6621
 1641SOL    HW216383   4.383   3.622   7.565  1.6194  2.8237 -0.0590
 1642SOL     OW16384   1.338   0.141   9.381  0.0613 -0.1245  0.0069
 1642SOL    HW116385   1.355   0.056   9.421 -0.1375 -1.1827 -2.1681
 1642SOL    HW216386   1.305   0.200   9.449  2.3473 -0.1685  1.1522
 1643SOL     OW16387   4.150   2.760  11.187  0.0273  0.1320  0.7419
 1643SOL    HW116388   4.165   2.722  11.100 -1.7165 -0.5383  0.7391
 1643SOL    HW216389   4.102   2.835  11.152  2.5879  0.9369 -1.0572
 1644SOL     OW16390   1.109   0.092   6.382 -0.4445 -0.2024  0.2061
 1644SOL    HW116391   1.121   0.094   6.477  0.0754  0.3325  0.1337
 1644SOL    HW216392   1.031   0.147   6.376  0.4607  1.1331  0.8837
 1645SOL     OW16393   0.382   4.587  11.470 -0.0631  0.7083 -0.2671
 1645SOL    HW116394   0.298   4.631  11.481 -0.3233 -0.1840  1.2760
 1645SOL    HW216395   0.431   4.634  11.537 -1.6125  0.4374  1.0394
 1646SOL     OW16396   1.224   1.737   1.983 -0.3499  0.0806 -0.4016
 1646SOL    HW116397   1.282   1.776   1.917 -0.2204  1.2398  0.4073
 1646SOL    HW216398   1.216   1.806   2.048 -0.2020 -0.7976  0.5534
 1647SOL     OW16399   3.383   0.947   7.612 -0.1827 -0.0268  0.7067
 1647SOL    HW116400   3.435   0.933   7.692  0.9933  2.2106  0.3266
 1647SOL    HW216401   3.354   1.037   7.624  1.2906  0.5810 -0.3135
 1648SOL     OW16402   2.739   0.602   1.033 -0.1830 -0.1365 -0.0854
 1648SOL    HW116403   2.801   0.603   0.960  0.8087 -3.0224  0.7158
 1648SOL    HW216404   2.771   0.527   1.083 -0.0541  1.1614  1.7607
 1649SOL     OW16405   4.026   1.163  13.991  0.4846 -0.1831 -0.3528
 1649SOL    HW116406   4.084   1.238  13.975 -0.6066  0.7928  0.2722
 1649SOL    HW216407   4.085   1.090  13.972  2.5598  1.9254 -2.0999
 1650SOL     OW16408   2.125   4.695   9.706  0.2322 -0.0228  0.1737
 1650SOL    HW116409   2.046   0.025   9.715 -0.4367 -0.5726 -2.6938
 1650SOL    HW216410   2.087   4.607   9.711 -3.1146  1.3010 -2.0347
 1651SOL     OW16411   1.641   4.513   4.314  0.3286  0.0196  0.2729
 1651SOL    HW116412   1.670   4.501   4.404 -1.0299  0.0478  0.7218
 1651SOL    HW216413   1.657   4.607   4.299 -1.9374  0.5892  1.4644
 1652SOL     OW16414   1.598   1.526  15.230 -0.2403  0.0689 -0.2706
 1652SOL    HW116415   1.687   1.548  15.203  0.3623  0.2982  1.8967
 1652SOL    HW216416   1.600   1.435  15.201 -0.6367  0.8476 -2.7652
 1653SOL     OW16417   1.275   0.561   3.486  0.1532  0.1384 -0.1845
 1653SOL    HW116418   1.300   0.631   3.426 -0.2862 -0.5965 -1.2291
 1653SOL    HW216419   1.279   0.485   3.427  1.8239  0.6339 -0.7055
 1654SOL     OW16420   3.924   0.350  14.634  0.4266 -0.3588  0.0717
 1654SOL    HW116421   3.920   0.355  14.539 -1.7128  0.1431  0.1896
 1654SOL    HW216422   4.014   0.350  14.666 -0.1523 -2.7331  1.6754
 1655SOL     OW16423   3.606   0.913   5.351  0.1750 -0.0828 -0.3292
 1655SOL    HW116424   3.567   0.895   5.265 -1.4909  0.6341  0.2784
 1655SOL    HW216425   3.547   0.866   5.410  0.9120 -0.3547  0.1837
 1656SOL     OW16426   0.623   3.435  12.399 -0.0010 -0.5663 -0.2833
 1656SOL    HW116427   0.675   3.362  12.432 -0.6167 -0.9174 -0.0872
 1656SOL    HW216428   0.638   3.430  12.305 -1.5326  0.5441 -0.5816
 1657SOL     OW16429   0.380   4.225   4.061 -0.5303 -0.5909  0.2187
 1657SOL    HW116430   0.321   4.290   4.100 -0.2085  1.8867 -3.4698
 1657SOL    HW216431   0.346   4.224   3.972 -0.5401  1.3610  0.1914
 1658SOL     OW16432   0.795   3.457   4.802  0.0763  0.5469 -0.1669
 1658SOL    HW116433   0.813   3.398   4.875 -1.7630 -0.9848 -0.9717
 1658SOL    HW216434   0.712   3.493   4.833 -0.2541 -0.3209 -0.0547
 1659SOL     OW16435   4.067   4.664   5.683  0.3333 -0.0097  0.2045
 1659SOL    HW116436   4.124   0.017   5.690 -0.4913  0.7396 -1.3756
 1659SOL    HW216437   4.066   4.638   5.776 -0.4484  2.7617  0.9706
 1660SOL     OW16438   3.128   4.016   0.539 -0.4628 -0.4740 -0.3582
 1660SOL    HW116439   3.187   4.039   0.611  0.6010  0.8368 -1.6689
 1660SOL    HW216440   3.122   4.101   0.497  1.4570  0.4010  1.1303
 1661SOL     OW16441   0.805   2.226   5.217  0.6813  0.0136 -0.1655
 1661SOL    HW116442   0.877   2.169   5.247 -0.2138 -0.6330  0.7826
 1661SOL    HW216443   0.811   2.297   5.282 -1.4296  0.6103 -0.6375
 1662SOL     OW16444   2.101   1.735   8.905 -0.0085 -0.4866  0.1979
 1662SOL    HW116445   2.006   1.727   8.894 -0.1732  1.3251  0.2899
 1662SOL    HW216446   2.117   1.814   8.853  0.9062 -0.6313  0.2681
 1663SOL     OW16447   1.382   0.186  14.966  0.1610  0.2719  0.0796
 1663SOL    HW116448   1.379   0.202  15.060 -2.3401  0.9331 -0.1140
 1663SOL    HW216449   1.416   0.272  14.940 -0.8649  1.0058  1.1808
 1664SOL     OW16450   0.484   3.465   8.176 -0.3273 -0.0390 -0.1439
 1664SOL    HW116451   0.407   3.456   8.232  0.6645 -0.7489  1.0877
 1664SOL    HW216452   0.496   3.560   8.164 -1.5104  0.0458 -0.6281
 1665SOL     OW16453   3.130   4.053   1.869 -0.6078 -0.6327 -0.1754
 1665SOL    HW116454   3.089   4.043   1.955 -2.5736  1.9953 -0.8039
 1665SOL    HW216455   3.084   3.990   1.814  3.5056 -3.0665 -0.8359
 1666SOL     OW16456   2.708   2.481   0.313 -0.1799 -0.0144  0.3199
 1666SOL    HW116457   2.792   2.437   0.299 -1.4308 -1.6478 -2.0436
 1666SOL    HW216458   2.690   2.429   0.392 -0.4532  1.3298  1.1309
 1667SOL     OW16459   1.181   4.138   4.599  0.3512 -0.0333 -0.5957
 1667SOL    HW116460   1.176   4.044   4.618  2.2948 -0.3298 -1.5681
 1667SOL    HW216461   1.089   4.163   4.590  0.6954  1.4721  0.1403
 1668SOL     OW16462   4.365   1.191   0.435  0.4306 -0.1443  0.5320
 1668SOL    HW116463   4.392   1.236   0.355  2.3448 -2.7038 -0.2855
 1668SOL    HW216464   4.375   1.098   0.414 -3.6370 -0.3162 -0.5113
 1669SOL     OW16465   1.647   3.648  12.408  0.1366  0.2850 -0.1082
 1669SOL    HW116466   1.624   3.562  12.372  0.1336  0.5989 -0.8552
 1669SOL    HW216467   1.714   3.688  12.353  1.7678 -2.0977  0.1191
 1670SOL     OW16468   3.438   3.222   7.516  0.0891 -0.1770 -0.8022
 1670SOL    HW116469   3.346   3.245   7.505  0.4078  1.4863 -0.1246
 1670SOL    HW216470   3.482   3.301   7.483  1.3027  0.4445  2.3244
 1671SOL     OW16471   0.124   2.454   1.016  0.0938 -0.6130  0.2669
 1671SOL    HW116472   0.108   2.527   1.074  1.0231  0.5140 -0.8913
 1671SOL    HW216473   0.036   2.417   1.008  0.2014 -0.6987 -0.5449
 1672SOL     OW16474   0.213   2.157   4.865  0.4113  0.0988 -0.3795
 1672SOL    HW116475   0.178   2.070   4.845  1.1612 -0.5260  1.0092
 1672SOL    HW216476   0.146   2.216   4.831 -0.8189 -0.5556  0.9522
 1673SOL     OW16477   2.852   4.327   5.212 -0.0347 -0.5547  0.2165
 1673SOL    HW116478   2.875   4.252   5.267  0.8298  0.6134  1.4294
 1673SOL    HW216479   2.766   4.360   5.236  0.8736  1.1612  1.0978
 1674SOL     OW16480   2.100   0.371   5.444 -0.6687 -0.1400 -0.1843
 1674SOL    HW116481   2.024   0.350   5.390  0.8681 -1.2490 -1.8865
 1674SOL    HW216482   2.101   0.467   5.435  0.0649 -0.2519 -1.2687
 1675SOL     OW16483   2.613   4.183   3.879  0.6922  0.5654 -0.4087
 1675SOL    HW116484   2.553   4.257   3.888  0.7655  0.8304 -2.0756
 1675SOL    HW216485   2.695   4.231   3.879  2.5490 -2.6033  1.7689
 1676SOL     OW16486   0.390   0.231   7.601 -0.7145 -0.5151 -0.1427
 1676SOL    HW116487   0.347   0.146   7.607 -1.4577 -0.0996  0.4530
 1676SOL    HW216488   0.440   0.232   7.682 -1.1227 -1.4527  0.1151
 1677SOL     OW16489   0.771   4.434   5.480  0.3883  0.0646 -0.2301
 1677SOL    HW116490   0.856   4.457   5.518  0.9742 -1.1139 -0.8438
 1677SOL    HW216491   0.808   4.354   5.444 -0.2112  0.6348 -2.1057
 1678SOL     OW16492   2.466   0.003   9.229 -0.2651  0.7518  0.2847
 1678SOL    HW116493   2.505   4.720   9.142  2.3287 -0.0612  1.5007
 1678SOL    HW216494   2.464   0.099   9.225  2.9137  0.7711 -0.5939
 1679SOL     OW16495   0.602   3.283   1.060 -0.2577 -0.2404 -0.2997
 1679SOL    HW116496   0.599   3.239   0.975  0.0839  0.4027 -0.6441
 1679SOL    HW216497   0.594   3.211   1.123 -1.5470  0.0649 -0.1001
 1680SOL     OW16498   1.667   1.706   2.914  0.5248  0.1795  0.3442
 1680SOL    HW116499   1.724   1.746   2.848  2.1205 -1.0802  0.9603
 1680SOL    HW216500   1.723   1.694   2.991  0.8182  0.3423  0.1569
 1681SOL     OW16501   1.020   0.581   4.004  0.3068  0.1994 -0.1576
 1681SOL    HW116502   0.982   0.666   3.981 -0.1258 -0.3198 -1.3650
 1681SOL    HW216503   1.080   0.596   4.076 -0.5482 -0.1134  0.6176
 1682SOL     OW16504   3.881   1.549   6.619 -0.4934 -0.0713 -0.4774
 1682SOL    HW116505   3.887   1.535   6.714  3.6090  0.4972 -0.6581
 1682SOL    HW216506   3.946   1.619   6.613 -0.0257 -0.3101  1.6816
 1683SOL     OW16507   3.202   1.540   5.716 -0.4570 -0.1916 -0.0536
 1683SOL    HW116508   3.205   1.635   5.704  2.7037 -0.3039 -0.3286
 1683SOL    HW216509   3.289   1.524   5.755  1.0396 -1.2039 -3.8118
 1684SOL     OW16510   0.450   2.594   2.857  0.2161 -0.3189 -0.3511
 1684SOL    HW116511   0.530   2.643   2.841 -0.8315  1.7988  0.8609
 1684SOL    HW216512   0.428   2.578   2.765 -0.7711 -0.9584 -0.0056
 1685SOL     OW16513   0.882   0.020   6.079 -0.1706 -0.0996 -0.6586
 1685SOL    HW116514   0.864   4.649   6.088  2.1634 -0.4722 -0.0117
 1685SOL    HW216515   0.971   0.023   6.045  0.7579 -1.8494  1.6474
 1686SOL     OW16516   2.643   2.773   4.889 -0.3094  0.3161 -0.0610
 1686SOL    HW116517   2.645   2.812   4.976 -0.4852  0.7396 -0.2512
 1686SOL    HW216518   2.681   2.848   4.844  0.0500 -0.0848 -0.4251
 1687SOL     OW16519   2.343   3.696   4.096  0.3870 -0.0419 -0.4096
 1687SOL    HW116520   2.361   3.706   4.190 -2.5146 -1.9319  0.3476
 1687SOL    HW216521   2.251   3.721   4.105  0.4748  0.4252 -0.7771
 1688SOL     OW16522   1.753   0.810   3.111  0.0812 -0.5091 -0.0658
 1688SOL    HW116523   1.749   0.733   3.054  1.5950  0.6286 -1.7514
 1688SOL    HW216524   1.738   0.774   3.198  0.5400 -1.5058 -0.4030
 1689SOL     OW16525   4.214   3.103   1.960  0.0700 -0.9395 -0.3180
 1689SOL    HW116526   4.150   3.125   1.892  0.6301 -1.5449 -1.0404
 1689SOL    HW216527   4.268   3.181   1.951  0.4261 -0.9615  1.5838
 1690SOL     OW16528   2.062   3.755   8.438  0.1662 -0.5864 -0.2000
 1690SOL    HW116529   2.053   3.849   8.418  1.4681 -0.6992 -1.3516
 1690SOL    HW216530   2.117   3.715   8.370  1.6014 -1.9160  1.7658
 1691SOL     OW16531   0.268   0.383  11.299 -0.4410 -0.1359  0.2813
 1691SOL    HW116532   0.220   0.390  11.382 -1.3462  1.5873 -0.3920
 1691SOL    HW216533   0.258   0.292  11.272 -2.4125 -0.3937  1.8882
 1692SOL     OW16534   0.292   4.510   6.552 -0.6369  0.2483 -0.6920
 1692SOL    HW116535   0.287   4.601   6.583  0.6736  1.0572 -2.8468
 1692SOL    HW216536   0.292   4.525   6.457 -0.2300 -1.2668 -0.9277
 1693SOL     OW16537   3.105   4.052   6.484 -0.1357  0.4127 -0.2480
 1693SOL    HW116538   3.144   4.017   6.404  0.1859 -0.6801  0.4036
 1693SOL    HW216539   3.146   3.991   6.544  3.2937  2.2584 -0.7094
 1694SOL     OW16540   3.652   3.882  10.388  0.4538 -0.1263  0.4957
 1694SOL    HW116541   3.712   3.919  10.323  0.1566  0.8651  0.7829
 1694SOL    HW216542   3.572   3.884  10.336 -0.0161 -2.3554  1.1484
 1695SOL     OW16543   3.915   0.855   5.295  0.0030  0.4816  0.0057
 1695SOL    HW116544   4.005   0.831   5.317 -0.6859 -1.2132  0.9844
 1695SOL    HW216545   3.866   0.846   5.377  2.3117  0.2023  1.3268
 1696SOL     OW16546   2.605   3.188   2.550  0.4803 -0.0754 -0.1465
 1696SOL    HW116547   2.618   3.196   2.455  0.6722 -0.5889 -0.1630
 1696SOL    HW216548   2.652   3.266   2.580  1.1643 -0.6609  0.3046
 1697SOL     OW16549   1.899   1.586  14.673  0.4221 -0.0494  0.2815
 1697SOL    HW116550   1.953   1.577  14.595  0.9864  2.2464  0.3972
 1697SOL    HW216551   1.940   1.516  14.724  0.3518 -0.1160  0.2447
 1698SOL     OW16552   0.246   2.568   4.922  0.3432  0.7869  0.5283
 1698SOL    HW116553   0.312   2.506   4.893 -0.2832  0.4034 -0.0705
 1698SOL    HW216554   0.315   2.621   4.962  0.3742  1.3054 -0.2215
 1699SOL     OW16555   1.191   1.009  11.120  0.4502  0.4090  0.2921
 1699SOL    HW116556   1.266   1.062  11.094  0.0806  1.1978  0.8300
 1699SOL    HW216557   1.137   1.039  11.046 -0.5545  0.3989  1.0199
 1700SOL     OW16558   0.459   2.443   8.791  0.2065  0.3490  0.4941
 1700SOL    HW116559   0.554   2.456   8.795  0.5461 -1.7715 -1.4566
 1700SOL    HW216560   0.450   2.387   8.715 -1.3639  1.5859 -0.2407
 1701SOL     OW16561   3.992   2.836   4.093 -0.0727 -0.0287 -0.0467
 1701SOL    HW116562   3.990   2.839   4.189 -0.6036 -1.0240 -0.0312
 1701SOL    HW216563   3.968   2.925   4.065 -2.0364 -0.6176 -0.2255
 1702SOL     OW16564   0.885   3.644   7.656  0.5833  0.2197  0.1528
 1702SOL    HW116565   0.951   3.580   7.684 -0.5881 -0.8039  0.6362
 1702SOL    HW216566   0.897   3.708   7.726  1.8561 -0.3475  0.4611
 1703SOL     OW16567   4.330   0.519  15.078 -0.6992 -0.6130 -0.6240
 1703SOL    HW116568   4.357   0.507  14.987 -1.7082  0.6742 -1.0935
 1703SOL    HW216569   4.332   0.428  15.109  0.3994 -0.3046  0.1936
 1704SOL     OW16570   4.630   2.881   6.963  0.5971 -0.1676  0.1493
 1704SOL    HW116571   4.542   2.845   6.978 -0.0914  0.4356 -2.5021
 1704SOL    HW216572   4.663   2.801   6.922  0.6759  1.3224 -2.7216
 1705SOL     OW16573   1.661   4.577   5.566 -0.0123 -0.1496  0.0298
 1705SOL    HW116574   1.644   4.484   5.579 -2.0862  0.2710  0.3056
 1705SOL    HW216575   1.574   4.611   5.544 -0.1910 -0.5927  0.0581
 1706SOL     OW16576   4.014   1.863   5.630  0.2568  0.6760  0.7839
 1706SOL    HW116577   3.925   1.889   5.652 -0.2425 -3.7345  3.9764
 1706SOL    HW216578   4.054   1.945   5.601  1.0729  0.1347  0.3481
 1707SOL     OW16579   2.082   3.922   1.660 -0.3931 -0.1581  0.4332
 1707SOL    HW116580   2.166   3.879   1.644  0.8265  1.2178  3.0900
 1707SOL    HW216581   2.024   3.853   1.690  0.3571 -0.2260  1.7058
 1708SOL     OW16582   4.338   1.585  14.114  0.5190 -0.5389 -0.7454
 1708SOL    HW116583   4.322   1.680  14.117 -0.5598 -0.6819 -1.7718
 1708SOL    HW216584   4.431   1.575  14.135  0.4922 -0.7795 -0.7426
 1709SOL     OW16585   2.216   3.312   6.081 -0.1208  0.0059 -0.3694
 1709SOL    HW116586   2.182   3.257   6.152 -0.4113 -2.3606 -2.3399
 1709SOL    HW216587   2.145   3.301   6.018  0.8685 -2.0451 -1.1327
 1710SOL     OW16588   2.348   4.583   5.093 -0.1543  0.6225  0.4852
 1710SOL    HW116589   2.425   4.559   5.143 -0.0819  0.5347  0.3328
 1710SOL    HW216590   2.303   4.624   5.167 -1.1173 -1.4397  1.0577
 1711SOL     OW16591   3.179   1.257  10.460 -0.7348 -0.0375  0.5139
 1711SOL    HW116592   3.193   1.219  10.374  0.0296 -0.0885  0.6644
 1711SOL    HW216593   3.262   1.298  10.483 -0.4466 -1.6573  2.3131
 1712SOL     OW16594   0.244   1.237   1.705  0.0775  0.2860  0.6169
 1712SOL    HW116595   0.329   1.260   1.668 -0.5366 -1.9411 -2.1680
 1712SOL    HW216596   0.223   1.326   1.736 -0.0529  0.0694  1.1476
 1713SOL     OW16597   3.893   2.713   6.009 -0.1754 -0.0261 -0.7145
 1713SOL    HW116598   3.908   2.652   5.937 -1.1254 -2.3798  1.0863
 1713SOL    HW216599   3.797   2.713   6.010 -0.1645 -0.6172 -0.0936
 1714SOL     OW16600   2.296   2.765   3.077 -0.4823 -0.1155  0.3215
 1714SOL    HW116601   2.204   2.779   3.097  0.0655 -0.4677  3.0516
 1714SOL    HW216602   2.322   2.743   3.167  2.4554  2.9120  0.2206
 1715SOL     OW16603   0.489   4.226   5.226  0.0407  0.2872 -0.0282
 1715SOL    HW116604   0.479   4.155   5.163  2.7968 -0.0886 -0.0362
 1715SOL    HW216605   0.572   4.213   5.271  0.0818 -4.0201 -1.3174
 1716SOL     OW16606   0.979   0.542  14.892  0.3175 -0.4524  0.0085
 1716SOL    HW116607   1.010   0.467  14.943 -0.0850 -0.9807 -0.5148
 1716SOL    HW216608   1.039   0.609  14.924 -0.2906 -0.3038  0.8426
 1717SOL     OW16609   1.296   1.832   7.643  0.1827  0.3498  0.2449
 1717SOL    HW116610   1.294   1.795   7.732 -1.6255 -2.8265 -1.0884
 1717SOL    HW216611   1.301   1.749   7.596 -0.5283  0.8987 -0.7924
 1718SOL     OW16612   1.165   0.519   5.023 -0.0830 -0.2746 -0.6462
 1718SOL    HW116613   1.152   0.494   5.114  0.3143 -0.5277 -0.6593
 1718SOL    HW216614   1.081   0.503   4.979 -1.1525  0.1669  1.2380
 1719SOL     OW16615   1.978   2.952   6.013  0.6779  0.1590  0.2795
 1719SOL    HW116616   2.073   2.949   6.013  0.7177  1.3360  0.7679
 1719SOL    HW216617   1.966   2.923   6.104 -1.8751  1.7036  0.4380
 1720SOL     OW16618   4.142   0.871   3.656 -0.1480  0.2907  0.7650
 1720SOL    HW116619   4.198   0.873   3.734  0.5715 -1.4341  0.2818
 1720SOL    HW216620   4.129   0.778   3.637 -1.0359  0.6846 -0.5649
 1721SOL     OW16621   2.063   4.209   4.803 -0.7801 -0.1131 -0.3630
 1721SOL    HW116622   1.979   4.220   4.848  1.1177 -0.0632  3.1103
 1721SOL    HW216623   2.119   4.236   4.875 -2.7521  2.5096  0.2130
 1722SOL     OW16624   1.670   2.005   1.581 -0.3545  0.3059 -0.1828
 1722SOL    HW116625   1.652   1.977   1.491 -1.4468  3.2822 -0.8813
 1722SOL    HW216626   1.749   1.957   1.607 -0.0779  1.3097  0.7971
 1723SOL     OW16627   2.461   4.388   3.119  0.1311 -0.3046 -0.6392
 1723SOL    HW116628   2.481   4.294   3.125  2.0985  0.1073 -0.6281
 1723SOL    HW216629   2.381   4.383   3.172 -0.5095 -0.0346 -1.5918
 1724SOL     OW16630   3.078   2.177   6.614 -0.1537  0.6465  0.2610
 1724SOL    HW116631   3.021   2.148   6.542 -0.8269 -0.8400  1.3819
 1724SOL    HW216632   3.069   2.098   6.668  1.2801  0.1497 -0.2201
 1725SOL     OW16633   1.280   2.750   5.005 -0.0344  0.2100  0.1570
 1725SOL    HW116634   1.197   2.775   5.044  1.1869  3.2991  0.7766
 1725SOL    HW216635   1.310   2.673   5.054 -1.2395  0.5506  1.4179
 1726SOL     OW16636   3.238   0.215   6.112 -0.2022  0.1297 -0.1073
 1726SOL    HW116637   3.155   0.179   6.145  1.3052 -1.6524  1.7198
 1726SOL    HW216638   3.271   0.146   6.054  1.1906  1.2229 -0.5927
 1727SOL     OW16639   4.067   1.927  14.698 -0.4686  0.2021  0.3893
 1727SOL    HW116640   4.087   2.020  14.703  0.5025 -0.0216  0.5284
 1727SOL    HW216641   4.110   1.908  14.615 -2.6305 -0.2210 -0.6470
 1728SOL     OW16642   2.099   4.563  17.661  0.2275 -0.3738 -0.1289
 1728SOL    HW116643   2.178   4.530   0.008  1.0718 -0.4645 -1.8339
 1728SOL    HW216644   2.039   4.578   0.040  0.7045 -0.6880  0.3190
 1729SOL     OW16645   1.619   3.570  12.653 -0.4678  0.5832 -0.1558
 1729SOL    HW116646   1.701   3.522  12.660 -0.8289 -0.0499 -0.2214
 1729SOL    HW216647   1.641   3.605  12.567 -2.0472  0.7701 -0.4865
 1730SOL     OW16648   0.257   1.177   1.309  0.0566 -0.0019 -0.0164
 1730SOL    HW116649   0.179   1.201   1.359 -0.6061 -1.8476 -0.2004
 1730SOL    HW216650   0.258   1.089   1.344 -0.6842  0.0859  0.2204
 1731SOL     OW16651   2.354   1.229   6.905  0.1179  0.0012 -0.4008
 1731SOL    HW116652   2.442   1.197   6.887 -0.2052  1.4469 -4.4780
 1731SOL    HW216653   2.300   1.151   6.919 -0.3998  0.5433  0.5879
 1732SOL     OW16654   3.329   2.261   8.676 -0.2430  0.0767  0.2759
 1732SOL    HW116655   3.420   2.256   8.646 -0.7730  0.4613 -1.3810
 1732SOL    HW216656   3.327   2.225   8.765 -2.4008 -1.0393 -0.2234
 1733SOL     OW16657   2.429   2.349   7.547  0.1766  0.9345 -0.0106
 1733SOL    HW116658   2.441   2.383   7.636 -2.3684 -2.4331  1.5824
 1733SOL    HW216659   2.363   2.281   7.559  1.9123 -0.6778  0.3950
 1734SOL     OW16660   2.762   1.157   5.857 -0.2841  0.0444 -0.2219
 1734SOL    HW116661   2.828   1.226   5.853 -0.3377  0.0657 -0.7589
 1734SOL    HW216662   2.818   1.080   5.847  1.2765  0.6700  4.0915
 1735SOL     OW16663   3.389   3.044  17.363  0.4352  0.3858 -0.3155
 1735SOL    HW116664   3.325   2.975  17.343  1.2494  0.0525 -1.7995
 1735SOL    HW216665   3.354   3.080  17.444 -0.1457  0.1481 -0.4630
 1736SOL     OW16666   2.162   0.933  10.695  0.0132  0.2333 -0.1216
 1736SOL    HW116667   2.176   0.897  10.607  0.9126 -1.0809  0.5526
 1736SOL    HW216668   2.117   0.857  10.733 -1.7674  1.1200 -0.4767
 1737SOL     OW16669   3.932   0.446   4.544  0.1368 -0.6735  0.3165
 1737SOL    HW116670   3.940   0.398   4.627  0.0397 -0.4069  0.4802
 1737SOL    HW216671   3.883   0.522   4.574 -2.6917 -2.8548  1.2538
 1738SOL     OW16672   1.711   2.393  17.409  0.2029 -0.3433 -0.1062
 1738SOL    HW116673   1.717   2.301  17.386  0.5977  0.1030 -1.7776
 1738SOL    HW216674   1.803   2.405  17.432  1.0392 -0.1015 -3.6386
 1739SOL     OW16675   4.641   4.545   0.598 -0.0720  0.0235  0.1047
 1739SOL    HW116676   4.548   4.533   0.579  0.8608 -1.8351 -3.2842
 1739SOL    HW216677   4.666   4.601   0.525  1.4518  1.0635  1.4052
 1740SOL     OW16678   4.055   0.090   3.985 -0.3074 -0.8922  0.2782
 1740SOL    HW116679   4.113   0.037   3.930  2.0049  3.0341 -1.0384
 1740SOL    HW216680   3.987   0.110   3.921 -0.7249 -0.3818  0.8857
 1741SOL     OW16681   2.362   3.609   0.982 -0.3128 -0.5088  0.0204
 1741SOL    HW116682   2.284   3.556   0.966  0.3549 -2.3709  2.9187
 1741SOL    HW216683   2.425   3.541   1.005 -1.2696 -0.9657  1.3012
 1742SOL     OW16684   0.574   3.125   0.831  0.6531 -0.2467 -0.4087
 1742SOL    HW116685   0.650   3.089   0.784 -0.5439 -1.3694 -1.4498
 1742SOL    HW216686   0.512   3.119   0.759  0.1729  1.6258 -0.1612
 1743SOL     OW16687   1.692   2.760   4.386 -0.4575  0.1720  0.2729
 1743SOL    HW116688   1.610   2.793   4.421 -0.4612 -0.8825  1.2826
 1743SOL    HW216689   1.667   2.670   4.365  1.4725 -0.5466  1.0151
 1744SOL     OW16690   0.903   0.365  16.308  0.9670  0.5057  0.1674
 1744SOL    HW116691   0.899   0.346  16.402  0.4192 -1.0228 -0.1625
 1744SOL    HW216692   0.855   0.297  16.261  1.1565 -0.4098  1.2855
 1745SOL     OW16693   3.091   1.686   1.898  0.0576  0.9028  0.5887
 1745SOL    HW116694   3.169   1.674   1.952  0.9725  0.3358 -0.8696
 1745SOL    HW216695   3.022   1.634   1.938 -0.4641  1.0487 -0.1256
 1746SOL     OW16696   2.985   0.941   8.189  0.6821  0.0951 -0.9062
 1746SOL    HW116697   2.918   1.006   8.167 -0.8539 -1.9199 -2.2817
 1746SOL    HW216698   2.925   0.875   8.153 -0.2723  1.2000 -1.3413
 1747SOL     OW16699   0.368   1.785   9.112 -0.3877 -0.6047 -0.4164
 1747SOL    HW116700   0.436   1.744   9.164  1.7932  0.6007 -2.2833
 1747SOL    HW216701   0.331   1.844   9.178 -0.9878  0.0802 -1.3536
 1748SOL     OW16702   0.752   0.621   1.173  0.3630 -0.3331  0.5502
 1748SOL    HW116703   0.685   0.680   1.140  0.6456  0.1592  0.8565
 1748SOL    HW216704   0.689   0.563   1.216  0.2593  0.4818  1.4845
 1749SOL     OW16705   1.548   3.621   4.872 -0.3735  0.0723 -0.1905
 1749SOL    HW116706   1.497   3.582   4.800 -3.0062  1.7547  0.7546
 1749SOL    HW216707   1.576   3.549   4.928  0.2839 -0.5629 -1.3359
 1750SOL     OW16708   0.103   2.890   6.689  0.6682  0.1973 -0.3953
 1750SOL    HW116709   0.065   2.825   6.629  1.6872 -0.0864 -0.7348
 1750SOL    HW216710   0.032   2.953   6.698 -1.1543 -1.8130 -0.6500
 1751SOL     OW16711   3.014   2.542   7.980 -0.1168  1.0778 -0.3802
 1751SOL    HW116712   2.951   2.526   8.051 -0.4549 -0.8563 -1.1001
 1751SOL    HW216713   3.007   2.463   7.926 -1.6155  0.8620  0.1186
 1752SOL     OW16714   2.460   1.344  10.841 -0.1574 -0.7041 -0.3380
 1752SOL    HW116715   2.510   1.426  10.840  0.2998 -1.0072 -1.3678
 1752SOL    HW216716   2.520   1.284  10.885  0.9878 -0.8712 -2.1511
 1753SOL     OW16717   0.005   4.588   0.908 -0.0168  0.5121  0.1254
 1753SOL    HW116718   0.091   4.630   0.913 -0.0398  0.8789 -2.8839
 1753SOL    HW216719   4.714   4.584   0.814 -1.0800 -0.7353  0.3401
 1754SOL     OW16720   0.892   2.433   3.291  0.4604  0.4478  0.2157
 1754SOL    HW116721   0.881   2.490   3.215  1.6893 -2.1830 -1.9208
 1754SOL    HW216722   0.837   2.479   3.355 -0.1771 -2.5959  1.8631
 1755SOL     OW16723   2.260   3.472   1.510 -0.1795 -0.0923 -0.5185
 1755SOL    HW116724   2.235   3.439   1.423  0.6260 -0.2999 -0.6658
 1755SOL    HW216725   2.317   3.544   1.482  1.0973 -0.7289  0.4683
 1756SOL     OW16726   0.359   3.700   2.383 -0.1527 -0.6080 -0.4991
 1756SOL    HW116727   0.274   3.665   2.357 -1.2590  2.0472 -0.4644
 1756SOL    HW216728   0.388   3.698   2.292  1.1155  1.3633 -0.1271
 1757SOL     OW16729   4.491   3.552  14.877 -0.0781 -0.1624 -0.2010
 1757SOL    HW116730   4.550   3.616  14.917 -0.7531  0.2494  0.1372
 1757SOL    HW216731   4.437   3.526  14.952  0.2690 -2.6736 -0.7951
 1758SOL     OW16732   0.123   3.705   6.035 -0.9123  0.4394  0.4679
 1758SOL    HW116733   0.187   3.677   6.100  1.3933 -1.8478 -2.7848
 1758SOL    HW216734   0.176   3.771   5.992 -1.4342  0.3830 -0.2533
 1759SOL     OW16735   4.215   1.054   4.699  0.0093 -0.2973  0.1560
 1759SOL    HW116736   4.258   1.001   4.633  0.3598  2.1135 -1.5655
 1759SOL    HW216737   4.181   1.125   4.644 -1.2698 -0.5020  0.6723
 1760SOL     OW16738   0.115   2.656  10.134 -0.1974 -0.6318 -0.3964
 1760SOL    HW116739   0.182   2.669  10.067 -1.3187  1.4079 -1.1220
 1760SOL    HW216740   0.047   2.607  10.088  0.4121 -1.6157 -0.2552
 1761SOL     OW16741   4.598   1.937  12.373 -0.1453  0.5173  0.5502
 1761SOL    HW116742   4.619   1.935  12.466 -1.9850 -0.3547  0.9565
 1761SOL    HW216743   4.641   2.015  12.336 -0.9552  1.1668  0.9686
 1762SOL     OW16744   3.106   4.184   8.114  0.7504 -0.3222 -0.2266
 1762SOL    HW116745   3.120   4.251   8.181  0.3360 -0.4776  0.0160
 1762SOL    HW216746   3.107   4.100   8.159 -0.5041 -1.2874 -1.9692
 1763SOL     OW16747   2.353   1.827   5.181  0.2830 -0.0426 -0.5115
 1763SOL    HW116748   2.412   1.859   5.113  1.3792  0.8502  0.8524
 1763SOL    HW216749   2.314   1.906   5.218 -1.7498 -0.9976 -0.5912
 1764SOL     OW16750   2.920   1.528  12.455 -0.0105  0.3034 -0.2225
 1764SOL    HW116751   2.943   1.445  12.496 -2.2491  0.7832  2.0272
 1764SOL    HW216752   2.829   1.538  12.485 -0.3888 -2.7437 -0.3864
 1765SOL     OW16753   4.382   4.002   3.175 -0.1875  0.2487 -0.4833
 1765SOL    HW116754   4.468   3.963   3.159 -0.0602  0.1476  0.4499
 1765SOL    HW216755   4.378   4.071   3.108  0.7515  1.5501  0.8036
 1766SOL     OW16756   3.455   2.873   6.511  0.0812 -0.0168  0.5010
 1766SOL    HW116757   3.481   2.827   6.592  2.9173  0.4575 -0.1399
 1766SOL    HW216758   3.366   2.902   6.527  0.2170  1.3397 -1.2632
 1767SOL     OW16759   4.051   0.134   3.417  0.3791  0.0637  0.2309
 1767SOL    HW116760   4.138   0.145   3.455  0.3462  0.9649  0.0316
 1767SOL    HW216761   4.025   0.045   3.440  0.3332  0.6170  2.3010
 1768SOL     OW16762   4.521   4.172   9.085  0.5630 -0.4134  0.1389
 1768SOL    HW116763   4.452   4.145   9.146 -0.7592  0.4715 -0.9708
 1768SOL    HW216764   4.466   4.220   9.024  0.1168 -1.1198 -0.0221
 1769SOL     OW16765   1.624   0.183  16.103 -0.4490  0.0286 -0.8028
 1769SOL    HW116766   1.646   0.131  16.180  0.5112 -0.4963 -1.4375
 1769SOL    HW216767   1.646   0.124  16.031 -1.7722  0.0155 -1.2041
 1770SOL     OW16768   4.346   0.244  15.122 -0.9682  0.5222  0.5376
 1770SOL    HW116769   4.330   0.223  15.214 -0.1409 -1.0316  0.3136
 1770SOL    HW216770   4.411   0.184  15.086 -1.8739 -0.8080  1.1451
 1771SOL     OW16771   1.858   1.985   3.634  0.2352  0.4630 -0.6055
 1771SOL    HW116772   1.928   1.920   3.631 -0.4843 -0.3859  1.2968
 1771SOL    HW216773   1.835   1.990   3.541 -0.0999  1.4926 -0.4686
 1772SOL     OW16774   2.875   0.230  16.193 -0.0750  0.4057  0.1823
 1772SOL    HW116775   2.911   0.147  16.163 -0.2686  0.2295  0.4340
 1772SOL    HW216776   2.947   0.263  16.247  0.1236 -0.0362  0.1863
 1773SOL     OW16777   1.864   1.699   0.903 -0.0222 -0.2687 -0.6363
 1773SOL    HW116778   1.835   1.638   0.835 -1.5854  0.9178 -1.0579
 1773SOL    HW216779   1.777   1.739   0.913  0.2312 -0.1212  0.9687
 1774SOL     OW16780   2.452   2.980   2.477 -0.2209 -0.3475 -0.2630
 1774SOL    HW116781   2.503   2.899   2.483  0.8233  0.4224  1.1017
 1774SOL    HW216782   2.510   3.047   2.512  0.1723 -1.0977  0.5151
 1775SOL     OW16783   2.421   2.914   7.772  0.1385 -0.4764  0.0681
 1775SOL    HW116784   2.407   3.009   7.779  1.7948 -0.2691  0.5516
 1775SOL    HW216785   2.331   2.887   7.752  0.6717  0.1149 -3.1487
 1776SOL     OW16786   2.178   0.740   4.764 -0.3089 -0.0215  0.5546
 1776SOL    HW116787   2.178   0.747   4.860 -0.2081  0.5408  0.5168
 1776SOL    HW216788   2.269   0.763   4.747 -0.5578 -0.2912 -1.1686
 1777SOL     OW16789   2.743   2.720   9.390 -0.1876 -0.0092  0.0405
 1777SOL    HW116790   2.669   2.663   9.369 -0.9726  0.3971  1.7057
 1777SOL    HW216791   2.705   2.799   9.353 -1.0998 -1.2349 -1.6400
 1778SOL     OW16792   0.706   0.471   6.758 -0.2911 -0.0942  0.3759
 1778SOL    HW116793   0.704   0.546   6.816 -0.9418  1.6072 -1.8519
 1778SOL    HW216794   0.615   0.446   6.743 -0.5578 -0.4742  2.6154
 1779SOL     OW16795   2.614   4.222   2.029  0.0531 -0.8174 -0.1019
 1779SOL    HW116796   2.623   4.317   2.022 -2.0220 -0.4792  1.7786
 1779SOL    HW216797   2.630   4.199   1.938  0.3404  0.7294 -0.4366
 1780SOL     OW16798   4.287   2.031   2.400 -0.1733  0.2966  0.1779
 1780SOL    HW116799   4.340   2.098   2.444  0.0109 -0.7317  1.5014
 1780SOL    HW216800   4.334   2.044   2.318  0.0767 -1.4479  0.0465
 1781SOL     OW16801   1.019   2.283   9.051 -0.6262  0.3252 -0.7093
 1781SOL    HW116802   0.967   2.245   9.122 -0.9366 -1.4014 -1.8490
 1781SOL    HW216803   1.072   2.347   9.098 -1.5992  1.3615 -1.0218
 1782SOL     OW16804   2.224   4.237   8.019  0.4936  0.4411 -0.3108
 1782SOL    HW116805   2.240   4.296   8.092 -0.1925 -0.3818  0.4943
 1782SOL    HW216806   2.236   4.292   7.942  0.9089  0.1538 -0.4552
 1783SOL     OW16807   4.070   1.213   8.350  1.0377 -0.3212 -0.3972
 1783SOL    HW116808   3.981   1.199   8.318  0.4478  1.1238  0.5896
 1783SOL    HW216809   4.074   1.163   8.432  0.3807  1.4297  0.7024
 1784SOL     OW16810   1.718   2.960   2.317  0.0492 -0.1323 -0.3019
 1784SOL    HW116811   1.634   2.919   2.338 -0.3378  0.4735 -0.6589
 1784SOL    HW216812   1.775   2.908   2.373 -0.4169  1.2100  1.4010
 1785SOL     OW16813   1.876   0.278  11.518  0.1928 -0.3369  0.0186
 1785SOL    HW116814   1.785   0.293  11.497  0.8620  1.6922 -1.3504
 1785SOL    HW216815   1.881   0.346  11.585  0.6004 -2.9597  2.7074
 1786SOL     OW16816   2.254   0.642   9.057 -0.0706  0.1921  0.2890
 1786SOL    HW116817   2.180   0.595   9.019  1.1642  0.8041 -2.8233
 1786SOL    HW216818   2.234   0.630   9.150 -1.3338  1.8346  0.2232
 1787SOL     OW16819   1.386   0.911   2.838 -0.1537  0.7229 -0.0775
 1787SOL    HW116820   1.336   0.897   2.918 -0.0701  2.3460  0.2675
 1787SOL    HW216821   1.393   0.820   2.808 -2.8256  0.3616  0.3998
 1788SOL     OW16822   1.256   0.383   6.358 -0.5267  0.7501  0.4149
 1788SOL    HW116823   1.185   0.320   6.345  0.6298 -0.0279 -2.1932
 1788SOL    HW216824   1.234   0.439   6.432 -1.0954 -0.3047  1.0558
 1789SOL     OW16825   4.625   4.313   3.029 -0.0482  0.0701 -0.2487
 1789SOL    HW116826   4.547   4.320   2.973  0.6812  0.2097 -1.2431
 1789SOL    HW216827   4.579   4.310   3.113  0.7925  3.9313  0.3485
 1790SOL     OW16828   0.494   1.956   0.237  0.1675 -0.7479 -0.6480
 1790SOL    HW116829   0.450   1.973   0.153 -1.4498  1.9663  0.7349
 1790SOL    HW216830   0.567   2.014   0.218 -1.0622  0.9129 -0.3487
 1791SOL     OW16831   1.011   4.375   1.555  0.9290  0.4028  0.6418
 1791SOL    HW116832   1.035   4.283   1.555  1.8286  0.6336  1.2643
 1791SOL    HW216833   1.086   4.412   1.602  2.6004  1.6458 -3.0813
 1792SOL     OW16834   0.326   4.528   9.345  0.0766  0.6174  0.8015
 1792SOL    HW116835   0.254   4.532   9.282 -0.6709 -1.1089  1.5508
 1792SOL    HW216836   0.338   4.620   9.370 -2.6570  0.8117  1.4678
 1793SOL     OW16837   3.448   4.706   3.504 -1.4423  0.0546 -0.0298
 1793SOL    HW116838   3.362   0.020   3.523 -1.0927  1.0290 -0.3392
 1793SOL    HW216839   3.500   0.030   3.568 -2.2358  2.6567 -1.2918
 1794SOL     OW16840   4.121   3.041  17.543 -0.0227  0.5741 -0.0029
 1794SOL    HW116841   4.154   3.039  17.633 -1.2428  1.2463  0.4687
 1794SOL    HW216842   4.205   3.053  17.498  1.1234  1.1084  2.2794
 1795SOL     OW16843   2.602   0.764   5.393  0.0346 -0.1858  0.3182
 1795SOL    HW116844   2.580   0.789   5.482  1.4214  1.2855  0.2474
 1795SOL    HW216845   2.663   0.692   5.408 -0.7155 -0.9831 -0.4302
 1796SOL     OW16846   0.583   2.061  10.724 -0.1496  0.7099 -0.4543
 1796SOL    HW116847   0.553   1.971  10.737 -3.2847  1.7233 -0.5642
 1796SOL    HW216848   0.645   2.074  10.795 -2.6431  2.5224  1.4070
 1797SOL     OW16849   0.337   2.617   7.453  0.4421  0.4931  0.1724
 1797SOL    HW116850   0.421   2.587   7.419 -0.2390  0.2277 -1.2413
 1797SOL    HW216851   0.364   2.707   7.469  0.1447  0.4290  1.0641
 1798SOL     OW16852   0.744   3.234   7.079  0.6040 -0.1263  0.1615
 1798SOL    HW116853   0.823   3.208   7.126  1.1993 -0.0277 -0.7851
 1798SOL    HW216854   0.671   3.186   7.120 -0.6050  0.9893 -0.6651
 1799SOL     OW16855   1.390   0.123  17.288 -0.1041  0.0498  0.0819
 1799SOL    HW116856   1.435   0.053  17.239  1.0294  0.9915 -0.2250
 1799SOL    HW216857   1.470   0.173  17.308 -0.5636  0.8674 -0.1406
 1800SOL     OW16858   2.882   3.228   8.044  0.2602  0.7973  0.2535
 1800SOL    HW116859   2.951   3.295   8.045 -0.4263  1.5173 -1.1819
 1800SOL    HW216860   2.812   3.277   8.088 -1.4794 -0.4278 -1.1871
 1801SOL     OW16861   0.678   0.711   6.911  0.2577  0.4759 -0.0323
 1801SOL    HW116862   0.748   0.698   6.975 -0.6080  1.9905  1.2326
 1801SOL    HW216863   0.650   0.801   6.924 -0.3707  0.5506 -1.9101
 1802SOL     OW16864   0.591   4.620   5.393  0.6015  0.1851  0.0822
 1802SOL    HW116865   0.674   4.577   5.413  1.5209  0.8617 -2.2927
 1802SOL    HW216866   0.619   4.711   5.385  0.0288  0.6373  3.0478
 1803SOL     OW16867   3.905   3.824  17.686 -0.5129  0.5263  1.0091
 1803SOL    HW116868   3.811   3.836   0.006 -0.5797  1.0241  0.1325
 1803SOL    HW216869   3.925   3.814   0.085  1.1916 -0.9009  0.4770
 1804SOL     OW16870   0.824   2.657   8.856  0.0647 -0.3026 -0.0900
 1804SOL    HW116871   0.805   2.577   8.808 -1.2633  0.2641 -0.5133
 1804SOL    HW216872   0.792   2.725   8.796  0.1008  0.8950  1.2537
 1805SOL     OW16873   2.210   0.742  15.164  0.3237 -0.0560  0.3473
 1805SOL    HW116874   2.256   0.696  15.093 -0.1235  1.7923 -1.1414
 1805SOL    HW216875   2.275   0.783  15.221 -1.7767  2.1771  1.1251
 1806SOL     OW16876   3.234   3.427  17.289 -0.3037 -0.2409 -0.2240
 1806SOL    HW116877   3.143   3.416  17.262 -0.4719 -0.2323  0.3397
 1806SOL    HW216878   3.242   3.521  17.274 -2.9312 -0.3707 -2.3993
 1807SOL     OW16879   0.473   1.128  10.563 -0.0264 -0.2202 -0.1754
 1807SOL    HW116880   0.465   1.033  10.572 -1.0703 -0.0931  0.2591
 1807SOL    HW216881   0.381   1.155  10.568 -0.5504 -2.6364  3.1405
 1808SOL     OW16882   3.683   0.198  15.001  0.6582  0.1052  0.0607
 1808SOL    HW116883   3.710   0.116  15.043  0.2629  0.6386  1.3572
 1808SOL    HW216884   3.750   0.257  15.035  0.3819  2.1417 -2.9343
 1809SOL     OW16885   0.162   4.598   4.523  0.6434  0.0552 -1.1844
 1809SOL    HW116886   0.179   4.678   4.573  0.2421 -0.8939  0.5021
 1809SOL    HW216887   0.101   4.556   4.584  1.2978  1.5779  0.5069
 1810SOL     OW16888   0.306   4.271   3.035 -0.4440 -0.1214  0.4494
 1810SOL    HW116889   0.246   4.221   3.091 -1.0515 -1.2731 -1.2175
 1810SOL    HW216890   0.244   4.301   2.968 -0.4764 -2.3600 -0.5174
 1811SOL     OW16891   1.928   0.828   0.724  0.1088  0.3548  0.7706
 1811SOL    HW116892   1.907   0.814   0.817  3.6766 -2.8940  1.0899
 1811SOL    HW216893   2.015   0.788   0.723  0.7162  1.7617 -2.0583
 1812SOL     OW16894   0.495   0.753   5.512 -0.5387 -0.1718  0.0468
 1812SOL    HW116895   0.497   0.676   5.568 -0.0912  0.9300  1.5466
 1812SOL    HW216896   0.424   0.804   5.551 -0.9699 -2.0657  1.7215
 1813SOL     OW16897   0.708   3.381   3.997 -0.0876  0.3601 -0.1250
 1813SOL    HW116898   0.682   3.453   3.940  0.4853  1.8188  1.4589
 1813SOL    HW216899   0.787   3.415   4.038  0.4629 -0.2057 -0.7175
 1814SOL     OW16900   1.143   0.230   7.188  0.7595 -0.0855  0.7003
 1814SOL    HW116901   1.104   0.159   7.239 -0.9432 -0.8739 -1.7191
 1814SOL    HW216902   1.084   0.301   7.212  0.7206 -0.2140  0.9811
 1815SOL     OW16903   2.364   2.378  12.250  0.1969  0.1835  0.8353
 1815SOL    HW116904   2.295   2.430  12.290  0.5397  0.8614  0.5406
 1815SOL    HW216905   2.371   2.302  12.308 -0.3973  0.2602  1.0083
 1816SOL     OW16906   2.684   1.868   2.942 -0.3302 -0.0839 -0.1275
 1816SOL    HW116907   2.686   1.786   2.892  0.7724 -0.4595  0.5412
 1816SOL    HW216908   2.775   1.898   2.934  0.5442 -2.1661  2.1172
 1817SOL     OW16909   1.635   4.236   5.068 -0.0111  0.0814  0.2515
 1817SOL    HW116910   1.600   4.315   5.027  0.5916 -0.7044 -1.8009
 1817SOL    HW216911   1.677   4.202   4.988 -0.0295 -0.5675  0.5132
 1818SOL     OW16912   0.100   3.426   3.254  0.7895  0.1978 -0.7701
 1818SOL    HW116913   0.045   3.356   3.220  0.9217 -0.1949 -0.1686
 1818SOL    HW216914   0.185   3.385   3.240  1.1809 -0.3200  3.0797
 1819SOL     OW16915   3.565   1.880   7.850  0.1978  0.7825  0.2784
 1819SOL    HW116916   3.519   1.930   7.783 -0.0619 -2.1669 -1.6936
 1819SOL    HW216917   3.621   1.820   7.802  1.5846  1.0394  1.5668
 1820SOL     OW16918   1.942   2.816   4.292  0.2685  0.1243  0.2918
 1820SOL    HW116919   1.853   2.798   4.322 -0.3228  0.9691 -0.9145
 1820SOL    HW216920   1.938   2.774   4.206 -1.2767 -0.5685  0.7044
 1821SOL     OW16921   3.619   1.394   2.661  0.3363  0.1727  0.0373
 1821SOL    HW116922   3.715   1.403   2.658  0.2924 -0.1867 -2.4648
 1821SOL    HW216923   3.599   1.301   2.668 -1.8864  0.5067 -1.9278
 1822SOL     OW16924   1.035   3.641   5.005  0.1764 -0.9879  0.2935
 1822SOL    HW116925   0.976   3.641   4.929  1.5573 -1.6608 -0.7703
 1822SOL    HW216926   0.976   3.665   5.077 -0.5518 -0.6067 -0.4248
 1823SOL     OW16927   4.314   0.032   5.154 -1.1831 -0.7698  0.3926
 1823SOL    HW116928   4.331   0.027   5.060 -1.1907  2.5981  0.2397
 1823SOL    HW216929   4.367   0.105   5.186 -0.8262 -1.3769  1.2144
 1824SOL     OW16930   2.181   0.067   3.281 -0.5869 -0.0383 -0.4745
 1824SOL    HW116931   2.103   0.012   3.277 -1.0951  0.6638  0.1012
 1824SOL    HW216932   2.227   0.030   3.205 -2.2258  0.5691 -1.7669
 1825SOL     OW16933   0.756   3.154   5.713  0.2478  0.0897 -0.1944
 1825SOL    HW116934   0.696   3.132   5.785  0.8353  0.6761  0.4810
 1825SOL    HW216935   0.818   3.209   5.760  1.2140 -1.3663  0.2306
 1826SOL     OW16936   1.152   3.948  15.527 -0.2384 -0.3036  0.2185
 1826SOL    HW116937   1.230   3.919  15.479 -0.1095  1.0060 -0.3538
 1826SOL    HW216938   1.153   4.041  15.504 -0.9220  0.4615  3.2841
 1827SOL     OW16939   1.831   0.011   2.947  0.0520  0.2996  0.1854
 1827SOL    HW116940   1.792   4.666   3.001 -1.7071 -0.3761 -1.9257
 1827SOL    HW216941   1.879   4.674   2.890 -0.3068 -0.6853  0.9224
 1828SOL     OW16942   2.172   4.265   7.318  0.2373 -0.1644  0.0947
 1828SOL    HW116943   2.177   4.336   7.253  2.1542  1.9902  2.6285
 1828SOL    HW216944   2.155   4.187   7.264 -1.2507  0.4217 -0.2889
 1829SOL     OW16945   1.111   0.505  14.092 -0.7088  0.1803 -0.6345
 1829SOL    HW116946   1.089   0.433  14.032  1.1020 -0.5618 -0.4110
 1829SOL    HW216947   1.162   0.566  14.038  0.9116 -0.6485 -0.0429
 1830SOL     OW16948   0.964   3.370   3.237 -0.0788  0.0101  0.4902
 1830SOL    HW116949   0.954   3.443   3.176 -0.7051  0.4217  1.0746
 1830SOL    HW216950   1.053   3.335   3.231 -0.0972  0.1933 -0.8713
 1831SOL     OW16951   0.235   4.170   5.316 -0.5356 -0.3676 -0.4343
 1831SOL    HW116952   0.207   4.251   5.359 -2.3085 -0.9075 -0.5513
 1831SOL    HW216953   0.318   4.198   5.278 -2.2817  2.3469 -2.2894
 1832SOL     OW16954   1.132   2.510   4.169  0.5071 -0.3133 -0.0601
 1832SOL    HW116955   1.184   2.588   4.185  1.3193 -0.8764  0.0126
 1832SOL    HW216956   1.091   2.523   4.083 -2.8939 -0.5733  1.5226
 1833SOL     OW16957   0.266   0.397   7.172 -0.8901 -0.0724  1.3343
 1833SOL    HW116958   0.181   0.375   7.132 -0.7413 -0.1986  1.0857
 1833SOL    HW216959   0.276   0.333   7.243 -1.0058 -1.2839  0.2669
 1834SOL     OW16960   2.967   1.514  11.729  0.1373 -0.5113 -0.7935
 1834SOL    HW116961   2.970   1.546  11.819 -2.5801  1.5421 -1.4091
 1834SOL    HW216962   2.946   1.592  11.677  0.8207 -0.8759 -1.6149
 1835SOL     OW16963   0.048   1.248  12.550  0.8986  0.0572  0.0362
 1835SOL    HW116964   0.136   1.239  12.512  1.2972  0.3533  0.9092
 1835SOL    HW216965   4.719   1.242  12.470 -0.6086  1.7518  0.8976
 1836SOL     OW16966   0.730   3.477   8.758  0.4661  0.2278  0.4031
 1836SOL    HW116967   0.822   3.481   8.731  0.1978 -2.0483 -0.8080
 1836SOL    HW216968   0.735   3.411   8.826 -0.4229 -0.6054 -0.3548
 1837SOL     OW16969   3.829   4.149   5.452 -0.3620 -0.5753  0.1169
 1837SOL    HW116970   3.891   4.089   5.493 -0.6214 -1.0791 -0.2184
 1837SOL    HW216971   3.801   4.094   5.378 -0.7563 -1.1891  0.7244
 1838SOL     OW16972   1.871   4.674  12.073  0.4651  0.2145  0.0306
 1838SOL    HW116973   1.880   4.699  11.981 -0.8540  1.2813  0.1826
 1838SOL    HW216974   1.871   4.580  12.060 -2.6099  0.1921  0.2292
 1839SOL     OW16975   2.094   4.402  10.856  0.4611  0.5669 -0.5340
 1839SOL    HW116976   2.126   4.457  10.785 -0.9131 -1.0347 -2.4299
 1839SOL    HW216977   2.178   4.385  10.897 -0.5793 -1.5680  0.7039
 1840SOL     OW16978   3.025   2.114   4.368 -0.0024 -0.0457 -0.0093
 1840SOL    HW116979   3.094   2.064   4.323 -0.7928  0.2569 -1.5764
 1840SOL    HW216980   2.981   2.154   4.292  1.2057  0.9598 -0.1867
 1841SOL     OW16981   4.517   3.090   8.879  0.2076 -0.3318  0.7019
 1841SOL    HW116982   4.432   3.105   8.838  1.0047  1.0675 -0.3919
 1841SOL    HW216983   4.572   3.148   8.827 -0.2399 -0.5943 -0.0627
 1842SOL     OW16984   2.758   3.765   9.442  0.4687 -0.0116  0.0431
 1842SOL    HW116985   2.844   3.776   9.482  0.1861 -0.3696  0.7474
 1842SOL    HW216986   2.743   3.856   9.416  0.6654  0.2670  0.9047
 1843SOL     OW16987   0.652   1.345  15.915 -0.2345 -0.1656 -0.4713
 1843SOL    HW116988   0.737   1.303  15.919  0.1737  0.7380  0.3145
 1843SOL    HW216989   0.662   1.404  15.990 -0.2424 -1.1671  0.3146
 1844SOL     OW16990   4.105   1.789   8.405  0.0824 -0.7980 -0.2005
 1844SOL    HW116991   4.166   1.804   8.477  0.2135 -0.7463 -0.3240
 1844SOL    HW216992   4.099   1.693   8.408 -3.3747 -0.6940 -2.6658
 1845SOL     OW16993   0.163   0.940  11.250  0.0179  0.0496 -0.2323
 1845SOL    HW116994   0.232   0.905  11.193 -0.1245  0.1597 -0.4729
 1845SOL    HW216995   0.168   1.031  11.220  0.3522  0.4170  0.9301
 1846SOL     OW16996   0.634   0.351  14.322 -0.0761 -0.0417  0.3591
 1846SOL    HW116997   0.569   0.301  14.372  0.3938 -0.6325  0.3861
 1846SOL    HW216998   0.580   0.372  14.247 -1.1269 -3.0747  0.2787
 1847SOL     OW16999   2.021   1.140   3.798  0.0736  0.5772 -0.1411
 1847SOL    HW117000   1.960   1.177   3.734  0.6132  0.0880 -0.9440
 1847SOL    HW217001   2.079   1.096   3.735 -0.7265  1.4228 -1.4649
 1848SOL     OW17002   3.325   3.693  17.199  0.1933  0.6578 -0.7112
 1848SOL    HW117003   3.359   3.757  17.137  1.0133  0.5832 -0.3396
 1848SOL    HW217004   3.237   3.727  17.208 -0.5357 -1.5960  0.7915
 1849SOL     OW17005   2.104   2.362   5.928  0.3818  0.7543 -0.1837
 1849SOL    HW117006   2.063   2.393   6.009  3.5956  2.9542  0.6021
 1849SOL    HW217007   2.040   2.295   5.901  0.1284  1.1606 -0.5961
 1850SOL     OW17008   4.476   3.769   4.995 -0.0531  0.8834 -0.2673
 1850SOL    HW117009   4.441   3.858   4.991 -1.6801  0.2696  0.2219
 1850SOL    HW217010   4.415   3.730   5.057 -0.5096  0.5143 -0.9431
 1851SOL     OW17011   0.628   4.533   6.584  0.3417 -0.0801  0.0225
 1851SOL    HW117012   0.577   4.521   6.664  1.6344  1.2662  1.0463
 1851SOL    HW217013   0.665   4.621   6.597 -0.5515  0.1025  1.3252
 1852SOL     OW17014   0.070   0.592   9.299  0.1808 -0.0674  0.1500
 1852SOL    HW117015   0.022   0.601   9.381 -2.9990 -0.0846 -1.6997
 1852SOL    HW217016   0.128   0.668   9.303  1.1532 -0.8338  0.3724
 1853SOL     OW17017   0.360   1.875   3.738  0.0691 -0.5741 -0.2739
 1853SOL    HW117018   0.364   1.877   3.642  0.5238  0.8948 -0.2355
 1853SOL    HW217019   0.297   1.808   3.763  1.5305 -1.4051  1.2019
 1854SOL     OW17020   1.935   3.849   7.582  0.2294 -0.6638 -0.0769
 1854SOL    HW117021   1.894   3.905   7.648 -0.0749  1.2933 -1.9325
 1854SOL    HW217022   2.006   3.906   7.554  1.3240 -1.3470  1.2738
 1855SOL     OW17023   2.546   2.713  14.219  0.2221 -0.5430 -0.4793
 1855SOL    HW117024   2.594   2.630  14.222  0.4568 -0.4825 -2.6687
 1855SOL    HW217025   2.470   2.684  14.169  0.6110 -1.7777 -0.3586
 1856SOL     OW17026   0.316   0.740  13.753 -0.3403  0.3683  0.2498
 1856SOL    HW117027   0.261   0.755  13.676  0.6265 -0.8776 -0.6715
 1856SOL    HW217028   0.257   0.694  13.813 -0.2148 -0.7933 -0.5111
 1857SOL     OW17029   0.587   0.445   0.926 -0.5827  1.1811  0.0148
 1857SOL    HW117030   0.619   0.414   0.841  0.5852 -0.6287  1.1218
 1857SOL    HW217031   0.511   0.391   0.947  0.6903 -0.2212  1.0328
 1858SOL     OW17032   0.515   3.642   2.159 -0.4920  0.3593 -0.4052
 1858SOL    HW117033   0.557   3.568   2.204 -5.1236 -1.5829  0.6491
 1858SOL    HW217034   0.581   3.711   2.160  1.2396 -1.2779 -0.6208
 1859SOL     OW17035   3.427   4.399   4.929  0.1013  0.1984  0.1817
 1859SOL    HW117036   3.497   4.346   4.890 -0.4647 -1.3501  1.3031
 1859SOL    HW217037   3.398   4.344   5.001  0.5650  0.6037  0.6800
 1860SOL     OW17038   3.228   1.247  13.565  0.3115  0.0797  0.4841
 1860SOL    HW117039   3.280   1.322  13.594 -2.2887  2.0903 -0.0226
 1860SOL    HW217040   3.183   1.219  13.645 -0.7066  0.1568 -0.0651
 1861SOL     OW17041   3.156   4.280  15.068 -0.6750  0.3666 -0.1933
 1861SOL    HW117042   3.139   4.217  14.998 -1.8208  0.5077 -0.0367
 1861SOL    HW217043   3.184   4.354  15.014 -0.9614 -0.2344 -1.1604
 1862SOL     OW17044   2.196   3.569   1.767 -0.2018  0.5684  0.1626
 1862SOL    HW117045   2.132   3.507   1.803  0.1038  0.1854  0.0497
 1862SOL    HW217046   2.193   3.539   1.676  0.8655 -0.2168  0.3940
 1863SOL     OW17047   0.240   1.968   6.170 -0.1269  0.5820  0.0576
 1863SOL    HW117048   0.327   1.943   6.200  0.5342 -1.7361 -3.7264
 1863SOL    HW217049   0.254   1.944   6.078  0.0113  1.1135 -0.0612
 1864SOL     OW17050   0.032   3.890   0.412 -0.2401 -0.1420  0.5818
 1864SOL    HW117051   0.065   3.924   0.329 -0.3378  0.9500  0.9778
 1864SOL    HW217052   4.664   3.916   0.407 -0.0355  0.3988 -0.2763
 1865SOL     OW17053   3.345   2.676   1.237  0.1258 -0.1465  0.4027
 1865SOL    HW117054   3.351   2.588   1.200 -0.6945 -0.5941  1.3446
 1865SOL    HW217055   3.395   2.727   1.173  2.6617 -0.6612  1.9633
 1866SOL     OW17056   3.313   0.851   7.997  0.4470  0.1094 -0.3802
 1866SOL    HW117057   3.316   0.947   8.003  0.4294  0.0282  0.9576
 1866SOL    HW217058   3.229   0.838   8.041 -0.1086 -1.8634 -2.0313
 1867SOL     OW17059   1.420   3.178   9.268  0.0435 -0.2243 -0.2953
 1867SOL    HW117060   1.350   3.121   9.238  0.8025 -0.4948 -1.5444
 1867SOL    HW217061   1.435   3.232   9.190  1.6008 -0.8572 -0.4301
 1868SOL     OW17062   4.460   3.527   3.487 -0.2858  0.3209  0.4598
 1868SOL    HW117063   4.400   3.601   3.500 -0.4533  0.4036 -0.7757
 1868SOL    HW217064   4.512   3.562   3.414  0.8026 -2.3815 -0.0688
 1869SOL     OW17065   1.064   1.828   1.589  0.7380 -0.3384  0.4104
 1869SOL    HW117066   1.136   1.766   1.601  1.7689  1.3050  2.8777
 1869SOL    HW217067   1.106   1.909   1.620 -0.8711  0.5476  0.3023
 1870SOL     OW17068   1.715   2.566   1.043 -0.4846 -0.0290  0.3206
 1870SOL    HW117069   1.771   2.501   1.000 -1.7342 -1.2321  0.4837
 1870SOL    HW217070   1.764   2.643   1.017  1.2222 -1.5746 -1.0465
 1871SOL     OW17071   1.975   4.040   3.299 -0.3884 -0.1360 -0.1044
 1871SOL    HW117072   2.012   3.952   3.303 -0.5946 -0.2928 -1.4594
 1871SOL    HW217073   2.055   4.093   3.296  0.4370 -1.4253 -0.8621
 1872SOL     OW17074   1.342   4.545  15.420 -0.1183  0.2295 -0.4763
 1872SOL    HW117075   1.410   4.571  15.358 -0.4406 -2.7510 -2.0579
 1872SOL    HW217076   1.270   4.603  15.395 -0.7935  0.1928  1.3569
 1873SOL     OW17077   2.263   1.648  11.830  0.1404 -0.0648  0.6228
 1873SOL    HW117078   2.334   1.680  11.886  1.1290  0.5975 -1.0030
 1873SOL    HW217079   2.212   1.728  11.816  1.3144  1.0544  2.6712
 1874SOL     OW17080   4.356   0.777   1.717  0.0565 -0.5497  0.1232
 1874SOL    HW117081   4.306   0.781   1.636 -0.9524 -1.5168  0.6937
 1874SOL    HW217082   4.370   0.870   1.735  1.6566 -0.4528 -1.6305
 1875SOL     OW17083   2.241   2.757  12.779  0.2773 -0.1762 -0.0934
 1875SOL    HW117084   2.230   2.757  12.684  1.1704 -0.4229 -0.2004
 1875SOL    HW217085   2.203   2.844  12.789  0.1219 -0.5136  2.1271
 1876SOL     OW17086   0.941   0.546  14.311 -0.1573  0.1669 -0.1580
 1876SOL    HW117087   0.923   0.590  14.228  1.1689 -0.5226 -0.8068
 1876SOL    HW217088   1.016   0.498  14.276 -0.2032 -1.5080  2.0749
 1877SOL     OW17089   1.904   4.500   6.398  0.4466  0.3150 -0.4203
 1877SOL    HW117090   1.860   4.568   6.347 -1.4411 -1.0603 -0.6164
 1877SOL    HW217091   1.856   4.507   6.480  1.5112 -0.6095  0.2701
 1878SOL     OW17092   2.506   3.633   8.106  0.4578  0.0034  0.1032
 1878SOL    HW117093   2.531   3.724   8.089  0.3070  0.0797  0.3036
 1878SOL    HW217094   2.430   3.641   8.162  1.0579 -0.2968  0.9678
 1879SOL     OW17095   1.017   1.486   5.175 -0.2115  0.2359  0.2631
 1879SOL    HW117096   1.098   1.453   5.134 -0.1789  0.4380  0.1649
 1879SOL    HW217097   0.960   1.428   5.125  2.8677 -2.8957  0.3258
 1880SOL     OW17098   3.766   2.844   1.028  0.0933 -0.5678 -0.2608
 1880SOL    HW117099   3.764   2.911   0.960  2.4892 -0.9743 -0.7401
 1880SOL    HW217100   3.828   2.886   1.088 -0.8430 -2.4762  2.0574
 1881SOL     OW17101   3.361   0.180   5.720 -0.0527  0.7283 -0.2200
 1881SOL    HW117102   3.411   0.101   5.699 -1.0429  0.0536 -0.0317
 1881SOL    HW217103   3.274   0.141   5.724  0.7392 -0.9496  0.4146
 1882SOL     OW17104   2.911   0.405   4.688 -0.4858  0.5333 -0.0970
 1882SOL    HW117105   2.991   0.444   4.722 -0.7484  0.3765  0.7184
 1882SOL    HW217106   2.875   0.371   4.771 -0.1923 -1.4469 -0.7863
 1883SOL     OW17107   0.848   0.159   0.138  0.3029  0.4606  0.1390
 1883SOL    HW117108   0.867   0.241   0.183  2.0924 -0.7968  1.6751
 1883SOL    HW217109   0.935   0.130   0.110 -1.1998 -2.6552 -1.3688
 1884SOL     OW17110   3.871   0.391   0.142  0.3002  0.1592 -0.3187
 1884SOL    HW117111   3.948   0.446   0.155  0.3334 -0.1611  0.7924
 1884SOL    HW217112   3.911   0.306   0.161 -1.5696 -1.0952 -1.9226
 1885SOL     OW17113   0.165   0.283  16.055 -0.2972 -0.1198  0.4480
 1885SOL    HW117114   0.188   0.226  15.981 -0.9492 -0.6176  0.6234
 1885SOL    HW217115   0.075   0.252  16.069 -0.4912 -0.2203 -0.9447
 1886SOL     OW17116   0.344   1.075   4.290 -0.5607 -0.4368 -0.2160
 1886SOL    HW117117   0.282   1.024   4.341 -0.2827 -1.5058 -0.9404
 1886SOL    HW217118   0.295   1.156   4.303  1.2655  0.7040 -0.3775
 1887SOL     OW17119   2.949   0.146   7.454  0.1627  0.1773 -0.6205
 1887SOL    HW117120   2.977   0.074   7.511 -1.8526 -0.4881 -0.4431
 1887SOL    HW217121   3.032   0.188   7.432  0.4024  0.9111  1.7313
 1888SOL     OW17122   2.496   3.516   4.291  0.9409  0.1776 -0.3045
 1888SOL    HW117123   2.461   3.596   4.331 -0.7538 -0.0735 -1.2922
 1888SOL    HW217124   2.412   3.472   4.280  0.3899  1.2908 -0.6337
 1889SOL     OW17125   1.128   0.815   8.491 -0.0390 -0.0092  0.0442
 1889SOL    HW117126   1.054   0.759   8.515 -0.9590  1.6542  1.0691
 1889SOL    HW217127   1.108   0.904   8.521 -0.0049  0.0204 -0.0201
 1890SOL     OW17128   4.619   0.083   5.579 -0.5214  0.3308 -0.5597
 1890SOL    HW117129   4.588   0.164   5.537 -1.1796 -0.5054 -1.6959
 1890SOL    HW217130   4.567   0.019   5.530  0.2125 -0.5943 -0.1159
 1891SOL     OW17131   0.859   2.241   2.351 -0.1000 -0.0847  0.2318
 1891SOL    HW117132   0.859   2.145   2.353 -2.3914 -0.1032 -0.7900
 1891SOL    HW217133   0.801   2.251   2.276  0.4199  1.9566  0.1134
 1892SOL     OW17134   1.197   3.218   5.056  0.2507 -0.1333 -0.4981
 1892SOL    HW117135   1.167   3.220   4.965  2.3519  0.8638 -1.1814
 1892SOL    HW217136   1.215   3.125   5.066 -3.4292 -0.7834 -0.0678
 1893SOL     OW17137   3.275   4.343   2.799 -0.1247 -0.3237  0.7766
 1893SOL    HW117138   3.335   4.319   2.727 -1.5706 -3.2167  0.5120
 1893SOL    HW217139   3.206   4.278   2.787 -1.3817  1.2642 -0.4952
 1894SOL     OW17140   0.333   2.775   7.127 -0.0848 -0.3547 -0.1674
 1894SOL    HW117141   0.409   2.744   7.077  1.1968  0.0796  1.4990
 1894SOL    HW217142   0.266   2.707   7.128 -0.3733 -0.0674 -0.2771
 1895SOL     OW17143   0.254   0.644  11.320 -0.5247 -0.2304 -0.1396
 1895SOL    HW117144   0.268   0.554  11.289  0.3677 -0.4763  1.0072
 1895SOL    HW217145   0.162   0.641  11.345 -0.4850  0.1417  0.0510
 1896SOL     OW17146   2.699   1.567   8.268  0.3973 -0.2337  0.2009
 1896SOL    HW117147   2.783   1.604   8.292  0.9260 -0.4142 -1.3619
 1896SOL    HW217148   2.642   1.607   8.333  0.1936 -2.8393  1.6344
 1897SOL     OW17149   3.584   2.547   2.944  0.1611 -0.2865  0.2103
 1897SOL    HW117150   3.565   2.583   2.857  2.6221 -1.3133 -0.7230
 1897SOL    HW217151   3.654   2.484   2.934 -1.3353 -1.9570  0.2781
 1898SOL     OW17152   2.577   3.945   5.852  0.1646 -0.1897  0.9865
 1898SOL    HW117153   2.536   4.025   5.819 -0.0620 -1.2398 -1.2349
 1898SOL    HW217154   2.656   3.983   5.893  0.4548 -0.2273  0.4599
 1899SOL     OW17155   3.798   2.502   3.194 -0.0709  0.0893  0.1637
 1899SOL    HW117156   3.826   2.591   3.172 -1.4572  0.6283  0.5422
 1899SOL    HW217157   3.704   2.498   3.173 -0.2763 -3.3722  1.7134
 1900SOL     OW17158   3.633   0.474   3.321 -0.2434 -0.0440 -0.1549
 1900SOL    HW117159   3.714   0.518   3.347 -1.2280  2.3882 -1.2276
 1900SOL    HW217160   3.578   0.507   3.392  1.8281  0.5868  1.1742
 1901SOL     OW17161   1.248   1.162   6.721 -0.6151 -0.5204 -0.7204
 1901SOL    HW117162   1.297   1.147   6.802 -0.2337 -0.5657 -0.9602
 1901SOL    HW217163   1.324   1.166   6.663  0.3234  2.1417  0.6439
 1902SOL     OW17164   1.070   0.335   8.265 -0.2522  0.1705  0.1337
 1902SOL    HW117165   1.096   0.348   8.356 -2.7824  0.5730  0.8051
 1902SOL    HW217166   0.978   0.362   8.267  0.1318  1.3389  1.8641
 1903SOL     OW17167   1.580   0.049  13.558  0.9615 -0.1421  0.3745
 1903SOL    HW117168   1.669   0.049  13.522  0.1078  1.0287 -1.7502
 1903SOL    HW217169   1.599   0.066  13.650 -1.4387 -0.8737  1.0073
 1904SOL     OW17170   3.551   2.166   9.366 -0.6572  0.2028  0.3269
 1904SOL    HW117171   3.481   2.189   9.427 -0.2682 -1.7856  1.5052
 1904SOL    HW217172   3.620   2.170   9.432  0.7099  2.4880 -1.2414
 1905SOL     OW17173   4.087   0.691   6.604  0.2468 -0.0070 -0.6676
 1905SOL    HW117174   4.021   0.687   6.673 -1.9089  2.1641 -2.5883
 1905SOL    HW217175   4.063   0.779   6.574  1.2775  1.1613  1.8662
 1906SOL     OW17176   2.420   1.932  10.095 -0.0114 -0.5120  0.5103
 1906SOL    HW117177   2.425   2.019  10.056  0.2629  0.1116  1.9315
 1906SOL    HW217178   2.327   1.908  10.089 -0.2942  0.9511 -1.0834
 1907SOL     OW17179   1.156   3.274   4.773 -0.2978 -0.1755  0.0713
 1907SOL    HW117180   1.134   3.365   4.790  0.7368  0.1077 -0.0998
 1907SOL    HW217181   1.170   3.304   4.683  2.5667  1.4093  1.0215
 1908SOL     OW17182   3.414   0.935   8.366 -0.2015  0.4813 -0.3089
 1908SOL    HW117183   3.507   0.959   8.359  0.3944 -1.2807  1.2371
 1908SOL    HW217184   3.374   0.990   8.433 -0.2510  0.7198 -0.5410
 1909SOL     OW17185   3.663   3.916   8.070  0.1251  0.0311  0.0701
 1909SOL    HW117186   3.671   3.998   8.021  0.3552 -0.0623 -0.0489
 1909SOL    HW217187   3.619   3.960   8.143 -0.9950 -1.3944  0.2602
 1910SOL     OW17188   2.176   2.447   6.718  0.0567  0.0543  0.0683
 1910SOL    HW117189   2.111   2.408   6.660  2.1411 -3.6594  0.2979
 1910SOL    HW217190   2.148   2.448   6.810  0.4473 -1.6811  0.1958
 1911SOL     OW17191   3.411   2.612   3.424 -0.3833  0.7593 -0.3570
 1911SOL    HW117192   3.425   2.688   3.368 -0.4283  1.3670  0.4657
 1911SOL    HW217193   3.500   2.581   3.440  0.2942  2.6538 -0.4955
 1912SOL     OW17194   4.254   0.572   4.792 -0.1607 -0.0766  0.1630
 1912SOL    HW117195   4.226   0.494   4.838 -1.2014  0.9097  1.1853
 1912SOL    HW217196   4.170   0.616   4.777 -0.2593 -0.3667 -0.1192
 1913SOL     OW17197   2.246   1.127   9.603 -0.2985  0.1976  0.2172
 1913SOL    HW117198   2.290   1.116   9.519  1.1610  1.2056  0.8592
 1913SOL    HW217199   2.284   1.212   9.623  1.1937 -0.6470  1.0104
 1914SOL     OW17200   2.614   1.809   3.415  0.0171 -0.3987  0.0575
 1914SOL    HW117201   2.707   1.799   3.396 -0.0412  0.6982 -0.8375
 1914SOL    HW217202   2.570   1.838   3.335 -0.3922 -1.1758  0.0015
 1915SOL     OW17203   4.641   2.698   7.816 -0.9800  0.1421  0.6528
 1915SOL    HW117204   4.638   2.737   7.903 -1.3425  1.7682 -0.0866
 1915SOL    HW217205   4.636   2.774   7.757  2.1852 -1.4313 -1.6268
 1916SOL     OW17206   3.192   4.110   7.365  0.1807  0.6104 -0.0682
 1916SOL    HW117207   3.139   4.051   7.310 -2.3282  1.0449  1.8925
 1916SOL    HW217208   3.135   4.113   7.442  2.3111 -0.4703  1.5412
 1917SOL     OW17209   0.277   0.621   2.522 -0.4100 -0.0364  0.3722
 1917SOL    HW117210   0.346   0.573   2.476 -1.3549 -0.8089 -0.2247
 1917SOL    HW217211   0.206   0.621   2.458  3.3947  1.2136 -3.8508
 1918SOL     OW17212   0.141   3.489   7.329 -0.0815 -0.3335 -0.1962
 1918SOL    HW117213   0.075   3.467   7.395 -0.9567  2.1679 -0.2275
 1918SOL    HW217214   0.219   3.473   7.382 -0.3612  0.7111  0.5471
 1919SOL     OW17215   2.421   4.265   1.699 -0.1943 -0.3776  0.1617
 1919SOL    HW117216   2.410   4.187   1.754 -0.3683 -0.7958 -0.4671
 1919SOL    HW217217   2.516   4.261   1.684 -0.2883 -0.5916 -0.3759
 1920SOL     OW17218   1.022   3.260   6.398  0.2377  0.1484 -0.9015
 1920SOL    HW117219   1.025   3.200   6.323 -0.7353  1.0919 -1.6904
 1920SOL    HW217220   0.987   3.336   6.352 -2.4975  0.3082  1.4727
 1921SOL     OW17221   1.468   1.938   4.641  0.3056  0.6787  0.1904
 1921SOL    HW117222   1.381   1.978   4.650  0.6742  1.6006 -0.3829
 1921SOL    HW217223   1.432   1.881   4.574 -0.7212  0.0606  1.2715
 1922SOL     OW17224   1.092   4.345   9.942  0.1279  0.3276 -0.0029
 1922SOL    HW117225   1.134   4.299   9.870 -0.8034  0.7924 -0.8345
 1922SOL    HW217226   1.166   4.352  10.002  0.1199  1.9545 -0.2038
 1923SOL     OW17227   0.243   3.885  13.199 -0.5380 -0.0058  0.0457
 1923SOL    HW117228   0.187   3.808  13.203 -1.1469  0.4216 -0.2876
 1923SOL    HW217229   0.280   3.882  13.287  0.9042  1.2911 -0.5249
 1924SOL     OW17230   2.510   2.145  13.820 -0.5138 -0.3073  0.6965
 1924SOL    HW117231   2.439   2.084  13.837 -1.4406  0.8228  0.8974
 1924SOL    HW217232   2.536   2.109  13.735 -2.2756  1.6706 -0.6938
 1925SOL     OW17233   0.766   0.749   6.097  0.9900 -0.2386  0.2835
 1925SOL    HW117234   0.781   0.779   6.007 -0.2300  1.0532  0.5177
 1925SOL    HW217235   0.848   0.769   6.142  0.6120 -0.4559  1.0738
 1926SOL     OW17236   1.164   3.283   3.055  0.1062  0.4369 -0.0946
 1926SOL    HW117237   1.101   3.232   3.004  2.5113 -1.0777 -1.5042
 1926SOL    HW217238   1.145   3.374   3.032 -1.0311  0.1269 -0.3815
 1927SOL     OW17239   3.712   2.932   5.216  0.6131  0.0738 -0.7510
 1927SOL    HW117240   3.643   2.989   5.251  0.7468 -1.3230  1.7288
 1927SOL    HW217241   3.712   2.959   5.124 -1.1923 -1.5813 -1.2234
 1928SOL     OW17242   1.106   4.432  15.180 -0.4780  0.1680 -0.5415
 1928SOL    HW117243   1.131   4.429  15.087 -0.2873  1.2417 -0.5252
 1928SOL    HW217244   1.122   4.342  15.209  0.3306  1.2543  2.3813
 1929SOL     OW17245   0.299   4.624  14.776 -0.3557 -0.0829  0.3127
 1929SOL    HW117246   0.217   4.595  14.737 -0.3679  0.9201 -0.4050
 1929SOL    HW217247   0.264   4.650  14.861 -0.4738 -1.0879  0.5756
 1930SOL     OW17248   1.455   4.437   3.234  0.0177  0.3543  0.6521
 1930SOL    HW117249   1.395   4.407   3.167  1.6647 -2.1864  0.3256
 1930SOL    HW217250   1.519   4.483   3.179  0.7269 -0.4446  0.8222
 1931SOL     OW17251   1.825   4.322  10.494 -0.1105  0.3006  0.7001
 1931SOL    HW117252   1.911   4.362  10.480  0.5385 -0.6252  2.0523
 1931SOL    HW217253   1.837   4.281  10.580  2.4350  0.7833  0.5752
 1932SOL     OW17254   4.023   0.764  17.553 -0.3907 -0.1816 -0.1122
 1932SOL    HW117255   4.029   0.852  17.590 -0.6111 -0.1082 -0.2461
 1932SOL    HW217256   4.082   0.719  17.613  0.9110 -0.5588 -1.6572
 1933SOL     OW17257   3.583   0.198   6.059  0.2565 -0.2157  0.4287
 1933SOL    HW117258   3.530   0.118   6.053 -3.1736  2.0954 -0.0859
 1933SOL    HW217259   3.647   0.161   6.120  1.3317 -0.6401 -0.9615
 1934SOL     OW17260   2.298   3.141   4.492 -0.0031  0.0650 -0.2108
 1934SOL    HW117261   2.290   3.136   4.397 -1.6514  2.2434 -0.1831
 1934SOL    HW217262   2.279   3.234   4.507  2.5417  0.5639  0.1020
 1935SOL     OW17263   4.169   2.645   1.588 -0.0190 -0.2913 -0.1932
 1935SOL    HW117264   4.157   2.612   1.499  1.1951  1.0544 -0.8496
 1935SOL    HW217265   4.207   2.569   1.632  1.6698  1.4163  1.2590
 1936SOL     OW17266   0.144   3.894  10.943  0.2271  0.0320  0.6444
 1936SOL    HW117267   0.151   3.910  10.849  0.5375 -0.9508  0.5036
 1936SOL    HW217268   0.146   3.986  10.970  2.3731 -0.0389  0.7381
 1937SOL     OW17269   1.014   0.078   4.621  0.1772 -0.0401  0.0933
 1937SOL    HW117270   1.046   0.142   4.685  2.0536 -1.4911  0.6135
 1937SOL    HW217271   1.098   0.058   4.580 -0.4718 -0.7785 -0.8669
 1938SOL     OW17272   4.604   3.360   1.439  0.1784  0.2106  0.0464
 1938SOL    HW117273   4.559   3.286   1.398 -0.9486  0.8920  0.0428
 1938SOL    HW217274   4.574   3.431   1.382  1.0026  0.4298 -0.1222
 1939SOL     OW17275   4.444   0.989   0.257  0.1750  0.3860 -0.3275
 1939SOL    HW117276   4.380   0.996   0.186 -0.1777  0.8442  0.0343
 1939SOL    HW217277   4.516   1.039   0.220  0.4854  1.1374  1.2945
 1940SOL     OW17278   2.231   2.989   3.940  0.3222  0.0802  0.1375
 1940SOL    HW117279   2.228   2.906   3.988  2.4120 -0.1547 -0.1457
 1940SOL    HW217280   2.206   2.958   3.853  1.4551 -0.4069 -0.0127
 1941SOL     OW17281   0.521   0.857   6.176 -0.1049 -0.4966 -0.1106
 1941SOL    HW117282   0.554   0.943   6.201 -0.2771 -0.6603  0.6900
 1941SOL    HW217283   0.606   0.819   6.155 -0.3334 -0.4969 -1.0220
 1942SOL     OW17284   1.639   3.931   6.316 -0.0847  0.5113 -0.2819
 1942SOL    HW117285   1.566   3.907   6.374  0.2612  0.3392  0.0813
 1942SOL    HW217286   1.710   3.949   6.377  0.7116 -2.3962 -0.3466
 1943SOL     OW17287   2.893   0.004   4.835  0.3009 -0.3643 -0.6068
 1943SOL    HW117288   2.923   4.717   4.926 -0.1986  1.9377 -0.1840
 1943SOL    HW217289   2.798   0.017   4.845  0.5712 -0.0281  1.5591
 1944SOL     OW17290   4.192   1.856  14.459 -0.2096 -0.6665 -0.0889
 1944SOL    HW117291   4.223   1.887  14.374  0.2625  2.3659  1.1933
 1944SOL    HW217292   4.206   1.761  14.451 -2.2354 -1.0192  0.3084
 1945SOL     OW17293   1.916   4.184   3.059 -0.1030  0.4515  0.7481
 1945SOL    HW117294   1.928   4.274   3.091  2.7553  0.2759  0.2027
 1945SOL    HW217295   1.914   4.135   3.141  0.4384  0.8538  1.0051
 1946SOL     OW17296   3.489   1.959   4.934 -0.1609  0.2636  0.5539
 1946SOL    HW117297   3.576   1.919   4.941  0.2051  1.1633  1.1738
 1946SOL    HW217298   3.510   2.050   4.914 -0.2858  0.4958  1.5161
 1947SOL     OW17299   1.162   4.078   1.527 -0.7728  0.0685  0.2205
 1947SOL    HW117300   1.244   4.068   1.575  0.6288  0.0037 -2.1939
 1947SOL    HW217301   1.200   4.091   1.440 -0.1499  2.2395  0.8012
 1948SOL     OW17302   4.697   0.180   3.042 -0.2145 -0.6888  0.3995
 1948SOL    HW117303   4.681   0.193   3.136  1.3235  3.0619  0.1296
 1948SOL    HW217304   4.639   0.245   3.004  0.0276  0.0670  1.3181
 1949SOL     OW17305   0.872   0.274   5.880  0.1006 -0.6795 -0.4188
 1949SOL    HW117306   0.955   0.258   5.925  0.0311  0.4819  0.1174
 1949SOL    HW217307   0.868   0.204   5.815 -1.1587  3.1570 -4.4625
 1950SOL     OW17308   2.829   3.543   1.876  0.3477  0.6632  0.1027
 1950SOL    HW117309   2.918   3.574   1.894  0.6541  0.2193 -0.6559
 1950SOL    HW217310   2.774   3.618   1.900 -0.3940  0.7954 -2.0220
 1951SOL     OW17311   2.144   2.130   4.501 -0.1192 -0.0225  0.1393
 1951SOL    HW117312   2.113   2.041   4.513 -0.5886  0.1033 -0.1489
 1951SOL    HW217313   2.183   2.152   4.586  1.0453  3.0698 -1.1862
 1952SOL     OW17314   4.712   4.430   6.580 -0.4396  0.7594 -0.8950
 1952SOL    HW117315   4.665   4.513   6.572 -0.5366  0.9029  1.3093
 1952SOL    HW217316   0.078   4.463   6.562 -0.2381  0.7370  0.0795
 1953SOL     OW17317   4.341   3.913   7.999  0.0430  0.1578  0.1459
 1953SOL    HW117318   4.285   3.984   7.968  0.7658  0.7340  0.1551
 1953SOL    HW217319   4.330   3.839   7.940 -0.8754  0.8544 -0.5496
 1954SOL     OW17320   2.914   0.176  12.308 -0.0634  0.1672  0.2906
 1954SOL    HW117321   3.009   0.194  12.306 -0.2167  1.1865  2.1271
 1954SOL    HW217322   2.898   0.146  12.218 -0.5103 -0.3013  0.5275
 1955SOL     OW17323   3.671   4.033   5.777  0.3057 -0.0003 -0.4618
 1955SOL    HW117324   3.751   4.050   5.827  0.6970 -0.5607 -0.9000
 1955SOL    HW217325   3.605   4.071   5.835 -1.4030 -0.7837 -1.9069
 1956SOL     OW17326   4.206   1.329   6.071 -0.3024  0.3609 -0.1413
 1956SOL    HW117327   4.213   1.292   5.983  0.4743 -2.5830  1.1322
 1956SOL    HW217328   4.258   1.409   6.067  2.2629 -1.2121  1.3692
 1957SOL     OW17329   3.268   2.698   2.346 -0.2334 -0.2987  0.2683
 1957SOL    HW117330   3.193   2.673   2.292  0.6581  0.6807 -1.4203
 1957SOL    HW217331   3.342   2.657   2.301 -0.8149  2.2669 -2.9634
 1958SOL     OW17332   4.433   3.053   9.314 -0.1880  0.3792 -0.4427
 1958SOL    HW117333   4.369   3.121   9.338  0.4172  0.7125  0.2190
 1958SOL    HW217334   4.466   3.037   9.402  1.4885  0.2838 -1.0840
 1959SOL     OW17335   1.403   0.942   8.553  0.2513 -0.6060 -0.4832
 1959SOL    HW117336   1.362   0.856   8.542 -0.2251 -0.4911  0.3989
 1959SOL    HW217337   1.486   0.931   8.507  0.5078 -1.4135  0.1663
 1960SOL     OW17338   3.489   1.192  10.908 -0.1864 -0.0756  0.2762
 1960SOL    HW117339   3.536   1.112  10.881 -2.5625 -1.1866 -0.5438
 1960SOL    HW217340   3.569   1.240  10.930 -0.2812  0.6745 -1.0708
 1961SOL     OW17341   4.336   2.314  13.624 -0.8144 -0.1370  1.0165
 1961SOL    HW117342   4.386   2.249  13.576 -0.4304  0.5537  0.4825
 1961SOL    HW217343   4.368   2.399  13.593  0.6602 -0.9799  0.2704
 1962SOL     OW17344   3.659   2.686   1.531  0.3377 -0.4312  0.5177
 1962SOL    HW117345   3.661   2.675   1.626 -0.9051 -1.1993  0.4537
 1962SOL    HW217346   3.753   2.700   1.518 -0.0914 -0.3054 -2.4949
 1963SOL     OW17347   1.047   1.975   6.382  0.3249 -0.2254 -0.6210
 1963SOL    HW117348   1.137   1.946   6.371 -0.0058 -2.8102  3.5082
 1963SOL    HW217349   0.997   1.909   6.334 -1.2487 -0.6382  1.5808
 1964SOL     OW17350   0.714   1.796  12.126 -0.0906 -0.3937 -0.2384
 1964SOL    HW117351   0.699   1.718  12.074  0.7768  0.7032 -2.1137
 1964SOL    HW217352   0.801   1.827  12.101  0.0183 -0.9667 -0.5625
 1965SOL     OW17353   4.009   1.746   9.693  0.6794 -0.0862  0.1118
 1965SOL    HW117354   3.987   1.751   9.786  0.9368 -3.0443  0.3405
 1965SOL    HW217355   3.985   1.831   9.657  0.6499 -0.2508 -0.2657
 1966SOL     OW17356   0.315   2.164   7.276  0.5708  0.3873 -0.1954
 1966SOL    HW117357   0.304   2.229   7.347  1.1146 -0.0437  0.2785
 1966SOL    HW217358   0.235   2.178   7.225 -0.8550 -0.4599  1.7645
 1967SOL     OW17359   2.501   4.360   8.562 -0.0822 -0.8721  0.2595
 1967SOL    HW117360   2.588   4.378   8.598 -0.7291  0.3950  1.1846
 1967SOL    HW217361   2.445   4.392   8.633 -0.6152 -1.9065  0.2975
 1968SOL     OW17362   2.113   3.822   2.990  0.3129 -0.0827  0.2196
 1968SOL    HW117363   2.032   3.835   2.940  1.3799 -1.2811 -1.7814
 1968SOL    HW217364   2.158   3.749   2.948 -3.0262 -1.6573 -0.6458
 1969SOL     OW17365   0.218   3.477   1.615  0.6181 -0.0447 -0.2045
 1969SOL    HW117366   0.196   3.557   1.662 -0.4357  0.3594 -1.3897
 1969SOL    HW217367   0.224   3.507   1.524  0.1806 -1.3378 -0.6648
 1970SOL     OW17368   4.495   0.895   3.222 -0.7984 -0.7315  0.5423
 1970SOL    HW117369   4.492   0.882   3.127  1.0962  2.0604  0.1062
 1970SOL    HW217370   4.555   0.831   3.259 -0.4619 -0.0221  1.2091
 1971SOL     OW17371   1.794   0.876   3.402  0.1425 -0.2913 -0.6879
 1971SOL    HW117372   1.886   0.871   3.377  0.3952  0.6216  0.0434
 1971SOL    HW217373   1.781   0.823   3.481  0.2760  1.0843  0.2509
 1972SOL     OW17374   0.164   3.417   6.320  0.0035 -0.0625 -0.0989
 1972SOL    HW117375   0.194   3.346   6.377 -0.3883  0.6869  1.0420
 1972SOL    HW217376   0.071   3.395   6.317  0.2339 -1.0505 -0.0155
 1973SOL     OW17377   1.059   3.561   3.069 -0.2419 -0.2730  0.5007
 1973SOL    HW117378   0.993   3.563   3.000 -0.5719  0.3239  0.8324
 1973SOL    HW217379   1.114   3.629   3.030 -0.7194  0.3602  0.9278
 1974SOL     OW17380   2.341   4.545  11.528 -0.1155 -0.3073 -0.6705
 1974SOL    HW117381   2.405   4.484  11.492 -2.4035 -3.0075 -0.1963
 1974SOL    HW217382   2.286   4.483  11.576 -0.9741 -0.2700 -1.5787
 1975SOL     OW17383   0.618   0.255   1.481 -0.2238 -0.1487 -0.4060
 1975SOL    HW117384   0.677   0.282   1.411  1.5005  1.0654  1.5409
 1975SOL    HW217385   0.598   0.166   1.452  0.2384  0.2522 -1.9383
 1976SOL     OW17386   0.426   3.649  12.047  0.0750 -0.0616 -0.0161
 1976SOL    HW117387   0.338   3.613  12.058 -0.0331  0.0494 -0.5457
 1976SOL    HW217388   0.434   3.703  12.126  2.0640  2.7028 -2.1344
 1977SOL     OW17389   2.485   3.619   3.055 -0.4146 -0.1194 -0.0821
 1977SOL    HW117390   2.553   3.626   2.989 -0.2280  0.7708  0.2072
 1977SOL    HW217391   2.440   3.539   3.027  1.7552 -1.3050 -0.2110
 1978SOL     OW17392   3.223   1.981  12.998 -0.4690 -0.1094 -0.9293
 1978SOL    HW117393   3.138   1.937  13.003 -0.6579  0.4899  0.9572
 1978SOL    HW217394   3.199   2.048  13.062  0.2621 -2.0822  1.4416
 1979SOL     OW17395   0.741   2.326  15.720 -0.1474  0.2811 -0.1157
 1979SOL    HW117396   0.752   2.363  15.807 -0.6474  0.5882 -0.1848
 1979SOL    HW217397   0.819   2.368  15.682 -0.4043 -0.9593 -2.0360
 1980SOL     OW17398   1.120   4.102   5.869 -0.9139  0.2592 -0.4187
 1980SOL    HW117399   1.075   4.018   5.870 -1.1969  0.4112 -0.3173
 1980SOL    HW217400   1.042   4.150   5.896 -0.0902  1.6098 -0.4321
 1981SOL     OW17401   2.685   3.587   6.113 -0.3156 -0.2492  0.1143
 1981SOL    HW117402   2.595   3.554   6.121 -0.2618  0.0436  1.8675
 1981SOL    HW217403   2.675   3.631   6.028  1.1697 -0.7720 -0.3279
 1982SOL     OW17404   3.487   3.176   4.968  0.5704 -0.3141  0.2937
 1982SOL    HW117405   3.545   3.102   4.953  1.6983  0.5018  0.6298
 1982SOL    HW217406   3.497   3.201   5.060  0.6271  0.7167  0.0098
 1983SOL     OW17407   2.364   0.669  14.451  0.0923  0.3389 -0.1099
 1983SOL    HW117408   2.385   0.696  14.362 -4.4483 -2.0936 -1.9313
 1983SOL    HW217409   2.421   0.593  14.458 -0.7014 -0.4116 -1.8167
 1984SOL     OW17410   0.341   0.050   3.405  0.6607  0.2706  0.1747
 1984SOL    HW117411   0.283   0.047   3.482 -0.1312 -0.5076 -0.4481
 1984SOL    HW217412   0.425   0.021   3.440  0.5066 -3.0755 -2.3168
 1985SOL     OW17413   3.458   4.125  12.992 -0.2079  0.0097  0.6132
 1985SOL    HW117414   3.436   4.129  13.085 -0.5775  5.4452  0.3022
 1985SOL    HW217415   3.396   4.193  12.963  0.4658 -0.1289 -1.1465
 1986SOL     OW17416   2.037   2.611   3.530  0.3228  0.6324  0.1047
 1986SOL    HW117417   1.967   2.549   3.547  0.3645 -0.0611 -2.2134
 1986SOL    HW217418   2.116   2.558   3.522 -0.6925 -0.6240 -1.3991
 1987SOL     OW17419   4.092   3.416   4.891  0.1646  0.2562  0.2846
 1987SOL    HW117420   4.034   3.359   4.841  0.0428  2.1260 -1.7069
 1987SOL    HW217421   4.156   3.436   4.822 -0.2130  2.6230  0.6184
 1988SOL     OW17422   1.681   2.018   7.117  0.4686 -0.0695 -0.3926
 1988SOL    HW117423   1.753   2.045   7.059  1.8090 -2.9666 -0.0686
 1988SOL    HW217424   1.709   1.928   7.103  1.0833  0.1163 -0.3710
 1989SOL     OW17425   4.325   1.151   4.059 -0.0085  0.1402 -0.0343
 1989SOL    HW117426   4.357   1.060   4.065 -1.2309 -0.3398 -0.8605
 1989SOL    HW217427   4.310   1.173   4.151 -2.6717  1.2667 -0.7625
 1990SOL     OW17428   3.910   0.400   5.013  0.3056  0.0447 -0.1284
 1990SOL    HW117429   3.851   0.428   5.082 -0.5658 -0.1723 -0.7794
 1990SOL    HW217430   3.982   0.462   5.026 -0.9029  0.9863  1.9734
 1991SOL     OW17431   4.583   0.149  15.031  0.4112  0.1676 -0.3790
 1991SOL    HW117432   4.648   0.133  15.099  0.6921  1.4179 -0.3549
 1991SOL    HW217433   4.628   0.211  14.974  1.7291 -2.7174 -2.4765
 1992SOL     OW17434   4.389   0.332   1.903 -0.2077 -0.4660 -0.1998
 1992SOL    HW117435   4.423   0.256   1.950  1.1812 -0.3113 -0.9792
 1992SOL    HW217436   4.358   0.296   1.820 -0.9101  2.0241 -1.0190
 1993SOL     OW17437   3.613   1.961   1.511  0.3411  0.3877 -1.0200
 1993SOL    HW117438   3.561   1.901   1.457 -0.5899  0.0839  0.2242
 1993SOL    HW217439   3.593   1.920   1.595 -2.9222  1.9120 -1.0462
 1994SOL     OW17440   2.383   0.812   0.487 -0.1704 -0.4638  0.4168
 1994SOL    HW117441   2.447   0.805   0.416  1.9230 -1.5490  2.4412
 1994SOL    HW217442   2.361   0.903   0.506 -1.7421 -1.2311  2.2599
 1995SOL     OW17443   1.473   2.314   7.504 -0.0924 -0.1912  0.3342
 1995SOL    HW117444   1.393   2.330   7.454 -0.2069  0.3342  0.6896
 1995SOL    HW217445   1.523   2.245   7.460  0.1813  0.4488 -0.3563
 1996SOL     OW17446   0.792   2.439   7.301  0.1427  0.5829  0.0443
 1996SOL    HW117447   0.727   2.369   7.311  1.1673 -0.4152 -0.4189
 1996SOL    HW217448   0.852   2.403   7.366  0.7194 -1.5857 -1.7201
 1997SOL     OW17449   0.350   2.422  15.486 -0.1000 -0.0102 -0.7053
 1997SOL    HW117450   0.356   2.479  15.563 -1.0429 -1.3247  0.3270
 1997SOL    HW217451   0.353   2.482  15.411  0.5376  0.7708 -0.0639
 1998SOL     OW17452   4.413   2.065   7.010 -0.2563  0.2985  1.1415
 1998SOL    HW117453   4.367   1.985   7.038 -1.0270  1.3022  2.7040
 1998SOL    HW217454   4.349   2.095   6.944  0.8593 -0.9964 -0.5309
 1999SOL     OW17455   0.235   3.394  15.850  0.0708 -0.6115 -0.1717
 1999SOL    HW117456   0.281   3.474  15.876  0.4150 -0.4751 -1.1978
 1999SOL    HW217457   0.230   3.343  15.931 -1.7054 -0.1564  0.0079
 2000SOL     OW17458   4.427   1.451   7.208 -0.5085  0.1178  0.0284
 2000SOL    HW117459   4.507   1.476   7.255  0.3098  0.2115 -1.4008
 2000SOL    HW217460   4.415   1.527   7.150  0.8981 -0.5993 -1.2233
 2001SOL     OW17461   1.168   0.783   0.584 -0.7260  0.1903  0.5740
 2001SOL    HW117462   1.231   0.855   0.587  0.0740 -0.5020  0.3414
 2001SOL    HW217463   1.194   0.736   0.663  1.3766  0.8468  0.2564
 2002SOL     OW17464   0.480   0.599   5.829 -0.6147 -0.0269  0.1236
 2002SOL    HW117465   0.477   0.567   5.919  0.5358 -0.2844  0.0703
 2002SOL    HW217466   0.572   0.586   5.805 -0.9106 -1.8475 -0.0296
 2003SOL     OW17467   2.210   1.678  13.836  0.2242 -0.0844  0.0887
 2003SOL    HW117468   2.191   1.616  13.766  1.3543  2.2783 -2.2980
 2003SOL    HW217469   2.179   1.631  13.914  0.1640  1.4480  0.9857
 2004SOL     OW17470   3.688   0.759   3.562 -0.7985  0.3371  0.0118
 2004SOL    HW117471   3.643   0.771   3.646 -0.8527 -0.2799  0.0726
 2004SOL    HW217472   3.737   0.678   3.579  1.5471  1.3438 -1.9963
 2005SOL     OW17473   0.144   2.147   2.539  0.2634 -0.0691 -0.8886
 2005SOL    HW117474   0.235   2.122   2.559  0.4793  2.2705  0.9786
 2005SOL    HW217475   0.144   2.241   2.555  0.3191 -0.0810 -0.8170
 2006SOL     OW17476   0.214   4.589   3.703 -0.0626  0.4560 -0.3750
 2006SOL    HW117477   0.135   4.604   3.650  0.0035 -0.8490 -0.8589
 2006SOL    HW217478   0.178   4.643   3.773  2.3184  1.0337  0.3917
 2007SOL     OW17479   2.782   1.262   4.347  0.5671  0.0189  0.8342
 2007SOL    HW117480   2.818   1.324   4.284 -1.9535  1.4884  0.8427
 2007SOL    HW217481   2.727   1.323   4.395 -0.6781  1.0459 -1.9118
 2008SOL     OW17482   1.762   4.404   7.076  0.0444  0.1605 -0.5917
 2008SOL    HW117483   1.768   4.309   7.076 -3.8021 -0.0776  0.3648
 2008SOL    HW217484   1.681   4.414   7.126  0.4381  0.4890 -0.0170
 2009SOL     OW17485   1.119   1.600   8.091 -0.2692  0.1374 -0.9606
 2009SOL    HW117486   1.057   1.673   8.089  1.2482  1.4525  0.3805
 2009SOL    HW217487   1.060   1.525   8.098 -0.5017  0.4387  0.3988
 2010SOL     OW17488   0.840   2.064   8.653 -0.2485  0.2139  0.0931
 2010SOL    HW117489   0.863   2.131   8.717  0.3293 -0.6490  0.7893
 2010SOL    HW217490   0.887   2.101   8.578  0.4094  0.2907  0.5465
 2011SOL     OW17491   4.192   0.864  13.601  0.3370 -0.1100 -0.9078
 2011SOL    HW117492   4.167   0.930  13.536  1.3751  1.5895  0.4266
 2011SOL    HW217493   4.214   0.921  13.674  1.6089 -1.0347 -0.5717
 2012SOL     OW17494   2.913   4.403  11.486 -0.0351  0.1628  0.3835
 2012SOL    HW117495   2.928   4.492  11.456 -0.7364 -0.1115 -0.7593
 2012SOL    HW217496   2.996   4.359  11.508 -0.4905 -0.7753  0.2220
 2013SOL     OW17497   2.437   0.943   8.355 -0.5056  0.1676  0.3690
 2013SOL    HW117498   2.484   0.946   8.438  0.9488 -0.9463 -0.4005
 2013SOL    HW217499   2.397   0.857   8.345 -1.6284  0.8983 -1.4223
 2014SOL     OW17500   1.529   1.970   6.296  0.3793 -0.1858 -0.5591
 2014SOL    HW117501   1.589   1.987   6.224 -0.5340  2.3708 -0.7393
 2014SOL    HW217502   1.505   2.059   6.324  2.2215  0.0970  0.1072
 2015SOL     OW17503   0.345   1.127   7.706  0.1391  0.2117  0.0634
 2015SOL    HW117504   0.404   1.056   7.732  0.7170 -0.3472 -2.7495
 2015SOL    HW217505   0.385   1.165   7.628 -1.3612 -0.7549 -1.1837
 2016SOL     OW17506   2.169   2.471  12.416 -0.4659  0.5367 -0.0067
 2016SOL    HW117507   2.197   2.559  12.442  1.0254  0.3579 -0.9373
 2016SOL    HW217508   2.082   2.494  12.383 -0.6786 -1.7073 -0.9771
 2017SOL     OW17509   1.439   0.366   7.435 -0.5813 -0.3622  0.1356
 2017SOL    HW117510   1.356   0.412   7.424 -0.5744  0.0025  1.5851
 2017SOL    HW217511   1.444   0.341   7.528 -0.4654 -0.5856  0.0696
 2018SOL     OW17512   0.671   1.540   3.085  0.3125  0.3793 -0.6264
 2018SOL    HW117513   0.688   1.519   2.993  1.8427  0.7773 -0.4307
 2018SOL    HW217514   0.725   1.476   3.133  0.6718  1.0243 -0.1717
 2019SOL     OW17515   1.845   1.460   3.985  0.0193 -0.4628  0.1383
 2019SOL    HW117516   1.824   1.469   4.078 -3.5751 -2.4663 -0.4915
 2019SOL    HW217517   1.838   1.550   3.954  0.3806 -1.3596 -2.5091
 2020SOL     OW17518   1.873   0.683  14.965 -0.5728  0.1757  0.2327
 2020SOL    HW117519   1.788   0.640  14.969 -0.6328  0.3003  0.2925
 2020SOL    HW217520   1.920   0.625  14.906 -0.9503 -0.3396  0.4451
 2021SOL     OW17521   0.843   3.494   3.476  0.5239  0.6804  0.1136
 2021SOL    HW117522   0.919   3.500   3.533 -0.0833  1.5582  0.8298
 2021SOL    HW217523   0.870   3.446   3.398 -1.9007 -0.0501 -0.2776
 2022SOL     OW17524   1.906   0.145   9.666  0.3714 -0.1022 -0.2679
 2022SOL    HW117525   1.874   0.228   9.629 -0.0620 -0.7270 -1.3096
 2022SOL    HW217526   1.913   0.089   9.588 -1.5985 -3.1447  1.7354
 2023SOL     OW17527   1.049   0.315   4.367 -0.2617 -0.8196  0.6213
 2023SOL    HW117528   1.113   0.365   4.417 -0.4898  0.6644 -0.5677
 2023SOL    HW217529   1.104   0.255   4.316 -1.7939  0.0898 -2.0466
 2024SOL     OW17530   3.394   1.058   9.551  0.4088  0.1214 -0.2362
 2024SOL    HW117531   3.478   1.099   9.530 -0.4020  1.8561 -0.1563
 2024SOL    HW217532   3.374   1.035   9.461 -0.1562  0.1973 -0.1357
 2025SOL     OW17533   3.852   2.876   8.873  0.2272  0.3050 -0.5417
 2025SOL    HW117534   3.844   2.969   8.894 -1.3031  0.8230 -3.5344
 2025SOL    HW217535   3.767   2.842   8.900  0.8578  0.7639  2.1001
 2026SOL     OW17536   4.607   1.138   8.467 -0.4564 -0.2983 -0.2961
 2026SOL    HW117537   4.680   1.144   8.528 -1.2589  1.0779  0.5365
 2026SOL    HW217538   4.642   1.165   8.382 -1.4097 -1.2806 -1.0086
 2027SOL     OW17539   3.562   0.969   0.474 -0.2708  0.3465 -0.0688
 2027SOL    HW117540   3.625   0.914   0.520 -0.2181 -0.7780 -1.5097
 2027SOL    HW217541   3.489   0.908   0.465  1.4779 -2.0187  1.7650
 2028SOL     OW17542   0.543   4.297  11.271 -0.8080 -0.5246  0.2300
 2028SOL    HW117543   0.533   4.256  11.356 -1.1878  0.3489  0.6029
 2028SOL    HW217544   0.560   4.212  11.230 -1.1519 -0.5745  0.1889
 2029SOL     OW17545   3.004   4.712  14.689  0.0833 -0.3754  0.1393
 2029SOL    HW117546   3.014   4.648  14.619 -0.5519 -0.6647  0.3125
 2029SOL    HW217547   3.097   4.718  14.713 -0.2607  1.2180  1.0361
 2030SOL     OW17548   0.884   2.556   8.506 -0.3235 -0.1821  0.0765
 2030SOL    HW117549   0.953   2.551   8.440  0.1129  1.5132  0.4199
 2030SOL    HW217550   0.913   2.637   8.548  2.2294 -1.7165  1.3511
 2031SOL     OW17551   3.330   1.293   1.216  0.2342 -0.0903 -0.5842
 2031SOL    HW117552   3.324   1.328   1.305  2.2743 -0.6721 -0.2104
 2031SOL    HW217553   3.359   1.204   1.237 -1.6402 -0.2487  1.3034
 2032SOL     OW17554   2.830   2.409   7.496 -0.5098  0.4053  0.2433
 2032SOL    HW117555   2.886   2.406   7.419  1.7148  0.5667  1.8508
 2032SOL    HW217556   2.774   2.334   7.477  2.6985 -1.8734 -0.2190
 2033SOL     OW17557   3.807   4.627  11.390  0.2110 -0.0658  0.0301
 2033SOL    HW117558   3.759   4.564  11.337  1.8610 -0.1050 -1.4368
 2033SOL    HW217559   3.883   4.651  11.337  1.9368 -0.6696  2.2259
 2034SOL     OW17560   3.365   3.212   8.421  0.0602  0.0743 -0.1310
 2034SOL    HW117561   3.407   3.297   8.430 -0.7686  0.4490  0.2291
 2034SOL    HW217562   3.303   3.205   8.494 -2.5679 -2.0685 -2.5688
 2035SOL     OW17563   2.778   0.247   4.489 -0.3562  0.0099  0.3643
 2035SOL    HW117564   2.745   0.317   4.434 -0.9317 -1.2781 -0.9236
 2035SOL    HW217565   2.770   0.291   4.574 -0.3075 -0.5442  0.6570
 2036SOL     OW17566   3.877   2.738   5.154  0.3819  0.0342 -0.0692
 2036SOL    HW117567   3.820   2.791   5.210 -0.3101 -0.3645 -0.4011
 2036SOL    HW217568   3.817   2.671   5.122 -0.8148  0.9005  0.3309
 2037SOL     OW17569   3.656   4.710   6.787  0.0640 -0.1106 -0.3227
 2037SOL    HW117570   3.612   4.653   6.849 -1.1589  1.0363 -0.1269
 2037SOL    HW217571   3.579   0.019   6.739 -1.3652 -0.5566  1.6450
 2038SOL     OW17572   3.810   4.454   0.991 -0.0997  0.3917  0.0217
 2038SOL    HW117573   3.780   4.537   1.029 -1.3499 -0.3256  0.5953
 2038SOL    HW217574   3.731   4.401   0.999  0.1667  0.1056  0.8731
 2039SOL     OW17575   3.331   0.277   4.693 -0.0508  0.2736  0.0821
 2039SOL    HW117576   3.240   0.250   4.704 -0.5685  1.0983 -2.2494
 2039SOL    HW217577   3.359   0.222   4.620  3.3559  0.7758  0.9916
 2040SOL     OW17578   4.612   4.191   0.542  0.2312  0.1074 -0.3378
 2040SOL    HW117579   4.567   4.245   0.477 -0.9570 -0.2232  0.2087
 2040SOL    HW217580   4.657   4.128   0.485 -1.4695 -1.0465 -0.4200
 2041SOL     OW17581   1.359   1.680   5.920  0.1966  0.3227  0.1821
 2041SOL    HW117582   1.354   1.697   6.014  2.4168  4.0608 -0.3942
 2041SOL    HW217583   1.451   1.696   5.901 -0.2831 -0.0385 -2.5181
 2042SOL     OW17584   3.645   0.473  17.676  0.2320  0.0866  0.4123
 2042SOL    HW117585   3.721   0.449   0.035  0.0828  1.4669  1.2548
 2042SOL    HW217586   3.645   0.410  17.604  0.1692  0.2721  0.2496
 2043SOL     OW17587   0.804   2.837   2.792  0.2311 -0.0347  0.3488
 2043SOL    HW117588   0.750   2.838   2.872  0.0546 -0.0797  0.2294
 2043SOL    HW217589   0.734   2.825   2.728  0.7206  2.1225 -0.5934
 2044SOL     OW17590   2.795   2.396   6.323  0.2693 -0.2368 -0.1750
 2044SOL    HW117591   2.832   2.395   6.411 -2.8209  0.6155  1.1579
 2044SOL    HW217592   2.868   2.371   6.267 -0.2754 -1.9852 -0.1101
 2045SOL     OW17593   2.766   3.998  10.188 -0.0867  0.2660  0.5116
 2045SOL    HW117594   2.789   4.056  10.115  0.5266 -1.4230 -0.6490
 2045SOL    HW217595   2.685   3.961  10.154  0.4147 -0.4045  0.0367
 2046SOL     OW17596   1.954   0.363   9.859  0.2617 -0.0466  0.0667
 2046SOL    HW117597   1.953   0.363   9.763 -0.8717 -2.2185  0.0791
 2046SOL    HW217598   1.859   0.358   9.862  0.1765  1.1801 -0.5038
 2047SOL     OW17599   4.336   4.325   6.174  0.3083 -0.1451 -0.2799
 2047SOL    HW117600   4.339   4.405   6.121  1.7616 -0.6208 -0.9393
 2047SOL    HW217601   4.264   4.343   6.234  0.9009  0.7614  0.1656
 2048SOL     OW17602   4.699   3.270   2.878  0.4596 -0.2240 -0.2726
 2048SOL    HW117603   4.624   3.266   2.937  0.2057  0.8537 -0.5384
 2048SOL    HW217604   4.671   3.330   2.809  0.0366 -2.2025 -1.8238
 2049SOL     OW17605   3.129   0.013   5.662 -0.8091 -0.5069 -0.2085
 2049SOL    HW117606   3.073   0.071   5.712  1.0746  0.6969  0.5191
 2049SOL    HW217607   3.101   0.032   5.573 -0.3846  1.5166  0.1066
 2050SOL     OW17608   2.668   3.539   1.342 -0.1178  0.0314 -0.0334
 2050SOL    HW117609   2.753   3.533   1.387 -0.5127 -2.2811  0.4050
 2050SOL    HW217610   2.689   3.485   1.267  2.2954  1.6883 -0.5570
 2051SOL     OW17611   0.853   0.892  11.708  0.0360  0.2210  0.3882
 2051SOL    HW117612   0.852   0.804  11.745  0.1839  0.3352  0.6682
 2051SOL    HW217613   0.943   0.905  11.678 -0.6093  0.3544 -1.4699
 2052SOL     OW17614   3.621   0.597   4.797  0.1014 -0.4499 -0.1317
 2052SOL    HW117615   3.653   0.622   4.884 -0.9481 -0.4702  0.2595
 2052SOL    HW217616   3.653   0.674   4.750  1.3189 -0.3806  0.8114
 2053SOL     OW17617   3.212   4.051   2.987  0.4886  0.4370 -0.2000
 2053SOL    HW117618   3.243   4.140   3.003 -0.3591  0.5778  0.6655
 2053SOL    HW217619   3.274   4.013   3.050 -2.0243 -0.4311  1.7382
 2054SOL     OW17620   1.840   0.680   4.735  0.2422  0.0650 -0.2117
 2054SOL    HW117621   1.782   0.610   4.707  1.1892 -1.5492  1.8943
 2054SOL    HW217622   1.924   0.634   4.741 -0.4208 -1.1345 -0.3073
 2055SOL     OW17623   4.603   0.190   9.223 -0.8716 -0.2845 -0.0012
 2055SOL    HW117624   4.628   0.120   9.282 -0.9120  0.5335  0.9841
 2055SOL    HW217625   4.601   0.264   9.283 -0.2576  0.1337 -0.4953
 2056SOL     OW17626   0.838   1.800   3.166 -0.5676  0.2731 -0.2908
 2056SOL    HW117627   0.870   1.712   3.147  2.7807  1.9609 -2.4190
 2056SOL    HW217628   0.920   1.850   3.172  0.4682 -1.4563  0.0213
 2057SOL     OW17629   1.900   3.090   4.266  0.3376 -0.0250 -0.6600
 2057SOL    HW117630   1.848   3.125   4.338 -1.6622 -1.7775 -1.2328
 2057SOL    HW217631   1.906   2.996   4.288  1.9448  0.0391 -0.7966
 2058SOL     OW17632   4.623   1.164   5.240 -0.0222  0.5335  0.0918
 2058SOL    HW117633   4.654   1.088   5.289 -0.1893  0.9403  0.8155
 2058SOL    HW217634   4.658   1.144   5.153  0.1757 -0.8364  0.4840
 2059SOL     OW17635   4.055   1.017   7.664  0.6495  0.5646 -0.4653
 2059SOL    HW117636   4.015   1.089   7.616  0.3256  0.1600 -0.8086
 2059SOL    HW217637   4.042   1.058   7.749  1.8478  0.3462 -0.1753
 2060SOL     OW17638   0.690   2.832  16.867  0.1559 -0.3337 -0.7581
 2060SOL    HW117639   0.613   2.888  16.862  0.5633  0.0892 -2.0322
 2060SOL    HW217640   0.757   2.867  16.810 -0.0382  2.6067  0.8291
 2061SOL     OW17641   1.383   4.234   9.705 -0.7149  0.6408  0.5821
 2061SOL    HW117642   1.290   4.208   9.702 -0.9396  1.4352  0.8603
 2061SOL    HW217643   1.424   4.206   9.623 -0.1745  0.3336  0.9570
 2062SOL     OW17644   0.227   1.569   8.762 -0.1313  0.6724 -0.4743
 2062SOL    HW117645   0.282   1.533   8.831 -3.3383  1.1183  2.3614
 2062SOL    HW217646   0.300   1.569   8.701 -0.2701 -1.7389 -0.6239
 2063SOL     OW17647   0.144   0.587   3.514  0.7102 -0.2153  0.3886
 2063SOL    HW117648   0.236   0.604   3.494  0.2948  3.1244  1.2263
 2063SOL    HW217649   0.152   0.548   3.601 -0.8371  2.3039  1.6807
 2064SOL     OW17650   3.522   1.461   7.832 -0.4483 -0.0946  0.8616
 2064SOL    HW117651   3.436   1.503   7.824  0.2602  1.3109  0.6378
 2064SOL    HW217652   3.575   1.541   7.822 -1.3037  0.2633 -0.8460
 2065SOL     OW17653   1.186   1.732   5.296 -0.1710  0.0834  0.8299
 2065SOL    HW117654   1.098   1.762   5.271 -0.5340 -0.2672  1.7171
 2065SOL    HW217655   1.228   1.818   5.302  1.3939 -0.5212 -1.4096
 2066SOL     OW17656   3.436   1.364   2.042  0.2119 -0.3863 -0.3869
 2066SOL    HW117657   3.489   1.293   2.006 -2.2035 -1.7240 -1.3548
 2066SOL    HW217658   3.347   1.328   2.041  0.2099 -0.3799 -0.4321
 2067SOL     OW17659   3.581   4.469   2.546 -1.1023  0.1872  0.0243
 2067SOL    HW117660   3.578   4.487   2.640  1.1392 -0.1728  0.1545
 2067SOL    HW217661   3.543   4.381   2.541 -2.2270  0.7752 -1.7980
 2068SOL     OW17662   4.403   3.011   5.332 -0.2475  0.0158  0.8294
 2068SOL    HW117663   4.469   3.077   5.351 -0.1671 -0.1086  0.9754
 2068SOL    HW217664   4.333   3.045   5.388 -1.3360 -2.9862  1.2981
 2069SOL     OW17665   1.464   0.743   9.858  0.5490 -0.0828  0.2391
 2069SOL    HW117666   1.540   0.794   9.886  2.6748 -2.4790 -1.2380
 2069SOL    HW217667   1.408   0.819   9.844 -1.4977 -1.4719  0.7387
 2070SOL     OW17668   1.938   4.299  17.677  0.0421 -0.3878  0.2416
 2070SOL    HW117669   1.994   4.362  17.632 -1.2056  0.6466  0.1164
 2070SOL    HW217670   1.991   4.293   0.062  0.2526 -1.3980  0.0269
 2071SOL     OW17671   4.213   2.154   8.931 -0.0007  0.7768  0.2137
 2071SOL    HW117672   4.132   2.104   8.922  0.6241 -0.6629  2.8323
 2071SOL    HW217673   4.267   2.079   8.905 -0.2380  0.8296 -0.4291
 2072SOL     OW17674   1.550   2.939   5.696  0.2930  0.2287 -0.2735
 2072SOL    HW117675   1.544   2.850   5.731 -1.7114 -0.2447 -1.7814
 2072SOL    HW217676   1.641   2.944   5.668  0.9056  1.8242  2.0676
 2073SOL     OW17677   2.856   4.308   3.785 -0.2541  0.0325 -0.2679
 2073SOL    HW117678   2.813   4.293   3.701 -0.2762  0.2559 -0.2964
 2073SOL    HW217679   2.854   4.403   3.778 -0.3868  0.0533  0.0642
 2074SOL     OW17680   1.319   1.061   7.408 -0.7320  0.4815 -0.0623
 2074SOL    HW117681   1.395   1.037   7.354 -0.0623  1.0496  0.6244
 2074SOL    HW217682   1.357   1.039   7.494 -1.9786  1.5955  0.7705
 2075SOL     OW17683   0.294   0.318   2.950  0.0235  0.3623 -0.7169
 2075SOL    HW117684   0.365   0.331   2.887  1.4300  0.2835  0.8539
 2075SOL    HW217685   0.286   0.223   2.956  1.2487  0.5144  3.0517
 2076SOL     OW17686   4.083   3.274   1.779  0.4043  0.2568  0.2620
 2076SOL    HW117687   4.164   3.285   1.729 -0.0986  0.5120 -0.5006
 2076SOL    HW217688   4.052   3.359   1.808 -0.2660 -0.5200  1.8186
 2077SOL     OW17689   4.357   2.773   4.770 -0.1959  0.0480 -1.0974
 2077SOL    HW117690   4.342   2.721   4.849 -1.8321  2.1020 -0.0712
 2077SOL    HW217691   4.453   2.780   4.765 -0.3479  2.4472 -0.5433
 2078SOL     OW17692   2.545   3.711   2.602  0.0219 -0.4206  0.1393
 2078SOL    HW117693   2.528   3.702   2.509 -0.1919  0.4572  0.0995
 2078SOL    HW217694   2.576   3.801   2.597 -1.7074  0.2335  1.4051
 2079SOL     OW17695   1.785   2.948   0.853 -0.1166  0.1798 -0.6502
 2079SOL    HW117696   1.714   3.011   0.844 -3.4984 -3.4862  0.5840
 2079SOL    HW217697   1.849   2.977   0.788  1.6798 -1.5578  0.3432
 2080SOL     OW17698   1.855   2.858   3.450  0.7107 -0.0779 -0.5777
 2080SOL    HW117699   1.907   2.892   3.523 -1.3135 -0.2525  0.9311
 2080SOL    HW217700   1.792   2.811   3.504  1.4803 -0.1071  0.2979
 2081SOL     OW17701   2.201   0.548  14.631  0.0374 -0.1286  0.0703
 2081SOL    HW117702   2.257   0.614  14.589  1.0006 -1.7206 -1.2014
 2081SOL    HW217703   2.192   0.503  14.546  0.2770  0.1173 -0.0872
 2082SOL     OW17704   4.131   2.476  10.373  0.2142  0.2202 -0.0340
 2082SOL    HW117705   4.197   2.424  10.327 -0.0740 -1.7069  1.7267
 2082SOL    HW217706   4.114   2.423  10.451 -4.7089 -0.7671 -1.7607
 2083SOL     OW17707   1.735   2.134  10.688  0.3286  0.3079 -0.5984
 2083SOL    HW117708   1.808   2.072  10.701  0.5502  1.3677  3.1148
 2083SOL    HW217709   1.691   2.075  10.626 -0.7745  1.3455 -0.7896
 2084SOL     OW17710   3.766   1.359  13.509 -0.7122 -0.1465 -0.1103
 2084SOL    HW117711   3.689   1.416  13.506 -0.2704  0.4627  0.2125
 2084SOL    HW217712   3.752   1.306  13.430  1.3924 -1.4308  0.3971
 2085SOL     OW17713   2.254   1.592   5.084  0.6238  0.0490  0.1557
 2085SOL    HW117714   2.162   1.613   5.097  0.6933  0.1541  0.4856
 2085SOL    HW217715   2.296   1.676   5.104 -2.3035  1.0842  1.8952
 2086SOL     OW17716   4.487   4.564   2.284 -0.2547  0.0407 -0.3645
 2086SOL    HW117717   4.518   4.655   2.284 -1.4175  0.4472  1.1304
 2086SOL    HW217718   4.410   4.568   2.341  0.2505  0.2402  0.3161
 2087SOL     OW17719   3.159   2.335  16.921 -0.2858 -0.0102 -0.3057
 2087SOL    HW117720   3.161   2.275  16.995 -3.9779 -1.5511 -1.4564
 2087SOL    HW217721   3.243   2.320  16.879 -0.2733  1.6940 -0.9010
 2088SOL     OW17722   1.773   3.145   6.064  0.2053 -0.7708 -0.2001
 2088SOL    HW117723   1.841   3.095   6.109  0.6095 -0.3062 -0.2907
 2088SOL    HW217724   1.692   3.125   6.109 -0.2639  2.0204  0.2256
 2089SOL     OW17725   3.636   3.630  17.298 -0.3023 -0.6819 -0.1451
 2089SOL    HW117726   3.615   3.539  17.277 -1.1869 -0.3420 -0.7594
 2089SOL    HW217727   3.573   3.645  17.368  1.1468  0.7189  0.8465
 2090SOL     OW17728   4.640   4.049   1.076  0.6392 -0.0892  0.0305
 2090SOL    HW117729   4.562   4.069   1.129  0.4591 -3.2396  0.9331
 2090SOL    HW217730   4.654   4.127   1.022 -0.2629  0.9802  1.3232
 2091SOL     OW17731   0.526   3.274   3.716  0.5759  0.0975  0.5913
 2091SOL    HW117732   0.597   3.336   3.697  0.2451  0.3478  0.1780
 2091SOL    HW217733   0.579   3.196   3.699  0.0254 -0.4389  1.3449
 2092SOL     OW17734   1.331   3.985   2.701  0.1076  0.5732 -0.1775
 2092SOL    HW117735   1.358   4.040   2.627  0.5535  1.4033  0.6136
 2092SOL    HW217736   1.240   3.973   2.672 -0.5192  0.0813  2.0257
 2093SOL     OW17737   2.381   0.510   4.030 -0.1870  0.3312 -0.1822
 2093SOL    HW117738   2.419   0.595   4.005 -0.0516  0.1762 -0.5006
 2093SOL    HW217739   2.290   0.531   4.051 -0.1813 -1.5058  1.6460
 2094SOL     OW17740   2.458   2.360   3.779 -0.3889 -0.0049  0.3979
 2094SOL    HW117741   2.461   2.407   3.862  0.2235  0.6446  0.0090
 2094SOL    HW217742   2.470   2.268   3.803  0.7311  0.7539  2.7512
 2095SOL     OW17743   2.751   1.552   9.019  0.4971 -0.0927  0.5469
 2095SOL    HW117744   2.700   1.586   9.092  0.5196  1.4666 -0.1552
 2095SOL    HW217745   2.733   1.621   8.955  2.1494  0.9785  1.2588
 2096SOL     OW17746   2.464   0.955   4.973  0.7159 -0.0608 -0.0637
 2096SOL    HW117747   2.493   0.887   5.033  3.6227  0.0166 -1.4018
 2096SOL    HW217748   2.480   0.925   4.883 -0.8180  1.4231 -0.8519
 2097SOL     OW17749   0.274   1.056   3.412  0.2055 -0.0518  0.5570
 2097SOL    HW117750   0.198   1.085   3.462 -2.5050 -3.1017 -1.7626
 2097SOL    HW217751   0.300   1.132   3.360  1.7605 -0.2194  1.0704
 2098SOL     OW17752   3.359   0.416   6.256  0.2083 -0.2238  0.2879
 2098SOL    HW117753   3.318   0.333   6.229 -0.2032  0.1675 -0.2783
 2098SOL    HW217754   3.436   0.383   6.302  0.5768 -2.6523 -2.0228
 2099SOL     OW17755   1.922   0.472   7.475 -0.1929 -0.4293 -0.1481
 2099SOL    HW117756   1.833   0.506   7.468  0.2244  0.1644 -2.7167
 2099SOL    HW217757   1.952   0.487   7.385  0.9272 -2.3774 -0.0987
 2100SOL     OW17758   3.208   2.624   9.547 -0.4381 -0.3196  0.3364
 2100SOL    HW117759   3.113   2.612   9.552 -0.4671  0.0575  0.7112
 2100SOL    HW217760   3.243   2.576   9.622 -1.7653 -0.0444  1.1245
 2101SOL     OW17761   1.485   1.234   3.736  0.0931 -0.0832 -0.2352
 2101SOL    HW117762   1.480   1.141   3.714  2.3868 -0.2501 -0.0555
 2101SOL    HW217763   1.558   1.232   3.798  0.0985  0.8651 -0.2211
 2102SOL     OW17764   2.977   1.707   9.583  0.4666  0.3677 -0.4555
 2102SOL    HW117765   3.063   1.700   9.540  0.3603  0.3292 -0.6656
 2102SOL    HW217766   2.941   1.619   9.575  2.1186 -0.4257  0.8918
 2103SOL     OW17767   2.694   1.101  10.445 -0.4341  0.8226 -0.1966
 2103SOL    HW117768   2.769   1.153  10.415  0.3758 -0.1454  0.1336
 2103SOL    HW217769   2.632   1.169  10.469 -2.1327 -0.2179 -1.6498
 2104SOL     OW17770   1.201   2.383   8.802  0.3117  0.0204  0.3926
 2104SOL    HW117771   1.278   2.413   8.851  0.2698 -2.2977  1.8426
 2104SOL    HW217772   1.153   2.464   8.784  0.2557 -0.2831 -0.8000
 2105SOL     OW17773   0.601   3.071   5.300 -0.3896 -0.3298 -0.1006
 2105SOL    HW117774   0.569   3.157   5.326 -0.3664 -0.2680 -0.2803
 2105SOL    HW217775   0.585   3.071   5.206 -1.6802  0.3981  0.1302
 2106SOL     OW17776   3.913   1.503   3.524 -0.2398 -0.2176 -0.4130
 2106SOL    HW117777   3.821   1.507   3.549  0.5462  0.7625  2.3776
 2106SOL    HW217778   3.942   1.430   3.579 -1.3190  0.3143  0.8543
 2107SOL     OW17779   1.535   0.445  11.371  0.2404  0.5471 -0.1792
 2107SOL    HW117780   1.611   0.499  11.349  0.6314  0.5484  1.1526
 2107SOL    HW217781   1.584   0.387  11.430 -1.6799 -0.5352  0.3560
 2108SOL     OW17782   1.327   2.147   8.219  0.3896 -0.6333  0.2641
 2108SOL    HW117783   1.288   2.197   8.147  0.0051 -1.4741 -0.0998
 2108SOL    HW217784   1.368   2.216   8.273 -0.4622 -0.9834  1.3451
 2109SOL     OW17785   1.322   1.723  15.923  0.1172 -0.7411 -0.1699
 2109SOL    HW117786   1.300   1.806  15.964 -1.8504 -2.1787  1.6860
 2109SOL    HW217787   1.387   1.749  15.858 -2.1042  1.5149 -1.5161
 2110SOL     OW17788   0.925   0.165  11.295  0.1804 -0.1848  0.2934
 2110SOL    HW117789   0.839   0.124  11.300 -0.2431  0.5194 -0.9601
 2110SOL    HW217790   0.929   0.186  11.388 -1.1046  0.0014  0.3009
 2111SOL     OW17791   1.998   3.905   5.213 -0.6083  0.3600 -0.5606
 2111SOL    HW117792   1.981   3.813   5.196 -1.4747  0.5632 -0.8075
 2111SOL    HW217793   2.088   3.897   5.246 -0.7827  0.6288 -0.0151
 2112SOL     OW17794   1.020   3.456   7.070  0.1559 -0.0389 -0.5786
 2112SOL    HW117795   0.991   3.419   7.153  0.3667  1.4931  0.1767
 2112SOL    HW217796   1.086   3.520   7.098  1.7287 -2.2343  0.6817
 2113SOL     OW17797   3.073   1.116   7.066 -0.6999  0.0890  0.2268
 2113SOL    HW117798   3.091   1.023   7.058  0.6520  0.6665 -3.2390
 2113SOL    HW217799   3.117   1.141   7.148  0.4576 -0.6036 -0.1885
 2114SOL     OW17800   1.287   4.672   7.032  0.8212 -0.0157  0.5132
 2114SOL    HW117801   1.323   4.643   7.116  0.7909  0.7705  0.7930
 2114SOL    HW217802   1.197   4.641   7.041  0.2323  2.0978  1.8988
 2115SOL     OW17803   1.102   1.306  16.464  0.1496 -0.1755  0.1088
 2115SOL    HW117804   1.070   1.217  16.480 -0.3551  0.2306  1.3835
 2115SOL    HW217805   1.129   1.336  16.551 -1.3814 -2.8486  1.4991
 2116SOL     OW17806   3.317   4.607   7.278 -0.3452  0.2186  0.6775
 2116SOL    HW117807   3.238   4.607   7.224  0.2519  0.1088 -0.2011
 2116SOL    HW217808   3.345   4.516   7.272 -2.7627 -0.5609  1.1634
 2117SOL     OW17809   3.146   1.523   3.445 -0.8294  0.2105  0.4384
 2117SOL    HW117810   3.238   1.525   3.417 -0.8774 -0.4857  0.2266
 2117SOL    HW217811   3.111   1.503   3.358  0.0490  0.6326 -0.0233
 2118SOL     OW17812   4.320   3.835   1.455  0.2933  0.0636  0.0408
 2118SOL    HW117813   4.321   3.773   1.528 -0.1131  1.3002  1.1151
 2118SOL    HW217814   4.373   3.788   1.392 -0.3217  0.2447 -0.6080
 2119SOL     OW17815   0.061   2.920  10.193 -0.8214 -0.5399 -0.6568
 2119SOL    HW117816   0.079   2.827  10.177 -0.0684 -0.8348  1.9437
 2119SOL    HW217817   0.144   2.963  10.213 -0.7577 -0.6328 -0.7175
 2120SOL     OW17818   1.593   0.263  11.573 -0.6223  0.1067 -0.2740
 2120SOL    HW117819   1.606   0.211  11.652 -3.6858  1.4266  1.1189
 2120SOL    HW217820   1.503   0.296  11.573 -0.9528 -0.8091  0.5583
 2121SOL     OW17821   2.213   2.718   2.706  0.1328  0.1206 -0.0698
 2121SOL    HW117822   2.300   2.684   2.729  0.7444  3.3370  2.3666
 2121SOL    HW217823   2.173   2.652   2.650  1.1456  0.3328 -1.0452
 2122SOL     OW17824   3.530   0.933   6.136  0.0085 -0.3893  0.1565
 2122SOL    HW117825   3.499   0.845   6.161  1.6639 -0.2080  2.8395
 2122SOL    HW217826   3.620   0.937   6.166 -0.0763  1.6573  0.1187
 2123SOL     OW17827   0.957   4.219   8.756  0.0224 -0.2803 -0.1232
 2123SOL    HW117828   0.916   4.264   8.682  1.6111  0.1838 -0.7172
 2123SOL    HW217829   1.031   4.181   8.709 -0.1303  1.7303 -1.9712
 2124SOL     OW17830   4.589   1.644  10.762 -0.1343  0.2574  0.2635
 2124SOL    HW117831   4.641   1.564  10.771 -0.0825  0.2972  0.3214
 2124SOL    HW217832   4.645   1.700  10.708 -0.7483 -0.5013 -1.1495
 2125SOL     OW17833   4.012   0.266   3.043  0.1016 -0.0189  0.0260
 2125SOL    HW117834   4.015   0.234   3.133 -0.2666 -0.7053 -0.2083
 2125SOL    HW217835   3.991   0.188   2.992 -1.3841  0.3887  0.0185
 2126SOL     OW17836   3.008   2.363  10.524  0.0338 -1.2034 -1.1234
 2126SOL    HW117837   2.928   2.329  10.565 -0.0885 -0.9004 -1.1143
 2126SOL    HW217838   3.054   2.395  10.601  1.3724 -0.5051 -2.2183
 2127SOL     OW17839   0.003   4.139   6.113  0.3694 -0.5105 -0.0059
 2127SOL    HW117840   4.692   4.066   6.062 -2.5835 -1.2358  3.0199
 2127SOL    HW217841   0.031   4.090   6.191 -1.8427 -1.5941  0.1180
 2128SOL     OW17842   2.713   3.763   6.565 -0.2762 -0.0012  0.0456
 2128SOL    HW117843   2.712   3.751   6.470 -1.1339  2.0523 -0.1936
 2128SOL    HW217844   2.774   3.836   6.556  1.3516 -1.6238 -2.2057
 2129SOL     OW17845   3.416   3.663  17.448  0.5592 -0.2149 -0.7737
 2129SOL    HW117846   3.355   3.711  17.503  1.6830 -0.1342  0.3863
 2129SOL    HW217847   3.380   3.681  17.361 -1.0569  1.0486  0.1423
 2130SOL     OW17848   0.044   4.529  10.114 -0.2883  0.1095 -0.1214
 2130SOL    HW117849   0.050   4.622  10.135  2.6640 -0.1166  0.0065
 2130SOL    HW217850   0.131   4.496  10.132 -0.2304  0.6091  0.5231
 2131SOL     OW17851   1.328   3.816  10.776  0.3258  0.2062  0.1908
 2131SOL    HW117852   1.408   3.867  10.785  0.2808  0.4609 -0.9052
 2131SOL    HW217853   1.340   3.745  10.840 -0.5315  0.2566  0.4064
 2132SOL     OW17854   2.861   0.348   0.825 -0.0150 -0.1121  0.8080
 2132SOL    HW117855   2.843   0.325   0.916 -1.9105  0.4872  0.5742
 2132SOL    HW217856   2.772   0.363   0.793 -0.7915 -2.4492  1.9151
 2133SOL     OW17857   0.782   4.317   6.100  0.0907 -0.1112 -0.0749
 2133SOL    HW117858   0.729   4.361   6.167  1.0436 -0.8128  1.1470
 2133SOL    HW217859   0.756   4.228   6.121  0.1410 -0.2793 -0.7373
 2134SOL     OW17860   3.159   2.431   8.867  0.9078  0.2029 -0.0246
 2134SOL    HW117861   3.227   2.434   8.800  0.4852  1.4703 -0.4134
 2134SOL    HW217862   3.157   2.338   8.887  0.5442  0.4792  1.2183
 2135SOL     OW17863   4.350   0.105  17.129  0.2027  0.0102  0.0596
 2135SOL    HW117864   4.441   0.096  17.157 -0.0600  1.4027  1.3551
 2135SOL    HW217865   4.320   0.014  17.127  2.6355 -0.7349 -1.7028
 2136SOL     OW17866   1.838   1.543  11.611  0.4862 -0.0612  0.2281
 2136SOL    HW117867   1.761   1.570  11.560  0.5221  0.8308  0.6546
 2136SOL    HW217868   1.912   1.595  11.581  0.6849 -0.7284 -0.4550
 2137SOL     OW17869   3.595   4.499   8.740 -0.2154  0.3689  0.1077
 2137SOL    HW117870   3.555   4.483   8.655  0.9226 -2.0443  0.0215
 2137SOL    HW217871   3.633   4.586   8.728 -1.1197  0.6821 -0.4497
 2138SOL     OW17872   3.511   2.927   2.226 -0.4475 -0.0381  0.0697
 2138SOL    HW117873   3.465   2.900   2.306  1.9791  1.2478  1.9192
 2138SOL    HW217874   3.449   2.971   2.169  0.5365  0.2795 -0.7593
 2139SOL     OW17875   1.340   2.179   2.491 -0.0117  0.0033 -0.1473
 2139SOL    HW117876   1.325   2.248   2.427 -0.9493 -0.7102 -0.7055
 2139SOL    HW217877   1.429   2.156   2.464  0.0977 -0.7980  0.8956
 2140SOL     OW17878   2.089   4.719   4.631  0.3835  0.0388  0.5330
 2140SOL    HW117879   2.086   4.711   4.536  2.2748 -0.0169  0.4818
 2140SOL    HW217880   2.145   4.650   4.666 -0.2814  0.1939  1.9070
 2141SOL     OW17881   2.736   4.334   8.197  0.3340 -0.0263 -0.4360
 2141SOL    HW117882   2.746   4.250   8.241  0.3473  1.0912  1.6868
 2141SOL    HW217883   2.642   4.346   8.211  0.1230  1.1660 -2.7494
 2142SOL     OW17884   3.696   4.584   7.476 -0.6403  0.1784  0.0071
 2142SOL    HW117885   3.631   4.599   7.545  0.7154 -0.6655  1.4790
 2142SOL    HW217886   3.675   4.645   7.405 -0.1818  0.5323  0.1739
 2143SOL     OW17887   2.477   2.470   5.169  0.3757 -0.7746 -0.3244
 2143SOL    HW117888   2.435   2.554   5.152 -1.3850 -1.5704  0.0720
 2143SOL    HW217889   2.467   2.419   5.089 -0.5798 -0.8630 -0.1398
 2144SOL     OW17890   1.999   0.077  11.659 -0.2533  0.1488 -0.7554
 2144SOL    HW117891   1.929   0.017  11.685 -0.8418  1.0335 -0.3228
 2144SOL    HW217892   1.949   0.151  11.626 -3.7896 -2.0465 -0.3557
 2145SOL     OW17893   2.881   2.585   2.913 -0.1621  0.1973  0.4344
 2145SOL    HW117894   2.884   2.668   2.960 -1.0792 -0.1878  1.1778
 2145SOL    HW217895   2.942   2.532   2.965 -1.5909 -1.5495  0.3312
 2146SOL     OW17896   0.304   0.317   8.731 -0.2698 -0.1163 -0.0745
 2146SOL    HW117897   0.255   0.275   8.802 -0.2448  1.2877  0.7677
 2146SOL    HW217898   0.272   0.406   8.742 -0.1720  0.0898 -1.4275
 2147SOL     OW17899   2.611   1.240   2.875 -0.1729  0.2545 -0.4689
 2147SOL    HW117900   2.517   1.226   2.863 -0.3428  0.4384  0.6187
 2147SOL    HW217901   2.651   1.189   2.804 -0.2112  1.5729 -1.4267
 2148SOL     OW17902   4.601   0.215  15.376  0.1932  0.1370  0.4755
 2148SOL    HW117903   4.559   0.169  15.303  1.7915 -1.3075  0.4710
 2148SOL    HW217904   4.531   0.274  15.406 -0.8017  0.0122 -1.5607
 2149SOL     OW17905   0.961   0.593   8.515 -0.2508  0.1843 -0.1009
 2149SOL    HW117906   0.865   0.595   8.521 -0.2918 -2.4355  0.4800
 2149SOL    HW217907   0.978   0.498   8.511 -0.3142  0.1996 -0.7072
 2150SOL     OW17908   0.968   1.945   8.211  0.0110 -0.1750 -0.0798
 2150SOL    HW117909   1.031   1.970   8.143 -0.1905 -0.5885 -0.4186
 2150SOL    HW217910   0.933   1.862   8.180 -0.1870 -0.1471  0.0710
 2151SOL     OW17911   2.241   3.294  10.428  0.0566  0.8443  0.1189
 2151SOL    HW117912   2.157   3.270  10.468 -0.5607 -0.7294 -2.1820
 2151SOL    HW217913   2.229   3.386  10.405 -1.8610  0.3712 -0.7636
 2152SOL     OW17914   3.970   2.317   7.261  0.8192 -0.0180  0.0964
 2152SOL    HW117915   3.939   2.260   7.190  0.7692  0.9705 -0.6713
 2152SOL    HW217916   3.951   2.262   7.337  1.8099  0.6120  0.8032
 2153SOL     OW17917   3.132   2.787   9.223 -0.5664  0.2069  0.3383
 2153SOL    HW117918   3.059   2.729   9.242  0.0702 -0.5163  0.6009
 2153SOL    HW217919   3.162   2.751   9.140  3.3852  1.4090  1.2275
 2154SOL     OW17920   2.675   0.159   6.568  0.8582  0.4043 -0.4200
 2154SOL    HW117921   2.753   0.122   6.609  0.7387 -0.7168 -1.1795
 2154SOL    HW217922   2.707   0.161   6.478 -0.7945  0.3667 -1.0249
 2155SOL     OW17923   4.532   0.602   2.028  0.3278 -0.0039  0.1956
 2155SOL    HW117924   4.443   0.635   2.021  0.7010  0.8186 -0.6953
 2155SOL    HW217925   4.527   0.537   1.957 -2.3878  0.6692 -0.2352
 2156SOL     OW17926   1.255   0.192   5.864  0.1148  0.0591  0.3428
 2156SOL    HW117927   1.197   0.252   5.910 -0.3210  0.6026 -0.9222
 2156SOL    HW217928   1.211   0.108   5.877 -0.2892  0.2997  0.5300
 2157SOL     OW17929   2.660   4.184   7.459  0.2910  0.3005  0.3027
 2157SOL    HW117930   2.702   4.120   7.518 -2.1452 -2.0493 -0.5468
 2157SOL    HW217931   2.650   4.253   7.525 -2.5466  0.1156  0.0332
 2158SOL     OW17932   4.124   4.526  12.069  0.3968 -0.0581  0.3643
 2158SOL    HW117933   4.213   4.490  12.067  0.8360  1.1436 -2.9748
 2158SOL    HW217934   4.133   4.621  12.082  0.4572 -0.1874  1.2481
 2159SOL     OW17935   1.398   2.866   9.250 -0.4426 -0.2053 -0.3108
 2159SOL    HW117936   1.359   2.890   9.334 -1.8989  0.5293 -1.1909
 2159SOL    HW217937   1.491   2.860   9.273 -0.2669  1.0704 -0.6440
 2160SOL     OW17938   4.525   0.128   2.287 -0.9982 -0.1072 -0.0867
 2160SOL    HW117939   4.484   0.118   2.373  1.0072 -1.4755  0.7207
 2160SOL    HW217940   4.516   0.224   2.289 -3.3914 -0.2825 -2.1158
 2161SOL     OW17941   1.366   3.944  12.379 -0.0874 -0.0110 -0.6129
 2161SOL    HW117942   1.417   3.953  12.460 -0.1903 -1.9008 -0.3287
 2161SOL    HW217943   1.404   4.007  12.318 -0.6265 -0.6041 -1.5521
 2162SOL     OW17944   0.487   4.033   8.870 -0.1347  0.1903  0.2371
 2162SOL    HW117945   0.476   3.971   8.798 -1.5647  0.7111 -0.0048
 2162SOL    HW217946   0.581   4.026   8.886 -0.3913 -2.0196  0.7134
 2163SOL     OW17947   1.220   0.036   3.394 -0.1236 -0.4541  0.0096
 2163SOL    HW117948   1.202   4.709   3.473  0.0010  0.0110  0.3303
 2163SOL    HW217949   1.177   4.707   3.326  0.8957  0.0141 -0.9910
 2164SOL     OW17950   1.194   1.111   5.056  0.7086  0.1085 -0.1604
 2164SOL    HW117951   1.118   1.133   5.110  1.9395  1.7000  0.9022
 2164SOL    HW217952   1.255   1.181   5.078  2.1648 -0.9075 -0.9729
 2165SOL     OW17953   0.869   0.032   1.557 -0.3778 -0.2071 -0.1758
 2165SOL    HW117954   0.850   0.109   1.503  0.9848 -0.0285 -0.4131
 2165SOL    HW217955   0.852   4.700   1.481  2.8321  2.4545 -2.8491
 2166SOL     OW17956   1.404   3.423  11.221 -0.5696  0.1148  0.0699
 2166SOL    HW117957   1.455   3.504  11.214 -0.1057 -0.2416 -0.6864
 2166SOL    HW217958   1.384   3.414  11.314 -2.5174 -0.8778 -0.4556
 2167SOL     OW17959   0.692   4.283   4.789 -0.1147 -0.3955  0.0166
 2167SOL    HW117960   0.662   4.314   4.874 -1.1087  2.4809 -1.3796
 2167SOL    HW217961   0.768   4.337   4.770 -0.0300 -0.8485 -0.9362
 2168SOL     OW17962   3.624   3.320   5.933 -0.0678  0.0994 -0.6232
 2168SOL    HW117963   3.562   3.363   5.992 -0.6728  1.5507 -2.3191
 2168SOL    HW217964   3.658   3.388   5.875  0.7476  0.8068  0.6532
 2169SOL     OW17965   2.249   3.196   8.223  0.2456 -0.0504 -0.4098
 2169SOL    HW117966   2.226   3.281   8.259  3.3104  0.3325  0.6101
 2169SOL    HW217967   2.172   3.142   8.241 -0.1977  1.6965  2.9889
 2170SOL     OW17968   1.169   1.877  12.907 -0.1875 -0.5516 -0.1243
 2170SOL    HW117969   1.074   1.865  12.909 -0.3045  0.0519 -2.2701
 2170SOL    HW217970   1.171   1.965  12.870  2.1185 -1.0153 -1.1071
 2171SOL     OW17971   0.763   2.951   4.161 -0.0015 -0.6206  0.1704
 2171SOL    HW117972   0.723   2.970   4.076 -0.7723  0.3607  0.7515
 2171SOL    HW217973   0.790   3.040   4.181  0.0106 -0.9245  1.5078
 2172SOL     OW17974   4.242   4.465   5.088  0.4779  0.3012 -0.4075
 2172SOL    HW117975   4.224   4.528   5.019 -1.7121  0.4732  0.3184
 2172SOL    HW217976   4.306   4.513   5.141 -0.2251  1.6784 -0.8332
 2173SOL     OW17977   3.965   2.091   4.296  0.8207  0.2833 -0.4176
 2173SOL    HW117978   4.012   2.023   4.248  1.6564 -0.4856  1.5070
 2173SOL    HW217979   3.888   2.122   4.247  0.8022  1.2844  0.2500
 2174SOL     OW17980   0.102   0.413   8.028  0.0435  0.1598 -0.6714
 2174SOL    HW117981   0.181   0.414   8.082  1.1191 -0.1325 -2.2524
 2174SOL    HW217982   0.033   0.424   8.094  0.2138  0.6389 -0.5717
 2175SOL     OW17983   1.942   0.971   8.015  0.0412  0.0443 -0.4193
 2175SOL    HW117984   1.908   0.883   8.028  0.8368 -0.0517  1.0684
 2175SOL    HW217985   1.943   0.973   7.920 -0.5382 -1.0720 -0.4435
 2176SOL     OW17986   4.142   2.202  15.428 -0.3775  0.2818  0.5826
 2176SOL    HW117987   4.165   2.155  15.508 -1.1665  0.6028  1.0032
 2176SOL    HW217988   4.046   2.206  15.429 -0.4040 -0.3055 -0.7217
 2177SOL     OW17989   1.165   1.882   5.565  0.2719  0.3675 -0.0254
 2177SOL    HW117990   1.189   1.891   5.473 -1.0149 -0.8667 -0.4672
 2177SOL    HW217991   1.226   1.814   5.593 -0.5686  0.7709  2.8610
 2178SOL     OW17992   3.924   2.716   1.489  0.1265 -0.2802 -0.0799
 2178SOL    HW117993   4.005   2.676   1.521 -0.7113 -0.7704  1.4540
 2178SOL    HW217994   3.946   2.808   1.507 -0.4760 -0.0333 -0.6109
 2179SOL     OW17995   1.613   1.081   2.852 -0.7189 -0.7515 -0.0527
 2179SOL    HW117996   1.538   1.024   2.834 -0.1436 -0.5678 -3.1035
 2179SOL    HW217997   1.648   1.049   2.934 -2.6167 -2.7184  0.0045
 2180SOL     OW17998   1.135   2.516   6.707  0.6097 -0.0495 -0.0867
 2180SOL    HW117999   1.186   2.449   6.662  2.8505  2.7823 -1.7681
 2180SOL    HW218000   1.079   2.457   6.758  1.3165 -2.4292 -2.0653
 2181SOL     OW18001   1.073   3.606   3.824 -0.0494 -0.3587 -0.5434
 2181SOL    HW118002   0.995   3.640   3.868  0.0510  0.1833 -0.7850
 2181SOL    HW218003   1.078   3.658   3.744  0.0814  0.0187 -0.2907
 2182SOL     OW18004   1.578   2.100   2.346  0.5191  0.4466 -0.6993
 2182SOL    HW118005   1.640   2.027   2.342 -0.2701 -0.3325  1.2223
 2182SOL    HW218006   1.551   2.115   2.256 -2.1411 -1.8001 -0.2634
 2183SOL     OW18007   2.965   2.175   3.348 -0.0021 -0.3066  0.2584
 2183SOL    HW118008   2.953   2.088   3.308  2.1095 -0.7080  0.4908
 2183SOL    HW218009   2.990   2.223   3.270 -0.0642  0.4567  0.7131
 2184SOL     OW18010   0.786   0.414   4.079  0.5622 -0.2736  0.8978
 2184SOL    HW118011   0.783   0.371   3.994  0.9782 -0.1650  0.8297
 2184SOL    HW218012   0.873   0.453   4.077  1.3021 -1.8404  2.8456
 2185SOL     OW18013   2.320   2.961  14.108 -0.2856  0.4039  0.0189
 2185SOL    HW118014   2.301   2.868  14.120 -1.0432  0.9373  2.8770
 2185SOL    HW218015   2.252   2.984  14.044  0.5973  0.8181 -0.7878
 2186SOL     OW18016   2.107   1.163   2.421  0.1551 -0.1032  0.0589
 2186SOL    HW118017   2.082   1.074   2.447  0.2218 -0.1660 -0.0918
 2186SOL    HW218018   2.055   1.223   2.474  0.6538  0.6356 -0.2860
 2187SOL     OW18019   2.562   4.604   7.861 -0.5607  0.3708 -0.0719
 2187SOL    HW118020   2.521   4.519   7.842 -2.8900  2.0444 -2.4873
 2187SOL    HW218021   2.534   4.601   7.952 -0.5965 -1.1285 -0.1281
 2188SOL     OW18022   1.938   1.731  13.646  0.6622 -0.1070 -0.2873
 2188SOL    HW118023   1.991   1.664  13.690 -0.9842 -1.4263 -0.3269
 2188SOL    HW218024   1.866   1.678  13.611  0.5499  0.0231 -0.2529
 2189SOL     OW18025   1.891   2.776  10.807  0.8650  0.4889 -0.5799
 2189SOL    HW118026   1.830   2.729  10.864  2.7989 -2.3748 -0.8879
 2189SOL    HW218027   1.857   2.865  10.797 -0.4264  0.4223  3.2996
 2190SOL     OW18028   2.879   3.546  17.612 -0.5694  0.2573  0.5587
 2190SOL    HW118029   2.899   3.625  17.663  2.3334 -0.5027  0.5954
 2190SOL    HW218030   2.814   3.585  17.554 -0.3265  1.8364  1.3394
 2191SOL     OW18031   4.624   0.535  13.944  0.4281 -0.2663 -0.0870
 2191SOL    HW118032   4.623   0.447  13.905 -0.4875 -0.6254  0.7625
 2191SOL    HW218033   4.643   0.588  13.867  0.7312  1.6262  1.3188
 2192SOL     OW18034   1.508   1.053   6.509  0.1641  0.3983 -0.4470
 2192SOL    HW118035   1.536   1.001   6.434 -2.5184 -0.8721 -0.5500
 2192SOL    HW218036   1.430   1.086   6.465  1.6245  0.5716 -2.8541
 2193SOL     OW18037   1.432   4.578   8.361  0.2449  0.6560 -0.3835
 2193SOL    HW118038   1.454   4.490   8.392 -0.7619  0.5383 -0.0134
 2193SOL    HW218039   1.354   4.555   8.310  0.2129 -0.9502  0.4093
 2194SOL     OW18040   1.843   3.759  12.218 -0.3943  0.2093 -0.2171
 2194SOL    HW118041   1.825   3.839  12.169 -0.0850 -0.1531 -0.9119
 2194SOL    HW218042   1.936   3.743  12.200  0.0868  2.0517  0.5153
 2195SOL     OW18043   1.707   3.296   9.114 -0.4724 -0.1676  0.2078
 2195SOL    HW118044   1.615   3.281   9.093 -0.7343 -0.1209  1.3498
 2195SOL    HW218045   1.713   3.239   9.190  1.2453 -3.9822 -2.7905
 2196SOL     OW18046   4.096   1.414   7.677  0.2441 -0.0299  0.2436
 2196SOL    HW118047   4.032   1.356   7.636 -0.3418  0.1934  0.8352
 2196SOL    HW218048   4.031   1.482   7.695 -1.3234 -1.4927  0.0780
 2197SOL     OW18049   1.414   2.976   7.085 -0.2248  0.2817  0.2638
 2197SOL    HW118050   1.502   3.013   7.097 -0.2530  0.4720 -0.1218
 2197SOL    HW218051   1.413   2.979   6.989 -1.3241 -0.1174  0.2587
 2198SOL     OW18052   3.048   1.214  13.775 -0.3429 -0.0070 -0.2418
 2198SOL    HW118053   2.983   1.277  13.807 -1.9052 -1.0054 -1.4485
 2198SOL    HW218054   3.101   1.219  13.855  1.2856 -0.9507 -1.2730
 2199SOL     OW18055   3.856   0.738   2.969 -0.0191 -0.0279  0.4229
 2199SOL    HW118056   3.934   0.690   2.995 -0.2165 -1.6191 -1.9085
 2199SOL    HW218057   3.881   0.735   2.877  0.6156 -2.6677  0.6821
 2200SOL     OW18058   3.695   3.763  10.894 -0.4363  0.5109  0.1455
 2200SOL    HW118059   3.767   3.701  10.910 -0.4848  0.3811 -0.1441
 2200SOL    HW218060   3.684   3.773  10.799 -1.7741  1.4352  0.4112
 2201SOL     OW18061   0.580   0.941   7.104  0.1005 -0.5413  0.1071
 2201SOL    HW118062   0.660   0.987   7.130 -0.0004 -0.2751 -0.0515
 2201SOL    HW218063   0.567   1.007   7.035 -1.9151 -0.9811  0.0693
 2202SOL     OW18064   1.518   1.728   7.339  0.0667  0.0691 -0.4738
 2202SOL    HW118065   1.499   1.655   7.399  0.2712  2.1274  2.0840
 2202SOL    HW218066   1.562   1.790   7.397  0.4977  0.6495 -1.4350
 2203SOL     OW18067   0.475   3.137   8.668 -0.7541  0.4870  0.1396
 2203SOL    HW118068   0.405   3.078   8.695  0.5700 -0.9867  0.3277
 2203SOL    HW218069   0.500   3.188   8.746 -2.6258  1.3154  0.2058
 2204SOL     OW18070   0.319   3.152   4.362 -0.0637  0.0682 -0.1796
 2204SOL    HW118071   0.368   3.133   4.442 -0.9721 -1.5319 -0.0165
 2204SOL    HW218072   0.350   3.239   4.337  0.5814 -0.4963 -1.3543
 2205SOL     OW18073   4.105   4.655   4.916 -0.1787  0.1477 -0.7948
 2205SOL    HW118074   4.047   4.695   4.981 -0.0327 -2.7727  1.1615
 2205SOL    HW218075   4.041   4.611   4.861 -0.9962 -0.7163  0.8681
 2206SOL     OW18076   2.138   1.261   4.271 -0.2149  0.0948  0.2053
 2206SOL    HW118077   2.108   1.343   4.232  0.0568  1.1105  2.1376
 2206SOL    HW218078   2.074   1.202   4.230  0.7598  0.0159 -1.1748
 2207SOL     OW18079   1.358   1.164  12.296  0.2769  0.1512  0.4472
 2207SOL    HW118080   1.351   1.259  12.284 -0.6839 -0.0500 -0.5844
 2207SOL    HW218081   1.281   1.132  12.250 -0.3834  1.0062  0.9567
 2208SOL     OW18082   3.709   0.492  10.754 -0.0473  0.3059  0.5535
 2208SOL    HW118083   3.631   0.548  10.760  0.6027  1.1389  1.2538
 2208SOL    HW218084   3.679   0.411  10.796  0.7813 -0.0072  0.5271
 2209SOL     OW18085   1.630   3.804   2.582  0.1992  0.0928  0.5304
 2209SOL    HW118086   1.535   3.797   2.589 -0.0625  1.5950 -1.4104
 2209SOL    HW218087   1.630   3.806   2.486  1.0213 -2.4031  0.4810
 2210SOL     OW18088   0.532   1.146   6.950 -0.0077 -0.3720 -0.0840
 2210SOL    HW118089   0.474   1.155   6.874 -1.5727  0.0059  1.1616
 2210SOL    HW218090   0.581   1.227   6.941 -3.0428  1.3478 -0.9926
 2211SOL     OW18091   0.816   3.435  13.364  0.0773  0.1711  0.2012
 2211SOL    HW118092   0.822   3.422  13.270 -2.0148 -1.2827  0.2855
 2211SOL    HW218093   0.868   3.360  13.392  0.3893  0.1824 -0.3460
 2212SOL     OW18094   3.002   0.111   6.872 -0.5030 -0.2311  0.6129
 2212SOL    HW118095   2.972   0.045   6.809 -0.5876  0.3657  0.0233
 2212SOL    HW218096   2.921   0.134   6.917 -0.1453  0.9654  0.6290
 2213SOL     OW18097   0.001   0.360   2.090  0.9547  0.6624 -0.2161
 2213SOL    HW118098   4.642   0.378   2.136 -0.5477  0.4393 -2.7945
 2213SOL    HW218099   0.039   0.294   2.148  1.0806  0.6807 -0.2782
 2214SOL     OW18100   1.949   2.872  15.404 -0.0316  0.2715  0.1344
 2214SOL    HW118101   1.934   2.933  15.476 -0.7334  0.3020 -0.0326
 2214SOL    HW218102   2.022   2.820  15.436  0.7518  1.1437 -0.2271
 2215SOL     OW18103   2.753   2.506  11.720  0.2269 -0.7273  0.1438
 2215SOL    HW118104   2.755   2.487  11.814  1.1778 -2.5038 -0.2481
 2215SOL    HW218105   2.750   2.412  11.701 -0.7556 -0.9671  1.4649
 2216SOL     OW18106   4.466   0.837   3.571  0.1266 -0.0909 -0.0023
 2216SOL    HW118107   4.522   0.859   3.645 -1.6801 -0.6208  1.4989
 2216SOL    HW218108   4.403   0.908   3.562  0.4580  0.0584 -1.2253
 2217SOL     OW18109   1.841   1.219   8.571  0.0757  0.1735 -0.2005
 2217SOL    HW118110   1.746   1.214   8.564 -0.1212  0.8371  1.9603
 2217SOL    HW218111   1.851   1.186   8.660 -1.3518 -1.6343 -0.7276
 2218SOL     OW18112   0.676   0.553   4.571 -0.1485  0.4197  0.4414
 2218SOL    HW118113   0.659   0.623   4.507 -0.4356  1.7654  1.9831
 2218SOL    HW218114   0.743   0.510   4.518 -1.7570 -0.5018 -0.8495
 2219SOL     OW18115   4.592   1.326   6.102 -0.1548  0.7525 -0.6888
 2219SOL    HW118116   4.525   1.372   6.051 -0.3321  0.4438 -0.7391
 2219SOL    HW218117   4.574   1.350   6.193  0.3773 -3.3375  0.5254
 2220SOL     OW18118   1.807   2.592   6.500  0.3345  0.2397 -0.2175
 2220SOL    HW118119   1.782   2.562   6.588 -0.6712 -0.8690 -0.8858
 2220SOL    HW218120   1.728   2.640   6.476 -1.1094 -1.6980  0.6508
 2221SOL     OW18121   4.330   0.056  16.321 -0.3789  0.3093 -0.5052
 2221SOL    HW118122   4.346   0.144  16.354 -2.2447  0.5763 -0.2770
 2221SOL    HW218123   4.341   0.069  16.227 -1.4914  0.7800 -0.5736
 2222SOL     OW18124   1.730   0.575   5.283 -0.3747 -0.6839 -0.0361
 2222SOL    HW118125   1.797   0.515   5.316  0.8850 -0.0520 -1.4169
 2222SOL    HW218126   1.766   0.664   5.281  1.6341 -1.5063 -0.4716
 2223SOL     OW18127   3.142   0.303   8.071 -0.4619  0.1036 -0.1721
 2223SOL    HW118128   3.130   0.385   8.119 -0.4299  0.1191 -0.1907
 2223SOL    HW218129   3.210   0.322   8.006 -0.7739 -0.9020 -0.7918
 2224SOL     OW18130   0.439   2.102  17.500 -0.7456 -0.1069  0.1859
 2224SOL    HW118131   0.465   2.014  17.474  3.3486  0.8364  1.0535
 2224SOL    HW218132   0.411   2.095  17.591  0.1937 -2.4141  0.2751
 2225SOL     OW18133   3.894   0.455   7.976  0.3496  0.5792 -0.3473
 2225SOL    HW118134   3.936   0.501   8.048 -1.1268 -0.8902  1.4933
 2225SOL    HW218135   3.887   0.525   7.911  0.7676  0.9080 -0.0349
 2226SOL     OW18136   1.006   1.444  10.639 -0.1599  0.6354 -0.0504
 2226SOL    HW118137   0.946   1.444  10.565  1.7397  0.3975 -1.5787
 2226SOL    HW218138   1.079   1.504  10.625  1.5992 -1.5821 -0.4036
 2227SOL     OW18139   0.717   1.037   8.052  0.3608 -0.0618 -0.6487
 2227SOL    HW118140   0.630   0.998   8.049 -0.2240  1.2394 -0.5728
 2227SOL    HW218141   0.774   0.961   8.066 -1.0285 -1.5244 -2.9673
 2228SOL     OW18142   1.310   2.988   9.731  0.4747  0.1251 -0.5524
 2228SOL    HW118143   1.385   2.941   9.768 -0.1007 -0.6666 -0.3772
 2228SOL    HW218144   1.315   2.964   9.638 -1.1063  1.5017 -0.9862
 2229SOL     OW18145   1.634   2.252   9.444 -0.0451  0.4097 -0.1238
 2229SOL    HW118146   1.647   2.337   9.401  1.4662  0.0459 -0.4110
 2229SOL    HW218147   1.544   2.264   9.473  0.6720  2.1590  1.3796
 2230SOL     OW18148   4.083   4.445   1.053 -0.0155 -0.1413 -0.2403
 2230SOL    HW118149   3.990   4.467   1.043 -0.1602  0.2764  2.0305
 2230SOL    HW218150   4.092   4.363   1.004 -2.5625  0.0710 -1.0843
 2231SOL     OW18151   3.349   2.546   6.644  0.1088 -0.1894 -0.1142
 2231SOL    HW118152   3.380   2.459   6.618  1.7800 -0.0644  1.3886
 2231SOL    HW218153   3.311   2.585   6.566 -0.3451 -0.1384  0.1314
 2232SOL     OW18154   3.902   3.601   7.627  0.4117  0.0841  0.0214
 2232SOL    HW118155   3.906   3.527   7.567 -0.6443  0.0157  0.0302
 2232SOL    HW218156   3.813   3.630   7.606  1.2990  0.1971 -3.5041
 2233SOL     OW18157   0.511   0.910  13.343  0.1968  0.2885  0.3960
 2233SOL    HW118158   0.434   0.878  13.294 -0.5662  3.7283 -0.6117
 2233SOL    HW218159   0.584   0.868  13.298 -0.6540 -2.8634  1.8742
 2234SOL     OW18160   0.254   0.412   3.183 -0.9582 -0.1811  0.0549
 2234SOL    HW118161   0.273   0.366   3.102  0.2461  0.8128 -0.2386
 2234SOL    HW218162   0.186   0.365   3.231 -3.9129  2.5882 -1.4240
 2235SOL     OW18163   2.055   3.947  11.131  0.0990  0.2789  0.1785
 2235SOL    HW118164   2.107   3.993  11.066 -0.6484  1.9379  0.7548
 2235SOL    HW218165   2.117   3.944  11.204  0.6230 -2.7865 -0.3995
 2236SOL     OW18166   1.334   0.671  16.265  0.7058 -0.4903 -0.2894
 2236SOL    HW118167   1.277   0.594  16.274  0.9890 -0.6943 -0.2240
 2236SOL    HW218168   1.360   0.682  16.357  1.3555 -0.0136 -0.5373
 2237SOL     OW18169   2.874   1.566   2.018  0.2106  0.3852  0.8497
 2237SOL    HW118170   2.887   1.472   2.031  1.9922  0.8205  2.2991
 2237SOL    HW218171   2.820   1.589   2.093 -1.9003  1.7398 -1.1148
 2238SOL     OW18172   3.554   0.508  14.555 -0.2942 -0.5162  0.1242
 2238SOL    HW118173   3.465   0.502  14.589  0.8732 -0.9343  3.1101
 2238SOL    HW218174   3.595   0.437  14.605 -0.5820 -0.6009  0.2423
 2239SOL     OW18175   3.377   1.067   5.549 -0.1313  0.1327  0.1130
 2239SOL    HW118176   3.314   1.060   5.621 -2.7162  2.2705 -1.9782
 2239SOL    HW218177   3.313   1.107   5.491  0.4848  0.5950 -0.2352
 2240SOL     OW18178   4.139   0.774   4.519  0.5088 -0.5043  0.1530
 2240SOL    HW118179   4.066   0.824   4.482 -0.8103 -0.8951  2.2096
 2240SOL    HW218180   4.203   0.846   4.519  0.9993 -0.9420  2.2421
 2241SOL     OW18181   1.060   0.385  16.060 -0.2913  0.4081 -0.2071
 2241SOL    HW118182   1.136   0.329  16.073 -2.4224 -2.4020  0.1992
 2241SOL    HW218183   1.025   0.397  16.148 -0.8944 -0.4106 -0.3352
 2242SOL     OW18184   2.995   1.599  11.292 -0.1518  0.5491 -0.1465
 2242SOL    HW118185   2.918   1.588  11.348  0.7982 -1.0113  0.8544
 2242SOL    HW218186   3.050   1.521  11.300 -1.1915 -0.0269  1.4120
 2243SOL     OW18187   2.411   0.987   3.627 -0.1103 -0.1937  0.4926
 2243SOL    HW118188   2.422   1.027   3.713 -1.7968  0.2262  0.5110
 2243SOL    HW218189   2.503   0.978   3.603 -0.2619 -0.1347 -0.1175
 2244SOL     OW18190   4.577   4.538   0.158  0.1094  0.2673 -0.2118
 2244SOL    HW118191   4.636   4.495   0.095  0.3706 -0.6265  0.6295
 2244SOL    HW218192   4.539   4.598   0.094 -1.4395 -0.4793  0.0225
 2245SOL     OW18193   2.690   2.810   4.471 -0.0871  0.8061  0.9030
 2245SOL    HW118194   2.647   2.731   4.438 -0.1613  0.9675  0.6098
 2245SOL    HW218195   2.620   2.847   4.525 -0.2913 -0.1302  1.2881
 2246SOL     OW18196   2.758   4.037  10.851 -0.0414 -0.4907  0.1452
 2246SOL    HW118197   2.829   4.004  10.797 -0.1302  0.5561 -0.6030
 2246SOL    HW218198   2.722   3.951  10.874  0.6384 -0.9461 -0.5236
 2247SOL     OW18199   0.727   2.929   4.800 -0.0558  0.1409 -0.2994
 2247SOL    HW118200   0.812   2.950   4.838  0.5330 -0.8350 -1.0728
 2247SOL    HW218201   0.712   3.000   4.736 -0.2783  0.2300 -0.1477
 2248SOL     OW18202   2.466   2.083   8.554  0.0488  0.3099 -0.0562
 2248SOL    HW118203   2.537   2.136   8.519 -0.3287  1.3915  0.8022
 2248SOL    HW218204   2.389   2.135   8.530 -0.7393 -0.5657  0.5314
 2249SOL     OW18205   2.496   4.476   4.700 -0.2047 -0.0569  0.4957
 2249SOL    HW118206   2.522   4.395   4.743 -2.6277 -0.5745  0.9808
 2249SOL    HW218207   2.558   4.539   4.737 -0.6522 -0.2557  1.5644
 2250SOL     OW18208   2.037   1.696   6.017 -0.6879 -0.3287 -0.1146
 2250SOL    HW118209   1.984   1.708   6.096  1.1234  0.5112  0.9721
 2250SOL    HW218210   1.986   1.720   5.940 -0.7176 -0.1573 -0.0406
 2251SOL     OW18211   3.382   2.642  15.277  0.3103  0.3736  0.3010
 2251SOL    HW118212   3.412   2.657  15.367  1.2346  1.7948 -0.2430
 2251SOL    HW218213   3.364   2.548  15.276  3.2235 -0.1536 -0.1764
 2252SOL     OW18214   0.276   2.721   4.317  0.0068  0.8307 -0.1236
 2252SOL    HW118215   0.320   2.806   4.322 -0.3197  0.9958 -0.0248
 2252SOL    HW218216   0.184   2.746   4.330  0.1997  1.5214 -0.0916
 2253SOL     OW18217   3.623   3.893  10.653 -0.3749 -0.9445  0.0330
 2253SOL    HW118218   3.631   3.866  10.561 -0.3586 -0.7301 -0.0303
 2253SOL    HW218219   3.571   3.974  10.645  0.8085 -0.2548 -0.7263
 2254SOL     OW18220   1.876   1.298   1.704 -0.8840 -0.3178  0.1869
 2254SOL    HW118221   1.908   1.257   1.624  1.1122  1.0134  0.3108
 2254SOL    HW218222   1.960   1.331   1.735 -2.3822  1.4052  2.4026
 2255SOL     OW18223   2.963   3.658   8.707 -0.4322 -0.3864  0.3721
 2255SOL    HW118224   3.009   3.736   8.736  1.5701 -0.7311 -1.7595
 2255SOL    HW218225   3.025   3.588   8.731  0.9656 -0.0104 -2.0605
 2256SOL     OW18226   3.313   1.056   3.362  0.4047 -0.0414 -0.2731
 2256SOL    HW118227   3.284   1.072   3.272 -0.4197 -1.8219 -0.3237
 2256SOL    HW218228   3.394   1.005   3.354 -0.1253 -0.9320  0.0207
 2257SOL     OW18229   4.040   0.540   3.038  0.0716 -0.0521  0.5348
 2257SOL    HW118230   4.134   0.526   3.037  0.4891  2.7283  0.2156
 2257SOL    HW218231   4.015   0.447   3.035  0.2101 -0.1171  1.5727
 2258SOL     OW18232   0.087   2.306  16.417 -0.0978  0.2339 -0.0272
 2258SOL    HW118233   4.722   2.342  16.427 -0.4210 -0.3718 -0.7361
 2258SOL    HW218234   0.130   2.370  16.474 -1.6945 -0.1597  1.6126
 2259SOL     OW18235   1.924   4.722  12.328 -0.5083 -0.5364  0.0590
 2259SOL    HW118236   1.910   0.091  12.304 -2.5990 -0.2727  2.2569
 2259SOL    HW218237   1.915   4.695  12.237 -1.0025  0.7227 -0.2641
 2260SOL     OW18238   1.550   2.017   5.636 -0.2247 -0.2767 -0.1492
 2260SOL    HW118239   1.634   2.006   5.590 -0.1102  2.3016 -0.5240
 2260SOL    HW218240   1.481   1.973   5.586  0.0842 -2.1197  1.0668
 2261SOL     OW18241   3.256   1.251  13.974 -0.1402  0.4620  0.0902
 2261SOL    HW118242   3.327   1.281  13.916 -0.4418 -1.0932 -1.0746
 2261SOL    HW218243   3.274   1.307  14.049 -0.8041 -0.7542  1.1430
 2262SOL     OW18244   0.950   4.558   4.455 -0.1227  0.0568 -0.5543
 2262SOL    HW118245   1.040   4.587   4.443 -0.7360  1.9082 -0.7274
 2262SOL    HW218246   0.898   4.626   4.411 -1.5563  0.0703  1.1421
 2263SOL     OW18247   0.882   0.872   4.049  0.1658 -0.3203  0.5328
 2263SOL    HW118248   0.937   0.891   3.973  0.2699 -0.0012  0.6874
 2263SOL    HW218249   0.913   0.935   4.114  0.4427 -0.5058  0.5810
 2264SOL     OW18250   0.697   1.102  17.262  0.5476 -0.5761 -0.1713
 2264SOL    HW118251   0.784   1.064  17.273 -0.1308 -1.2145  3.0271
 2264SOL    HW218252   0.714   1.163  17.191  0.6601 -2.4656 -1.7660
 2265SOL     OW18253   0.578   4.289   0.624  0.0336  0.1187 -0.4226
 2265SOL    HW118254   0.491   4.325   0.608 -0.5000 -1.8515 -1.9525
 2265SOL    HW218255   0.573   4.232   0.701  0.9427  0.8079  0.1587
 2266SOL     OW18256   3.504   0.265  10.588 -0.3370 -0.2318 -0.2855
 2266SOL    HW118257   3.566   0.250  10.517 -0.0543  0.5620 -0.2082
 2266SOL    HW218258   3.427   0.296  10.541  0.3621  0.4030 -1.0046
 2267SOL     OW18259   2.260   2.887   1.103 -0.0086  0.0940 -0.2512
 2267SOL    HW118260   2.316   2.812   1.121 -0.4137 -0.2315 -0.3312
 2267SOL    HW218261   2.281   2.883   1.010 -1.3495 -0.5122 -0.5428
 2268SOL     OW18262   3.809   2.472  10.353  0.7193  0.4694  0.2325
 2268SOL    HW118263   3.852   2.554  10.378 -0.2954  0.5807  1.5885
 2268SOL    HW218264   3.888   2.420  10.342  0.8761  0.2501  2.4912
 2269SOL     OW18265   2.900   4.653   7.807  0.2631  0.0262 -0.5705
 2269SOL    HW118266   2.934   4.580   7.857  0.2787  1.1177  1.0139
 2269SOL    HW218267   2.820   4.662   7.858  1.6659 -0.3183  1.6764
 2270SOL     OW18268   1.972   2.469  17.366 -0.3338  0.9341  0.0275
 2270SOL    HW118269   2.045   2.522  17.334  0.6822 -0.7082 -0.3789
 2270SOL    HW218270   1.938   2.440  17.281 -2.8966 -0.1460  1.4048
 2271SOL     OW18271   2.402   2.354   0.796  0.5275  0.1147  0.2853
 2271SOL    HW118272   2.347   2.336   0.873  0.3272 -1.0689 -0.1302
 2271SOL    HW218273   2.420   2.442   0.828 -0.0534 -0.0678  1.1204
 2272SOL     OW18274   0.880   0.766   6.516 -1.2928  0.1146 -0.0307
 2272SOL    HW118275   0.919   0.812   6.591 -1.1898  0.9802 -0.6136
 2272SOL    HW218276   0.878   0.678   6.553  3.5703  0.1493  0.4159
 2273SOL     OW18277   0.237   3.655   8.037  0.6493  0.3481  0.0874
 2273SOL    HW118278   0.207   3.653   8.128 -2.2476  1.9786 -0.8579
 2273SOL    HW218279   0.244   3.750   8.031  1.1729  0.4179  1.7297
 2274SOL     OW18280   4.372   4.154   4.727 -0.2041 -0.8376 -0.0287
 2274SOL    HW118281   4.289   4.117   4.758 -0.7655 -0.0414 -0.5880
 2274SOL    HW218282   4.410   4.081   4.679 -1.5943 -0.5880 -1.5415
 2275SOL     OW18283   0.973   0.853   6.249 -0.5625  0.0359  0.1195
 2275SOL    HW118284   0.970   0.949   6.260 -0.3896  0.0430  0.1058
 2275SOL    HW218285   0.931   0.832   6.332 -1.0490  1.8972  0.3653
 2276SOL     OW18286   1.729   2.958   5.126 -0.4228  0.2167  0.0116
 2276SOL    HW118287   1.704   2.940   5.217 -1.0772 -0.4867 -0.3077
 2276SOL    HW218288   1.675   2.897   5.075  0.6858 -2.1154  1.6205
 2277SOL     OW18289   2.037   3.846   3.866  0.2521  0.5746 -0.4249
 2277SOL    HW118290   1.962   3.906   3.871  0.7535  1.2149 -0.6989
 2277SOL    HW218291   2.091   3.893   3.803  0.0622  1.5933  0.1727
 2278SOL     OW18292   1.448   0.074   1.603  0.3835  0.0846  0.2366
 2278SOL    HW118293   1.353   0.064   1.614  0.1202  2.4136  0.2117
 2278SOL    HW218294   1.475   0.084   1.694 -0.2872 -0.0403  0.4515
 2279SOL     OW18295   1.095   2.950   5.099  0.2782 -0.1031  0.0366
 2279SOL    HW118296   1.068   2.990   5.017  0.6981  0.2665  0.0807
 2279SOL    HW218297   1.024   2.973   5.160 -0.2224 -0.4823 -0.4085
 2280SOL     OW18298   3.715   1.032   3.869 -0.1610  0.9565  0.0492
 2280SOL    HW118299   3.630   1.054   3.831 -1.4506 -3.7206  0.1838
 2280SOL    HW218300   3.770   1.043   3.792  0.1280 -0.4107  0.0610
 2281SOL     OW18301   2.779   2.667   2.104 -0.3577 -1.1996  0.1192
 2281SOL    HW118302   2.828   2.666   2.023  0.3815  0.0354  0.5601
 2281SOL    HW218303   2.742   2.579   2.117 -3.3116  0.0813  0.5022
 2282SOL     OW18304   2.545   0.150   7.322  0.3432  0.1402  0.0705
 2282SOL    HW118305   2.476   0.150   7.387 -1.1068 -1.4649 -1.4683
 2282SOL    HW218306   2.569   0.058   7.331  0.0731  0.0914  0.2740
 2283SOL     OW18307   4.262   2.092  11.923 -0.0709  0.0407  0.2993
 2283SOL    HW118308   4.357   2.088  11.916  0.1090  1.2735  2.1661
 2283SOL    HW218309   4.246   2.185  11.936  0.1642 -0.0250  1.0304
 2284SOL     OW18310   0.196   4.563   1.972  0.3261 -0.2955 -0.1608
 2284SOL    HW118311   0.239   4.648   1.977  0.6149 -0.3088 -2.5057
 2284SOL    HW218312   0.275   4.516   1.943  0.6623 -0.3976  0.9267
 2285SOL     OW18313   0.011   1.131  17.522  0.2776  0.2968 -0.2239
 2285SOL    HW118314   0.077   1.198  17.503 -0.6356  0.8562 -1.4502
 2285SOL    HW218315   0.061   1.052  17.540  1.8073  1.0098 -1.4085
 2286SOL     OW18316   3.698   0.180   3.013  0.1628  0.0980  0.2264
 2286SOL    HW118317   3.693   0.174   2.917  1.3301  1.0355  0.1111
 2286SOL    HW218318   3.712   0.087   3.029 -1.4591 -0.4899 -1.6802
 2287SOL     OW18319   3.420   0.430   7.108  0.0457  0.4051  0.0147
 2287SOL    HW118320   3.367   0.479   7.046 -0.4053 -1.8316 -1.3497
 2287SOL    HW218321   3.439   0.350   7.059 -0.6695  0.2601 -0.0348
 2288SOL     OW18322   3.664   2.577   8.064  0.4432  0.1491 -0.1519
 2288SOL    HW118323   3.614   2.495   8.063 -1.1554  1.1330 -0.3217
 2288SOL    HW218324   3.748   2.545   8.031  2.6086  2.3486  3.3662
 2289SOL     OW18325   2.067   3.412   7.613  0.5512 -0.1229  0.2571
 2289SOL    HW118326   2.145   3.404   7.558 -0.1725  1.9218 -1.0819
 2289SOL    HW218327   2.112   3.425   7.697 -2.0059  1.2198  1.4344
 2290SOL     OW18328   4.173   1.613   6.240 -0.8527 -0.3492  0.0602
 2290SOL    HW118329   4.128   1.540   6.284 -0.6121  0.1274  1.1123
 2290SOL    HW218330   4.132   1.690   6.279  1.1936  0.2259  1.0569
 2291SOL     OW18331   0.436   0.023   8.928  0.5723  0.1455 -0.8627
 2291SOL    HW118332   0.459   0.116   8.929  0.1905  0.2316 -0.1004
 2291SOL    HW218333   0.510   4.708   8.975  0.5164  1.2270  0.1313
 2292SOL     OW18334   2.093   1.629  13.033 -0.1508 -0.3489  0.9067
 2292SOL    HW118335   2.139   1.546  13.035 -0.0296 -0.2783  1.1705
 2292SOL    HW218336   2.135   1.681  13.101 -2.3739  1.3093  1.0461
 2293SOL     OW18337   0.478   3.571   8.612 -0.0509  0.4571  0.1533
 2293SOL    HW118338   0.444   3.615   8.690  0.4498  1.7509 -0.3432
 2293SOL    HW218339   0.549   3.523   8.654 -1.7587 -1.2602  1.0386
 2294SOL     OW18340   0.801   2.332   1.883  0.7154  0.1784 -0.2466
 2294SOL    HW118341   0.863   2.382   1.936  0.0828 -0.8546  1.4668
 2294SOL    HW218342   0.757   2.400   1.833 -0.0123 -1.7486 -2.2391
 2295SOL     OW18343   3.394   0.485   5.169 -0.2583  0.2590  0.4231
 2295SOL    HW118344   3.464   0.429   5.202  0.5111  0.3551 -1.0714
 2295SOL    HW218345   3.436   0.551   5.114  0.5041  0.1399  0.8566
 2296SOL     OW18346   0.305   0.054   8.622 -0.2752  0.0222  0.5878
 2296SOL    HW118347   0.218   0.062   8.585 -1.5814 -1.3023  3.3622
 2296SOL    HW218348   0.330   0.147   8.620 -0.1682 -0.0028  0.7080
 2297SOL     OW18349   0.210   3.720   1.732  0.2237  0.2189 -0.0075
 2297SOL    HW118350   0.203   3.813   1.710 -0.6528  0.5117  1.5513
 2297SOL    HW218351   0.289   3.709   1.784 -0.3591 -1.9576  0.4292
 2298SOL     OW18352   0.237   0.434   9.167 -0.0783 -0.2007  0.0779
 2298SOL    HW118353   0.264   0.399   9.252  1.4801 -1.1278 -0.7983
 2298SOL    HW218354   0.169   0.494   9.196  0.5171 -0.8967  2.8719
 2299SOL     OW18355   2.361   2.965   5.156 -0.1584 -0.0308  0.5856
 2299SOL    HW118356   2.309   3.022   5.100 -1.3109 -1.3168  0.3345
 2299SOL    HW218357   2.334   2.882   5.117  1.1079 -1.4680  2.7486
 2300SOL     OW18358   1.430   2.490   8.912 -0.0649 -0.1727  0.0341
 2300SOL    HW118359   1.478   2.569   8.889  1.9334 -0.9162  1.7467
 2300SOL    HW218360   1.429   2.508   9.006  0.0919 -1.0291  0.2027
 2301SOL     OW18361   0.034   3.572   6.946  0.2983  0.4859  0.2911
 2301SOL    HW118362   0.090   3.502   6.981  1.0843  0.5703 -0.8098
 2301SOL    HW218363   0.005   3.601   7.033  1.2170  0.0646  0.7403
 2302SOL     OW18364   2.024   2.113   4.024  0.0979 -0.0693 -0.1605
 2302SOL    HW118365   2.092   2.138   4.087  0.0290  0.7484 -0.4041
 2302SOL    HW218366   1.999   2.031   4.066  1.5091 -1.2513 -1.6544
 2303SOL     OW18367   4.288   0.019   1.438  0.4494 -0.0827  0.3710
 2303SOL    HW118368   4.256   4.690   1.512  0.7892 -1.6163 -0.5461
 2303SOL    HW218369   4.214   0.071   1.408 -0.1720 -2.5418 -2.3392
 2304SOL     OW18370   4.347   0.587   6.607  0.7122  0.0908  0.5019
 2304SOL    HW118371   4.341   0.497   6.640  1.7587 -1.7459 -4.3243
 2304SOL    HW218372   4.254   0.608   6.595  1.4854  2.3235 -1.3723
 2305SOL     OW18373   4.406   3.474   1.798  0.5893 -1.0543  0.3816
 2305SOL    HW118374   4.397   3.388   1.757 -0.8819 -0.8369  0.2534
 2305SOL    HW218375   4.489   3.481   1.844  0.4756 -2.4497  0.7907
 2306SOL     OW18376   2.119   2.822  15.824 -0.0291  0.1881  0.0021
 2306SOL    HW118377   2.076   2.836  15.908 -1.0424 -2.1083 -0.1193
 2306SOL    HW218378   2.175   2.899  15.823 -0.3477  0.4180 -0.0548
 2307SOL     OW18379   4.512   3.744   2.583  0.3044 -0.3539 -0.1708
 2307SOL    HW118380   4.555   3.756   2.668 -2.0284 -1.5700  1.1744
 2307SOL    HW218381   4.573   3.787   2.524 -0.8112  2.5937  0.8182
 2308SOL     OW18382   2.227   3.780   7.120 -0.1126  0.4023  0.1741
 2308SOL    HW118383   2.313   3.823   7.120 -1.4231  3.0613  2.3329
 2308SOL    HW218384   2.227   3.743   7.032  0.0282  0.2915  0.2201
 2309SOL     OW18385   2.773   3.409   5.490  0.2357  0.0881  0.9528
 2309SOL    HW118386   2.699   3.363   5.531  1.8635 -0.8250  2.8279
 2309SOL    HW218387   2.796   3.469   5.561  1.7838 -0.8042  1.1949
 2310SOL     OW18388   0.667   0.990   4.302 -0.6668  0.8339  0.5119
 2310SOL    HW118389   0.627   1.056   4.246 -0.6175  1.4498  1.2182
 2310SOL    HW218390   0.746   0.983   4.248 -0.7871 -1.0118  0.5567
 2311SOL     OW18391   4.114   2.377   6.003  0.2334 -0.4328 -0.5900
 2311SOL    HW118392   4.058   2.385   5.925  0.0898  3.5082 -0.1074
 2311SOL    HW218393   4.189   2.332   5.965 -0.8826 -0.1136 -3.2220
 2312SOL     OW18394   3.328   3.199  14.929 -0.4513 -0.3570  0.0869
 2312SOL    HW118395   3.350   3.180  14.838  0.3747 -1.1517  0.4478
 2312SOL    HW218396   3.318   3.294  14.922 -0.6754 -0.6701 -3.7068
 2313SOL     OW18397   0.273   1.831   4.348  0.3389 -0.4310  0.2588
 2313SOL    HW118398   0.325   1.817   4.269 -2.6923  0.0201 -1.7845
 2313SOL    HW218399   0.288   1.926   4.351  0.9136 -0.4812 -1.0875
 2314SOL     OW18400   2.611   0.409   2.398  0.0909 -0.0549  0.2823
 2314SOL    HW118401   2.549   0.410   2.325  1.1257 -1.0541 -0.6170
 2314SOL    HW218402   2.680   0.466   2.364 -0.7324  0.9799  0.3614
 2315SOL     OW18403   1.607   4.228   9.875 -0.1556  0.7108  0.2719
 2315SOL    HW118404   1.536   4.229   9.810 -1.2722  1.2652  1.5076
 2315SOL    HW218405   1.640   4.315   9.852  0.3233 -0.0836 -2.0679
 2316SOL     OW18406   2.687   0.288   4.119 -0.2317 -0.5074  0.1207
 2316SOL    HW118407   2.639   0.260   4.041  1.3797  2.6223 -1.9826
 2316SOL    HW218408   2.774   0.249   4.111  0.7133  1.5642  0.2507
 2317SOL     OW18409   4.049   4.368   4.348  0.4982  0.0182  0.3833
 2317SOL    HW118410   3.987   4.414   4.291  1.0185  0.1029 -0.1238
 2317SOL    HW218411   4.134   4.390   4.309 -0.0435  1.4923  0.0256
 2318SOL     OW18412   0.911   0.955  12.256  0.0563 -0.1711 -0.0491
 2318SOL    HW118413   0.949   0.995  12.334  2.0286 -1.4059 -0.3770
 2318SOL    HW218414   0.880   0.872  12.291  0.1765  0.3003  1.1462
 2319SOL     OW18415   1.803   3.861   5.494 -0.1036 -0.4809  0.0150
 2319SOL    HW118416   1.867   3.811   5.545 -2.4103 -2.2870  1.0903
 2319SOL    HW218417   1.773   3.790   5.438 -0.0136 -0.9140  0.5130
 2320SOL     OW18418   4.529   3.078  10.304  0.0813  0.3694  0.0509
 2320SOL    HW118419   4.623   3.070  10.293  0.1712  0.0015  1.1145
 2320SOL    HW218420   4.515   3.170  10.324 -3.4376 -0.7463  2.8562
 2321SOL     OW18421   1.279   2.322  17.449 -0.1786  0.5896 -0.0866
 2321SOL    HW118422   1.334   2.311  17.527 -2.0510 -2.3133  0.8622
 2321SOL    HW218423   1.249   2.412  17.450  0.7333  0.9257 -2.3504
 2322SOL     OW18424   3.636   3.255   6.627  0.1786 -0.7449 -0.0143
 2322SOL    HW118425   3.720   3.300   6.623  0.4572 -1.2707  0.0749
 2322SOL    HW218426   3.674   3.168   6.628 -0.1352 -0.8852 -0.2091
 2323SOL     OW18427   3.080   1.380   2.991 -0.1489  0.2191  0.3666
 2323SOL    HW118428   3.166   1.399   2.952 -0.4072 -0.5139 -0.5553
 2323SOL    HW218429   3.034   1.434   2.926 -0.7498 -1.6766 -0.7759
 2324SOL     OW18430   0.010   0.389  11.074 -0.0826 -0.2312  0.0499
 2324SOL    HW118431   0.002   0.412  11.167 -0.1575 -3.1141  0.7630
 2324SOL    HW218432   0.051   0.473  11.052 -2.0487  1.2999  2.2195
 2325SOL     OW18433   3.760   0.602   5.886  0.1762 -0.3138 -0.3969
 2325SOL    HW118434   3.849   0.589   5.854  0.0102 -0.3031 -0.8519
 2325SOL    HW218435   3.716   0.638   5.809 -0.5358  0.9505  0.5984
 2326SOL     OW18436   0.603   4.269   8.432  0.6456  0.6706  0.7527
 2326SOL    HW118437   0.515   4.237   8.412  1.3322 -2.3529  2.6838
 2326SOL    HW218438   0.582   4.363   8.435  1.1291  0.8588 -1.2561
 2327SOL     OW18439   0.621   4.286  13.791  0.0313 -0.0253 -0.8341
 2327SOL    HW118440   0.529   4.308  13.783  0.0079 -0.7069 -2.4974
 2327SOL    HW218441   0.613   4.201  13.834 -1.8586  1.3131  1.4450
 2328SOL     OW18442   4.082   4.050  12.431  0.3689  0.4078 -0.1044
 2328SOL    HW118443   4.001   4.000  12.422 -1.0404  3.0285 -1.5332
 2328SOL    HW218444   4.133   4.005  12.364 -0.6211 -0.0976 -0.5121
 2329SOL     OW18445   4.356   4.709   2.474  0.0879 -0.1745  0.0223
 2329SOL    HW118446   4.329   4.654   2.548  0.1154  1.1892  1.0590
 2329SOL    HW218447   4.374   0.064   2.527 -1.3167 -0.6543  1.1919
 2330SOL     OW18448   3.234   1.717  15.229  0.3450  0.1239  0.0539
 2330SOL    HW118449   3.223   1.812  15.223  0.0364  0.0598 -0.4481
 2330SOL    HW218450   3.302   1.716  15.296  0.1209 -0.4241  0.2733
 2331SOL     OW18451   2.369   4.011   1.749 -0.0646  0.2256  0.1336
 2331SOL    HW118452   2.437   3.956   1.788  0.2294 -1.1083 -2.2350
 2331SOL    HW218453   2.291   3.957   1.762  0.3452 -0.7731 -1.5609
 2332SOL     OW18454   2.165   3.916  17.497  0.2736 -0.5623  0.7160
 2332SOL    HW118455   2.148   3.881  17.584 -0.5143 -0.4569  0.6032
 2332SOL    HW218456   2.087   3.885  17.452  0.6232 -1.0298  0.4384
 2333SOL     OW18457   0.609   0.232  12.569 -0.1037 -0.1430 -0.2509
 2333SOL    HW118458   0.564   0.259  12.489 -0.2300 -1.0498 -0.4851
 2333SOL    HW218459   0.659   0.308  12.601  1.4349 -1.3610  0.2205
 2334SOL     OW18460   2.566   3.657  17.294  0.1648 -0.3343 -0.6634
 2334SOL    HW118461   2.490   3.638  17.240  0.0556 -0.8674 -0.3205
 2334SOL    HW218462   2.527   3.675  17.380 -0.5984 -0.5975 -0.9561
 2335SOL     OW18463   0.523   0.544   2.441  0.4771  0.2238  0.2062
 2335SOL    HW118464   0.534   0.611   2.373 -0.0347 -1.2409 -1.3293
 2335SOL    HW218465   0.599   0.577   2.489  1.1544  0.4152 -0.9866
 2336SOL     OW18466   0.422   2.718   6.447 -0.3361 -0.0384  0.5400
 2336SOL    HW118467   0.400   2.653   6.381 -0.4668 -0.4036  0.9440
 2336SOL    HW218468   0.382   2.682   6.526 -2.8143  0.8086 -0.3368
 2337SOL     OW18469   3.968   2.960   8.265  0.0347 -0.7846  0.4212
 2337SOL    HW118470   3.917   3.009   8.329 -0.6285 -0.6907 -0.1673
 2337SOL    HW218471   3.985   3.023   8.195 -1.4870 -0.3765  0.4067
 2338SOL     OW18472   4.171   2.679   6.020  0.2958  0.0360  0.7854
 2338SOL    HW118473   4.087   2.725   6.013  0.5651  0.2208 -1.2085
 2338SOL    HW218474   4.154   2.608   6.081 -0.1577 -1.8123 -1.4958
 2339SOL     OW18475   1.741   4.395   3.639 -0.8505  0.5085 -0.1094
 2339SOL    HW118476   1.684   4.463   3.673  0.4764  1.8912 -0.6375
 2339SOL    HW218477   1.707   4.318   3.685  0.2446  0.0134 -0.1289
 2340SOL     OW18478   4.196   1.538  10.458  0.1221 -0.6678 -0.4617
 2340SOL    HW118479   4.152   1.601  10.515 -1.1842 -1.7210 -0.2858
 2340SOL    HW218480   4.245   1.485  10.521  1.6597  0.3255 -0.8260
 2341SOL     OW18481   1.040   0.659   3.612 -0.7442 -0.8724  0.5579
 2341SOL    HW118482   1.116   0.690   3.562 -1.8833  0.8202 -0.1107
 2341SOL    HW218483   0.993   0.742   3.619  1.7993  0.5528  0.6547
 2342SOL     OW18484   0.820   2.420   4.583  0.6838  0.4549 -0.4399
 2342SOL    HW118485   0.774   2.339   4.562 -0.9794  1.0173  1.0734
 2342SOL    HW218486   0.742   2.473   4.600  0.9129  0.5640  0.2768
 2343SOL     OW18487   1.369   0.380  15.847  0.0876  0.3374 -0.1862
 2343SOL    HW118488   1.402   0.467  15.869  2.3415 -0.2125 -1.3002
 2343SOL    HW218489   1.337   0.393  15.758 -2.8123  0.5286  0.9099
 2344SOL     OW18490   2.662   3.391   0.079  0.4380 -0.7230  0.6600
 2344SOL    HW118491   2.640   3.412   0.170  0.1796  0.2723  0.3687
 2344SOL    HW218492   2.737   3.446   0.057  0.6923 -0.9788  0.8661
 2345SOL     OW18493   1.483   4.516  11.266 -0.2701 -0.3268  0.4599
 2345SOL    HW118494   1.577   4.524  11.280 -0.0365 -1.2823 -0.5868
 2345SOL    HW218495   1.473   4.561  11.182 -0.3773 -0.3634  0.4532
 2346SOL     OW18496   0.369   1.870   3.483 -0.0541 -0.3946 -0.7263
 2346SOL    HW118497   0.423   1.872   3.405 -0.2163  3.2062 -0.7540
 2346SOL    HW218498   0.296   1.926   3.455  0.1724 -0.3988 -1.3155
 2347SOL     OW18499   1.969   1.483   3.166  0.6611  0.3352  0.2550
 2347SOL    HW118500   1.889   1.536   3.160  0.7015  0.3914  0.2054
 2347SOL    HW218501   1.922   1.399   3.168 -1.9282  1.8484  3.0871
 2348SOL     OW18502   4.563   1.096   4.203 -0.3588  0.0524 -0.5015
 2348SOL    HW118503   4.590   1.127   4.290  1.2920 -0.1138 -0.9548
 2348SOL    HW218504   4.541   1.183   4.168  0.6184 -0.4071 -2.2159
 2349SOL     OW18505   1.066   1.932   7.948 -0.1945  0.1989 -0.6820
 2349SOL    HW118506   1.000   1.868   7.972 -0.0753 -0.3067 -1.6898
 2349SOL    HW218507   1.151   1.890   7.966  0.3596 -0.0728 -3.9033
 2350SOL     OW18508   1.830   4.705   4.570 -0.2528  0.4817 -0.1669
 2350SOL    HW118509   1.809   4.612   4.575  0.1460  0.5796  3.4336
 2350SOL    HW218510   1.899   4.709   4.636 -1.7429 -1.6828  1.5262
 2351SOL     OW18511   2.335   3.436  14.338 -0.3378 -0.1755 -0.4328
 2351SOL    HW118512   2.344   3.363  14.277  0.3778 -0.4466 -0.0111
 2351SOL    HW218513   2.411   3.488  14.313 -0.2877 -0.4334 -0.8074
 2352SOL     OW18514   1.907   1.170   5.487 -0.3529  0.0083 -0.6065
 2352SOL    HW118515   1.973   1.208   5.545 -0.8198  1.5367 -1.0536
 2352SOL    HW218516   1.888   1.088   5.532  1.2761 -0.0584 -0.0609
 2353SOL     OW18517   4.695   2.318  14.933  0.4614  0.2333  0.0488
 2353SOL    HW118518   4.683   2.248  14.998  2.2016  1.2358  1.4642
 2353SOL    HW218519   4.603   2.340  14.921  0.6069  0.4993 -0.5768
 2354SOL     OW18520   4.143   0.266   7.606  0.6536  0.1435  0.4164
 2354SOL    HW118521   4.143   0.248   7.700 -2.9218  0.4613  0.4553
 2354SOL    HW218522   4.158   0.360   7.617 -0.1534  0.3488 -0.2424
 2355SOL     OW18523   1.021   4.462   3.434 -0.0994  0.1008  0.7141
 2355SOL    HW118524   1.112   4.431   3.429  0.2496  1.4456 -1.3484
 2355SOL    HW218525   0.985   4.391   3.381  0.6416 -0.8202  1.4283
 2356SOL     OW18526   4.039   0.112   1.410 -0.3454 -0.7963 -0.3896
 2356SOL    HW118527   4.028   0.205   1.429  3.0992  0.2230 -3.2819
 2356SOL    HW218528   3.998   0.098   1.325  1.0043 -0.4676 -1.1051
 2357SOL     OW18529   4.315   3.853   8.313  0.2690  0.0363 -0.7339
 2357SOL    HW118530   4.267   3.922   8.268 -1.2387 -0.1218  0.5940
 2357SOL    HW218531   4.331   3.890   8.400  0.9910 -0.1079 -0.8029
 2358SOL     OW18532   3.349   2.260   9.541  0.2808  0.0239  0.4508
 2358SOL    HW118533   3.259   2.242   9.514  0.1440 -0.8577  1.4829
 2358SOL    HW218534   3.342   2.324   9.612 -0.5937 -1.4919  1.7368
 2359SOL     OW18535   2.198   2.730   4.024  0.0544  0.1134  0.2316
 2359SOL    HW118536   2.215   2.641   3.993 -1.7339 -0.4007  0.7140
 2359SOL    HW218537   2.104   2.715   4.037  0.2938 -0.8671  0.8747
 2360SOL     OW18538   0.092   1.456  14.020 -1.1428  0.4517 -0.3722
 2360SOL    HW118539   0.177   1.419  14.000 -1.7678 -0.8663 -0.5620
 2360SOL    HW218540   0.075   1.416  14.105 -0.8424 -4.7749 -2.7926
 2361SOL     OW18541   4.573   0.066   8.980 -0.1474  0.0794  0.1973
 2361SOL    HW118542   4.592   0.103   9.066  1.1699  0.0520 -0.0797
 2361SOL    HW218543   4.552   0.154   8.947 -1.1924  0.1956  1.1450
 2362SOL     OW18544   0.997   3.039   6.861 -0.2401 -0.2781 -0.1209
 2362SOL    HW118545   1.021   3.131   6.849  2.9586 -0.8884  1.5452
 2362SOL    HW218546   0.980   3.012   6.771 -3.7639 -0.3575  0.5909
 2363SOL     OW18547   2.704   1.346   2.146  0.0124  0.0694  0.2879
 2363SOL    HW118548   2.655   1.425   2.170  1.0713  1.1601 -1.1163
 2363SOL    HW218549   2.646   1.277   2.178 -1.6458  2.1936  1.9155
 2364SOL     OW18550   3.595   0.985   2.382  0.0798  0.7661 -0.3387
 2364SOL    HW118551   3.525   1.037   2.420  2.4591  1.6102  2.8524
 2364SOL    HW218552   3.553   0.899   2.382  1.3689  0.1442  2.4110
 2365SOL     OW18553   3.475   4.560  10.544  0.3206  0.1371  0.6392
 2365SOL    HW118554   3.426   4.594  10.469 -0.1149 -1.9507 -0.0177
 2365SOL    HW218555   3.525   4.488  10.506 -0.2033  0.9225 -1.5323
 2366SOL     OW18556   2.193   3.493   8.046  0.8063  0.2350  0.6525
 2366SOL    HW118557   2.260   3.470   8.110 -0.2275 -1.2675  1.1931
 2366SOL    HW218558   2.232   3.557   7.986 -0.3138  0.3391  0.0336
 2367SOL     OW18559   4.030   1.365  13.526 -0.0165 -0.3239 -0.0195
 2367SOL    HW118560   3.937   1.386  13.519 -0.2095 -0.9493  0.6797
 2367SOL    HW218561   4.069   1.437  13.476 -0.0481  0.7851  1.5414
 2368SOL     OW18562   1.129   4.687  15.281 -0.0038 -0.3750 -0.0473
 2368SOL    HW118563   1.155   0.003  15.197 -0.5859  0.3687  0.1247
 2368SOL    HW218564   1.100   4.600  15.254 -0.1486 -0.4131  0.2317
 2369SOL     OW18565   0.136   1.410   6.536  0.7776 -0.8360 -0.2546
 2369SOL    HW118566   0.145   1.341   6.471  2.8521  0.0254 -0.8761
 2369SOL    HW218567   0.209   1.465   6.507 -1.3304  0.9717 -2.1145
 2370SOL     OW18568   3.688   1.573   6.005 -0.1740 -0.3201 -0.2752
 2370SOL    HW118569   3.771   1.524   6.013 -0.0529 -0.0144  0.3581
 2370SOL    HW218570   3.631   1.523   6.062  0.7470 -2.8567 -1.5706
 2371SOL     OW18571   1.378   3.080   8.738  0.2204  0.0179 -0.2331
 2371SOL    HW118572   1.342   3.010   8.792  1.9949 -0.6569  0.0715
 2371SOL    HW218573   1.468   3.049   8.729 -0.3755 -1.6597 -0.3182
 2372SOL     OW18574   0.027   4.682  16.486  0.3747 -0.0165  0.5701
 2372SOL    HW118575   4.710   4.685  16.399  1.8487  0.9783 -0.0844
 2372SOL    HW218576   0.114   4.701  16.450 -0.2429 -2.2130 -2.0625
 2373SOL     OW18577   1.850   1.837   6.209 -0.3452  0.2308 -0.2019
 2373SOL    HW118578   1.819   1.844   6.300  0.3755 -0.1891  0.0763
 2373SOL    HW218579   1.784   1.891   6.166 -0.5279 -0.0367 -0.2619
 2374SOL     OW18580   0.893   0.937   2.640  0.4155  0.1147  0.1638
 2374SOL    HW118581   0.864   0.989   2.565  1.6937  0.2835 -0.2024
 2374SOL    HW218582   0.938   0.861   2.602  1.2637 -0.4996  2.3721
 2375SOL     OW18583   1.592   0.981  15.041 -0.0522 -0.1292 -0.2094
 2375SOL    HW118584   1.622   1.033  15.115  2.3939 -1.4007 -0.3057
 2375SOL    HW218585   1.675   0.949  15.006 -0.0367 -0.0394 -0.2544
 2376SOL     OW18586   3.688   1.522  14.837  0.3699  0.5909  1.0325
 2376SOL    HW118587   3.613   1.546  14.781  1.0373 -1.2602 -0.7005
 2376SOL    HW218588   3.692   1.606  14.882 -1.0353 -0.9582  3.9990
 2377SOL     OW18589   1.340   4.092   1.308 -0.2034  0.3364  0.6916
 2377SOL    HW118590   1.390   4.022   1.266  1.2452  2.0264 -0.4462
 2377SOL    HW218591   1.308   4.138   1.230  0.1667  1.1225  1.0096
 2378SOL     OW18592   2.477   3.609   1.684 -0.1750 -0.1282 -0.1241
 2378SOL    HW118593   2.448   3.663   1.611 -1.8984 -0.0689  0.6106
 2378SOL    HW218594   2.394   3.585   1.724 -0.5319 -1.0671 -1.4267
 2379SOL     OW18595   1.436   0.094   4.725 -0.5215  0.4368 -0.3978
 2379SOL    HW118596   1.401   0.123   4.641 -2.2271  1.1478  0.5524
 2379SOL    HW218597   1.516   0.144   4.738 -0.3933 -0.6744  3.0225
 2380SOL     OW18598   1.856   2.490   0.803  0.3108  0.3887  0.2773
 2380SOL    HW118599   1.782   2.469   0.746  0.5145  2.0423 -0.6158
 2380SOL    HW218600   1.901   2.406   0.803  0.5086  0.4923 -0.4800
 2381SOL     OW18601   1.329   4.354  10.070  0.5012  0.4069  0.2547
 2381SOL    HW118602   1.337   4.402   9.987 -0.9343  0.1589 -0.0326
 2381SOL    HW218603   1.422   4.354  10.095  1.2162  2.5593 -2.3831
 2382SOL     OW18604   3.843   4.200   4.974  0.1348  0.8164 -0.0181
 2382SOL    HW118605   3.804   4.272   5.024 -0.5691  0.1589  0.3871
 2382SOL    HW218606   3.777   4.196   4.905 -0.5422  0.4975  0.6360
 2383SOL     OW18607   1.423   4.424   2.541 -0.2696 -0.2078  0.1753
 2383SOL    HW118608   1.396   4.516   2.540  3.1170  0.8023 -0.4417
 2383SOL    HW218609   1.483   4.426   2.466  1.0262 -1.6443  1.1623
 2384SOL     OW18610   2.117   3.169  16.187 -0.0713  0.3171 -0.0166
 2384SOL    HW118611   2.041   3.115  16.208  0.4479 -0.3870  0.0405
 2384SOL    HW218612   2.179   3.140  16.253 -1.2630 -2.0733  0.0231
 2385SOL     OW18613   1.539   3.902   8.123  0.4815 -0.1822  0.1277
 2385SOL    HW118614   1.520   3.971   8.186 -2.1490  0.5193 -1.4456
 2385SOL    HW218615   1.464   3.844   8.120  1.9458 -2.1316  1.0972
 2386SOL     OW18616   1.255   2.476   4.489  0.6003 -0.3222 -0.5475
 2386SOL    HW118617   1.169   2.511   4.468  0.6603  0.8670  1.1999
 2386SOL    HW218618   1.256   2.381   4.476  0.3103 -0.6805  1.9977
 2387SOL     OW18619   0.237   0.594   6.989  0.3778  0.5726  0.2837
 2387SOL    HW118620   0.141   0.593   6.992  0.3270 -0.2623 -1.8772
 2387SOL    HW218621   0.256   0.522   7.050  1.7337  0.4592 -0.2928
 2388SOL     OW18622   3.808   1.894   7.716  0.6705  0.2474 -0.0696
 2388SOL    HW118623   3.885   1.895   7.660  0.4128  0.4288 -0.4146
 2388SOL    HW218624   3.849   1.916   7.800  1.3385 -0.3285 -0.2446
 2389SOL     OW18625   2.687   2.232   5.781 -0.3727 -0.0559 -0.2825
 2389SOL    HW118626   2.701   2.197   5.693  0.2272  2.8240 -1.3270
 2389SOL    HW218627   2.594   2.207   5.784 -0.7027  1.2195  0.1945
 2390SOL     OW18628   3.410   3.337   4.488  0.2649 -0.0725 -0.4097
 2390SOL    HW118629   3.483   3.296   4.442  0.2283 -1.2507  0.5758
 2390SOL    HW218630   3.388   3.282   4.563 -1.9407  0.6743 -0.4936
 2391SOL     OW18631   2.176   0.127  15.982  0.1420 -0.5185 -0.3524
 2391SOL    HW118632   2.264   0.134  15.946  0.6421 -2.7167  0.4161
 2391SOL    HW218633   2.140   0.216  15.977 -1.7502 -1.3547 -1.7760
 2392SOL     OW18634   1.799   4.337  14.149 -0.3764 -0.2623 -0.1134
 2392SOL    HW118635   1.805   4.342  14.053 -1.2658  2.4436 -0.0071
 2392SOL    HW218636   1.886   4.365  14.178 -1.1253  0.5542  1.2991
 2393SOL     OW18637   1.027   0.920   0.339 -0.0213 -0.3427 -0.0280
 2393SOL    HW118638   0.987   0.888   0.420  0.1274 -0.5993 -0.0540
 2393SOL    HW218639   1.119   0.908   0.362  0.2999  1.6725 -0.2904
 2394SOL     OW18640   3.422   4.713   6.023  0.5648 -0.3271 -0.8694
 2394SOL    HW118641   3.412   4.665   6.105  0.5509  1.1596 -0.0001
 2394SOL    HW218642   3.367   4.667   5.959 -0.7171 -0.1133  0.0881
 2395SOL     OW18643   2.643   2.094   2.784 -0.7657  0.2508 -0.7385
 2395SOL    HW118644   2.730   2.089   2.743 -0.7889 -0.6815 -0.6790
 2395SOL    HW218645   2.653   2.017   2.839  2.0899  1.5472  0.5557
 2396SOL     OW18646   3.981   2.671  11.751 -0.2632 -0.0586  0.2484
 2396SOL    HW118647   4.068   2.708  11.735 -0.8344  0.8583 -0.7914
 2396SOL    HW218648   3.923   2.730  11.701  0.6754  0.5401 -0.1343
 2397SOL     OW18649   1.814   2.570   1.769 -0.1562  0.1049  0.7537
 2397SOL    HW118650   1.824   2.516   1.691 -2.3840  2.7750 -1.4242
 2397SOL    HW218651   1.837   2.507   1.837  1.7878 -0.8831 -0.8635
 2398SOL     OW18652   0.822   2.243   5.889 -0.6061 -0.5880  0.0335
 2398SOL    HW118653   0.905   2.256   5.935 -2.2422 -0.3965  2.9615
 2398SOL    HW218654   0.802   2.330   5.855 -0.8861 -0.0758  1.5187
 2399SOL     OW18655   3.157   1.679   7.216  0.6963  0.7817  0.2621
 2399SOL    HW118656   3.094   1.615   7.183  0.0354  2.2593 -1.3867
 2399SOL    HW218657   3.223   1.620   7.252 -0.4057 -0.5464  0.0881
 2400SOL     OW18658   1.257   1.103  14.137 -0.2280  0.5180 -0.0505
 2400SOL    HW118659   1.311   1.037  14.092  0.2979 -0.3956  1.9199
 2400SOL    HW218660   1.318   1.177  14.138  0.4351 -0.0191 -0.2151
 2401SOL     OW18661   4.444   1.160   2.447  0.4043  0.5165 -0.5695
 2401SOL    HW118662   4.350   1.166   2.430  0.6520  0.4772 -1.9543
 2401SOL    HW218663   4.460   1.209   2.528  1.0423 -0.5747 -0.0352
 2402SOL     OW18664   2.126   0.764  10.478 -0.1502 -0.2055 -0.1161
 2402SOL    HW118665   2.144   0.676  10.511 -1.2156  0.3542  1.9454
 2402SOL    HW218666   2.181   0.761  10.399  0.5335 -0.0841  0.3551
 2403SOL     OW18667   4.524   2.950  15.465  0.1885 -0.1854  0.4946
 2403SOL    HW118668   4.592   2.961  15.532 -0.0936  1.3267  0.5220
 2403SOL    HW218669   4.514   2.856  15.479 -1.6804 -0.0406  0.1052
 2404SOL     OW18670   1.250   3.191   0.934 -0.8545 -0.3034 -0.3724
 2404SOL    HW118671   1.343   3.174   0.923 -0.5836  1.2487 -0.5370
 2404SOL    HW218672   1.216   3.102   0.932 -2.4959  0.3839 -2.7841
 2405SOL     OW18673   2.753   3.176   8.446  0.1311 -0.1175  0.3508
 2405SOL    HW118674   2.769   3.130   8.529  0.7185 -2.6417 -1.1664
 2405SOL    HW218675   2.695   3.108   8.411 -0.1321  0.1838  0.2016
 2406SOL     OW18676   2.424   1.349   3.153 -0.3183  0.0381  0.3897
 2406SOL    HW118677   2.519   1.351   3.139 -0.1477 -0.3119  1.4861
 2406SOL    HW218678   2.393   1.285   3.089  0.5717 -0.2440  0.2353
 2407SOL     OW18679   0.470   0.005   5.620  0.1876 -0.3297 -0.0084
 2407SOL    HW118680   0.485   0.100   5.616 -0.1569 -0.3008 -0.5691
 2407SOL    HW218681   0.518   4.701   5.541 -0.5756  0.0592 -0.6043
 2408SOL     OW18682   0.261   1.731  15.727 -0.3231  0.3068  0.0124
 2408SOL    HW118683   0.295   1.694  15.809 -0.4455  0.1675  0.0008
 2408SOL    HW218684   0.340   1.755  15.679 -1.3820 -2.0195 -2.8448
 2409SOL     OW18685   3.272   0.762  14.474 -0.2451 -0.3898  0.0358
 2409SOL    HW118686   3.262   0.849  14.435  1.0584  0.1160  0.8024
 2409SOL    HW218687   3.358   0.740  14.437 -0.1483 -3.7415  2.2937
 2410SOL     OW18688   0.343   2.576   0.935 -0.3550  0.4099 -0.0682
 2410SOL    HW118689   0.311   2.605   0.849 -1.2900  1.3572  0.5954
 2410SOL    HW218690   0.265   2.536   0.974  0.3109 -1.6583 -0.8547
 2411SOL     OW18691   3.567   3.944  12.827  0.7988 -0.0629  0.0249
 2411SOL    HW118692   3.528   4.007  12.888  1.1050  0.1329  0.0186
 2411SOL    HW218693   3.511   3.958  12.752  1.9077 -3.7717 -1.5076
 2412SOL     OW18694   0.593   4.396  17.496  0.6706  0.1051 -0.0731
 2412SOL    HW118695   0.533   4.465  17.524 -0.7833 -0.9556 -0.5955
 2412SOL    HW218696   0.640   4.436  17.422  0.7812 -1.4088 -0.8157
 2413SOL     OW18697   2.315   0.119   3.550  0.1151 -0.1008  0.7974
 2413SOL    HW118698   2.330   0.203   3.506  1.2570  0.3617  2.0878
 2413SOL    HW218699   2.259   0.077   3.484 -0.5994 -1.0592  2.0123
 2414SOL     OW18700   3.637   2.210   8.246  0.8117  0.4907  0.1376
 2414SOL    HW118701   3.732   2.225   8.250  1.1378 -1.1661 -1.6048
 2414SOL    HW218702   3.619   2.164   8.164  3.9387 -1.1363  0.3715
 2415SOL     OW18703   3.629   0.615   7.209 -0.1898 -0.7665 -0.4158
 2415SOL    HW118704   3.556   0.554   7.200  1.2323 -2.7841  1.8557
 2415SOL    HW218705   3.586   0.680   7.264  0.7251  0.7915 -1.5234
 2416SOL     OW18706   0.495   2.496   4.838  0.6845 -0.1053 -0.9173
 2416SOL    HW118707   0.511   2.436   4.765 -1.7333  1.0065 -2.3348
 2416SOL    HW218708   0.562   2.561   4.823  0.1492  0.6561 -0.0215
 2417SOL     OW18709   1.628   2.846  14.223  0.8655  0.0433 -0.3875
 2417SOL    HW118710   1.600   2.857  14.133  5.4922  0.9932 -1.7326
 2417SOL    HW218711   1.636   2.751  14.224 -1.6259 -0.1566  0.2630
 2418SOL     OW18712   1.870   3.722   6.428  0.1248 -0.0523  0.2273
 2418SOL    HW118713   1.847   3.784   6.497 -0.4597 -1.2572  1.1227
 2418SOL    HW218714   1.875   3.788   6.359 -0.9320 -0.4104 -0.2083
 2419SOL     OW18715   2.174   3.235   1.606 -0.1785  0.0885  0.1526
 2419SOL    HW118716   2.246   3.298   1.604  0.2061 -0.3520  0.0817
 2419SOL    HW218717   2.145   3.227   1.515 -1.4305  2.4783  0.3396
 2420SOL     OW18718   3.652   1.567   7.532 -0.5571  0.2725  0.0492
 2420SOL    HW118719   3.581   1.630   7.516 -1.3483 -1.4440 -3.1360
 2420SOL    HW218720   3.712   1.601   7.466  1.0815 -1.5553  0.6154
 2421SOL     OW18721   2.456   2.777   5.453 -0.6237 -0.5957 -0.1970
 2421SOL    HW118722   2.433   2.850   5.509  1.3194  0.6424 -1.0032
 2421SOL    HW218723   2.551   2.779   5.441 -0.2938 -2.4009  2.1528
 2422SOL     OW18724   0.053   1.133   3.542  0.0392 -0.1904 -0.0068
 2422SOL    HW118725   4.709   1.095   3.598 -0.8767  0.7886 -0.4549
 2422SOL    HW218726   0.055   1.226   3.564 -0.6033  0.0688 -1.0927
 2423SOL     OW18727   4.151   1.832  10.905 -0.2353  0.5853 -0.5313
 2423SOL    HW118728   4.191   1.745  10.903  0.3635  0.8492 -0.0054
 2423SOL    HW218729   4.112   1.835  10.992  0.0507  1.4018 -0.4279
 2424SOL     OW18730   2.252   1.349   3.459  0.2861 -0.0492 -0.1376
 2424SOL    HW118731   2.298   1.401   3.393  0.4961 -0.1529 -0.0732
 2424SOL    HW218732   2.325   1.302   3.500  0.1769  0.9719  1.2319
 2425SOL     OW18733   1.059   0.098   2.499  0.1155 -0.2865  0.8887
 2425SOL    HW118734   1.018   0.150   2.430  0.1085  0.9047  1.7782
 2425SOL    HW218735   1.006   0.117   2.577 -1.9455 -1.7049 -0.1707
 2426SOL     OW18736   1.961   2.495   6.132 -0.5939 -0.2555 -0.2532
 2426SOL    HW118737   2.022   2.448   6.188  1.5905 -1.4217 -3.6377
 2426SOL    HW218738   2.011   2.577   6.129 -1.2258  0.1158 -0.9297
 2427SOL     OW18739   3.304   3.982   5.055  0.1910  0.0741  0.1474
 2427SOL    HW118740   3.231   4.011   5.000 -0.7066 -0.0811  1.2524
 2427SOL    HW218741   3.337   4.066   5.086 -0.7297  0.5348 -0.1178
 2428SOL     OW18742   4.587   3.817   7.603 -0.3723  0.1562  0.6536
 2428SOL    HW118743   4.656   3.757   7.632 -0.8080 -0.7488 -0.1746
 2428SOL    HW218744   4.630   3.893   7.640 -0.3531  2.9850 -5.1082
 2429SOL     OW18745   2.958   0.226   5.710 -0.0765 -0.1810 -0.3999
 2429SOL    HW118746   2.929   0.314   5.736  0.6317  0.0889 -0.5146
 2429SOL    HW218747   2.881   0.186   5.751  0.7187  0.0151  1.2769
 2430SOL     OW18748   1.835   2.823   7.102  0.5078  0.5498 -0.1972
 2430SOL    HW118749   1.855   2.890   7.036 -0.8823  0.0191 -1.1423
 2430SOL    HW218750   1.852   2.747   7.047  0.6457  0.2827  0.2155
 2431SOL     OW18751   3.050   3.018  17.557  0.2482 -0.0099 -0.2020
 2431SOL    HW118752   3.092   3.103  17.564 -0.2323  0.2116 -0.0107
 2431SOL    HW218753   3.099   2.960  17.499 -1.0931 -1.3646  0.0066
 2432SOL     OW18754   3.841   1.452   3.874 -0.0433 -0.4583  0.0772
 2432SOL    HW118755   3.838   1.361   3.845  0.4258 -0.5753  0.4234
 2432SOL    HW218756   3.753   1.489   3.882 -0.5372 -1.2572 -1.5358
 2433SOL     OW18757   3.499   3.553  11.053 -0.2507  0.1732  0.1668
 2433SOL    HW118758   3.520   3.474  11.102 -0.5017 -0.6157 -1.0030
 2433SOL    HW218759   3.476   3.521  10.966 -0.9940  2.7939 -0.6133
 2434SOL     OW18760   3.021   0.809   4.765  0.2128  0.0917 -0.2397
 2434SOL    HW118761   3.054   0.719   4.756 -0.8934 -0.6798  3.5441
 2434SOL    HW218762   3.016   0.843   4.675 -1.4772 -3.0719 -1.3673
 2435SOL     OW18763   0.980   0.283   8.544 -0.3603  0.0611  1.1625
 2435SOL    HW118764   1.013   0.276   8.633 -0.6290 -3.3654  0.9782
 2435SOL    HW218765   0.897   0.235   8.549 -0.2604 -0.0772  1.4752
 2436SOL     OW18766   3.993   3.354   2.103 -0.0893 -0.5534 -0.5928
 2436SOL    HW118767   4.081   3.385   2.124 -0.3888 -0.2282  0.1663
 2436SOL    HW218768   3.973   3.403   2.024  0.8237 -1.7681 -1.5829
 2437SOL     OW18769   0.615   2.497   2.205  0.0429 -0.1285  0.3314
 2437SOL    HW118770   0.602   2.420   2.260 -0.8843  0.2261  0.5982
 2437SOL    HW218771   0.620   2.565   2.273  2.1041  1.1010 -1.0295
 2438SOL     OW18772   0.437   4.177  11.494  0.5024  0.2438  0.0264
 2438SOL    HW118773   0.428   4.104  11.432 -1.1436 -0.5240  1.1547
 2438SOL    HW218774   0.352   4.219  11.506  0.8653  0.9679  0.0661
 2439SOL     OW18775   3.931   1.116  10.967 -0.4877  0.2163 -1.0811
 2439SOL    HW118776   3.943   1.022  10.955 -5.7101 -0.3483 -1.9707
 2439SOL    HW218777   3.864   1.123  11.035  0.7104 -2.0544  0.3231
 2440SOL     OW18778   3.432   1.269   6.602  0.1267  0.0020  0.3236
 2440SOL    HW118779   3.352   1.231   6.566  1.0255  0.9590 -2.6243
 2440SOL    HW218780   3.467   1.315   6.526 -0.4029 -0.6297 -0.3034
 2441SOL     OW18781   0.725   4.000   0.080  0.1577 -0.1892  0.3134
 2441SOL    HW118782   0.682   4.085   0.078  1.6332  0.5862  1.6804
 2441SOL    HW218783   0.803   4.015   0.026  0.9856  0.4908  1.7105
 2442SOL     OW18784   4.418   1.682   3.405  0.1846 -0.0644  0.2659
 2442SOL    HW118785   4.331   1.649   3.386  0.1121  0.2540  0.0485
 2442SOL    HW218786   4.391   1.761   3.451  1.5621  0.1532  0.7214
 2443SOL     OW18787   1.694   0.234   8.748  0.2602 -0.1117 -0.2604
 2443SOL    HW118788   1.615   0.220   8.799 -0.8264  0.0395 -1.8877
 2443SOL    HW218789   1.752   0.192   8.811  1.6380 -1.5554 -2.4868
 2444SOL     OW18790   3.831   2.555   0.880  0.5697 -0.5683  0.2063
 2444SOL    HW118791   3.778   2.509   0.945 -0.4719  0.5377  0.1308
 2444SOL    HW218792   3.846   2.646   0.905  2.5404 -0.5288 -1.0699
 2445SOL     OW18793   3.641   0.325   4.808  0.0261  0.1090 -0.4134
 2445SOL    HW118794   3.577   0.286   4.748  0.1199  0.6871 -0.8909
 2445SOL    HW218795   3.599   0.410   4.811 -1.4334 -0.6010 -0.7699
 2446SOL     OW18796   0.057   1.964   6.454  0.1987 -1.2136  0.0047
 2446SOL    HW118797   0.012   1.892   6.499 -0.6096 -1.5771 -1.3804
 2446SOL    HW218798   0.117   1.927   6.389 -0.1613 -0.6776 -0.6309
 2447SOL     OW18799   3.375   3.362  11.359 -0.2874  0.0324 -0.0833
 2447SOL    HW118800   3.433   3.346  11.284  1.6629  1.0162  1.2215
 2447SOL    HW218801   3.416   3.439  11.397 -0.1690 -0.7509  1.3813
 2448SOL     OW18802   1.074   3.392  13.759  0.3521 -0.4158  0.8790
 2448SOL    HW118803   0.987   3.411  13.725  0.0781 -0.6773  1.4425
 2448SOL    HW218804   1.131   3.458  13.721 -1.0030  0.2427 -0.0164
 2449SOL     OW18805   0.228   3.150   7.453  0.0909 -0.1297 -0.4063
 2449SOL    HW118806   0.176   3.089   7.402 -0.5926 -0.0461  0.1883
 2449SOL    HW218807   0.193   3.115   7.535 -1.1592  3.0526  0.3947
 2450SOL     OW18808   3.978   1.104   7.912  0.5501  0.2324 -0.0610
 2450SOL    HW118809   3.932   1.046   7.973  0.4161 -0.2451 -0.6157
 2450SOL    HW218810   3.914   1.175   7.905  0.2963  0.3300  3.4436
 2451SOL     OW18811   1.087   2.672  10.177 -0.0130 -0.0036 -0.4752
 2451SOL    HW118812   1.081   2.617  10.256 -0.3041 -0.1129 -0.5722
 2451SOL    HW218813   1.027   2.744  10.196 -1.0107 -1.0599  0.4706
 2452SOL     OW18814   4.139   2.107   1.480 -0.1874  0.5916  0.2388
 2452SOL    HW118815   4.106   2.153   1.403 -0.6445  0.1726  0.1883
 2452SOL    HW218816   4.227   2.143   1.482 -0.2581  0.8751 -2.6776
 2453SOL     OW18817   0.324   2.838   1.646 -0.2277 -0.2557  0.1737
 2453SOL    HW118818   0.261   2.901   1.680  1.1402  1.7905 -1.0545
 2453SOL    HW218819   0.274   2.761   1.673  2.9666 -1.3135  3.1145
 2454SOL     OW18820   0.607   4.200  16.131  0.0976 -0.3136 -0.4457
 2454SOL    HW118821   0.604   4.175  16.223 -1.6012  3.5309  0.5412
 2454SOL    HW218822   0.545   4.272  16.139  1.1771  0.4469  1.0191
 2455SOL     OW18823   4.444   1.993   8.012 -0.2483 -0.3951  0.4596
 2455SOL    HW118824   4.515   1.937   7.981  0.3546  0.2513  0.6525
 2455SOL    HW218825   4.410   1.956   8.093  1.9435 -1.9877  0.6487
 2456SOL     OW18826   2.304   0.252   4.585 -0.5322  0.4892  0.2255
 2456SOL    HW118827   2.214   0.235   4.555  0.0584 -0.6314 -0.8895
 2456SOL    HW218828   2.341   0.310   4.519 -0.2301  0.2929  0.2218
 2457SOL     OW18829   4.271   3.014   5.928 -0.2089 -0.7339  0.4205
 2457SOL    HW118830   4.178   3.005   5.909 -0.2189 -0.2786  0.2559
 2457SOL    HW218831   4.267   2.978   6.016  1.0456 -1.6476  0.1027
 2458SOL     OW18832   0.195   1.901  13.560  0.6180 -0.5061  0.7516
 2458SOL    HW118833   0.280   1.865  13.585  0.3996 -2.4069 -1.2213
 2458SOL    HW218834   0.146   1.820  13.574  1.5894 -1.2400 -0.0737
 2459SOL     OW18835   1.091   0.823   5.316 -0.5264 -0.5995 -0.4775
 2459SOL    HW118836   1.170   0.788   5.275  0.1318 -0.1396  0.3953
 2459SOL    HW218837   1.047   0.857   5.238  2.0063 -0.3972 -1.8069
 2460SOL     OW18838   3.512   0.787   3.780  0.4070  0.1412  0.2232
 2460SOL    HW118839   3.486   0.847   3.850  0.2006 -2.2294  2.1845
 2460SOL    HW218840   3.449   0.817   3.715  0.7103  0.1314 -0.0741
 2461SOL     OW18841   2.060   0.633   3.877 -0.4504 -0.2778  0.0112
 2461SOL    HW118842   2.075   0.715   3.828 -0.4740  0.4454  1.2214
 2461SOL    HW218843   2.109   0.652   3.957  0.4244  2.0181 -1.0641
 2462SOL     OW18844   1.406   0.173  16.731 -0.6087  0.1848 -0.4522
 2462SOL    HW118845   1.397   0.079  16.748  0.5916  0.1175 -0.1456
 2462SOL    HW218846   1.482   0.173  16.673 -0.3651 -0.5220 -0.1355
 2463SOL     OW18847   1.126   3.139  14.294 -0.2526 -0.1302 -0.0966
 2463SOL    HW118848   1.172   3.195  14.357  0.3628 -0.2112 -0.4765
 2463SOL    HW218849   1.206   3.087  14.296 -0.3087 -0.3163 -2.9384
 2464SOL     OW18850   2.484   3.971   4.874 -0.4695  0.2359 -0.3100
 2464SOL    HW118851   2.518   3.900   4.929 -0.3732 -1.1269 -2.1349
 2464SOL    HW218852   2.402   3.932   4.844  0.0596 -2.0507  1.1677
 2465SOL     OW18853   1.780   1.073   8.207 -0.0199 -0.2507  0.1564
 2465SOL    HW118854   1.809   1.027   8.128  0.7102 -0.6804  0.6792
 2465SOL    HW218855   1.819   1.160   8.204 -0.3957 -0.1051 -0.7462
 2466SOL     OW18856   3.728   3.087   9.464 -0.0721  0.2608  0.0407
 2466SOL    HW118857   3.760   3.146   9.532  0.7275  0.7727 -0.7728
 2466SOL    HW218858   3.648   3.051   9.501 -0.2883 -0.4948 -1.1554
 2467SOL     OW18859   2.188   2.777   5.037 -0.6910 -0.0245  0.2552
 2467SOL    HW118860   2.094   2.795   5.038 -0.8715 -1.1197  2.6872
 2467SOL    HW218861   2.193   2.717   5.111 -2.3074 -0.2396  0.1984
 2468SOL     OW18862   0.913   2.967  14.425 -0.9712 -0.4961  0.7978
 2468SOL    HW118863   0.978   3.012  14.371 -1.1537 -0.8713  0.2709
 2468SOL    HW218864   0.928   2.875  14.403 -1.2789 -1.5650  5.0997
 2469SOL     OW18865   3.216   2.852   3.207 -0.3385  0.2559  0.3085
 2469SOL    HW118866   3.232   2.859   3.301 -3.2657 -1.1043  0.9225
 2469SOL    HW218867   3.302   2.818   3.183 -0.8135  0.3355 -1.4804
 2470SOL     OW18868   2.189   3.150   4.234  0.3303 -0.2584  0.7411
 2470SOL    HW118869   2.228   3.086   4.174  1.1485  1.3029 -0.4104
 2470SOL    HW218870   2.113   3.102   4.266 -0.4688  1.2648  1.1118
 2471SOL     OW18871   2.612   2.634  14.714  0.7097 -0.8240 -0.4163
 2471SOL    HW118872   2.560   2.690  14.656 -3.0297 -1.9764  1.7841
 2471SOL    HW218873   2.552   2.566  14.745 -1.1840  0.5948 -0.9949
 2472SOL     OW18874   0.554   2.864   5.495 -0.2177 -0.2640 -0.4877
 2472SOL    HW118875   0.480   2.818   5.457 -0.0429 -1.9025  1.1370
 2472SOL    HW218876   0.590   2.916   5.424 -0.9643 -0.7569 -1.2192
 2473SOL     OW18877   3.093   1.610  10.981 -0.1807 -0.1977  0.3037
 2473SOL    HW118878   3.184   1.627  11.002 -0.4474  2.1944 -0.4735
 2473SOL    HW218879   3.100   1.625  10.887  0.1695 -1.2454  0.1625
 2474SOL     OW18880   0.070   4.324   8.271  0.6223 -0.0987  0.3155
 2474SOL    HW118881   0.123   4.403   8.275  0.7135 -0.1111 -0.8402
 2474SOL    HW218882   4.710   4.362   8.241 -0.4747 -0.8154  2.4142
 2475SOL     OW18883   4.317   1.682   8.936  0.1370  0.5215  0.9781
 2475SOL    HW118884   4.308   1.613   8.871  0.8500  0.9737  0.3927
 2475SOL    HW218885   4.401   1.656   8.973  1.0888  0.3017 -1.3026
 2476SOL     OW18886   3.810   2.742   2.691  1.4826  0.0841  0.3076
 2476SOL    HW118887   3.744   2.808   2.668 -1.1870 -2.7228 -0.0198
 2476SOL    HW218888   3.857   2.745   2.608  1.0689  2.0021  0.1463
 2477SOL     OW18889   3.139   1.154  11.939 -0.2626  0.7520  0.0863
 2477SOL    HW118890   3.225   1.113  11.936 -0.8461 -0.4382 -0.3844
 2477SOL    HW218891   3.134   1.199  11.854  0.9960  1.5203  0.4162
 2478SOL     OW18892   3.655   1.922   9.223  0.2778  0.3415  0.5686
 2478SOL    HW118893   3.637   1.993   9.284 -3.8224  0.1415 -0.3684
 2478SOL    HW218894   3.696   1.862   9.284  0.5830  0.0430  0.0697
 2479SOL     OW18895   3.646   4.413   8.995 -0.0386  0.1197 -0.2903
 2479SOL    HW118896   3.599   4.492   9.022 -0.8460 -0.0723 -1.1670
 2479SOL    HW218897   3.656   4.436   8.903 -1.8264  0.0534 -0.5023
 2480SOL     OW18898   3.429   4.099  13.269  0.3997  0.2892  0.3290
 2480SOL    HW118899   3.417   4.159  13.344 -0.0556  1.2830 -0.5277
 2480SOL    HW218900   3.335   4.083  13.256  0.3378  1.9665 -1.3036
 2481SOL     OW18901   1.343   1.935   8.465  0.2324  0.2275 -0.2256
 2481SOL    HW118902   1.342   1.935   8.369  2.1985  0.5994 -0.2355
 2481SOL    HW218903   1.405   2.008   8.467 -1.4066  1.6333 -0.5892
 2482SOL     OW18904   0.064   0.473   5.023 -0.5032 -0.2434 -0.2108
 2482SOL    HW118905   0.081   0.381   5.004  0.1299 -0.3440  0.7932
 2482SOL    HW218906   0.149   0.515   5.037  0.3694 -2.5528  1.4299
 2483SOL     OW18907   1.541   0.001   6.926  0.1473 -0.1768 -0.1026
 2483SOL    HW118908   1.507   0.026   6.840 -0.2948 -1.3650 -0.2651
 2483SOL    HW218909   1.460   4.683   6.953  0.2907 -0.8905 -0.7613
 2484SOL     OW18910   2.602   3.570   2.819  0.3848 -0.3719  0.3587
 2484SOL    HW118911   2.641   3.490   2.782  0.6672 -1.3006  2.6420
 2484SOL    HW218912   2.599   3.621   2.738  2.3368 -0.8575 -0.0432
 2485SOL     OW18913   1.493   2.909   7.542 -0.4388  0.3174  0.1199
 2485SOL    HW118914   1.479   2.870   7.456  1.7409  0.2660 -0.2190
 2485SOL    HW218915   1.402   2.920   7.570 -0.1696  0.5985  0.9086
 2486SOL     OW18916   2.384   4.211   2.410  0.2549  0.1910  0.2218
 2486SOL    HW118917   2.476   4.223   2.434 -0.6884  2.7208  2.5341
 2486SOL    HW218918   2.387   4.162   2.328  2.2170 -0.4326  0.6734
 2487SOL     OW18919   3.387   0.362   7.953  0.0742  0.0154 -0.2175
 2487SOL    HW118920   3.345   0.330   7.874  1.0151 -0.2794 -0.6015
 2487SOL    HW218921   3.395   0.455   7.930 -2.9724  0.3093 -0.0867
 2488SOL     OW18922   0.719   2.367   6.614  0.3128  0.0794  0.2524
 2488SOL    HW118923   0.629   2.353   6.585  0.6450  0.2038 -0.8418
 2488SOL    HW218924   0.712   2.438   6.679 -1.0755  1.2848 -1.2052
 2489SOL     OW18925   1.533   3.571  17.251  0.1206  0.1249 -0.3019
 2489SOL    HW118926   1.556   3.561  17.343  2.7091  0.3806 -0.9192
 2489SOL    HW218927   1.541   3.666  17.251  0.8744  0.0587 -1.7494
 2490SOL     OW18928   3.891   1.541  12.490 -0.5521 -0.6232 -0.3493
 2490SOL    HW118929   3.881   1.467  12.549  0.5911 -1.9770 -1.8486
 2490SOL    HW218930   3.817   1.535  12.430 -0.6995  0.8881 -0.3113
 2491SOL     OW18931   2.457   0.768   3.838  0.2273 -0.7453 -0.0656
 2491SOL    HW118932   2.403   0.829   3.890 -0.8758 -0.4939 -1.5098
 2491SOL    HW218933   2.545   0.797   3.862 -0.3975  1.5442 -0.4588
 2492SOL     OW18934   2.092   3.015  13.961  0.4150 -0.2063  0.3795
 2492SOL    HW118935   2.092   3.077  14.033 -0.1882  0.4863 -0.2203
 2492SOL    HW218936   2.000   2.989  13.968 -0.1560  1.5757 -0.3911
 2493SOL     OW18937   0.342   3.226   2.507  0.0510 -0.1328 -0.0720
 2493SOL    HW118938   0.256   3.253   2.538 -0.4256 -0.9195 -0.6930
 2493SOL    HW218939   0.400   3.290   2.547 -1.3968  2.0309 -1.4788
 2494SOL     OW18940   4.135   1.665   2.327  0.1373  0.7605  0.0776
 2494SOL    HW118941   4.157   1.573   2.312 -0.8916  0.8909 -2.1804
 2494SOL    HW218942   4.152   1.678   2.420 -2.1263 -0.7292  0.6857
 2495SOL     OW18943   0.173   0.184  17.628  0.1641 -0.2374  0.1544
 2495SOL    HW118944   0.198   0.274  17.609  2.1634 -0.3146  2.4020
 2495SOL    HW218945   0.259   0.146  17.643  1.4282  1.8935 -1.7837
 2496SOL     OW18946   3.771   1.346   3.032 -0.7232 -0.6815  0.4775
 2496SOL    HW118947   3.828   1.413   3.070 -0.8172  0.1964 -0.9565
 2496SOL    HW218948   3.836   1.283   3.004  1.5498  0.9814  1.9826
 2497SOL     OW18949   3.129   4.309  15.336 -0.5304  0.3195 -0.0928
 2497SOL    HW118950   3.214   4.272  15.358  0.6483  2.6451 -0.6387
 2497SOL    HW218951   3.130   4.288  15.242  0.3799  0.6482 -0.1607
 2498SOL     OW18952   0.884   1.286   5.076 -0.2929  0.0551 -1.0618
 2498SOL    HW118953   0.805   1.255   5.120 -1.2187 -2.0123 -4.2072
 2498SOL    HW218954   0.944   1.234   5.130 -0.6924 -0.2446 -0.9047
 2499SOL     OW18955   0.327   0.892   2.469 -0.1096  0.3789  0.4083
 2499SOL    HW118956   0.367   0.946   2.538 -0.8495  2.0815 -0.5004
 2499SOL    HW218957   0.311   0.807   2.509  0.1306  0.2706  0.2751
 2500SOL     OW18958   0.815   4.145   8.278 -1.1335 -0.0226 -0.3914
 2500SOL    HW118959   0.742   4.174   8.333 -0.5351  0.0687  0.3579
 2500SOL    HW218960   0.769   4.143   8.194  0.2463 -1.4568 -1.1054
 2501SOL     OW18961   2.535   4.698   3.360  0.7507  0.6732 -0.0412
 2501SOL    HW118962   2.529   0.066   3.389 -0.4740  1.5876 -3.1542
 2501SOL    HW218963   2.542   4.710   3.266 -2.1197 -0.2329 -0.3626
 2502SOL     OW18964   2.700   2.478   9.911  0.5714 -0.3885 -0.0620
 2502SOL    HW118965   2.653   2.503   9.832  0.3253  1.6354  0.7224
 2502SOL    HW218966   2.646   2.519   9.979 -0.8281 -0.4756 -1.1407
 2503SOL     OW18967   1.490   2.847   2.407  0.2313  0.2143 -0.6268
 2503SOL    HW118968   1.414   2.898   2.381 -0.6304 -0.9965 -0.4989
 2503SOL    HW218969   1.463   2.804   2.489  0.0924  0.5938 -0.4763
 2504SOL     OW18970   1.562   3.055   3.460 -0.0869  0.1415  0.6363
 2504SOL    HW118971   1.646   3.050   3.415 -0.9109 -1.6387 -0.7044
 2504SOL    HW218972   1.575   3.124   3.525 -1.5483  1.1808 -0.1689
 2505SOL     OW18973   0.972   4.511   6.855  0.3883  0.5636  0.0269
 2505SOL    HW118974   0.954   4.566   6.779  0.3733  1.0080  0.3553
 2505SOL    HW218975   0.883   4.483   6.874  0.6480 -1.2280 -1.3372
 2506SOL     OW18976   2.160   2.213  10.091 -0.3355 -0.4631 -0.2469
 2506SOL    HW118977   2.083   2.234  10.144  0.9882  2.7936  0.3730
 2506SOL    HW218978   2.228   2.227  10.157  0.0762  0.6075 -0.9039
 2507SOL     OW18979   2.020   4.613   3.602  0.0845 -0.5277  0.1830
 2507SOL    HW118980   1.965   4.567   3.539 -2.2539 -0.1510  1.9576
 2507SOL    HW218981   2.069   4.542   3.644  3.3327  2.1458  0.9389
 2508SOL     OW18982   0.325   4.625   5.375 -0.2211 -0.1746 -0.4776
 2508SOL    HW118983   0.313   4.704   5.427 -1.8170  0.4761 -1.8359
 2508SOL    HW218984   0.421   4.620   5.373 -0.1952 -0.1702  0.8870
 2509SOL     OW18985   3.529   0.370   2.647  0.1419 -0.3483 -0.1387
 2509SOL    HW118986   3.523   0.417   2.564 -0.2246 -1.8674 -0.9900
 2509SOL    HW218987   3.558   0.437   2.708 -0.3911  0.5284 -0.8538
 2510SOL     OW18988   1.930   2.119   5.884 -0.3330 -0.1213 -0.2335
 2510SOL    HW118989   1.922   2.089   5.793 -0.6731 -0.9652  0.0761
 2510SOL    HW218990   1.874   2.196   5.886  2.4622  1.8968 -0.8357
 2511SOL     OW18991   1.358   1.621   6.206 -0.3825  0.6943  0.1383
 2511SOL    HW118992   1.397   1.638   6.292  0.8922 -2.8882  0.2728
 2511SOL    HW218993   1.408   1.545   6.177 -1.5778  0.6015 -1.6934
 2512SOL     OW18994   4.318   4.085   1.055  0.1903 -0.8416  0.2089
 2512SOL    HW118995   4.332   4.047   1.142  0.0884  2.1662  1.5646
 2512SOL    HW218996   4.266   4.021   1.008 -0.9396 -0.4856  0.9864
 2513SOL     OW18997   3.922   1.524  14.661  0.2089 -0.1442  0.7754
 2513SOL    HW118998   3.928   1.617  14.682 -1.3919  0.3199 -0.7766
 2513SOL    HW218999   3.849   1.503  14.720 -0.3495  0.9707  0.4828
 2514SOL     OW19000   4.440   1.698  11.326  0.3211  0.8470 -0.3171
 2514SOL    HW119001   4.497   1.680  11.400 -1.4661  1.2398  1.1396
 2514SOL    HW219002   4.501   1.703  11.252 -0.8740  1.7134 -1.2460
 2515SOL     OW19003   4.237   2.399   3.396 -0.4707 -0.2991 -0.1756
 2515SOL    HW119004   4.329   2.424   3.405 -0.8751  1.9836 -2.6068
 2515SOL    HW219005   4.214   2.354   3.478 -2.2629 -0.7223 -0.9226
 2516SOL     OW19006   0.429   0.117  17.665 -0.2392 -0.0204  0.0811
 2516SOL    HW119007   0.449   0.043  17.608  0.8220  0.7503 -0.5353
 2516SOL    HW219008   0.474   0.092   0.051 -0.3853  1.2182  0.5511
 2517SOL     OW19009   2.730   1.168   6.214 -0.7764  0.4030  0.0494
 2517SOL    HW119010   2.825   1.176   6.207 -0.9448  0.2392 -2.4020
 2517SOL    HW219011   2.715   1.078   6.184 -0.1817  0.3294 -0.0367
 2518SOL     OW19012   2.492   1.005  15.227 -0.0656  0.4199  0.5412
 2518SOL    HW119013   2.528   1.079  15.179  1.9664 -0.5203  0.6388
 2518SOL    HW219014   2.403   0.995  15.192 -0.1047 -0.3800  0.8473
 2519SOL     OW19015   0.087   0.533  17.299  0.0073 -0.0083 -0.1904
 2519SOL    HW119016   4.718   0.509  17.286  0.8153 -4.0505  1.4970
 2519SOL    HW219017   0.103   0.585  17.220  0.2586  0.7243  0.3538
 2520SOL     OW19018   1.124   1.058   8.898  0.1134 -0.2398  0.1020
 2520SOL    HW119019   1.199   1.074   8.955 -0.4065 -1.8454  1.2340
 2520SOL    HW219020   1.068   0.987   8.930 -0.4059 -0.0694 -0.4272
 2521SOL     OW19021   3.104   2.677  17.590  0.0135 -0.0363 -0.1852
 2521SOL    HW119022   3.137   2.662  17.679 -1.1806  0.3604  0.3237
 2521SOL    HW219023   3.016   2.638  17.593 -0.9885  2.2313 -0.5857
 2522SOL     OW19024   2.261   2.522   4.373  0.1931 -0.0245 -0.1041
 2522SOL    HW119025   2.177   2.551   4.408  0.2269 -1.6527  1.3331
 2522SOL    HW219026   2.276   2.584   4.302 -1.4159  0.1493 -0.2914
 2523SOL     OW19027   0.527   0.734   7.460  0.2548  0.1990  0.2872
 2523SOL    HW119028   0.484   0.784   7.529 -0.4712 -1.0108  0.7186
 2523SOL    HW219029   0.461   0.672   7.426  0.2675 -0.8921  2.2696
 2524SOL     OW19030   3.098   0.775   7.436 -0.3097 -0.2076  0.3498
 2524SOL    HW119031   3.171   0.730   7.394 -0.1343 -1.0462  1.5390
 2524SOL    HW219032   3.046   0.698   7.461 -0.0642  0.6008  3.3461
 2525SOL     OW19033   0.609   3.943  10.695 -0.3596 -0.1756 -0.5852
 2525SOL    HW119034   0.556   4.022  10.700  2.4119  1.7913 -2.1063
 2525SOL    HW219035   0.668   3.951  10.770 -0.7518  1.5170 -0.4488
 2526SOL     OW19036   3.605   1.873   1.770  0.3767 -0.7274 -0.0764
 2526SOL    HW119037   3.579   1.781   1.763  1.9381 -1.2623  1.1079
 2526SOL    HW219038   3.667   1.874   1.843 -2.7545 -1.2224  2.5945
 2527SOL     OW19039   0.176   3.230  16.073 -0.1884  0.1438  0.8409
 2527SOL    HW119040   0.251   3.217  16.131 -0.6851 -1.5993  1.1104
 2527SOL    HW219041   0.177   3.152  16.017 -1.0958  1.4581 -1.0124
 2528SOL     OW19042   0.652   3.458  14.001  0.3516  0.2970 -0.2811
 2528SOL    HW119043   0.667   3.396  13.930 -0.1967  0.2882 -0.3884
 2528SOL    HW219044   0.625   3.543  13.966 -1.3310  0.4387  1.3846
 2529SOL     OW19045   1.640   0.568  16.013  0.2311 -0.2683 -0.0704
 2529SOL    HW119046   1.642   0.520  16.096 -0.1823  0.8204  0.5721
 2529SOL    HW219047   1.651   0.505  15.942 -1.5608  0.8675 -1.3704
 2530SOL     OW19048   3.819   3.150   8.961  0.3638  0.2361  0.0868
 2530SOL    HW119049   3.914   3.157   8.975  0.7298 -1.4135 -1.5595
 2530SOL    HW219050   3.794   3.195   9.042  0.3760 -2.1611  1.3952
 2531SOL     OW19051   0.154   2.976   5.038 -0.2031  0.3222  0.8103
 2531SOL    HW119052   0.063   2.968   5.010 -0.3509  0.5127  1.2391
 2531SOL    HW219053   0.191   3.021   4.963 -2.4752 -1.3607 -1.3250
 2532SOL     OW19054   4.064   0.425   2.529  0.0205  0.0614 -0.0222
 2532SOL    HW119055   3.988   0.372   2.556 -0.4054  0.6190 -0.1403
 2532SOL    HW219056   4.012   0.477   2.468  0.3050  1.3051  0.8063
 2533SOL     OW19057   0.273   0.584   8.820  0.1312 -0.1791  0.3531
 2533SOL    HW119058   0.204   0.638   8.860 -1.6312 -0.6231 -2.1357
 2533SOL    HW219059   0.290   0.630   8.739  0.2164  0.7999  0.9260
 2534SOL     OW19060   0.108   1.218   3.018 -0.9217 -0.0352 -0.3402
 2534SOL    HW119061   0.077   1.195   3.106 -0.8496  0.9604 -0.0582
 2534SOL    HW219062   0.177   1.281   3.037  1.1609 -2.2663 -0.4211
 2535SOL     OW19063   2.109   0.428   7.834  0.3017  0.3516  0.0514
 2535SOL    HW119064   2.023   0.393   7.855  0.9799 -0.9139  0.6817
 2535SOL    HW219065   2.169   0.367   7.876  1.3270  1.8185  0.7531
 2536SOL     OW19066   0.486   1.492  15.031 -0.4910  0.1184  0.0471
 2536SOL    HW119067   0.406   1.519  15.076 -1.9895 -0.1549 -2.4362
 2536SOL    HW219068   0.451   1.434  14.963  0.3701  0.2173 -0.4841
 2537SOL     OW19069   1.725   1.594   5.100  0.0021  0.5745 -0.9915
 2537SOL    HW119070   1.761   1.512   5.067 -1.4904 -0.0282 -1.1215
 2537SOL    HW219071   1.806   1.644   5.111 -0.1214  0.8300 -1.2295
 2538SOL     OW19072   2.491   0.982  15.796 -0.0316 -0.0353  0.1744
 2538SOL    HW119073   2.549   1.021  15.861 -1.3625 -0.8210  1.8280
 2538SOL    HW219074   2.505   1.045  15.725 -1.6104  0.7488  0.5659
 2539SOL     OW19075   1.033   2.143   5.417 -0.8689 -0.7043 -0.1169
 2539SOL    HW119076   1.098   2.205   5.386 -1.3765 -0.6125 -0.9782
 2539SOL    HW219077   1.054   2.128   5.510 -1.9966 -1.7328 -0.0257
 2540SOL     OW19078   3.124   3.295   2.920  0.0350  0.3439  0.0393
 2540SOL    HW119079   3.080   3.380   2.928  2.0816  1.2332  1.8372
 2540SOL    HW219080   3.148   3.298   2.828 -2.0179 -0.7393 -0.5456
 2541SOL     OW19081   2.501   3.182   3.480 -0.0271 -0.0017  0.2460
 2541SOL    HW119082   2.492   3.100   3.432  0.3898 -0.2235  0.5431
 2541SOL    HW219083   2.526   3.249   3.416  1.3700  0.8953  1.7132
 2542SOL     OW19084   1.287   1.367  16.675 -0.3661 -0.2087 -0.3417
 2542SOL    HW119085   1.337   1.313  16.614 -0.0160 -0.8773  0.5504
 2542SOL    HW219086   1.286   1.453  16.633 -0.3385 -1.6982 -3.4229
 2543SOL     OW19087   0.562   1.336  12.380  0.0620 -0.4020  0.2600
 2543SOL    HW119088   0.492   1.372  12.326  1.4163 -0.4724 -1.5547
 2543SOL    HW219089   0.517   1.257  12.410  0.1689 -0.0750  1.2737
 2544SOL     OW19090   0.765   0.757  10.583 -0.3706  0.3214 -0.1364
 2544SOL    HW119091   0.773   0.736  10.676 -0.1288  0.4929 -0.1186
 2544SOL    HW219092   0.853   0.740  10.550 -1.1011 -1.0066 -1.4210
 2545SOL     OW19093   1.212   3.387   5.823  0.2488 -0.0622  0.1363
 2545SOL    HW119094   1.239   3.392   5.732 -1.3792 -0.0412 -0.3488
 2545SOL    HW219095   1.233   3.296   5.845 -0.0514  0.2318  1.6760
 2546SOL     OW19096   4.251   4.118   7.406  0.2401 -0.0573 -0.7862
 2546SOL    HW119097   4.255   4.039   7.459 -1.7434  1.4508  1.6415
 2546SOL    HW219098   4.344   4.135   7.391  0.4900  0.3353  1.2880
 2547SOL     OW19099   4.450   0.289   2.954 -0.4643 -0.3717 -0.3363
 2547SOL    HW119100   4.457   0.314   2.861 -0.6835 -1.4947 -0.6577
 2547SOL    HW219101   4.403   0.369   2.978  1.3144 -0.5500  3.6150
 2548SOL     OW19102   4.276   3.343   2.938 -0.1460  0.3267 -0.2887
 2548SOL    HW119103   4.239   3.404   3.002  0.8528 -0.1064  0.6977
 2548SOL    HW219104   4.292   3.406   2.868  0.3322 -1.1729 -1.5255
 2549SOL     OW19105   2.422   2.962   7.341 -0.1746  0.0254  0.3696
 2549SOL    HW119106   2.327   2.950   7.339 -0.1513  0.1584 -1.4568
 2549SOL    HW219107   2.420   3.048   7.298  1.0618 -0.5889 -0.8999
 2550SOL     OW19108   2.890   2.886   3.946 -0.5913 -0.3428  0.0696
 2550SOL    HW119109   2.800   2.868   3.919 -0.8634  1.7551 -0.3562
 2550SOL    HW219110   2.936   2.891   3.862 -0.3933  0.6209  0.2433
 2551SOL     OW19111   1.970   2.419  12.762 -0.5411  0.3242 -0.1302
 2551SOL    HW119112   1.925   2.504  12.757 -0.7273  0.1841 -0.7752
 2551SOL    HW219113   2.002   2.432  12.851 -0.2166  0.4721 -0.2704
 2552SOL     OW19114   4.614   1.195  12.347 -0.2100  0.3282  0.1812
 2552SOL    HW119115   4.535   1.246  12.324 -1.0671 -0.0932  2.1449
 2552SOL    HW219116   4.658   1.216  12.265  0.6774  0.8201  0.7847
 2553SOL     OW19117   1.410   1.214   5.268 -0.3191 -0.4882 -0.4283
 2553SOL    HW119118   1.382   1.304   5.248 -0.7505 -0.2369  1.2453
 2553SOL    HW219119   1.501   1.223   5.241 -0.5335  0.3533 -0.8896
 2554SOL     OW19120   1.605   2.393   8.545 -0.4044 -0.0536  0.2558
 2554SOL    HW119121   1.684   2.362   8.502  0.1260 -0.1391  1.2835
 2554SOL    HW219122   1.650   2.461   8.596 -0.3306 -1.6407  2.3042
 2555SOL     OW19123   0.317   1.318   0.081  0.3374  0.3180  0.1390
 2555SOL    HW119124   0.268   1.382   0.132 -0.5487 -0.8370  0.7278
 2555SOL    HW219125   0.248   1.310   0.014 -0.7227  1.6367  1.0783
 2556SOL     OW19126   1.844   3.848   5.829 -0.4073  0.4300 -0.5609
 2556SOL    HW119127   1.819   3.855   5.921  0.3876  1.5454 -0.4335
 2556SOL    HW219128   1.758   3.859   5.790 -0.8453  2.4009  0.9604
 2557SOL     OW19129   0.545   1.479  17.639  0.0794 -0.7156 -0.1291
 2557SOL    HW119130   0.470   1.524  17.676 -0.1124 -1.8096  0.8273
 2557SOL    HW219131   0.518   1.387  17.630 -2.7660  0.2395 -1.1008
 2558SOL     OW19132   4.185   0.763   5.283  0.3975  1.1366 -0.0539
 2558SOL    HW119133   4.276   0.792   5.271  0.7444  0.8525  1.9800
 2558SOL    HW219134   4.180   0.723   5.369  1.2153 -0.8792 -0.9337
 2559SOL     OW19135   1.151   3.859  12.719 -0.0786  0.1789 -0.1037
 2559SOL    HW119136   1.093   3.912  12.773 -1.2274 -1.1171 -0.0726
 2559SOL    HW219137   1.080   3.823  12.666 -0.8214 -0.7234  1.5083
 2560SOL     OW19138   3.779   3.792   5.391 -0.1589  0.9327 -0.5887
 2560SOL    HW119139   3.755   3.863   5.331 -1.8169  0.9409  0.0965
 2560SOL    HW219140   3.722   3.804   5.467 -1.0521  3.0166 -1.5856
 2561SOL     OW19141   0.319   1.898  13.133 -0.2592 -0.3404 -0.2637
 2561SOL    HW119142   0.253   1.916  13.199  0.4163 -0.2745  0.3874
 2561SOL    HW219143   0.311   1.972  13.072 -0.8177 -1.1925 -1.2222
 2562SOL     OW19144   3.182   1.238   7.874 -0.0004  0.5451 -0.0020
 2562SOL    HW119145   3.154   1.311   7.929 -1.4945  0.3937 -0.5652
 2562SOL    HW219146   3.102   1.186   7.867  1.2784 -1.4877  0.4438
 2563SOL     OW19147   3.143   0.428   5.014  0.1871 -0.3196 -0.3154
 2563SOL    HW119148   3.107   0.347   5.052  0.7886 -0.2130  0.4572
 2563SOL    HW219149   3.203   0.466   5.078 -1.6587  2.7608 -0.3985
 2564SOL     OW19150   0.465   3.099   4.576 -0.0021 -0.1737 -0.4445
 2564SOL    HW119151   0.555   3.100   4.610 -0.6602 -0.9543  1.3063
 2564SOL    HW219152   0.460   3.194   4.567  0.8890 -0.1908 -1.1419
 2565SOL     OW19153   1.942   1.654   7.237  0.0378  0.0003 -0.2403
 2565SOL    HW119154   1.966   1.619   7.151 -2.0547  0.9847 -1.2048
 2565SOL    HW219155   2.024   1.673   7.281 -0.5609  0.7937  0.5171
 2566SOL     OW19156   0.027   2.723   5.988  0.4061  0.2909 -0.3806
 2566SOL    HW119157   4.671   2.669   5.984 -0.5101  1.5622  0.5884
 2566SOL    HW219158   0.097   2.666   6.021 -0.2985  0.4029  1.3344
 2567SOL     OW19159   0.548   4.317   2.525 -0.2002 -0.2833 -0.0940
 2567SOL    HW119160   0.544   4.412   2.535 -2.3033 -0.5364  1.6221
 2567SOL    HW219161   0.605   4.319   2.448  0.1232  0.4869  0.1703
 2568SOL     OW19162   0.102   3.679   9.011  0.2561 -0.3418 -0.3501
 2568SOL    HW119163   0.097   3.775   9.003 -1.1585 -0.5962 -2.6638
 2568SOL    HW219164   0.186   3.668   8.966  0.3696 -0.9935  0.0210
 2569SOL     OW19165   4.092   1.382   8.872  0.5706  0.4312  0.3682
 2569SOL    HW119166   4.162   1.441   8.846 -0.4096  1.5063  0.1445
 2569SOL    HW219167   4.064   1.354   8.785  2.2288 -0.2837  0.0778
 2570SOL     OW19168   3.362   1.004  11.889 -0.6664  0.4700 -0.0990
 2570SOL    HW119169   3.456   1.017  11.904 -0.5194  0.7691 -1.3088
 2570SOL    HW219170   3.351   0.911  11.905  0.3918  0.5688  1.3115
 2571SOL     OW19171   4.498   1.180  16.917 -1.0200  0.3267  0.6551
 2571SOL    HW119172   4.479   1.182  17.011  0.1379 -0.0532  0.8935
 2571SOL    HW219173   4.592   1.160  16.920 -0.8611  0.7303 -1.6031
 2572SOL     OW19174   1.702   0.221   7.053 -0.7147 -0.5689 -0.3793
 2572SOL    HW119175   1.643   0.177   6.992 -0.3737  0.1340 -1.2194
 2572SOL    HW219176   1.659   0.305   7.040 -0.7456 -0.7464 -1.4406
 2573SOL     OW19177   3.422   0.490  15.689 -0.2280 -0.5969  0.4537
 2573SOL    HW119178   3.349   0.528  15.640 -1.5080 -1.4235  1.6970
 2573SOL    HW219179   3.466   0.441  15.620 -2.0476  0.6186 -1.5472
 2574SOL     OW19180   2.290   1.636   0.627 -0.6252  0.1269  0.7866
 2574SOL    HW119181   2.336   1.572   0.572  0.6116  0.1920  1.7290
 2574SOL    HW219182   2.364   1.696   0.636 -1.8791  1.9435 -1.1947
 2575SOL     OW19183   3.038   1.609   2.803  0.4151 -0.0810  0.0387
 2575SOL    HW119184   2.980   1.685   2.801 -2.7143 -2.4781 -1.0824
 2575SOL    HW219185   2.991   1.545   2.750  0.2073 -1.8652  2.3320
 2576SOL     OW19186   2.756   2.146   7.996 -1.0583 -0.0712 -1.0841
 2576SOL    HW119187   2.720   2.210   7.935 -2.4784 -0.4454 -0.6259
 2576SOL    HW219188   2.677   2.106   8.030  0.9673 -2.4515  0.8223
 2577SOL     OW19189   0.757   4.390  12.691 -0.0436  0.2483 -0.2998
 2577SOL    HW119190   0.674   4.434  12.673 -0.9554 -1.1577  0.4632
 2577SOL    HW219191   0.744   4.306  12.646 -0.9685  0.5881 -0.6727
 2578SOL     OW19192   4.281   0.222   6.266 -0.5086 -0.6585 -0.8864
 2578SOL    HW119193   4.199   0.222   6.217 -0.4702  0.5735 -0.9490
 2578SOL    HW219194   4.312   0.138   6.231 -0.3582 -1.0193  0.1089
 2579SOL     OW19195   2.548   2.049   8.149 -0.3617 -0.4559  0.0462
 2579SOL    HW119196   2.602   2.027   8.225  0.6814 -1.4690 -0.9832
 2579SOL    HW219197   2.507   1.965   8.129 -2.1545 -0.0339  1.9542
 2580SOL     OW19198   1.299   0.111  15.731  1.1179 -0.0565  0.0775
 2580SOL    HW119199   1.263   0.110  15.643  1.5138 -0.1274 -0.0837
 2580SOL    HW219200   1.305   0.204  15.754  0.0657  0.1526 -0.5123
 2581SOL     OW19201   1.548   0.010   7.846  0.0338  0.0394  0.6721
 2581SOL    HW119202   1.537   0.068   7.922  1.5320  0.3451  0.6548
 2581SOL    HW219203   1.490   0.036   7.774 -1.0891  0.8690  1.8674
 2582SOL     OW19204   3.917   4.600   3.412 -0.0499 -0.0728 -0.0985
 2582SOL    HW119205   4.000   4.551   3.414  0.5358  1.0079  1.3525
 2582SOL    HW219206   3.859   4.556   3.474  0.9396  0.8455  1.4734
 2583SOL     OW19207   4.518   3.118   1.680  0.3171  0.0823 -0.4691
 2583SOL    HW119208   4.533   3.045   1.739 -0.2137  0.5676  0.2718
 2583SOL    HW219209   4.586   3.105   1.613 -0.9873 -0.3494 -1.7076
 2584SOL     OW19210   3.233   0.724   9.497 -0.8420 -0.1830  0.3363
 2584SOL    HW119211   3.280   0.670   9.434  0.1898  2.1606 -0.9061
 2584SOL    HW219212   3.273   0.811   9.484 -1.0901  0.0029  0.8077
 2585SOL     OW19213   3.076   2.623   6.147 -0.2839  0.6073  0.0026
 2585SOL    HW119214   3.112   2.552   6.094 -0.0750  0.9967 -0.3771
 2585SOL    HW219215   3.033   2.578   6.220  0.4151 -0.4518 -0.2495
 2586SOL     OW19216   0.334   0.968   8.738  0.1688 -0.2251 -0.0844
 2586SOL    HW119217   0.308   0.986   8.828  2.6364  2.4770  0.1111
 2586SOL    HW219218   0.246   0.963   8.701 -0.5632  0.1224  1.6324
 2587SOL     OW19219   3.552   3.218   5.248 -0.3920  0.0738  0.4621
 2587SOL    HW119220   3.538   3.304   5.287  0.5081 -0.5902  2.2392
 2587SOL    HW219221   3.550   3.157   5.322  0.9806 -0.1614  0.3147
 2588SOL     OW19222   2.568   1.177   5.088  0.8739 -0.4325  0.5383
 2588SOL    HW119223   2.510   1.251   5.070  2.2271  0.7317  1.0034
 2588SOL    HW219224   2.505   1.107   5.070 -0.6640  1.9592 -3.5128
 2589SOL     OW19225   3.703   0.948   7.511  0.4358 -0.4289  0.2345
 2589SOL    HW119226   3.703   0.966   7.604 -0.3808 -0.9054  0.3347
 2589SOL    HW219227   3.652   0.867   7.502 -1.2287  0.3008  3.2212
 2590SOL     OW19228   2.616   0.006   4.857 -0.7643 -0.6262 -0.3276
 2590SOL    HW119229   2.549   0.071   4.879  2.4761  2.6275 -0.1603
 2590SOL    HW219230   2.646   4.714   4.946 -0.7143 -0.2312 -0.2802
 2591SOL     OW19231   2.630   0.757   6.194 -0.5214 -0.1192 -0.1528
 2591SOL    HW119232   2.632   0.771   6.100  1.9599  0.2215 -0.0505
 2591SOL    HW219233   2.553   0.699   6.197  0.1308 -1.0326 -0.7914
 2592SOL     OW19234   3.431   0.600  15.167  0.0565 -0.1297 -0.1919
 2592SOL    HW119235   3.503   0.541  15.192 -1.1427 -1.9525 -1.0536
 2592SOL    HW219236   3.477   0.643  15.095 -0.7776 -1.3763 -1.4696
 2593SOL     OW19237   2.847   0.385  13.044 -0.0473 -0.4566 -0.3717
 2593SOL    HW119238   2.924   0.422  13.087 -0.9427  2.4862 -1.3417
 2593SOL    HW219239   2.822   0.457  12.987  2.1213 -0.7069 -1.6245
 2594SOL     OW19240   4.297   3.722   3.183 -0.7871 -0.0161  0.0537
 2594SOL    HW119241   4.225   3.665   3.157 -1.3248  1.2057 -1.1810
 2594SOL    HW219242   4.370   3.689   3.130  1.7391  0.1624  3.4485
 2595SOL     OW19243   0.625   0.176   3.206  0.1985 -0.0239 -0.0692
 2595SOL    HW119244   0.649   0.214   3.290  0.0699 -0.5347  0.2032
 2595SOL    HW219245   0.652   0.249   3.151 -1.1663 -2.0104 -3.3813
 2596SOL     OW19246   4.453   3.196   0.742  0.4174  0.1587  0.4674
 2596SOL    HW119247   4.378   3.249   0.714 -0.1778 -1.2268 -0.5922
 2596SOL    HW219248   4.521   3.264   0.736  0.7745 -0.3044 -0.8027
 2597SOL     OW19249   3.830   4.356   8.621 -0.6249  0.4461 -0.3802
 2597SOL    HW119250   3.766   4.289   8.597 -0.6547 -0.3437  1.9120
 2597SOL    HW219251   3.779   4.404   8.686 -0.4624  0.1511 -0.0311
 2598SOL     OW19252   0.728   4.510   7.372 -0.1262  0.2341  0.0003
 2598SOL    HW119253   0.765   4.422   7.375 -0.3535  0.2164  2.7044
 2598SOL    HW219254   0.697   4.522   7.282  2.1740  2.3649 -0.4949
 2599SOL     OW19255   1.286   0.961  11.942 -0.7974  0.1207  0.1745
 2599SOL    HW119256   1.349   0.986  11.875 -2.9357  0.6314 -1.6461
 2599SOL    HW219257   1.222   0.915  11.887  0.2358  0.1811 -1.0905
 2600SOL     OW19258   1.243   0.732   8.244 -0.4468  0.2940 -0.5952
 2600SOL    HW119259   1.207   0.749   8.332  1.5402 -1.8984  0.6456
 2600SOL    HW219260   1.337   0.749   8.244 -0.3750 -0.0371  2.5588
 2601SOL     OW19261   2.874   3.760   8.309  0.6577 -0.1604 -0.0970
 2601SOL    HW119262   2.823   3.833   8.343  0.7915  0.5489 -1.4337
 2601SOL    HW219263   2.947   3.820   8.297 -1.7249  2.4701 -1.3960
 2602SOL     OW19264   2.656   3.154  17.398 -0.1391  0.1658  0.0008
 2602SOL    HW119265   2.736   3.192  17.437 -1.4601  0.8143  2.0852
 2602SOL    HW219266   2.684   3.159  17.307  1.1251 -2.8866  0.2166
 2603SOL     OW19267   1.311   3.894   9.807  0.4769 -0.4459  0.4422
 2603SOL    HW119268   1.267   3.955   9.866 -3.5575 -2.6565 -0.2266
 2603SOL    HW219269   1.252   3.892   9.731 -0.1876 -0.3600  0.9634
 2604SOL     OW19270   2.684   0.253   7.669 -0.3853  0.6162  0.0673
 2604SOL    HW119271   2.615   0.242   7.734 -0.1706  2.6038  0.6345
 2604SOL    HW219272   2.676   0.172   7.619  0.3541  0.5009  0.1330
 2605SOL     OW19273   0.184   2.156  12.970 -0.4678  0.0214  0.5425
 2605SOL    HW119274   0.269   2.189  12.939  0.2246 -0.3691  2.0226
 2605SOL    HW219275   0.154   2.135  12.881 -0.6759  0.0322  0.6104
 2606SOL     OW19276   4.509   0.196   7.719 -0.3015 -0.1042  0.0147
 2606SOL    HW119277   4.604   0.180   7.720 -0.3025 -0.0860  0.7720
 2606SOL    HW219278   4.514   0.287   7.748 -1.1235 -0.3557  0.9510
 2607SOL     OW19279   0.420   3.726   4.523  0.0631  0.6119  0.4982
 2607SOL    HW119280   0.362   3.719   4.599 -2.2196  0.0131 -1.2683
 2607SOL    HW219281   0.466   3.804   4.552  1.0714  1.2579 -2.8247
 2608SOL     OW19282   4.189   2.280  15.952 -0.5119 -0.1482 -0.7641
 2608SOL    HW119283   4.235   2.246  15.875  0.6275 -0.8517  0.2249
 2608SOL    HW219284   4.180   2.200  16.004  2.3514 -0.7191 -1.1438
 2609SOL     OW19285   2.147   0.872   3.779 -0.3336 -0.3660 -0.0785
 2609SOL    HW119286   2.191   0.859   3.695  0.0418 -0.7774  0.1755
 2609SOL    HW219287   2.207   0.927   3.830 -1.1395  1.8973 -1.5985
 2610SOL     OW19288   1.696   0.573   5.916 -0.0370  0.1792 -0.1386
 2610SOL    HW119289   1.642   0.499   5.887 -0.1204 -0.7483  2.3781
 2610SOL    HW219290   1.707   0.615   5.831 -2.1864  0.2498 -0.3754
 2611SOL     OW19291   1.150   0.315   0.202  0.5135  0.9563  0.4845
 2611SOL    HW119292   1.067   0.357   0.179 -0.0709  0.1883  1.2158
 2611SOL    HW219293   1.207   0.391   0.196  1.8304  0.0211  1.3419
 2612SOL     OW19294   1.864   2.304  10.965 -0.1544  0.0212  0.5905
 2612SOL    HW119295   1.773   2.324  10.943 -0.0494  0.0589  0.1921
 2612SOL    HW219296   1.905   2.386  10.939 -1.8183  0.5053 -0.4430
 2613SOL     OW19297   2.685   3.698   6.978  0.1738 -0.0250  0.4904
 2613SOL    HW119298   2.706   3.670   6.889 -2.6357  0.3949 -0.3193
 2613SOL    HW219299   2.773   3.719   7.011  0.3036 -0.1763  0.2381
 2614SOL     OW19300   3.693   0.771   9.004 -0.2501  0.2274  0.2310
 2614SOL    HW119301   3.778   0.808   8.978 -0.6498  0.4099 -0.8182
 2614SOL    HW219302   3.721   0.714   9.076  1.7460 -0.4924 -1.0906
 2615SOL     OW19303   3.109   3.310   6.226  0.2862 -0.3960  0.0127
 2615SOL    HW119304   3.071   3.248   6.288 -0.1490  0.3222  0.4607
 2615SOL    HW219305   3.172   3.248   6.188  3.2769  1.6721  1.6404
 2616SOL     OW19306   3.240   1.801   2.622  0.4604  0.2718 -0.1130
 2616SOL    HW119307   3.213   1.783   2.532 -0.0252 -1.0441  0.2858
 2616SOL    HW219308   3.243   1.714   2.662 -0.2522  0.6370  0.7348
 2617SOL     OW19309   1.871   3.637   3.211  0.2958  0.3342 -0.3880
 2617SOL    HW119310   1.841   3.579   3.281 -1.1802 -1.3924 -2.4352
 2617SOL    HW219311   1.837   3.599   3.130 -1.9636 -2.3187  1.7840
 2618SOL     OW19312   0.181   3.404   5.330 -0.0589 -0.2914  0.2940
 2618SOL    HW119313   0.171   3.494   5.361  0.0783 -0.3725  0.5706
 2618SOL    HW219314   0.206   3.351   5.406 -1.8832 -1.5607  0.0110
 2619SOL     OW19315   4.714   4.326   2.416 -0.4209 -0.1524 -0.8357
 2619SOL    HW119316   4.721   4.364   2.328 -1.8094  0.9800 -0.4459
 2619SOL    HW219317   0.023   4.238   2.399 -1.0558 -0.9233  2.0712
 2620SOL     OW19318   1.912   3.612  16.211  0.3014 -0.0577 -0.7684
 2620SOL    HW119319   1.866   3.692  16.238  0.4040 -0.5438  0.8090
 2620SOL    HW219320   1.975   3.653  16.150  0.2741  1.9567  0.5455
 2621SOL     OW19321   1.368   0.229  15.222  0.1698  0.4539 -0.8800
 2621SOL    HW119322   1.292   0.273  15.261  1.2322  2.4160 -1.0147
 2621SOL    HW219323   1.425   0.210  15.296  0.9934  2.2804 -1.0353
 2622SOL     OW19324   1.756   3.787   6.084  0.2979 -0.3223 -0.0869
 2622SOL    HW119325   1.669   3.754   6.060  0.6415 -0.3584 -1.3197
 2622SOL    HW219326   1.721   3.864   6.128  2.0127  2.2118 -3.1262
 2623SOL     OW19327   0.475   4.039   5.026  0.4083 -0.0995  0.0787
 2623SOL    HW119328   0.488   4.006   4.937 -0.5455  0.1477 -0.1511
 2623SOL    HW219329   0.402   3.979   5.039 -0.1011  0.5691  0.3072
 2624SOL     OW19330   4.307   0.486   9.515 -0.3202 -0.0678  0.3510
 2624SOL    HW119331   4.222   0.446   9.534 -0.4061 -0.9640 -1.9011
 2624SOL    HW219332   4.325   0.556   9.577  0.3374  1.0923 -1.1686
 2625SOL     OW19333   4.412   2.906   6.307  0.8005 -0.5363 -0.0196
 2625SOL    HW119334   4.438   2.845   6.238  0.2563 -0.2202 -0.5084
 2625SOL    HW219335   4.367   2.967   6.249  0.5645 -0.0960  0.6278
 2626SOL     OW19336   2.236   2.708  14.366  0.4793 -0.0723  0.9374
 2626SOL    HW119337   2.259   2.618  14.386  1.7219  0.4539  1.8697
 2626SOL    HW219338   2.260   2.715  14.273  0.8461 -1.0345  0.9601
 2627SOL     OW19339   4.444   1.137   3.011  0.4676  0.2085  0.4919
 2627SOL    HW119340   4.487   1.052   3.022  1.1940  0.5832  0.5735
 2627SOL    HW219341   4.490   1.188   3.078  1.2162 -0.7155  0.6852
 2628SOL     OW19342   0.843   1.082   6.846  0.0073 -0.1992 -0.2474
 2628SOL    HW119343   0.779   1.046   6.906  0.4483 -0.0887  0.2886
 2628SOL    HW219344   0.811   1.074   6.756  0.0242 -0.2018 -0.2531
 2629SOL     OW19345   3.168   4.422   7.694 -1.0635 -0.1847  0.2184
 2629SOL    HW119346   3.214   4.363   7.634  0.2487  2.0043 -0.9175
 2629SOL    HW219347   3.196   4.381   7.775 -1.8729 -1.8697 -0.3374
 2630SOL     OW19348   4.594   0.551   9.098  0.0750  0.1575 -0.1843
 2630SOL    HW119349   4.537   0.578   9.170 -3.5781  0.7611 -3.2924
 2630SOL    HW219350   4.680   0.554   9.140 -0.8680 -1.7521  1.8865
 2631SOL     OW19351   4.143   0.051   9.396 -0.2776  0.2137  0.0800
 2631SOL    HW119352   4.124   0.003   9.477 -0.3110 -0.0843 -0.1073
 2631SOL    HW219353   4.094   0.134   9.396 -0.2188  0.2491  1.0076
 2632SOL     OW19354   2.635   4.046   8.967 -0.3096  0.5060  0.6234
 2632SOL    HW119355   2.716   4.070   8.923 -1.0501  0.7734 -0.6059
 2632SOL    HW219356   2.648   4.073   9.058  1.7047  0.4588  0.3491
 2633SOL     OW19357   0.298   1.588   0.260 -0.3784  0.2617 -0.2647
 2633SOL    HW119358   0.295   1.520   0.328 -0.0621  1.2402  0.7368
 2633SOL    HW219359   0.279   1.665   0.314  0.1065 -1.1318  1.8915
 2634SOL     OW19360   0.340   2.776  17.311 -0.1490 -0.5718 -0.1844
 2634SOL    HW119361   0.322   2.799  17.402 -0.9030  0.6538 -0.6526
 2634SOL    HW219362   0.303   2.688  17.301 -0.5785 -0.4199  0.0995
 2635SOL     OW19363   0.148   0.127   5.680 -0.2305 -0.3615  0.5489
 2635SOL    HW119364   0.129   0.068   5.754 -1.7509  0.1487  0.5492
 2635SOL    HW219365   0.067   0.112   5.633  0.3869 -3.3382  0.3750
 2636SOL     OW19366   1.487   4.069  10.667 -0.2667 -0.1440  0.5837
 2636SOL    HW119367   1.565   4.107  10.707 -1.4638  0.4372  2.3490
 2636SOL    HW219368   1.527   4.056  10.581 -0.6377 -1.0098  0.5408
 2637SOL     OW19369   2.510   3.191  17.632  0.3572  0.6035 -0.2749
 2637SOL    HW119370   2.578   3.174  17.567 -0.5663 -0.6355 -0.9384
 2637SOL    HW219371   2.569   3.243  17.685 -0.1149  0.2035  0.6337
 2638SOL     OW19372   1.098   2.740   4.707  0.7148  0.0934 -0.3166
 2638SOL    HW119373   1.073   2.698   4.790 -0.5297  0.4398 -0.5093
 2638SOL    HW219374   1.058   2.685   4.640  1.1591 -1.1894  0.4747
 2639SOL     OW19375   2.347   4.031   2.679 -0.7250  0.1979  0.1823
 2639SOL    HW119376   2.335   4.113   2.632 -1.8228 -0.0333  0.0481
 2639SOL    HW219377   2.428   3.998   2.640 -0.9018  0.2286 -0.2141
 2640SOL     OW19378   1.489   3.839  10.019 -0.2163  0.3595 -0.0933
 2640SOL    HW119379   1.477   3.747   9.993  1.2690 -0.0411  0.6101
 2640SOL    HW219380   1.431   3.878   9.954 -2.0497  1.4004  2.1872
 2641SOL     OW19381   0.502   0.947  13.653 -0.0087  0.6891  0.4484
 2641SOL    HW119382   0.514   0.893  13.575 -3.3431  0.4409  0.1078
 2641SOL    HW219383   0.417   0.914  13.682  0.4577  0.4016  1.5119
 2642SOL     OW19384   4.370   4.315   8.889  0.1611  0.6131  0.1039
 2642SOL    HW119385   4.304   4.247   8.902  3.5346 -2.6516  0.1110
 2642SOL    HW219386   4.313   4.392   8.892 -1.6241 -0.6650 -0.8866
 2643SOL     OW19387   4.499   1.712   2.393 -0.2932  0.1059 -0.4964
 2643SOL    HW119388   4.561   1.687   2.324 -0.8929 -0.7677 -0.7085
 2643SOL    HW219389   4.464   1.795   2.359 -1.1732 -0.3765 -0.7558
 2644SOL     OW19390   1.544   3.569   5.559 -0.0199 -0.1594 -0.5620
 2644SOL    HW119391   1.510   3.493   5.513 -0.9839  0.2486 -0.5214
 2644SOL    HW219392   1.460   3.613   5.573  0.5772  1.0757 -0.8006
 2645SOL     OW19393   4.257   4.562   9.033  0.2264 -0.5680 -0.6305
 2645SOL    HW119394   4.294   4.628   9.092  0.3350 -1.8850  0.7958
 2645SOL    HW219395   4.280   4.482   9.080  0.3739  0.9734  1.9600
 2646SOL     OW19396   1.328   3.413   3.513 -0.2793  0.1608 -0.3778
 2646SOL    HW119397   1.364   3.365   3.438 -2.8426  0.6177 -1.8837
 2646SOL    HW219398   1.388   3.488   3.511  1.5008 -1.2186  0.9959
 2647SOL     OW19399   3.343   0.932   9.312 -0.0261  0.1963 -0.0344
 2647SOL    HW119400   3.421   0.929   9.256 -0.3756  0.9970 -0.5694
 2647SOL    HW219401   3.271   0.943   9.250 -0.4632 -1.0151  0.2701
 2648SOL     OW19402   1.310   3.533   4.416  0.4279  0.4649  0.1449
 2648SOL    HW119403   1.317   3.488   4.332  3.0127 -0.9669  1.1246
 2648SOL    HW219404   1.339   3.623   4.401  0.0300  0.0458 -3.1566
 2649SOL     OW19405   3.099   2.233   7.501 -0.0497  0.2268 -0.1004
 2649SOL    HW119406   3.129   2.320   7.475 -0.6693  0.5370  0.2337
 2649SOL    HW219407   3.155   2.185   7.440 -0.7778  1.6685 -1.9258
 2650SOL     OW19408   4.211   1.746  11.421  0.1962 -0.1852  0.6759
 2650SOL    HW119409   4.211   1.838  11.397  3.4513 -0.1002  1.1019
 2650SOL    HW219410   4.297   1.722  11.388  0.6069  0.4961  1.2741
 2651SOL     OW19411   2.665   0.308  12.192 -0.3421 -0.3043 -0.0150
 2651SOL    HW119412   2.686   0.218  12.166  0.2105 -0.8209  2.2082
 2651SOL    HW219413   2.668   0.361  12.113 -1.6091  1.9016  1.4255
 2652SOL     OW19414   1.876   0.250   2.030 -0.2693  0.0196 -0.0407
 2652SOL    HW119415   1.832   0.177   1.986  1.1772 -0.8086 -0.1286
 2652SOL    HW219416   1.908   0.299   1.954  2.2955  0.2326  1.1784
 2653SOL     OW19417   1.325   0.047   5.274 -0.0562  0.4036 -0.1033
 2653SOL    HW119418   1.301   4.694   5.221 -1.0217  1.7950 -1.6404
 2653SOL    HW219419   1.357   0.002   5.352 -0.7989  1.1200  0.6097
 2654SOL     OW19420   2.963   4.390   7.329  0.4124 -0.3516 -0.2022
 2654SOL    HW119421   2.933   4.415   7.417 -1.1553  0.3430 -0.9514
 2654SOL    HW219422   2.937   4.298   7.318 -1.2066  0.0943 -0.1354
 2655SOL     OW19423   1.143   2.704  15.576  0.2438 -0.0162 -0.6570
 2655SOL    HW119424   1.124   2.744  15.491 -1.6137  1.0555  0.2379
 2655SOL    HW219425   1.131   2.779  15.635 -2.5683 -1.5202  0.7048
 2656SOL     OW19426   2.884   3.922   0.519 -0.3135 -0.0355  0.2598
 2656SOL    HW119427   2.895   3.841   0.470  0.6436  1.2372 -1.6552
 2656SOL    HW219428   2.970   3.964   0.515 -0.9933  1.3640  0.1934
 2657SOL     OW19429   4.381   4.479   2.905  0.3635 -0.0598  0.5878
 2657SOL    HW119430   4.332   4.511   2.830  0.4532 -0.7697  0.2259
 2657SOL    HW219431   4.449   4.544   2.923 -0.5879  0.9885  0.4163
 2658SOL     OW19432   4.342   2.640   2.605  0.1796 -0.2348  0.5478
 2658SOL    HW119433   4.389   2.580   2.663 -1.4754 -3.1216 -1.0933
 2658SOL    HW219434   4.274   2.582   2.571 -0.6886  0.5511  0.9537
 2659SOL     OW19435   3.376   0.085   9.003 -0.1159  0.0319 -0.4432
 2659SOL    HW119436   3.452   0.030   9.020  1.7981  2.1159 -2.1722
 2659SOL    HW219437   3.307   0.045   9.056 -0.4464  0.7345 -0.3419
 2660SOL     OW19438   0.364   1.322   5.948  0.2961 -0.3980  0.4835
 2660SOL    HW119439   0.272   1.304   5.968 -0.4709  2.0971 -0.8257
 2660SOL    HW219440   0.345   1.365   5.864 -2.2374 -0.6434  0.9378
 2661SOL     OW19441   2.429   3.241   7.235 -0.9046 -0.0863  0.3937
 2661SOL    HW119442   2.408   3.240   7.142 -1.2897  1.1598  0.4669
 2661SOL    HW219443   2.387   3.327   7.248 -0.1992  0.3657 -0.3446
 2662SOL     OW19444   1.607   0.088   2.179 -0.1536 -0.0218  0.1395
 2662SOL    HW119445   1.595   0.050   2.266  0.6850 -0.2139  0.1723
 2662SOL    HW219446   1.699   0.060   2.171 -0.0128  0.4146  0.2271
 2663SOL     OW19447   3.939   3.246   4.758 -0.1454 -0.1658 -0.3109
 2663SOL    HW119448   3.913   3.154   4.762  0.7139 -0.3842  0.1906
 2663SOL    HW219449   3.922   3.267   4.666 -3.6688 -2.0121 -0.0687
 2664SOL     OW19450   2.772   4.105  11.116  0.7196 -0.5181 -0.2056
 2664SOL    HW119451   2.770   4.098  11.021  0.1083  0.2552 -0.2563
 2664SOL    HW219452   2.679   4.085  11.126  0.0200  2.1897 -1.1255
 2665SOL     OW19453   3.620   4.393   6.729  0.1160 -0.2282  0.3098
 2665SOL    HW119454   3.680   4.334   6.774  2.0814  1.1353 -0.5330
 2665SOL    HW219455   3.596   4.447   6.804  2.2705 -0.7473  1.3756
 2666SOL     OW19456   0.085   2.551   4.697 -0.0873  0.0464  0.0182
 2666SOL    HW119457   0.123   2.465   4.680  2.3891  0.7937  1.7616
 2666SOL    HW219458   0.142   2.580   4.768 -0.1470 -0.2932  0.2069
 2667SOL     OW19459   3.542   4.080   4.641 -0.4149 -0.0365  0.2566
 2667SOL    HW119460   3.454   4.115   4.630 -0.3729 -0.4182 -1.2811
 2667SOL    HW219461   3.522   3.986   4.643  1.9695 -0.5522  0.5916
 2668SOL     OW19462   2.021   1.072  17.358  0.1982  0.1324  0.3514
 2668SOL    HW119463   2.088   1.133  17.329  0.3308  0.4611  1.3349
 2668SOL    HW219464   1.958   1.142  17.379  1.7680  2.1676 -1.7572
 2669SOL     OW19465   4.177   1.387  13.994  0.0065  0.2500  0.5098
 2669SOL    HW119466   4.179   1.433  13.911  0.3962  0.7821  0.8087
 2669SOL    HW219467   4.233   1.446  14.046  0.1167  0.0683  0.5972
 2670SOL     OW19468   0.313   2.024   1.400 -0.8094  0.2469 -0.4106
 2670SOL    HW119469   0.238   1.977   1.435  0.4598 -2.8996 -1.9510
 2670SOL    HW219470   0.389   1.969   1.420 -0.9896 -0.2131 -1.0097
 2671SOL     OW19471   3.043   1.195  12.850  0.3828 -0.6634 -0.2737
 2671SOL    HW119472   3.111   1.233  12.906 -0.9980  1.1626  0.1506
 2671SOL    HW219473   2.976   1.165  12.912  0.4395  0.1277  0.1634
 2672SOL     OW19474   4.406   0.988   1.312  0.2650  0.4313  0.1664
 2672SOL    HW119475   4.477   1.004   1.373 -2.0980 -0.0214  3.0733
 2672SOL    HW219476   4.419   1.066   1.257  0.9443 -0.0675 -0.3662
 2673SOL     OW19477   4.156   4.126   8.936  0.2940 -0.4775  0.3810
 2673SOL    HW119478   4.169   4.095   9.026 -1.6468 -0.4294  0.6733
 2673SOL    HW219479   4.062   4.124   8.919  0.5118  2.1829 -1.0543
 2674SOL     OW19480   0.350   2.620   2.618  0.1088  0.1204  0.1760
 2674SOL    HW119481   0.341   2.687   2.551  3.9729 -0.2604 -0.7686
 2674SOL    HW219482   0.280   2.559   2.594  1.2548 -1.2815  0.3321
 2675SOL     OW19483   2.763   0.762   7.297 -0.0143 -0.1352  0.1067
 2675SOL    HW119484   2.772   0.709   7.375 -1.7216 -1.1261 -0.3554
 2675SOL    HW219485   2.712   0.707   7.237  2.1543 -0.3557 -1.5558
 2676SOL     OW19486   3.382   2.950   7.972 -0.0491  0.4757 -0.9129
 2676SOL    HW119487   3.314   2.887   7.997 -0.8532  0.7549 -2.4084
 2676SOL    HW219488   3.358   3.023   8.030  2.8836  0.2273  0.5994
 2677SOL     OW19489   3.532   2.510  12.900 -0.0494 -0.1035  0.5752
 2677SOL    HW119490   3.478   2.432  12.884 -0.0558 -0.3475  1.7702
 2677SOL    HW219491   3.475   2.579  12.866 -0.5876 -1.1987 -0.7580
 2678SOL     OW19492   4.001   1.223   4.855  0.2839  0.5032 -0.0967
 2678SOL    HW119493   3.914   1.198   4.888  0.2459  0.6681 -0.0720
 2678SOL    HW219494   4.042   1.136   4.853 -2.8333 -0.9684 -0.9431
 2679SOL     OW19495   4.266   4.218   8.172 -0.4801  0.1451  1.1669
 2679SOL    HW119496   4.297   4.307   8.182  0.3916  0.0362 -0.6295
 2679SOL    HW219497   4.250   4.213   8.078 -1.4699 -0.7411  1.3731
 2680SOL     OW19498   3.837   0.257   6.240  0.3408  0.1768  0.3334
 2680SOL    HW119499   3.840   0.270   6.335 -1.9614 -0.5954  0.5303
 2680SOL    HW219500   3.799   0.342   6.218 -0.1404 -0.1941 -0.2758
 2681SOL     OW19501   2.794   4.421   6.858  0.3907 -0.4277  0.3315
 2681SOL    HW119502   2.752   4.401   6.941 -3.7124 -0.1073 -1.7132
 2681SOL    HW219503   2.881   4.427   6.899  0.0727  1.2729  0.7726
 2682SOL     OW19504   3.991   3.470   2.395  0.4639  0.1570 -0.0230
 2682SOL    HW119505   3.961   3.422   2.472  1.0915 -0.7584 -0.3614
 2682SOL    HW219506   3.945   3.416   2.331 -0.5324  0.6377  0.2728
 2683SOL     OW19507   4.345   2.011  12.348 -0.0680  0.7479  0.9182
 2683SOL    HW119508   4.433   1.974  12.340 -0.3373 -0.2388  2.4592
 2683SOL    HW219509   4.357   2.104  12.330 -0.5754  0.6711  0.1746
 2684SOL     OW19510   2.001   0.544   8.584 -0.0958  0.9185 -0.0857
 2684SOL    HW119511   2.046   0.625   8.606  1.0621  0.7195 -1.7723
 2684SOL    HW219512   1.910   0.573   8.579 -1.3646 -3.0471  0.0092
 2685SOL     OW19513   3.163   1.406  11.203 -0.3825 -0.4309  0.0524
 2685SOL    HW119514   3.224   1.345  11.246 -0.1392 -0.1238  0.1478
 2685SOL    HW219515   3.213   1.412  11.122  0.0735  3.4491  0.6188
 2686SOL     OW19516   3.043   4.548   7.135 -0.2197 -0.0893  1.0143
 2686SOL    HW119517   2.950   4.543   7.111  0.7421 -2.4744 -2.2345
 2686SOL    HW219518   3.030   4.499   7.216 -1.7820 -0.4848  0.5287
 2687SOL     OW19519   2.981   2.768   8.225  0.2015 -0.1726 -0.0749
 2687SOL    HW119520   2.904   2.734   8.179 -1.4476  0.2865  2.3690
 2687SOL    HW219521   2.960   2.861   8.234 -0.5765 -0.3801  0.2481
 2688SOL     OW19522   1.587   0.611   4.461  0.4865 -0.0239 -0.3552
 2688SOL    HW119523   1.513   0.665   4.489 -1.0385 -1.0520 -2.3524
 2688SOL    HW219524   1.606   0.569   4.544  0.3624  1.7532  0.5751
 2689SOL     OW19525   2.404   2.486   8.081 -0.0189 -0.4337  0.7040
 2689SOL    HW119526   2.331   2.532   8.122 -0.2191  0.4896 -0.6707
 2689SOL    HW219527   2.444   2.448   8.158  0.6574  0.7404  0.9414
 2690SOL     OW19528   1.608   0.919   8.359 -0.3580 -0.4618  0.1879
 2690SOL    HW119529   1.666   0.987   8.325 -0.7244  0.4626  1.4435
 2690SOL    HW219530   1.634   0.851   8.296 -0.9481 -0.5896  0.0776
 2691SOL     OW19531   1.009   2.150  11.022 -0.1520  0.0302  0.1582
 2691SOL    HW119532   1.025   2.171  11.114  2.8130  2.7749 -0.9772
 2691SOL    HW219533   1.099   2.129  10.997 -0.3643 -0.7145  0.0134
 2692SOL     OW19534   0.747   3.674   5.048 -0.1592 -0.5529 -0.0577
 2692SOL    HW119535   0.688   3.610   5.009 -2.8006  1.2462  1.0264
 2692SOL    HW219536   0.734   3.645   5.138 -1.3622  2.1269  0.6344
 2693SOL     OW19537   2.829   4.428   3.209 -0.2267 -0.3395  0.2806
 2693SOL    HW119538   2.815   4.388   3.295  1.0602 -0.1195  0.5948
 2693SOL    HW219539   2.925   4.429   3.208 -0.2247 -2.2700 -1.3780
 2694SOL     OW19540   3.495   4.378  11.077  0.3050  0.3333 -0.3203
 2694SOL    HW119541   3.400   4.366  11.084  0.5913 -0.7061  1.9087
 2694SOL    HW219542   3.504   4.365  10.983 -0.2496 -1.2845 -0.1408
 2695SOL     OW19543   1.248   2.454  10.119  0.2223 -0.1329 -0.1641
 2695SOL    HW119544   1.217   2.533  10.163  1.0726  1.0020 -1.6107
 2695SOL    HW219545   1.176   2.391  10.123 -0.2496  0.3652 -0.7107
 2696SOL     OW19546   3.174   3.695  15.244  0.3864  0.1056 -0.0478
 2696SOL    HW119547   3.215   3.612  15.267  0.4111 -0.4584 -2.1143
 2696SOL    HW219548   3.138   3.664  15.161  0.0008 -0.4292  0.3178
 2697SOL     OW19549   1.050   0.825   8.040 -0.0860  0.4548 -0.8324
 2697SOL    HW119550   0.981   0.762   8.022  1.4224 -0.7726 -2.3444
 2697SOL    HW219551   1.092   0.786   8.117  0.2399 -0.4102 -1.4604
 2698SOL     OW19552   2.635   4.034   3.471  0.0379 -0.4291 -0.2227
 2698SOL    HW119553   2.561   3.993   3.426  0.2758 -1.1565  0.0492
 2698SOL    HW219554   2.612   4.027   3.563  0.1894 -2.5122 -0.3413
 2699SOL     OW19555   3.834   3.905  12.402 -0.7141  0.0129 -0.4200
 2699SOL    HW119556   3.808   3.859  12.322 -1.1364 -0.3411 -0.0761
 2699SOL    HW219557   3.832   3.841  12.473  0.4612 -0.0115 -0.4103
 2700SOL     OW19558   3.799   1.417  17.153  0.6829 -0.1065  0.1064
 2700SOL    HW119559   3.890   1.432  17.127  0.7638  1.4801  1.3711
 2700SOL    HW219560   3.766   1.442  17.066 -1.5977 -1.7036  0.5143
 2701SOL     OW19561   3.789   0.821   6.394  0.5803 -0.1103 -0.1565
 2701SOL    HW119562   3.863   0.858   6.443 -0.3196  1.6743 -0.1286
 2701SOL    HW219563   3.807   0.861   6.309  0.9329 -2.5038 -1.2089
 2702SOL     OW19564   0.010   4.181  14.611 -0.2978 -0.0341 -0.1082
 2702SOL    HW119565   4.681   4.235  14.552 -0.2569 -0.2977 -0.3891
 2702SOL    HW219566   0.097   4.211  14.582 -0.8843  0.1518 -1.6652
 2703SOL     OW19567   3.146   3.383  11.239  0.4628  0.2837 -0.1459
 2703SOL    HW119568   3.136   3.477  11.258  0.1264  0.9479 -3.6242
 2703SOL    HW219569   3.231   3.371  11.279 -1.3048 -1.2033  3.1657
 2704SOL     OW19570   0.538   1.345   6.605  0.3822  0.0080 -0.1840
 2704SOL    HW119571   0.530   1.378   6.695  0.5122 -0.1734 -0.1033
 2704SOL    HW219572   0.481   1.408   6.562  0.4930 -1.5398 -2.5883
 2705SOL     OW19573   2.325   0.599   1.264  0.5550 -0.0049 -0.5676
 2705SOL    HW119574   2.396   0.577   1.323 -0.0253  0.7144  0.4107
 2705SOL    HW219575   2.360   0.557   1.186  0.6224  1.2756 -1.2334
 2706SOL     OW19576   1.630   3.773   7.889  0.5128  0.8965 -0.3358
 2706SOL    HW119577   1.626   3.786   7.983  0.6619  0.3597 -0.2532
 2706SOL    HW219578   1.679   3.848   7.855  2.3307 -0.5361 -0.8890
 2707SOL     OW19579   4.552   1.687   2.924  0.5126  0.6578  0.4202
 2707SOL    HW119580   4.555   1.773   2.881 -1.3787  0.8904  0.7424
 2707SOL    HW219581   4.496   1.711   2.998  1.1736  0.9142  0.8344
 2708SOL     OW19582   1.180   4.480   5.447 -0.3444  0.1301 -0.4020
 2708SOL    HW119583   1.210   4.405   5.499  3.7322  1.1632 -1.2402
 2708SOL    HW219584   1.206   4.444   5.362 -0.6606  1.6922 -1.1542
 2709SOL     OW19585   2.612   2.539   1.055  0.5526 -0.2067  0.4089
 2709SOL    HW119586   2.520   2.558   1.075 -0.2662 -1.2523 -2.3599
 2709SOL    HW219587   2.631   2.470   1.119  2.9931 -0.4864 -0.6130
 2710SOL     OW19588   0.248   3.432  13.695  0.6246  0.0558  0.4119
 2710SOL    HW119589   0.210   3.500  13.640 -0.5060 -0.7345  0.2128
 2710SOL    HW219590   0.170   3.377  13.709 -0.1567  1.0406 -0.0986
 2711SOL     OW19591   3.475   0.914   5.801  0.5478 -0.0641  0.2891
 2711SOL    HW119592   3.444   0.843   5.858  2.2541 -1.7084 -0.8051
 2711SOL    HW219593   3.419   0.980   5.842 -2.1475 -3.0545  1.4652
 2712SOL     OW19594   4.374   1.166   7.172  0.4925  0.5881  0.1365
 2712SOL    HW119595   4.400   1.110   7.246 -0.8480 -1.9630 -1.3118
 2712SOL    HW219596   4.388   1.257   7.198 -3.3700  1.5464 -1.0000
 2713SOL     OW19597   1.622   1.698   5.366  0.6235 -0.1991 -0.3250
 2713SOL    HW119598   1.680   1.651   5.306  0.0923  0.8297 -1.6650
 2713SOL    HW219599   1.570   1.757   5.311 -0.7921 -0.2436  0.9686
 2714SOL     OW19600   3.555   1.816   6.480 -0.0654  0.8339  0.0441
 2714SOL    HW119601   3.623   1.786   6.420 -0.9186  2.0151 -1.5104
 2714SOL    HW219602   3.529   1.736   6.525 -0.8120  2.1026  1.8931
 2715SOL     OW19603   4.086   3.162   6.759  0.2086 -0.6049 -0.9344
 2715SOL    HW119604   4.088   3.258   6.757 -0.2324 -0.5600  0.3874
 2715SOL    HW219605   4.051   3.152   6.848  1.4631 -0.8077 -0.4606
 2716SOL     OW19606   3.049   0.043   8.709  0.3490 -0.0570 -0.1930
 2716SOL    HW119607   3.087   0.106   8.771  1.8400 -1.2397  0.0963
 2716SOL    HW219608   3.061   0.079   8.621 -1.9595  0.4759 -0.2855
 2717SOL     OW19609   2.983   4.257   2.826  0.7407  0.2153  0.8601
 2717SOL    HW119610   2.928   4.278   2.901 -0.1324 -2.2777  0.9141
 2717SOL    HW219611   2.924   4.198   2.779  0.7693  0.1009  0.9669
 2718SOL     OW19612   2.565   2.147   7.195 -0.3094 -0.2817  0.1888
 2718SOL    HW119613   2.607   2.065   7.167 -2.4959 -0.9444 -1.1953
 2718SOL    HW219614   2.599   2.210   7.131  0.0960 -1.9081 -1.1993
 2719SOL     OW19615   4.713   4.071   8.344 -0.0125  0.5313 -0.2197
 2719SOL    HW119616   0.025   4.154   8.312  0.3510  0.8551  1.0048
 2719SOL    HW219617   4.622   4.078   8.315 -0.8579 -1.7728  1.9011
 2720SOL     OW19618   1.691   4.643   8.176  0.0785  0.5313  0.0376
 2720SOL    HW119619   1.726   4.616   8.261 -2.4472 -2.5246  0.1042
 2720SOL    HW219620   1.598   4.641   8.199  0.1053 -1.8170 -0.0709
 2721SOL     OW19621   1.807   4.476  14.569 -0.1732  0.1361 -0.0631
 2721SOL    HW119622   1.781   4.384  14.562 -0.3888  0.3311 -1.7748
 2721SOL    HW219623   1.758   4.524  14.503  0.8525  1.4331  0.1041
 2722SOL     OW19624   2.583   1.978  13.593  0.1841  0.3479 -0.0578
 2722SOL    HW119625   2.620   2.019  13.514  1.7048  2.3439  1.6830
 2722SOL    HW219626   2.663   1.957  13.643 -2.7410 -0.8926  4.1073
 2723SOL     OW19627   0.285   1.275   0.725  0.1537 -0.5731 -0.1991
 2723SOL    HW119628   0.375   1.308   0.733 -0.3703  0.9262 -0.4732
 2723SOL    HW219629   0.276   1.211   0.795 -1.8187  0.7947  0.7898
 2724SOL     OW19630   0.575   1.727   7.810  0.4549  0.3669 -0.0309
 2724SOL    HW119631   0.669   1.737   7.802  0.3407  1.1780 -0.3515
 2724SOL    HW219632   0.555   1.817   7.783 -0.8553 -0.6101 -2.3057
 2725SOL     OW19633   1.369   4.413  14.986 -0.0391 -0.9050 -0.0818
 2725SOL    HW119634   1.437   4.369  14.935 -0.0534  0.0777 -0.9432
 2725SOL    HW219635   1.397   4.502  14.966  0.3536 -1.3241 -1.4027
 2726SOL     OW19636   1.382   1.265   4.833  0.1077  0.3570  0.4305
 2726SOL    HW119637   1.467   1.221   4.835  0.4412  0.9846  0.0087
 2726SOL    HW219638   1.328   1.203   4.785 -0.4810  0.2227  1.2698
 2727SOL     OW19639   2.760   2.227  12.435  0.1752 -0.4044 -0.4269
 2727SOL    HW119640   2.725   2.139  12.417 -2.0276  0.0277  1.6877
 2727SOL    HW219641   2.852   2.220  12.412  0.1360  2.4977 -1.4853
 2728SOL     OW19642   3.258   0.068   8.224  0.2232  0.0701 -0.1068
 2728SOL    HW119643   3.235   0.146   8.174  3.2640  0.7761 -0.4192
 2728SOL    HW219644   3.184   0.012   8.202  0.4079  0.2020 -1.0434
 2729SOL     OW19645   3.677   2.538   1.300  0.0371  0.5396 -0.5404
 2729SOL    HW119646   3.645   2.598   1.368  0.2782  1.4958 -1.2710
 2729SOL    HW219647   3.745   2.486   1.342  0.4721 -0.2290 -2.2064
 2730SOL     OW19648   0.685   1.428  17.310 -0.1469  0.3687 -0.1943
 2730SOL    HW119649   0.709   1.384  17.228  1.4999  1.7728 -0.4615
 2730SOL    HW219650   0.594   1.454  17.295 -0.7711 -1.1100  1.0066
 2731SOL     OW19651   2.976   0.015   2.916 -0.1107  0.3352  0.3988
 2731SOL    HW119652   2.975   0.110   2.907  0.1564 -0.0318 -3.2867
 2731SOL    HW219653   2.922   4.705   2.845  1.5557 -1.1434 -0.1843
 2732SOL     OW19654   3.788   2.457   2.772  0.2853 -0.5289  0.0249
 2732SOL    HW119655   3.801   2.545   2.734 -0.1305 -1.1852 -1.6496
 2732SOL    HW219656   3.739   2.428   2.695  2.4944 -2.3772 -0.6790
 2733SOL     OW19657   0.920   3.685   8.413 -0.1249 -0.6809 -0.1863
 2733SOL    HW119658   0.824   3.692   8.410 -0.0126  1.0217  0.2472
 2733SOL    HW219659   0.926   3.648   8.500  2.9146 -0.5703 -0.3731
 2734SOL     OW19660   0.396   0.210  13.895 -0.2068 -0.3925 -0.7577
 2734SOL    HW119661   0.301   0.221  13.896 -0.1663 -0.3753  1.7245
 2734SOL    HW219662   0.422   0.297  13.862 -2.4142 -0.0688 -1.6673
 2735SOL     OW19663   1.497   4.652  14.903  0.0531  0.0089 -0.3041
 2735SOL    HW119664   1.511   4.654  14.808 -0.2964  0.0911 -0.3534
 2735SOL    HW219665   1.486   0.022  14.922 -1.6705 -0.5713  1.4953
 2736SOL     OW19666   0.828   1.666  14.513  0.3879  0.4657 -0.2137
 2736SOL    HW119667   0.907   1.703  14.474  1.0983 -2.1999 -1.3144
 2736SOL    HW219668   0.774   1.717  14.453 -0.7167  1.8160  1.9005
 2737SOL     OW19669   3.366   1.357  16.389 -0.2556 -0.2563 -0.3309
 2737SOL    HW119670   3.306   1.287  16.364 -0.1356 -0.0570 -1.1778
 2737SOL    HW219671   3.308   1.411  16.444  1.0298  1.1482 -0.3547
 2738SOL     OW19672   1.483   3.723   4.174 -0.2677  0.1253 -0.1906
 2738SOL    HW119673   1.427   3.731   4.251 -0.0562  1.1504 -0.1478
 2738SOL    HW219674   1.441   3.787   4.117  0.2996  0.1626 -0.5683
 2739SOL     OW19675   2.205   1.310   7.474 -0.3236 -0.3597 -0.1409
 2739SOL    HW119676   2.240   1.399   7.481  0.5491 -0.7193 -0.0079
 2739SOL    HW219677   2.278   1.258   7.440  0.2955  2.6408 -3.4239
 2740SOL     OW19678   1.752   1.327   3.147  0.6022 -0.0853  0.0126
 2740SOL    HW119679   1.696   1.320   3.225 -1.2227  1.1053 -1.1979
 2740SOL    HW219680   1.723   1.245   3.107 -1.4055  2.6255 -4.0022
 2741SOL     OW19681   3.515   2.663   1.008 -0.1096  0.3818  0.2039
 2741SOL    HW119682   3.593   2.621   1.044 -1.3403 -1.9520  0.1608
 2741SOL    HW219683   3.550   2.662   0.919  0.8582 -0.4428  0.5898
 2742SOL     OW19684   4.616   0.666   8.820 -0.3162 -0.1538 -0.1099
 2742SOL    HW119685   4.544   0.715   8.862  0.4900  0.5478  0.4575
 2742SOL    HW219686   4.666   0.635   8.896  1.8540  2.4703 -0.4792
 2743SOL     OW19687   1.928   2.405   1.992  0.5592 -0.1742 -0.1683
 2743SOL    HW119688   2.004   2.352   2.015  1.6660  1.5779  0.1644
 2743SOL    HW219689   1.875   2.394   2.071  0.4414  0.4984 -0.1531
 2744SOL     OW19690   1.096   0.110   0.044  0.3108  0.4129  0.1632
 2744SOL    HW119691   1.155   0.103  17.663 -0.2556  0.4160 -0.2792
 2744SOL    HW219692   1.134   0.183   0.093 -1.7476  0.8742  1.0893
 2745SOL     OW19693   4.309   0.271   5.544  0.3871  0.1426 -0.2152
 2745SOL    HW119694   4.382   0.309   5.592 -1.2848  0.1170  2.3576
 2745SOL    HW219695   4.360   0.239   5.471  2.7593 -0.2439  1.6119
 2746SOL     OW19696   0.828   3.054   3.896  0.0937  0.4838  0.3502
 2746SOL    HW119697   0.878   3.113   3.839  1.5022  0.4208  1.5393
 2746SOL    HW219698   0.897   2.989   3.908 -0.9549 -0.8617 -0.7741
 2747SOL     OW19699   1.812   2.357   5.000  0.5780 -0.2194  0.0772
 2747SOL    HW119700   1.795   2.395   4.914 -1.1124 -0.8985  0.0999
 2747SOL    HW219701   1.875   2.420   5.034 -0.4495 -0.5515  2.5655
 2748SOL     OW19702   3.995   2.003   9.671 -0.0911 -0.3978  0.2135
 2748SOL    HW119703   4.085   1.987   9.640  0.6595  0.8555  1.7208
 2748SOL    HW219704   3.998   2.090   9.711 -1.6343  0.8436 -2.3830
 2749SOL     OW19705   4.278   4.397   4.644 -0.1551  0.4168  0.5814
 2749SOL    HW119706   4.184   4.391   4.663 -0.3157  0.2541 -0.2372
 2749SOL    HW219707   4.317   4.319   4.683  4.8414  2.2483 -0.7038
 2750SOL     OW19708   1.533   2.691   6.387  0.2405 -0.1050 -0.3377
 2750SOL    HW119709   1.592   2.724   6.319 -0.2519  0.4059 -0.5187
 2750SOL    HW219710   1.470   2.761   6.400  0.3106  0.1163 -1.1857
 2751SOL     OW19711   2.093   4.375   9.418  0.0589 -0.3811  0.6732
 2751SOL    HW119712   2.177   4.422   9.412 -0.8812  1.1782 -0.3789
 2751SOL    HW219713   2.088   4.352   9.511  0.4414 -0.7079  0.6124
 2752SOL     OW19714   2.463   2.246  11.303 -0.4402  0.1266 -0.1137
 2752SOL    HW119715   2.432   2.262  11.392  0.9915 -0.6472  0.5097
 2752SOL    HW219716   2.386   2.200  11.270 -1.0645  0.4510  0.8648
 2753SOL     OW19717   3.419   2.188   3.084  0.0576 -0.1362 -0.1460
 2753SOL    HW119718   3.474   2.116   3.115  0.3785 -0.1991 -0.8458
 2753SOL    HW219719   3.415   2.255   3.152  0.2593  2.3292 -2.5701
 2754SOL     OW19720   3.011   2.027   0.769  0.2612  0.2575 -0.8227
 2754SOL    HW119721   3.067   1.951   0.755 -0.7344 -0.5528 -0.3944
 2754SOL    HW219722   3.021   2.039   0.864  1.3699  2.1641 -1.1890
 2755SOL     OW19723   2.543   2.529   9.017  0.1690  0.3430  0.0693
 2755SOL    HW119724   2.450   2.531   8.992  0.9470  0.0245 -2.8657
 2755SOL    HW219725   2.563   2.453   8.964 -1.2965  0.8703 -1.2625
 2756SOL     OW19726   1.331   4.165   7.925 -0.1699 -0.1359  0.2329
 2756SOL    HW119727   1.246   4.137   7.890 -0.3932  0.2815  0.4434
 2756SOL    HW219728   1.341   4.123   8.010 -0.3799  1.2842  0.9616
 2757SOL     OW19729   4.117   3.654  13.169  0.0676  0.1592  0.5273
 2757SOL    HW119730   4.034   3.682  13.207  0.3702 -0.4261  1.6039
 2757SOL    HW219731   4.099   3.657  13.074  1.0047  0.2053  0.3561
 2758SOL     OW19732   2.021   2.992  10.279  0.9089 -0.2524  0.6587
 2758SOL    HW119733   2.037   2.983  10.373  0.6282  2.9090  1.0154
 2758SOL    HW219734   2.109   2.992  10.240  1.7267  1.3825  2.5395
 2759SOL     OW19735   2.264   1.084   2.985  0.5023 -0.2748 -0.3335
 2759SOL    HW119736   2.330   1.015   2.982  0.8197 -0.0045  0.3041
 2759SOL    HW219737   2.186   1.041   3.021  1.0956 -1.2618 -0.2416
 2760SOL     OW19738   3.210   2.156   4.758  0.4113  0.4813  0.3997
 2760SOL    HW119739   3.145   2.108   4.809  0.1587 -0.0122 -0.3733
 2760SOL    HW219740   3.202   2.101   4.680  0.9827  2.0645 -0.7942
 2761SOL     OW19741   4.219   0.153   5.789 -0.5824 -0.2049 -0.2883
 2761SOL    HW119742   4.172   0.223   5.835 -0.6813  0.5135 -1.4807
 2761SOL    HW219743   4.277   0.192   5.723 -2.0897  0.6611 -1.1000
 2762SOL     OW19744   2.765   4.506   8.580  0.5977 -0.3903  0.1791
 2762SOL    HW119745   2.833   4.444   8.554  0.3445 -1.0144  0.9812
 2762SOL    HW219746   2.782   4.519   8.673 -0.1674  0.4321  0.2028
 2763SOL     OW19747   0.493   1.976   7.787  0.1731  0.1367  0.1230
 2763SOL    HW119748   0.419   2.037   7.777 -0.4351 -0.5818  0.2483
 2763SOL    HW219749   0.505   1.991   7.881 -1.5193 -1.6592  0.6278
 2764SOL     OW19750   1.260   3.347   2.521 -0.0660 -0.1302  0.2162
 2764SOL    HW119751   1.310   3.398   2.457  1.0992 -0.4866  0.8433
 2764SOL    HW219752   1.310   3.266   2.510  1.5422  0.8307  0.3623
 2765SOL     OW19753   2.799   0.396  15.568 -0.8365  0.4237  0.2345
 2765SOL    HW119754   2.749   0.358  15.496 -0.8577 -1.1326  1.0628
 2765SOL    HW219755   2.745   0.393  15.647  0.2682  2.7071  1.0731
 2766SOL     OW19756   2.014   1.654   2.767  0.2635  0.1597  0.3777
 2766SOL    HW119757   1.996   1.560   2.771  1.8416 -0.1840 -0.8029
 2766SOL    HW219758   2.108   1.650   2.752  0.0945 -2.4835 -0.1485
 2767SOL     OW19759   2.096   3.850  12.716  0.3779 -0.2419  0.7335
 2767SOL    HW119760   2.085   3.911  12.644 -2.3273 -0.1082  1.2761
 2767SOL    HW219761   2.191   3.836  12.720  0.8369  2.5089 -0.4336
 2768SOL     OW19762   2.039   1.779   0.383 -0.4932 -0.6093 -0.3209
 2768SOL    HW119763   2.018   1.821   0.467  2.3137 -0.3547  0.2329
 2768SOL    HW219764   2.078   1.858   0.346  0.0206 -0.6305  0.1803
 2769SOL     OW19765   1.702   2.049   6.087 -0.3900  0.1422 -0.9676
 2769SOL    HW119766   1.718   2.139   6.114  0.7912 -0.8698  1.6377
 2769SOL    HW219767   1.751   2.039   6.005  2.4299 -2.3821  1.0274
 2770SOL     OW19768   0.364   4.027   4.262 -0.1680 -0.3518 -0.2960
 2770SOL    HW119769   0.391   4.092   4.326  1.4607 -0.1259 -1.2263
 2770SOL    HW219770   0.368   4.090   4.190  1.2281  0.6168  0.6462
 2771SOL     OW19771   0.066   3.060   0.872  0.4824  0.6121 -0.2827
 2771SOL    HW119772   0.122   2.983   0.859  0.7142  0.7457 -0.0793
 2771SOL    HW219773   4.703   3.019   0.877  1.8460 -2.0846  1.6960
 2772SOL     OW19774   2.482   3.495  12.532 -0.8225  0.1008  0.6071
 2772SOL    HW119775   2.560   3.510  12.479 -1.0584 -0.2597  0.1621
 2772SOL    HW219776   2.421   3.493  12.459  0.4642  2.7377 -0.5171
 2773SOL     OW19777   4.573   2.445   6.132 -0.2300 -0.5771  0.0271
 2773SOL    HW119778   4.600   2.377   6.070  1.4811 -1.1002  1.3456
 2773SOL    HW219779   4.528   2.504   6.072  2.2483 -0.1481 -1.4220
 2774SOL     OW19780   2.929   3.603  11.263  0.4893 -0.0659  0.5883
 2774SOL    HW119781   3.014   3.589  11.306  0.6059 -0.6873  0.1566
 2774SOL    HW219782   2.933   3.693  11.231 -0.5474 -1.0115 -2.1803
 2775SOL     OW19783   3.592   0.640   6.374 -0.4336 -0.0993  0.5896
 2775SOL    HW119784   3.629   0.584   6.306  0.0814  0.0278  0.7716
 2775SOL    HW219785   3.667   0.699   6.375 -1.1018  0.7809 -0.6126
 2776SOL     OW19786   2.249   0.078  16.356 -0.0860 -0.1993 -0.1722
 2776SOL    HW119787   2.241   0.045  16.446  1.9415  0.5028  0.2791
 2776SOL    HW219788   2.262   4.720  16.307  0.7364  0.4837 -1.0746
 2777SOL     OW19789   3.127   3.302   5.203 -0.2363  0.2185 -0.2556
 2777SOL    HW119790   3.150   3.388   5.239 -2.0231  0.5951 -0.0073
 2777SOL    HW219791   3.066   3.274   5.271  0.3702 -2.5295 -0.8461
 2778SOL     OW19792   1.574   1.168   0.119  0.1052  0.2227 -0.1589
 2778SOL    HW119793   1.666   1.194   0.115  0.2163  0.1264  1.5239
 2778SOL    HW219794   1.581   1.090   0.175 -3.6881  0.1146  0.1429
 2779SOL     OW19795   2.731   4.016  12.550 -0.2593 -0.0208  0.1900
 2779SOL    HW119796   2.774   3.958  12.612  1.9263  1.4187  0.0191
 2779SOL    HW219797   2.726   4.099  12.598 -0.7229  2.0140 -3.3729
 2780SOL     OW19798   1.251   0.949   2.383  0.1063 -0.2971 -0.0574
 2780SOL    HW119799   1.328   0.926   2.331 -0.8965 -1.8443 -0.8510
 2780SOL    HW219800   1.208   0.866   2.405  0.2113 -0.2937  0.1654
 2781SOL     OW19801   2.076   1.538   8.229 -0.0929  0.0804 -0.6896
 2781SOL    HW119802   2.127   1.616   8.209 -0.2836  0.9660  2.1870
 2781SOL    HW219803   2.064   1.534   8.324 -1.0711 -1.5814 -0.8929
 2782SOL     OW19804   1.601   4.719   9.210  0.6567  0.1265  0.9579
 2782SOL    HW119805   1.638   4.718   9.299 -0.8603  2.2590  1.6054
 2782SOL    HW219806   1.672   4.670   9.168 -1.6320 -1.3029 -1.1863
 2783SOL     OW19807   3.700   3.981   3.389  0.2839  0.1733  0.8945
 2783SOL    HW119808   3.738   3.959   3.474  1.0397 -0.7448  0.3322
 2783SOL    HW219809   3.611   3.965   3.418  0.3770  0.5485  1.3740
 2784SOL     OW19810   4.342   1.273   9.653  0.1343 -0.3434  0.7426
 2784SOL    HW119811   4.341   1.369   9.651 -2.1831 -0.3218  4.0048
 2784SOL    HW219812   4.414   1.257   9.713  0.3233 -1.6605  0.1809
 2785SOL     OW19813   1.697   0.499   8.220 -0.0598 -0.2334  1.6110
 2785SOL    HW119814   1.708   0.425   8.161  0.5360  2.8503 -2.1018
 2785SOL    HW219815   1.675   0.444   8.296 -0.0202 -1.7224  0.5427
 2786SOL     OW19816   0.880   2.350  12.143  0.7746  0.0740  0.2570
 2786SOL    HW119817   0.964   2.314  12.171  0.1678 -0.1593  1.7595
 2786SOL    HW219818   0.882   2.304  12.059 -0.7234  0.7493 -0.1467
 2787SOL     OW19819   4.281   0.138   8.635 -0.3836  0.2067 -0.1775
 2787SOL    HW119820   4.188   0.142   8.611 -0.7995 -1.8961  1.0073
 2787SOL    HW219821   4.296   0.044   8.652 -2.8153 -0.3602 -1.1422
 2788SOL     OW19822   0.959   3.036   3.360 -0.3366 -0.3978 -0.4690
 2788SOL    HW119823   0.952   3.085   3.442 -2.2906 -1.3968 -0.0303
 2788SOL    HW219824   1.043   3.071   3.331 -0.1495 -0.1467  0.3684
 2789SOL     OW19825   1.580   0.117   3.668  0.2972  0.4407 -0.5321
 2789SOL    HW119826   1.634   0.196   3.659  1.7349 -0.8815 -3.5147
 2789SOL    HW219827   1.533   0.110   3.585 -0.2062 -1.0390 -0.1253
 2790SOL     OW19828   0.934   0.234  14.329 -0.2335 -0.0815  0.0529
 2790SOL    HW119829   0.915   0.203  14.240 -5.1154  1.6817  0.4992
 2790SOL    HW219830   1.007   0.179  14.357  0.2494 -0.3453 -1.7105
 2791SOL     OW19831   3.164   0.060  10.292  0.1879 -0.2870 -0.1461
 2791SOL    HW119832   3.162   0.027  10.382  1.0669 -1.9581 -0.7314
 2791SOL    HW219833   3.254   0.090  10.277 -0.0416  0.8705  0.7831
 2792SOL     OW19834   4.068   0.946   8.553 -0.4308  0.0080 -0.4572
 2792SOL    HW119835   4.147   0.980   8.595 -1.6954 -0.9946  2.7483
 2792SOL    HW219836   3.996   0.983   8.605  0.0631 -0.5229  0.6132
 2793SOL     OW19837   1.191   3.956   1.876 -0.4036  0.1231 -0.1723
 2793SOL    HW119838   1.179   4.043   1.916 -0.9926  0.2914 -0.7071
 2793SOL    HW219839   1.273   3.966   1.828 -0.4350 -0.2469 -0.2970
 2794SOL     OW19840   1.225   3.165  11.441  0.4611 -0.2264 -0.3090
 2794SOL    HW119841   1.319   3.178  11.453  0.4837  0.9241 -1.7110
 2794SOL    HW219842   1.206   3.259  11.434  2.7809  0.2624 -0.0952
 2795SOL     OW19843   3.925   0.767   3.862  0.7822 -0.5549 -0.4104
 2795SOL    HW119844   3.975   0.830   3.809 -1.0238 -0.2580 -1.7450
 2795SOL    HW219845   3.920   0.692   3.802 -0.9264 -1.9934  1.5606
 2796SOL     OW19846   2.056   1.857   9.150 -0.5068 -0.0142 -0.2526
 2796SOL    HW119847   2.072   1.945   9.116  0.9506 -0.0946  0.2318
 2796SOL    HW219848   2.105   1.808   9.084 -1.0603  1.6237 -1.8896
 2797SOL     OW19849   4.561   1.158   2.073 -0.6174  0.1670 -0.3629
 2797SOL    HW119850   4.585   1.183   2.163 -1.3582  0.5031 -0.2530
 2797SOL    HW219851   4.579   1.234   2.017 -0.4928  0.1671 -0.3219
 2798SOL     OW19852   3.121   0.558   4.792  0.2522 -0.0765 -0.0018
 2798SOL    HW119853   3.134   0.509   4.873  0.8838 -0.6081 -0.4248
 2798SOL    HW219854   3.212   0.568   4.763  0.3346  1.7054  0.8319
 2799SOL     OW19855   2.654   4.580   3.075 -0.1228 -0.1007 -0.7601
 2799SOL    HW119856   2.724   4.523   3.107  0.3419  1.6303  1.3176
 2799SOL    HW219857   2.585   4.515   3.089 -0.2069 -0.1900 -1.5858
 2800SOL     OW19858   2.414   0.467  14.100 -0.2053 -0.4169 -0.2703
 2800SOL    HW119859   2.424   0.397  14.165 -0.9232  0.2594  0.5662
 2800SOL    HW219860   2.349   0.424  14.044 -0.4699 -0.5967  0.1718
 2801SOL     OW19861   2.791   0.981   6.727  0.7959 -0.2702 -0.2816
 2801SOL    HW119862   2.882   0.961   6.749  0.9174  0.7287  0.1484
 2801SOL    HW219863   2.801   1.018   6.639 -2.0265 -0.8051 -0.8355
 2802SOL     OW19864   1.755   3.103   2.085 -0.0978  0.4726  0.1756
 2802SOL    HW119865   1.748   3.041   2.157  1.5732 -1.3090 -1.1915
 2802SOL    HW219866   1.752   3.043   2.011  2.6413 -0.2239  0.6399
 2803SOL     OW19867   0.668   3.690   9.117  0.2897 -0.7307  0.0885
 2803SOL    HW119868   0.640   3.781   9.131  1.5707  0.0089 -2.2444
 2803SOL    HW219869   0.746   3.688   9.173 -0.9584  0.1214  1.8666
 2804SOL     OW19870   2.375   3.550   4.916  0.0021  0.3158 -0.0568
 2804SOL    HW119871   2.384   3.544   4.821 -2.4003 -1.0242 -0.2098
 2804SOL    HW219872   2.402   3.463   4.946  2.5014  1.9624  2.4163
 2805SOL     OW19873   3.452   1.619  11.651 -0.1210  0.4479  0.0219
 2805SOL    HW119874   3.424   1.682  11.718  1.5172  0.8536  0.3338
 2805SOL    HW219875   3.529   1.666  11.620 -0.3759 -0.4005 -1.8902
 2806SOL     OW19876   1.966   4.316   8.319  0.3741  0.0367  0.0107
 2806SOL    HW119877   1.875   4.295   8.297  0.3833 -0.6687  0.6264
 2806SOL    HW219878   1.999   4.241   8.370  0.4920  0.4588  0.5627
 2807SOL     OW19879   4.122   0.340  10.408 -0.2455 -0.1287 -0.2758
 2807SOL    HW119880   4.108   0.426  10.448 -1.6676 -1.1537  1.4590
 2807SOL    HW219881   4.152   0.296  10.488 -1.0812  0.8832  0.6087
 2808SOL     OW19882   0.081   2.255   6.537  0.0436 -0.1470 -0.1929
 2808SOL    HW119883   0.096   2.164   6.562  0.2558 -0.0636 -0.0165
 2808SOL    HW219884   0.126   2.259   6.453 -1.3585 -0.7406 -0.9638
 2809SOL     OW19885   0.970   1.973   6.930  0.1653 -0.1038  0.1027
 2809SOL    HW119886   1.035   2.023   6.881  0.3174  0.2549  0.6724
 2809SOL    HW219887   1.026   1.945   7.002 -0.8769 -4.0469 -0.5714
 2810SOL     OW19888   0.024   2.538   8.061  0.0733  0.5494  0.2953
 2810SOL    HW119889   4.717   2.622   8.097 -2.5155  0.5378 -1.8145
 2810SOL    HW219890   0.016   2.477   8.134 -0.1901 -1.0242 -1.0460
 2811SOL     OW19891   4.606   3.680   9.179 -0.7459  0.3922  0.1008
 2811SOL    HW119892   4.553   3.602   9.196  0.1404 -0.5412 -1.4488
 2811SOL    HW219893   4.672   3.655   9.114 -1.6659  2.1905 -1.5068
 2812SOL     OW19894   4.436   4.010   4.007  0.1661  0.2178 -0.1599
 2812SOL    HW119895   4.432   3.982   4.099  0.6982 -0.0849 -0.2312
 2812SOL    HW219896   4.400   3.931   3.967 -0.8089 -0.6796  2.4463
 2813SOL     OW19897   3.648   0.994   1.340 -0.0408  0.0725  0.3544
 2813SOL    HW119898   3.638   1.052   1.265  0.4932  0.2671  0.4314
 2813SOL    HW219899   3.557   0.964   1.338  1.3565 -4.3713  2.6151
 2814SOL     OW19900   2.795   0.102  10.966 -0.0395 -0.3368 -0.1653
 2814SOL    HW119901   2.714   0.080  11.012  0.1155 -2.0884 -0.7119
 2814SOL    HW219902   2.775   0.091  10.873  0.8609  1.7807 -0.6023
 2815SOL     OW19903   2.860   1.396   7.607 -0.5254 -0.5909 -0.5607
 2815SOL    HW119904   2.807   1.474   7.616  2.3775  1.4345 -1.0941
 2815SOL    HW219905   2.944   1.440   7.595 -0.6837  0.1981  1.3185
 2816SOL     OW19906   3.169   1.803  11.239  0.4062 -0.6710  0.3909
 2816SOL    HW119907   3.129   1.716  11.234 -0.2365 -0.2872 -1.0712
 2816SOL    HW219908   3.203   1.799  11.329 -1.3372 -0.1084  1.0627
 2817SOL     OW19909   0.936   2.695  14.339 -0.7407  0.4908 -0.0147
 2817SOL    HW119910   0.855   2.710  14.290 -0.3493  1.4864 -0.3433
 2817SOL    HW219911   0.916   2.625  14.402 -1.2512  2.5413  2.0791
 2818SOL     OW19912   3.960   1.143   3.017  0.0487 -0.4960  0.0474
 2818SOL    HW119913   3.961   1.122   2.924  2.1304 -1.0762  0.2061
 2818SOL    HW219914   4.047   1.176   3.040  0.9209 -2.9265  0.2418
 2819SOL     OW19915   0.458   2.762   1.147 -0.2728 -0.3513 -0.2895
 2819SOL    HW119916   0.541   2.805   1.128  0.1691 -1.3146 -0.5515
 2819SOL    HW219917   0.451   2.712   1.066  2.6060 -1.2277 -0.0186
 2820SOL     OW19918   3.188   3.822   5.476  0.1176  0.0662 -0.3257
 2820SOL    HW119919   3.244   3.873   5.534 -1.2829  0.6981  0.4743
 2820SOL    HW219920   3.251   3.800   5.408 -1.5597  0.2769 -1.9440
 2821SOL     OW19921   4.403   0.356   8.692  0.7334  0.7430  0.4557
 2821SOL    HW119922   4.366   0.268   8.683  0.1690  0.9805  0.4312
 2821SOL    HW219923   4.450   0.355   8.775 -0.1176  3.1428  0.9784
 2822SOL     OW19924   4.640   2.604  16.276  0.5808 -0.3049  0.8138
 2822SOL    HW119925   4.579   2.662  16.228 -0.1167 -0.3085  1.6954
 2822SOL    HW219926   0.004   2.641  16.261  1.3495 -1.5370  2.3445
 2823SOL     OW19927   3.849   1.682   4.947  0.1945  0.1114 -0.2010
 2823SOL    HW119928   3.868   1.612   4.884 -2.2672  0.1794 -1.0332
 2823SOL    HW219929   3.906   1.643   5.013 -1.8344  0.4208  1.7030
 2824SOL     OW19930   1.949   0.700   5.064  0.1376 -0.0001  0.0199
 2824SOL    HW119931   2.044   0.690   5.056  0.1865  0.0450  0.6132
 2824SOL    HW219932   1.929   0.607   5.078  0.6293  0.0830  1.2267
 2825SOL     OW19933   3.932   2.878  15.265 -0.4028 -0.1551  0.3036
 2825SOL    HW119934   4.001   2.928  15.309 -1.8378  1.9554  0.1648
 2825SOL    HW219935   3.870   2.868  15.337  1.3364  1.0637  1.9671
 2826SOL     OW19936   0.260   2.692  17.571 -0.0974 -0.0004 -0.1438
 2826SOL    HW119937   0.337   2.655  17.615  0.0379  2.5721  1.8312
 2826SOL    HW219938   0.189   2.645  17.615  1.0225 -1.2641  0.3058
 2827SOL     OW19939   0.283   3.768   4.294 -0.5751 -0.1073 -0.3673
 2827SOL    HW119940   0.314   3.858   4.280  0.7711 -0.4330  0.5352
 2827SOL    HW219941   0.334   3.744   4.371 -2.1823 -0.4020  0.6013
 2828SOL     OW19942   2.780   4.461  17.504 -0.3488  0.9483 -0.0401
 2828SOL    HW119943   2.782   4.370  17.531 -0.2389  1.1011  0.4701
 2828SOL    HW219944   2.858   4.498  17.545 -0.7894  0.9914  0.7664
 2829SOL     OW19945   1.870   4.293   6.829 -0.1187  0.1219 -0.1113
 2829SOL    HW119946   1.959   4.295   6.864  0.6798 -2.2922 -1.9935
 2829SOL    HW219947   1.824   4.372   6.858 -0.4952  0.5840 -1.9855
 2830SOL     OW19948   0.414   3.934   5.530  0.1745  0.3899 -0.1247
 2830SOL    HW119949   0.380   3.929   5.620 -0.5099  2.2000 -0.2667
 2830SOL    HW219950   0.452   4.022   5.523 -0.1408  0.6367  1.2191
 2831SOL     OW19951   2.385   3.120   5.380  0.5481 -0.1246 -0.2931
 2831SOL    HW119952   2.480   3.123   5.391  0.3133 -0.1000  1.8132
 2831SOL    HW219953   2.382   3.056   5.310 -1.2864 -1.3535  0.8927
 2832SOL     OW19954   1.365   3.253  12.915  0.5525  0.0312 -0.3605
 2832SOL    HW119955   1.343   3.221  13.002  1.2416 -1.4911 -0.7447
 2832SOL    HW219956   1.442   3.200  12.893  1.0756 -0.0517  1.6454
 2833SOL     OW19957   1.986   3.637  11.521 -0.3327  0.4179 -0.5680
 2833SOL    HW119958   1.971   3.650  11.615  0.4375 -1.6801 -0.1613
 2833SOL    HW219959   1.895   3.627  11.492 -0.6019  4.6891 -1.1926
 2834SOL     OW19960   2.888   0.769   7.948  0.2501 -0.8184  0.1626
 2834SOL    HW119961   2.829   0.843   7.930  1.1170  0.0582  0.9129
 2834SOL    HW219962   2.845   0.692   7.913 -1.8758 -0.1492  1.2615
 2835SOL     OW19963   2.919   0.272   2.731 -0.3606  0.5139 -0.2779
 2835SOL    HW119964   2.975   0.317   2.794 -0.2192  0.5548 -0.4304
 2835SOL    HW219965   2.974   0.221   2.671 -1.7097 -1.7118  0.3783
 2836SOL     OW19966   0.389   1.318  12.685 -0.3427 -0.2146  0.1976
 2836SOL    HW119967   0.349   1.402  12.706 -2.1655 -0.7357 -1.2659
 2836SOL    HW219968   0.363   1.268  12.763  0.8509 -0.7201  0.2789
 2837SOL     OW19969   2.810   0.685  17.529  0.0123  0.4291 -0.0827
 2837SOL    HW119970   2.875   0.640  17.474 -0.1997  2.1535 -1.7143
 2837SOL    HW219971   2.793   0.761  17.474  1.5255  1.3045  0.6355
 2838SOL     OW19972   0.549   3.834  13.291  0.2797 -0.9075  0.2522
 2838SOL    HW119973   0.486   3.884  13.343  1.1936  0.3361  0.1706
 2838SOL    HW219974   0.619   3.828  13.356  0.4010 -0.9334  0.1189
 2839SOL     OW19975   2.677   3.406  12.751  0.1325  0.6134  0.3488
 2839SOL    HW119976   2.726   3.337  12.706  1.5673  1.3291  0.8427
 2839SOL    HW219977   2.597   3.412  12.699 -0.5639  0.4108  1.3813
 2840SOL     OW19978   0.992   4.063  11.915  0.0303 -0.1341  0.1454
 2840SOL    HW119979   1.001   3.992  11.978 -0.7103 -0.0747  0.3256
 2840SOL    HW219980   1.074   4.110  11.929 -0.2139  1.3636 -3.3720
 2841SOL     OW19981   1.450   0.332   2.225 -0.2970  0.0617  0.7215
 2841SOL    HW119982   1.496   0.252   2.200 -0.7187  0.1046 -0.1982
 2841SOL    HW219983   1.519   0.396   2.210  1.7354 -1.6852  2.5718
 2842SOL     OW19984   0.641   3.224   8.193  0.3771 -0.0037  0.3831
 2842SOL    HW119985   0.619   3.173   8.271 -0.0012 -0.3241  0.0655
 2842SOL    HW219986   0.580   3.297   8.200  2.0316  1.5034 -1.1611
 2843SOL     OW19987   3.595   0.934  15.164 -0.4422 -0.1567  0.0773
 2843SOL    HW119988   3.636   0.856  15.202 -2.8400 -1.3442  0.1977
 2843SOL    HW219989   3.563   0.914  15.076 -1.0176 -2.1621  0.7369
 2844SOL     OW19990   3.308   0.692   2.089 -0.0898 -0.3252  0.2392
 2844SOL    HW119991   3.337   0.601   2.098 -1.1699 -0.4114  2.6637
 2844SOL    HW219992   3.372   0.737   2.145  0.0763  0.1061 -0.2983
 2845SOL     OW19993   0.860   3.919  11.251  0.3721  0.4765 -0.2125
 2845SOL    HW119994   0.857   3.823  11.245  2.5376  0.1736  3.6288
 2845SOL    HW219995   0.952   3.944  11.258 -0.3059  2.8882 -0.1388
 2846SOL     OW19996   0.144   2.385   3.896  0.1308 -0.3309 -0.1249
 2846SOL    HW119997   0.159   2.313   3.834  1.4143 -1.1900  1.1724
 2846SOL    HW219998   0.048   2.381   3.901  0.0043  1.9075 -1.0839
 2847SOL     OW19999   3.055   1.496  12.808  0.0438  0.3310 -0.6534
 2847SOL    HW120000   3.009   1.466  12.730 -1.1858  1.0280 -0.2120
 2847SOL    HW220001   3.144   1.489  12.774 -0.1471  2.4526 -1.6072
 2848SOL     OW20002   3.422   3.601   6.812  0.1841  0.1873  0.8347
 2848SOL    HW120003   3.373   3.518   6.810 -2.1205  1.5529  0.3838
 2848SOL    HW220004   3.510   3.565   6.803  0.4033  1.6833 -2.7446
 2849SOL     OW20005   0.529   3.908  10.098  0.2022  0.3733 -0.5145
 2849SOL    HW120006   0.495   3.872  10.017 -0.7147  0.7748 -0.3000
 2849SOL    HW220007   0.592   3.838  10.119  0.0131  0.4484  0.3297
 2850SOL     OW20008   4.586   0.477   5.211  0.4790  0.4297 -0.3271
 2850SOL    HW120009   4.664   0.483   5.155 -0.1741 -2.1984 -1.5477
 2850SOL    HW220010   4.522   0.511   5.147  1.0373  1.3325 -0.4019
 2851SOL     OW20011   4.178   4.614   6.317 -0.7471  0.7232 -0.2516
 2851SOL    HW120012   4.084   4.596   6.323 -0.6065 -0.4804 -1.6540
 2851SOL    HW220013   4.204   4.629   6.408 -1.8887  0.3828  0.1249
 2852SOL     OW20014   1.022   1.476   4.348 -0.6463  0.1891  0.0180
 2852SOL    HW120015   0.966   1.442   4.417 -1.3227  0.4194 -0.4242
 2852SOL    HW220016   0.967   1.456   4.273  0.2342 -0.5051 -0.4418
 2853SOL     OW20017   1.265   4.057  10.011  0.1894 -0.4832 -0.0139
 2853SOL    HW120018   1.251   4.040  10.104 -1.3801  2.0479  0.2254
 2853SOL    HW220019   1.245   4.151  10.009 -1.3959 -0.8160  0.9960
 2854SOL     OW20020   0.976   4.278  11.474  0.1905  0.1491  0.9032
 2854SOL    HW120021   1.052   4.265  11.418  1.0160  0.6605  1.9169
 2854SOL    HW220022   0.908   4.273  11.407  0.7975  0.8415  0.2395
 2855SOL     OW20023   1.289   1.023   4.219  0.3860 -0.5687 -0.1711
 2855SOL    HW120024   1.352   0.957   4.189 -0.0728 -0.4413 -1.4404
 2855SOL    HW220025   1.247   1.045   4.136  0.9976 -0.6597 -0.5097
 2856SOL     OW20026   0.594   3.153   1.558 -0.6758 -0.2772  0.1395
 2856SOL    HW120027   0.547   3.195   1.630 -2.3525 -1.0015 -0.5246
 2856SOL    HW220028   0.644   3.223   1.516  1.0901 -1.1282  0.8180
 2857SOL     OW20029   4.558   4.014   0.253 -0.0036 -0.4018 -0.0149
 2857SOL    HW120030   4.534   3.932   0.211 -1.9169 -0.1834  0.6361
 2857SOL    HW220031   4.472   4.053   0.265 -0.0604 -0.0675 -1.5182
 2858SOL     OW20032   4.715   4.044   1.775  0.3728 -0.3389 -0.1024
 2858SOL    HW120033   4.625   4.011   1.774  0.0199  0.6750 -2.1892
 2858SOL    HW220034   0.016   4.022   1.685 -0.9492  0.5608 -0.6787
 2859SOL     OW20035   3.235   1.731   3.185 -0.0635  0.3100 -0.1112
 2859SOL    HW120036   3.252   1.804   3.244  0.1384  0.5148 -0.4257
 2859SOL    HW220037   3.295   1.659   3.203 -1.8395 -0.8179  1.3457
 2860SOL     OW20038   1.660   3.733   3.708  0.4482 -0.1861  0.0868
 2860SOL    HW120039   1.744   3.689   3.703  0.5517 -0.1680  1.6391
 2860SOL    HW220040   1.683   3.820   3.678 -0.8343  0.3105  0.5315
 2861SOL     OW20041   1.360   0.810   5.510  0.2731  0.2399  0.3256
 2861SOL    HW120042   1.298   0.739   5.494 -0.9956  0.9943  1.9344
 2861SOL    HW220043   1.418   0.795   5.435 -0.4676  1.8221 -0.5547
 2862SOL     OW20044   2.115   3.867   5.862  0.0663 -0.4166  0.1893
 2862SOL    HW120045   2.157   3.922   5.928 -1.6862 -0.1816  1.0860
 2862SOL    HW220046   2.024   3.853   5.886  0.2671  1.6767  2.1885
 2863SOL     OW20047   4.399   4.501   7.239 -0.3674  0.4192 -0.2052
 2863SOL    HW120048   4.341   4.456   7.301  1.8647  0.7848  2.1658
 2863SOL    HW220049   4.352   4.584   7.231 -0.6617  0.1106 -1.5833
 2864SOL     OW20050   2.515   2.816   6.594 -0.2797 -0.1224 -0.0455
 2864SOL    HW120051   2.542   2.746   6.534 -3.0121 -0.9923 -0.2204
 2864SOL    HW220052   2.476   2.763   6.663 -0.5442  0.0560 -0.0600
 2865SOL     OW20053   2.412   0.226  10.728  1.0310 -0.4637  0.2142
 2865SOL    HW120054   2.469   0.182  10.665  0.4276 -1.5366  0.4221
 2865SOL    HW220055   2.476   0.288  10.763  0.6823 -0.1202  0.2297
 2866SOL     OW20056   2.199   3.662  14.507 -0.4198  0.3219 -0.4059
 2866SOL    HW120057   2.170   3.747  14.477 -1.0112  0.8163  1.5514
 2866SOL    HW220058   2.294   3.669  14.509 -0.4115  0.0581  0.3293
 2867SOL     OW20059   0.556   2.113   4.848 -0.0668 -0.2962 -0.0722
 2867SOL    HW120060   0.485   2.121   4.911 -0.0870  1.4361 -0.3206
 2867SOL    HW220061   0.608   2.193   4.854 -0.7025  0.1246 -0.2878
 2868SOL     OW20062   2.499   0.854   3.148  0.1108 -0.3654  0.4332
 2868SOL    HW120063   2.589   0.869   3.176  0.0493  2.0465 -0.6085
 2868SOL    HW220064   2.460   0.831   3.232 -2.3034  0.5674 -0.4366
 2869SOL     OW20065   0.274   3.253   8.513  0.1060  0.7160  0.1127
 2869SOL    HW120066   0.300   3.201   8.437  0.0272  0.6293  0.1450
 2869SOL    HW220067   0.310   3.206   8.588  2.3890  1.1505 -0.7213
 2870SOL     OW20068   2.551   0.026  13.059 -0.4251 -0.4514  0.1813
 2870SOL    HW120069   2.640   0.053  13.036 -0.9291  1.9555  1.0833
 2870SOL    HW220070   2.498   0.102  13.035  0.1687 -0.6581 -1.8059
 2871SOL     OW20071   3.490   2.822   3.266 -0.7131  0.4765  0.3045
 2871SOL    HW120072   3.512   2.906   3.308  0.7792  0.8133 -1.1368
 2871SOL    HW220073   3.579   2.790   3.252 -1.5865 -1.5387 -0.6514
 2872SOL     OW20074   2.044   4.652   5.987 -0.9415 -0.3621  0.3865
 2872SOL    HW120075   2.037   4.681   6.078  2.1797  0.7172  0.2786
 2872SOL    HW220076   2.064   0.011   5.941  1.4369 -0.7014  0.8230
 2873SOL     OW20077   0.771   1.214  17.520  0.5342  0.0086  0.0115
 2873SOL    HW120078   0.802   1.291  17.567 -0.0261  0.7371 -0.8166
 2873SOL    HW220079   0.786   1.246  17.432 -0.5744  1.4656  0.3500
 2874SOL     OW20080   3.654   0.807   0.725  0.2744 -0.5510 -0.7777
 2874SOL    HW120081   3.620   0.887   0.765  0.4027 -0.9717  0.1648
 2874SOL    HW220082   3.732   0.794   0.779 -0.5271 -2.9839 -0.2351
 2875SOL     OW20083   2.817   0.006   8.263 -0.2289 -0.2099  0.3744
 2875SOL    HW120084   2.754   4.698   8.327  0.7602 -2.4485  0.2763
 2875SOL    HW220085   2.824   0.101   8.264  1.8816 -0.3871  1.5727
 2876SOL     OW20086   3.163   0.956   8.676 -0.4564 -0.6947 -0.1101
 2876SOL    HW120087   3.168   0.941   8.771  2.2538 -0.6421 -0.2510
 2876SOL    HW220088   3.078   0.915   8.660 -1.1517  0.1050  1.4393
 2877SOL     OW20089   3.376   0.432  12.229 -0.1549  0.4267  0.2049
 2877SOL    HW120090   3.354   0.468  12.315  0.2599  1.8831 -0.3089
 2877SOL    HW220091   3.470   0.433  12.245  0.3261  0.3254 -2.7601
 2878SOL     OW20092   2.842   3.744  17.383  0.2250 -0.0161 -0.7207
 2878SOL    HW120093   2.766   3.701  17.345 -0.3538 -0.2199  0.6626
 2878SOL    HW220094   2.796   3.775  17.461 -0.3901 -0.4018 -0.9296
 2879SOL     OW20095   3.193   1.778   7.466  0.0848  0.0481  0.2511
 2879SOL    HW120096   3.132   1.759   7.537  2.0499  0.0586  1.9288
 2879SOL    HW220097   3.137   1.764   7.389  1.6391 -1.5211 -0.6026
 2880SOL     OW20098   4.284   3.985   4.364  0.5098 -0.7939  0.3540
 2880SOL    HW120099   4.338   3.937   4.301  0.4351  0.1667 -0.4389
 2880SOL    HW220100   4.350   4.038   4.410 -1.3306  1.2231  0.6583
 2881SOL     OW20101   4.458   2.012   9.338  0.2506  0.5007  0.0962
 2881SOL    HW120102   4.494   2.048   9.419  0.2954 -1.9977  1.1901
 2881SOL    HW220103   4.474   2.089   9.283  1.2075  1.1861  1.3271
 2882SOL     OW20104   1.048   1.157   1.699 -0.2036 -0.5436  0.1085
 2882SOL    HW120105   1.016   1.244   1.675  1.0039 -0.5895 -1.7149
 2882SOL    HW220106   1.068   1.179   1.790  0.4447  1.8519 -0.6175
 2883SOL     OW20107   4.199   1.231   3.128 -0.3290 -0.1303 -0.2428
 2883SOL    HW120108   4.268   1.171   3.100  0.7715 -0.1342  2.4815
 2883SOL    HW220109   4.218   1.242   3.221 -1.8395 -1.0728  0.1705
 2884SOL     OW20110   3.932   4.515   8.018 -0.0843  0.0848  0.5532
 2884SOL    HW120111   3.890   4.438   8.056 -0.5802  0.0953  0.0218
 2884SOL    HW220112   3.961   4.569   8.091 -0.5520 -0.2015  0.9511
 2885SOL     OW20113   4.198   2.505  15.158  0.0925  0.0523  0.2002
 2885SOL    HW120114   4.216   2.576  15.220  0.3697 -0.2217  0.4380
 2885SOL    HW220115   4.125   2.535  15.105  2.2935  2.3615 -1.5531
 2886SOL     OW20116   2.819   3.915   8.576  0.2615 -0.3904  0.3422
 2886SOL    HW120117   2.762   3.867   8.637 -1.5554 -0.6311 -1.5444
 2886SOL    HW220118   2.909   3.905   8.609  0.7178  1.4074 -0.4153
 2887SOL     OW20119   0.668   2.330  14.264 -0.0110  0.2655  0.0461
 2887SOL    HW120120   0.658   2.425  14.255 -1.6016  0.0701 -0.3616
 2887SOL    HW220121   0.579   2.302  14.285  0.9284 -2.3304  0.5247
 2888SOL     OW20122   4.269   1.226   4.320  0.2343  0.3140  0.1621
 2888SOL    HW120123   4.313   1.310   4.333 -0.8017  0.6700  1.3304
 2888SOL    HW220124   4.191   1.243   4.373 -2.7591  0.4318 -4.2957
 2889SOL     OW20125   2.630   1.310   6.427  0.2251  0.4321 -0.2541
 2889SOL    HW120126   2.584   1.378   6.377  0.3747 -0.6758 -1.8966
 2889SOL    HW220127   2.687   1.270   6.361 -0.4899 -0.8213 -0.1075
 2890SOL     OW20128   2.871   1.114  11.820  0.1856 -0.1324  0.4743
 2890SOL    HW120129   2.814   1.185  11.789  0.8531  1.0852  2.0542
 2890SOL    HW220130   2.940   1.166  11.861  0.4345 -1.2277  1.4274
 2891SOL     OW20131   0.726   0.619   2.651 -0.0790 -0.6470 -0.1477
 2891SOL    HW120132   0.790   0.556   2.618 -0.0131 -0.0774 -1.1165
 2891SOL    HW220133   0.755   0.706   2.623 -0.5314 -0.7448 -0.9335
 2892SOL     OW20134   0.196   3.749  12.386 -0.1391 -0.3902  0.1873
 2892SOL    HW120135   0.213   3.691  12.460 -0.2676 -3.2744 -2.0427
 2892SOL    HW220136   0.286   3.766  12.358 -0.9331  0.1111 -2.0542
 2893SOL     OW20137   2.450   4.669   6.501  0.4476  0.3845 -0.3305
 2893SOL    HW120138   2.489   0.018   6.551 -0.9845  0.6191  0.4353
 2893SOL    HW220139   2.464   4.594   6.558  0.4982  0.2033 -0.5832
 2894SOL     OW20140   4.404   0.423  13.587 -0.5360  0.0845 -0.4667
 2894SOL    HW120141   4.398   0.519  13.592  0.8461  0.1798 -0.7342
 2894SOL    HW220142   4.499   0.413  13.594 -0.4931  0.8218  0.0819
 2895SOL     OW20143   0.798   1.509   1.908 -0.5340  0.1040 -0.4052
 2895SOL    HW120144   0.847   1.465   1.839 -0.9029  0.8770 -1.1577
 2895SOL    HW220145   0.841   1.593   1.893  0.7549 -0.8018 -1.8838
 2896SOL     OW20146   0.974   4.137   4.845 -0.0772 -0.4469 -0.1276
 2896SOL    HW120147   0.953   4.205   4.780 -0.7584 -2.0607 -1.5847
 2896SOL    HW220148   1.000   4.197   4.915 -0.0075 -2.5146  1.5915
 2897SOL     OW20149   3.946   0.767   8.383  0.2839 -0.3715  0.2431
 2897SOL    HW120150   3.979   0.855   8.401 -0.3767 -0.6281  2.6835
 2897SOL    HW220151   3.962   0.727   8.468 -1.5088 -0.1785  0.6881
 2898SOL     OW20152   3.117   0.740  11.801 -0.5324 -0.8070  0.1733
 2898SOL    HW120153   3.169   0.799  11.855  0.6585 -1.0369 -0.7022
 2898SOL    HW220154   3.104   0.788  11.719 -1.5575 -0.8672  0.3032
 2899SOL     OW20155   2.261   3.480   7.252  0.1206  0.0114 -0.0850
 2899SOL    HW120156   2.282   3.546   7.186  1.0155 -1.4479 -1.2715
 2899SOL    HW220157   2.174   3.514   7.273  0.9818  1.0647  1.7791
 2900SOL     OW20158   3.430   3.755  13.077 -0.3333 -0.4703  0.5591
 2900SOL    HW120159   3.514   3.782  13.114  0.6089 -3.6392  0.7885
 2900SOL    HW220160   3.453   3.664  13.057  1.1678  0.4777 -2.0117
 2901SOL     OW20161   4.410   1.297   8.519 -0.1075 -0.8707 -0.1630
 2901SOL    HW120162   4.469   1.222   8.518  1.7008  0.5239  1.7401
 2901SOL    HW220163   4.396   1.302   8.425  1.3036 -0.6608 -0.3648
 2902SOL     OW20164   3.453   3.942   3.423  0.3899 -0.3229 -0.7811
 2902SOL    HW120165   3.472   3.863   3.474 -2.9517 -0.5640  0.1239
 2902SOL    HW220166   3.358   3.932   3.437  0.5598 -0.2554  0.3704
 2903SOL     OW20167   3.965   4.436   1.292 -0.5462 -0.0659  0.3596
 2903SOL    HW120168   4.025   4.441   1.218  1.3199  2.0414  2.0235
 2903SOL    HW220169   3.947   4.530   1.294 -0.0481  0.0167  1.3788
 2904SOL     OW20170   4.032   1.821   6.637  0.2803 -0.0889  0.0720
 2904SOL    HW120171   4.118   1.831   6.598  0.2410  1.9375  0.4986
 2904SOL    HW220172   3.970   1.873   6.587  3.2631  2.2171 -1.1919
 2905SOL     OW20173   4.033   0.200  15.189  0.1496 -0.1547  0.1124
 2905SOL    HW120174   4.106   0.245  15.232 -1.7341  0.9745  2.1329
 2905SOL    HW220175   4.067   0.181  15.101  0.0618  1.6275 -0.3242
 2906SOL     OW20176   2.170   0.580  16.741 -0.5253 -0.5545  0.0619
 2906SOL    HW120177   2.149   0.665  16.779 -1.7835 -0.3264 -1.1903
 2906SOL    HW220178   2.266   0.576  16.743 -0.5623 -2.0011 -0.8430
 2907SOL     OW20179   4.634   0.394   8.250 -0.7174 -0.2130  0.6792
 2907SOL    HW120180   4.560   0.386   8.311 -0.4526  0.2959  1.0669
 2907SOL    HW220181   4.646   0.489   8.256  0.8664 -0.4879  1.7201
 2908SOL     OW20182   3.530   1.831   3.909  0.1667  0.0571  0.7343
 2908SOL    HW120183   3.609   1.857   3.957 -0.1938 -1.8854  2.3264
 2908SOL    HW220184   3.538   1.887   3.831 -1.7529 -0.0025  0.5037
 2909SOL     OW20185   3.375   1.621   1.972 -0.1837 -0.0836 -0.2040
 2909SOL    HW120186   3.444   1.623   1.906  1.1928  2.4656  1.2771
 2909SOL    HW220187   3.374   1.527   1.989 -1.5690 -0.5916 -3.1141
 2910SOL     OW20188   1.040   0.150   2.977 -0.5232 -0.5364 -0.5473
 2910SOL    HW120189   1.135   0.137   2.978 -0.8527 -2.8571  1.8139
 2910SOL    HW220190   1.019   0.057   2.981  1.3097 -0.9462 -0.9054
 2911SOL     OW20191   0.214   0.483  13.805 -0.4058  0.3365  0.1031
 2911SOL    HW120192   0.167   0.409  13.843 -2.3534  2.6018  2.1174
 2911SOL    HW220193   0.254   0.450  13.725  0.6902 -0.4802  0.9980
 2912SOL     OW20194   0.804   4.232   2.404  0.0458 -0.6882  0.0247
 2912SOL    HW120195   0.827   4.142   2.430 -0.6321  0.1529  3.5062
 2912SOL    HW220196   0.885   4.278   2.424 -1.0484  0.2215  2.3348
 2913SOL     OW20197   0.638   0.922   1.934  0.3656 -0.0045 -0.2900
 2913SOL    HW120198   0.570   0.990   1.935  0.4611  0.1357 -2.6560
 2913SOL    HW220199   0.713   0.965   1.974 -0.9341  1.6993  0.3292
 2914SOL     OW20200   0.962   2.390  16.748 -0.9968 -0.1565 -0.3230
 2914SOL    HW120201   0.905   2.316  16.728  0.1530 -1.1058 -0.0660
 2914SOL    HW220202   0.982   2.361  16.837 -0.5945 -0.0858 -0.3879
 2915SOL     OW20203   1.875   2.791   2.471 -0.1495  0.7912 -0.0673
 2915SOL    HW120204   1.886   2.708   2.517 -2.9460  0.8275  0.6735
 2915SOL    HW220205   1.929   2.847   2.527  1.4559  0.7259 -1.5682
 2916SOL     OW20206   3.908   2.138  15.837  0.3475  0.8499 -0.3439
 2916SOL    HW120207   3.938   2.170  15.752 -0.2063 -1.5492 -1.4613
 2916SOL    HW220208   3.988   2.098  15.871  0.7441  1.6546 -0.3495
 2917SOL     OW20209   1.868   4.243   0.255 -0.7983  0.5332  0.0894
 2917SOL    HW120210   1.817   4.245   0.174  0.6079 -1.7352 -0.8316
 2917SOL    HW220211   1.800   4.210   0.315  1.0104 -0.8719  1.3744
 2918SOL     OW20212   2.124   1.979   4.922  0.0214  0.0795  0.3223
 2918SOL    HW120213   2.054   2.045   4.916 -0.5635 -0.5933 -0.3395
 2918SOL    HW220214   2.188   2.024   4.976  0.4089  0.3506 -0.3659
 2919SOL     OW20215   0.060   4.472   1.228  0.4117 -0.5394  0.0674
 2919SOL    HW120216   0.047   4.445   1.137  3.4384 -1.1656 -0.1711
 2919SOL    HW220217   0.123   4.542   1.209  2.0555 -2.3182 -0.9823
 2920SOL     OW20218   3.290   3.202  15.585  0.6995  0.7395 -0.7070
 2920SOL    HW120219   3.270   3.134  15.522  0.7974  3.2796 -3.4927
 2920SOL    HW220220   3.353   3.160  15.643  1.1722 -1.1769 -2.6075
 2921SOL     OW20221   0.826   2.689  15.904  0.2830 -0.2757  0.0637
 2921SOL    HW120222   0.846   2.631  15.831 -1.7274 -0.9689  0.0801
 2921SOL    HW220223   0.877   2.649  15.974  0.1191 -1.0761 -0.2828
 2922SOL     OW20224   0.699   3.117  13.706 -0.3583 -0.1676  0.0919
 2922SOL    HW120225   0.728   3.100  13.617 -1.7986 -1.1793 -0.1897
 2922SOL    HW220226   0.652   3.199  13.693  0.8393  0.2022 -1.8834
 2923SOL     OW20227   1.767   3.361   4.957 -0.0894  0.2721  0.0068
 2923SOL    HW120228   1.674   3.340   4.964  0.1670 -1.5167 -1.8981
 2923SOL    HW220229   1.784   3.367   5.050  2.2084  1.0679 -0.4695
 2924SOL     OW20230   0.721   2.323   4.955 -0.4695 -0.7428 -0.3921
 2924SOL    HW120231   0.756   2.411   4.949 -0.9165 -0.5702 -0.4852
 2924SOL    HW220232   0.756   2.291   5.039 -1.1018 -1.8232 -0.5259
 2925SOL     OW20233   1.552   0.565   6.495  0.3716  0.2995 -0.1663
 2925SOL    HW120234   1.627   0.620   6.472  0.1182 -0.6544 -3.2885
 2925SOL    HW220235   1.493   0.633   6.525  1.1418 -0.1298  2.3393
 2926SOL     OW20236   3.764   2.858   0.019  0.1342  0.2257 -0.7445
 2926SOL    HW120237   3.695   2.793   0.002  0.2005  0.3006 -1.2758
 2926SOL    HW220238   3.754   2.907  17.632 -2.0651 -0.5321 -0.9578
 2927SOL     OW20239   1.118   3.970  11.296 -0.4991 -0.3452  0.2006
 2927SOL    HW120240   1.167   3.899  11.254  0.8656  0.6485  0.1411
 2927SOL    HW220241   1.183   4.039  11.286  0.3342 -0.9071  1.6440
 2928SOL     OW20242   3.272   3.762   5.223  0.6060 -0.2389 -0.1563
 2928SOL    HW120243   3.341   3.708   5.184  0.2620 -1.5283  1.0077
 2928SOL    HW220244   3.276   3.835   5.161 -0.6400 -0.0196  0.0215
 2929SOL     OW20245   2.489   1.501   9.710  0.3704 -0.4769 -0.0888
 2929SOL    HW120246   2.493   1.423   9.766  0.5951 -0.3900  0.0205
 2929SOL    HW220247   2.557   1.561   9.742 -1.2182  1.1620  0.1970
 2930SOL     OW20248   3.946   4.659  11.905 -0.2999  0.0281 -0.6284
 2930SOL    HW120249   3.890   4.709  11.964 -0.6974  0.5361 -1.4467
 2930SOL    HW220250   4.001   4.605  11.963  0.4444  0.4884 -0.9005
 2931SOL     OW20251   0.727   1.228   8.234  0.4162  0.1230  0.1738
 2931SOL    HW120252   0.710   1.145   8.188  3.2041 -1.1030  1.3595
 2931SOL    HW220253   0.681   1.214   8.317 -1.7458 -0.4778 -1.1275
 2932SOL     OW20254   4.610   2.221   5.996 -0.0988 -0.3686  0.2323
 2932SOL    HW120255   4.697   2.196   5.964  0.1958  0.5201  0.3530
 2932SOL    HW220256   4.601   2.176   6.081 -1.2048  0.0754  0.3418
 2933SOL     OW20257   3.978   2.914   9.313 -0.2985  0.3982 -0.3394
 2933SOL    HW120258   4.040   2.924   9.241 -1.3140 -1.4865 -1.4639
 2933SOL    HW220259   4.024   2.972   9.374  0.8771 -0.6090 -0.2517
 2934SOL     OW20260   1.825   2.699   3.034  0.9676 -0.1782  0.1581
 2934SOL    HW120261   1.783   2.642   2.970 -0.4560 -0.6174  1.4778
 2934SOL    HW220262   1.868   2.639   3.095  0.5307 -1.2751 -0.6022
 2935SOL     OW20263   2.225   0.673   7.978 -0.1640 -0.1932 -0.6302
 2935SOL    HW120264   2.164   0.605   7.950 -2.5782  1.6520  0.1472
 2935SOL    HW220265   2.276   0.686   7.897 -0.1695  0.2172 -0.5668
 2936SOL     OW20266   2.578   1.774   6.346  0.3939  0.3384  0.1492
 2936SOL    HW120267   2.613   1.686   6.356  1.4237  0.9063  1.7494
 2936SOL    HW220268   2.511   1.786   6.414  0.2031  0.0118  0.0183
 2937SOL     OW20269   3.175   0.400  16.120 -0.4737  0.6631  0.1188
 2937SOL    HW120270   3.228   0.353  16.056  3.1598  0.3332  3.3914
 2937SOL    HW220271   3.100   0.418  16.063  1.0557  0.2474 -2.0193
 2938SOL     OW20272   4.293   4.327   0.913  0.2192 -0.2073  0.7147
 2938SOL    HW120273   4.305   4.376   0.994 -1.1585  1.2899  0.0079
 2938SOL    HW220274   4.311   4.238   0.944 -3.2100 -0.9751  0.5834
 2939SOL     OW20275   3.638   3.456   8.790  0.1184  0.3989  0.0901
 2939SOL    HW120276   3.721   3.495   8.763  0.9879 -0.8108  1.0327
 2939SOL    HW220277   3.650   3.362   8.785 -0.3164  0.3989 -0.8632
 2940SOL     OW20278   4.128   1.587   9.449 -0.0116 -0.3966 -0.6027
 2940SOL    HW120279   4.146   1.628   9.365 -1.6110 -1.4516 -1.4515
 2940SOL    HW220280   4.061   1.641   9.491  0.1271  1.1569 -2.3554
 2941SOL     OW20281   0.005   3.683   6.468  0.1900 -0.5705 -0.0715
 2941SOL    HW120282   4.683   3.600   6.484  0.6345 -1.1561 -1.8332
 2941SOL    HW220283   4.722   3.660   6.375 -0.7567  0.3805 -0.2494
 2942SOL     OW20284   2.046   0.605   2.328 -0.1914 -0.1821  0.2897
 2942SOL    HW120285   2.088   0.533   2.281 -1.7638 -0.3891 -0.7713
 2942SOL    HW220286   1.959   0.615   2.290 -0.9855 -0.1203  2.0933
 2943SOL     OW20287   1.956   0.856   7.072 -0.5128 -0.6314  0.2951
 2943SOL    HW120288   1.902   0.888   7.000  2.2166  2.5563 -0.3120
 2943SOL    HW220289   1.931   0.910   7.147  1.0202 -0.8201  0.9392
 2944SOL     OW20290   4.129   3.748   4.185 -0.2270 -0.3316 -0.0023
 2944SOL    HW120291   4.130   3.837   4.151 -0.2120 -0.0144  0.8252
 2944SOL    HW220292   4.073   3.694   4.129  1.0613 -2.1833  0.4844
 2945SOL     OW20293   1.159   1.336  12.025  0.4640  0.0330 -0.2053
 2945SOL    HW120294   1.104   1.411  12.046  0.2552 -0.6462  1.6364
 2945SOL    HW220295   1.163   1.300  12.113  1.7967 -0.9984 -0.6752
 2946SOL     OW20296   0.874   4.715   3.489 -0.3629 -0.2011  0.4190
 2946SOL    HW120297   0.927   4.637   3.506  0.0594 -0.5828 -2.5637
 2946SOL    HW220298   0.892   4.722   3.395 -0.8094 -1.3608  0.2454
 2947SOL     OW20299   4.710   1.398   9.754 -0.0401 -0.5684  0.2835
 2947SOL    HW120300   4.683   1.395   9.662  1.6393 -1.2934 -0.1795
 2947SOL    HW220301   4.663   1.316   9.773  1.6564 -1.2226  1.6274
 2948SOL     OW20302   4.048   2.816   0.072  0.7060  0.1063 -0.6029
 2948SOL    HW120303   3.955   2.836   0.075  0.2977 -1.5437 -1.8166
 2948SOL    HW220304   4.093   2.899   0.084  0.5442 -0.0771  1.3002
 2949SOL     OW20305   4.687   3.693   4.436 -0.0928 -0.5190 -0.0687
 2949SOL    HW120306   4.664   3.767   4.493 -1.7919 -0.8414 -0.3483
 2949SOL    HW220307   0.010   3.642   4.503 -0.5807 -0.0289  0.6383
 2950SOL     OW20308   0.196   3.110   3.614  0.3551  0.0181 -0.0147
 2950SOL    HW120309   0.219   3.195   3.652 -1.5643  1.3372 -1.8065
 2950SOL    HW220310   0.281   3.084   3.578  0.9966  1.2994  0.5801
 2951SOL     OW20311   2.695   1.884   7.136 -0.3641  0.4603 -0.0983
 2951SOL    HW120312   2.708   1.848   7.048 -1.2343  2.1013 -0.8870
 2951SOL    HW220313   2.621   1.828   7.160 -0.0852 -0.5832 -1.6796
 2952SOL     OW20314   4.579   2.442   6.531 -0.4548  0.7049 -0.2554
 2952SOL    HW120315   4.641   2.372   6.554 -1.1911 -0.2288 -1.0965
 2952SOL    HW220316   4.627   2.524   6.545 -1.0699  1.1794 -0.9245
 2953SOL     OW20317   3.684   0.756   3.169  0.1820  0.1480 -0.2324
 2953SOL    HW120318   3.733   0.700   3.229 -0.7494 -1.5080 -1.0038
 2953SOL    HW220319   3.751   0.755   3.102  0.4240  0.9207  0.0016
 2954SOL     OW20320   3.699   4.082  15.565  0.5607 -0.0635  0.1898
 2954SOL    HW120321   3.715   4.149  15.499 -0.7372  0.7068  0.6402
 2954SOL    HW220322   3.781   4.035  15.575  1.2814  1.0188 -0.7203
 2955SOL     OW20323   1.904   4.048   8.656 -0.9537 -0.0416 -0.3679
 2955SOL    HW120324   1.854   3.984   8.708 -1.6441  0.3740 -0.5202
 2955SOL    HW220325   1.890   4.009   8.569  0.0695  1.0233 -1.0015
 2956SOL     OW20326   3.268   3.006   4.041  0.1014 -0.5307 -0.0065
 2956SOL    HW120327   3.355   3.040   4.062  0.5047  0.2579 -3.0545
 2956SOL    HW220328   3.281   2.980   3.950  2.0884  0.2172  0.0731
 2957SOL     OW20329   2.165   4.149   6.315  0.0740 -0.4836 -0.6622
 2957SOL    HW120330   2.214   4.176   6.393  1.3895  0.7374 -1.9204
 2957SOL    HW220331   2.123   4.229   6.283 -2.2070 -1.4617 -0.1486
 2958SOL     OW20332   3.092   1.578   8.055 -0.1515  0.7357 -0.3758
 2958SOL    HW120333   3.057   1.663   8.081 -0.6128  0.8573 -1.3820
 2958SOL    HW220334   3.173   1.569   8.104 -0.2835 -0.1138 -0.3078
 2959SOL     OW20335   2.165   3.817   9.692 -0.2033  0.0132  0.5565
 2959SOL    HW120336   2.095   3.878   9.671 -1.2704 -1.9733 -1.7130
 2959SOL    HW220337   2.113   3.743   9.723 -1.7680  0.5462 -0.8167
 2960SOL     OW20338   3.526   0.968  12.715  0.0811 -0.3574  0.6521
 2960SOL    HW120339   3.553   0.958  12.624 -0.5865 -2.1101  0.6555
 2960SOL    HW220340   3.435   0.998  12.713  0.4370  0.7251  0.5909
 2961SOL     OW20341   0.089   0.038   8.465 -0.2500  0.1319 -0.3499
 2961SOL    HW120342   4.718   0.042   8.449 -0.5465  0.9434  1.7221
 2961SOL    HW220343   0.111   0.120   8.421 -0.4016  0.3734  0.0291
 2962SOL     OW20344   3.920   4.566  15.558  0.4965  0.1858 -0.0412
 2962SOL    HW120345   4.005   4.592  15.523  0.5478  1.4599  1.0458
 2962SOL    HW220346   3.861   4.630  15.520  0.1029 -0.0450  0.1844
 2963SOL     OW20347   1.247   3.761   9.344  0.3027 -0.1855 -0.0271
 2963SOL    HW120348   1.209   3.768   9.257 -1.6526 -1.0598  0.7667
 2963SOL    HW220349   1.221   3.674   9.376 -0.6086  0.0074 -0.2650
 2964SOL     OW20350   2.264   0.685   6.834 -0.1885 -0.1223 -0.3306
 2964SOL    HW120351   2.324   0.667   6.906  0.2890  0.2507 -0.6306
 2964SOL    HW220352   2.322   0.740   6.780  0.8108 -1.1432 -0.2960
 2965SOL     OW20353   0.316   2.086   3.987 -0.0529  1.1899 -0.3484
 2965SOL    HW120354   0.372   2.132   3.924  0.8688  0.7511  0.1346
 2965SOL    HW220355   0.262   2.039   3.924  0.5213  0.8824 -0.6100
 2966SOL     OW20356   1.535   0.235   6.413  0.1582  0.0979 -0.1840
 2966SOL    HW120357   1.502   0.188   6.489  0.5601 -0.4571 -0.3524
 2966SOL    HW220358   1.605   0.175   6.387  2.1829  1.1553  2.7628
 2967SOL     OW20359   2.066   2.910   2.610 -0.2564 -0.0636 -0.5688
 2967SOL    HW120360   2.127   2.983   2.608 -0.3148  0.1278  3.2255
 2967SOL    HW220361   2.123   2.851   2.659  1.3377  0.4504 -1.8468
 2968SOL     OW20362   1.040   2.236   2.109  0.1274  0.0709  0.1420
 2968SOL    HW120363   1.103   2.302   2.078  0.3682  0.0536  0.6039
 2968SOL    HW220364   1.014   2.269   2.195 -1.3807  1.3366 -0.7924
 2969SOL     OW20365   3.496   1.183   3.817  0.6105 -0.2663  0.1379
 2969SOL    HW120366   3.459   1.256   3.867 -0.2589  0.8292 -2.1274
 2969SOL    HW220367   3.483   1.209   3.726 -1.9717  0.1698  0.6303
 2970SOL     OW20368   3.288   2.013  12.465  0.4608  0.1100  0.4784
 2970SOL    HW120369   3.350   2.087  12.459  3.0947 -2.1450 -0.1237
 2970SOL    HW220370   3.307   1.982  12.553 -2.5529 -0.4915  0.9122
 2971SOL     OW20371   4.664   3.446   1.957 -0.1942  0.3735  0.6204
 2971SOL    HW120372   4.705   3.532   1.961  0.0074  0.2090  2.0291
 2971SOL    HW220373   4.689   3.412   1.871 -2.9866  0.1624 -0.1399
 2972SOL     OW20374   4.699   3.371   0.419  0.5086  0.1443 -0.1002
 2972SOL    HW120375   0.030   3.328   0.352 -1.9787 -1.7527 -0.8860
 2972SOL    HW220376   4.647   3.439   0.377  0.0909 -0.2906 -0.2921
 2973SOL     OW20377   1.453   4.124  15.552 -0.6734  0.4889  0.3170
 2973SOL    HW120378   1.542   4.095  15.531 -0.1195  1.9471  0.5953
 2973SOL    HW220379   1.406   4.093  15.474 -0.1905  0.5795 -0.0094
 2974SOL     OW20380   1.066   4.251  14.900 -0.1834 -0.2535  0.1195
 2974SOL    HW120381   1.090   4.163  14.932 -0.5457  0.5269  2.5498
 2974SOL    HW220382   1.041   4.229  14.810 -0.7434  0.2316  0.1624
 2975SOL     OW20383   4.231   4.550   8.636  0.1356 -0.2708 -0.3202
 2975SOL    HW120384   4.285   4.559   8.714 -1.9102 -0.1767  1.0791
 2975SOL    HW220385   4.181   4.472   8.660  3.4234 -2.5688 -0.9066
 2976SOL     OW20386   3.139   0.109   3.134  0.1798  0.2723 -0.1488
 2976SOL    HW120387   3.068   0.072   3.083 -0.5230  1.2326  0.1542
 2976SOL    HW220388   3.215   0.055   3.111  0.1746 -0.0922  0.6748
 2977SOL     OW20389   4.562   3.404   4.843  0.1670 -0.2693  0.0153
 2977SOL    HW120390   4.497   3.424   4.910  2.0093 -0.0743  1.7488
 2977SOL    HW220391   4.506   3.349   4.789 -0.2944 -1.3509  1.6029
 2978SOL     OW20392   3.702   3.534   1.019 -0.3045  0.3955  0.6301
 2978SOL    HW120393   3.606   3.534   1.020 -0.2935  0.8704  1.8757
 2978SOL    HW220394   3.726   3.617   1.059 -2.4103  1.9866 -1.3517
 2979SOL     OW20395   1.813   4.566   9.123  0.3963  0.3684 -0.2521
 2979SOL    HW120396   1.855   4.495   9.173 -2.4224 -1.3534 -0.3102
 2979SOL    HW220397   1.789   4.523   9.041  0.7444 -2.7422  1.2469
 2980SOL     OW20398   1.602   0.711   3.959  0.3086 -0.3420 -0.4378
 2980SOL    HW120399   1.547   0.685   3.885 -1.0186 -0.3611  0.5692
 2980SOL    HW220400   1.681   0.656   3.954  2.7001  2.9608  1.5210
 2981SOL     OW20401   1.686   2.360   8.923  0.2185 -0.2126 -0.7810
 2981SOL    HW120402   1.591   2.364   8.912 -0.0778 -6.4324 -0.6475
 2981SOL    HW220403   1.714   2.280   8.879  2.4722 -0.4053  1.0226
 2982SOL     OW20404   2.231   3.678   7.858 -0.2564  0.2883 -0.3989
 2982SOL    HW120405   2.230   3.753   7.917 -0.0926  1.5979 -2.0801
 2982SOL    HW220406   2.242   3.716   7.771 -1.1812  1.1333 -0.1389
 2983SOL     OW20407   3.603   4.049   3.134  0.5689 -0.1788  0.3570
 2983SOL    HW120408   3.647   4.001   3.204  2.5476  0.3988 -0.5176
 2983SOL    HW220409   3.520   4.000   3.127  0.3424  0.1981  0.3879
 2984SOL     OW20410   2.373   1.652   9.152  0.2358  0.8927 -0.0403
 2984SOL    HW120411   2.355   1.734   9.107 -0.8744  1.9604  2.3170
 2984SOL    HW220412   2.455   1.673   9.196  1.8030 -0.0237 -2.5202
 2985SOL     OW20413   2.285   2.653  11.035  0.8917 -0.1341 -0.1409
 2985SOL    HW120414   2.308   2.744  11.053  1.3050 -0.4234  0.7373
 2985SOL    HW220415   2.370   2.615  11.015  1.0577  0.0905  0.1499
 2986SOL     OW20416   2.500   3.009   4.225 -0.4931 -0.3404 -0.2200
 2986SOL    HW120417   2.468   3.082   4.174 -1.6388 -0.5195  0.2339
 2986SOL    HW220418   2.541   3.046   4.303 -0.1422 -0.9468 -0.1132
 2987SOL     OW20419   4.554   0.337   5.680  0.7501 -0.1571  0.1758
 2987SOL    HW120420   4.584   0.255   5.719  2.6687  2.0275  3.3281
 2987SOL    HW220421   4.596   0.410   5.727  0.5861  1.1869 -1.7774
 2988SOL     OW20422   3.872   3.064   3.997  0.1037  0.2368 -0.0891
 2988SOL    HW120423   3.900   3.150   3.966 -2.0892  0.4599 -1.4516
 2988SOL    HW220424   3.816   3.080   4.073  1.3818 -1.2930  1.1710
 2989SOL     OW20425   3.304   1.547   0.689  0.3495  0.3635 -0.8644
 2989SOL    HW120426   3.308   1.508   0.776 -0.8308 -0.1490 -1.0349
 2989SOL    HW220427   3.383   1.601   0.686 -0.2499  1.4124  2.1217
 2990SOL     OW20428   0.060   2.788   8.505  0.4599 -0.0968 -0.3914
 2990SOL    HW120429   4.722   2.739   8.559  1.9267 -1.0058  0.4554
 2990SOL    HW220430   0.013   2.769   8.424 -1.1347  2.2557 -0.0322
 2991SOL     OW20431   3.205   4.000   2.671 -0.5950  0.3488 -0.5475
 2991SOL    HW120432   3.197   4.007   2.766 -2.1262 -0.8376 -0.5783
 2991SOL    HW220433   3.155   4.078   2.648  0.4730  0.7766 -1.3756
 2992SOL     OW20434   0.050   1.124   0.573 -0.3756  0.5873 -0.1435
 2992SOL    HW120435   0.018   1.194   0.517  2.3012 -0.1870 -2.6107
 2992SOL    HW220436   0.094   1.173   0.642  0.6339 -0.8743  0.2526
 2993SOL     OW20437   1.854   0.209   3.938 -0.6024  0.1609 -0.4996
 2993SOL    HW120438   1.852   0.190   3.845  1.7045 -0.1160 -0.4777
 2993SOL    HW220439   1.774   0.261   3.932 -0.1075  0.8634 -1.0226
 2994SOL     OW20440   0.819   1.822  15.145  0.0415 -0.3458 -0.3005
 2994SOL    HW120441   0.827   1.874  15.225  0.0516  2.9023 -2.3962
 2994SOL    HW220442   0.792   1.733  15.165 -0.0645 -0.6400 -1.7330
 2995SOL     OW20443   0.573   2.490   5.934 -0.1334  0.1639 -0.2204
 2995SOL    HW120444   0.667   2.492   5.916 -0.0618  0.4259  0.2094
 2995SOL    HW220445   0.538   2.490   5.844  0.4595  0.3171 -0.4497
 2996SOL     OW20446   0.774   3.481   4.512  0.7203  0.4482 -0.0267
 2996SOL    HW120447   0.868   3.476   4.498  0.6424 -0.8336 -0.0293
 2996SOL    HW220448   0.769   3.480   4.608 -0.5592 -1.1499 -0.1094
 2997SOL     OW20449   1.164   2.447   3.355 -0.1272 -0.6887 -0.0731
 2997SOL    HW120450   1.097   2.456   3.287 -1.0622 -2.2315  0.6492
 2997SOL    HW220451   1.117   2.407   3.428 -0.0343  1.0173  0.8958
 2998SOL     OW20452   1.561   3.705   7.081 -0.2308 -0.7420 -0.1115
 2998SOL    HW120453   1.503   3.639   7.044  0.2660 -1.2405 -0.0056
 2998SOL    HW220454   1.529   3.793   7.060  1.4222  0.1364  0.9771
 2999SOL     OW20455   1.814   3.319   2.946 -1.0056 -0.5775 -0.3788
 2999SOL    HW120456   1.843   3.228   2.951 -0.3933 -0.3992 -0.5687
 2999SOL    HW220457   1.720   3.303   2.945 -0.7180 -2.3524  0.5409
 3000SOL     OW20458   3.057   2.286   0.639 -0.4780  0.3971  0.3534
 3000SOL    HW120459   3.027   2.284   0.730  0.2637 -0.5992  0.5761
 3000SOL    HW220460   3.045   2.192   0.630  2.5356  0.0932 -0.6515
 3001SOL     OW20461   0.813   4.069  12.338 -0.1943  0.3291  0.3840
 3001SOL    HW120462   0.801   4.073  12.433 -1.4200  0.4322  0.2247
 3001SOL    HW220463   0.738   4.011  12.322 -1.3970  1.4538  1.9321
 3002SOL     OW20464   3.458   4.237   2.616  0.2621  1.1128 -0.3724
 3002SOL    HW120465   3.442   4.171   2.549 -0.6633  1.3246 -0.3575
 3002SOL    HW220466   3.514   4.181   2.669 -1.2207  1.1497  1.2533
 3003SOL     OW20467   2.854   2.343  15.983  0.0718  0.0688  0.0112
 3003SOL    HW120468   2.927   2.345  16.045  1.5176 -0.0471 -1.6738
 3003SOL    HW220469   2.862   2.432  15.950 -0.0014 -0.7160 -2.0940
 3004SOL     OW20470   2.969   0.387   6.732  0.2837  0.3650  0.3693
 3004SOL    HW120471   2.911   0.362   6.803  0.5332 -4.6452 -1.1365
 3004SOL    HW220472   3.045   0.330   6.748 -1.4734 -3.1649 -3.5789
 3005SOL     OW20473   3.321   0.435   8.476 -0.6446 -0.3992  0.1685
 3005SOL    HW120474   3.339   0.433   8.382 -0.4890  0.3090  0.1834
 3005SOL    HW220475   3.259   0.506   8.492  1.8303  1.4111  1.6973
 3006SOL     OW20476   0.850   2.776   3.161 -0.2919 -0.3332  0.2792
 3006SOL    HW120477   0.839   2.858   3.113 -2.3642 -1.2296 -0.7540
 3006SOL    HW220478   0.847   2.705   3.096  1.0846  0.0809 -0.2539
 3007SOL     OW20479   4.107   0.706  10.948 -0.1665  0.2911 -0.6526
 3007SOL    HW120480   4.089   0.660  11.030  0.5759  1.6445  0.2534
 3007SOL    HW220481   4.173   0.771  10.972 -0.8224  0.3532  0.9977
 3008SOL     OW20482   1.716   0.455   2.614 -0.0909  0.1208  0.4851
 3008SOL    HW120483   1.635   0.493   2.649 -0.3004 -1.0365  1.2449
 3008SOL    HW220484   1.780   0.507   2.662 -1.1992  1.1623  0.8266
 3009SOL     OW20485   2.202   4.261  10.201 -0.1315  0.4159  0.3687
 3009SOL    HW120486   2.187   4.254  10.106 -1.1677  2.3338  0.4052
 3009SOL    HW220487   2.295   4.285  10.204  0.4087 -1.3568 -1.8240
 3010SOL     OW20488   3.600   2.150   2.476  0.1603  0.1902 -0.4661
 3010SOL    HW120489   3.583   2.157   2.382  1.1775 -0.6074 -0.7138
 3010SOL    HW220490   3.522   2.101   2.501  0.8788 -0.1699  1.0781
 3011SOL     OW20491   0.906   0.873   5.102 -0.2807  0.1922  0.2314
 3011SOL    HW120492   0.848   0.818   5.154  0.4086 -0.0813  0.7029
 3011SOL    HW220493   0.854   0.907   5.029 -1.0666  1.7040  1.4794
 3012SOL     OW20494   1.236   4.388  15.620  0.0234  0.2249  0.1695
 3012SOL    HW120495   1.243   4.453  15.690 -0.2323 -0.1595  0.5615
 3012SOL    HW220496   1.285   4.423  15.546 -0.2961 -2.6196 -1.3864
 3013SOL     OW20497   0.661   2.382   3.957 -0.0835  0.1820  0.7417
 3013SOL    HW120498   0.749   2.385   3.921 -0.9102  1.2937 -1.1665
 3013SOL    HW220499   0.677   2.375   4.051 -0.7704  0.9768  0.9142
 3014SOL     OW20500   0.761   4.153   6.718  0.1849 -0.5540 -0.1412
 3014SOL    HW120501   0.778   4.084   6.783  1.4667  0.4277  0.5661
 3014SOL    HW220502   0.699   4.111   6.659  1.1628 -1.8616 -0.2525
 3015SOL     OW20503   2.885   3.905   4.358 -0.3027  0.3030  0.4764
 3015SOL    HW120504   2.851   3.945   4.278  0.3793 -1.0028 -0.4679
 3015SOL    HW220505   2.853   3.815   4.361  0.6989 -0.1037 -0.8181
 3016SOL     OW20506   4.134   2.407   6.882 -0.4894 -0.4198  0.3601
 3016SOL    HW120507   4.063   2.461   6.846 -0.5580 -0.0181  1.0910
 3016SOL    HW220508   4.211   2.453   6.849 -0.0534 -2.1766 -1.0487
 3017SOL     OW20509   4.640   4.501   3.494 -0.4012  0.0166  0.5470
 3017SOL    HW120510   0.002   4.497   3.449  0.4532  1.6041  2.0211
 3017SOL    HW220511   4.663   4.550   3.573  3.1515 -1.7338  0.6149
 3018SOL     OW20512   1.120   0.591  17.186 -0.2939 -0.1205  0.0453
 3018SOL    HW120513   1.101   0.681  17.215 -1.0783 -0.7345  1.4196
 3018SOL    HW220514   1.060   0.600  17.112 -1.7138 -3.3210  0.8280
 3019SOL     OW20515   1.386   2.496   8.399  0.0693 -0.1476 -0.0775
 3019SOL    HW120516   1.416   2.504   8.308  1.8713  0.9444  0.6178
 3019SOL    HW220517   1.464   2.463   8.444 -0.2041 -1.4705 -0.5635
 3020SOL     OW20518   1.653   2.788  11.874  0.3134 -0.4053  0.1123
 3020SOL    HW120519   1.728   2.841  11.846 -1.2854 -0.3000 -4.0266
 3020SOL    HW220520   1.589   2.815  11.807  1.9084  0.9887 -0.8623
 3021SOL     OW20521   2.734   4.299  15.322  0.0491  0.0234 -0.2663
 3021SOL    HW120522   2.807   4.254  15.279 -0.9842 -2.2367  0.3450
 3021SOL    HW220523   2.711   4.222  15.374 -1.0573 -0.6763 -1.8262
 3022SOL     OW20524   1.051   1.995   6.651 -0.0295 -0.2774 -0.8655
 3022SOL    HW120525   1.018   1.990   6.561  2.0152  0.6255 -1.6507
 3022SOL    HW220526   0.978   1.944   6.688 -1.7788  1.8324 -1.3860
 3023SOL     OW20527   0.032   3.966  15.016 -0.2254 -0.6828  0.4138
 3023SOL    HW120528   0.028   3.896  14.951  0.5418  0.3558 -0.7511
 3023SOL    HW220529   4.693   4.029  14.980 -0.1094  0.1114  1.6118
 3024SOL     OW20530   4.647   3.988   7.821 -0.1033 -0.2421  0.1665
 3024SOL    HW120531   4.652   4.056   7.888 -0.5772 -0.9373  0.9058
 3024SOL    HW220532   0.010   4.005   7.784 -1.3720  2.2929 -1.5544
 3025SOL     OW20533   4.405   4.068   7.718 -0.0255  0.7569  0.0437
 3025SOL    HW120534   4.499   4.051   7.728 -0.1093  0.0805 -0.3140
 3025SOL    HW220535   4.377   3.978   7.730 -2.0220  1.4725  0.6680
 3026SOL     OW20536   3.317   4.166   6.746 -0.0758  0.2001 -0.8634
 3026SOL    HW120537   3.377   4.159   6.821 -2.5959 -1.7389  1.0131
 3026SOL    HW220538   3.309   4.072   6.727 -0.8420 -0.3386  2.0657
 3027SOL     OW20539   4.217   2.468   4.338 -0.2647  0.1746  0.3957
 3027SOL    HW120540   4.300   2.441   4.378 -0.8004 -0.9758  0.7286
 3027SOL    HW220541   4.158   2.431   4.404 -0.5171 -3.8199 -2.0813
 3028SOL     OW20542   3.705   1.552   4.140  0.4446 -0.2650 -0.4058
 3028SOL    HW120543   3.789   1.521   4.107  0.7700  1.3160 -1.0532
 3028SOL    HW220544   3.704   1.643   4.109 -0.3395  0.3439  1.3403
 3029SOL     OW20545   1.407   0.025  16.982 -0.2054 -0.8612  0.3432
 3029SOL    HW120546   1.433   4.698  16.904 -0.3099  0.1208 -0.3158
 3029SOL    HW220547   1.463   0.103  16.989  0.2718 -1.1210 -0.4640
 3030SOL     OW20548   1.087   1.456   9.226 -0.6049  0.2406 -0.5645
 3030SOL    HW120549   1.102   1.401   9.149  1.0690  1.0050 -0.8014
 3030SOL    HW220550   1.169   1.506   9.230 -0.1074 -0.4617 -1.9794
 3031SOL     OW20551   4.614   4.500   8.623 -0.7535 -0.5293 -0.2218
 3031SOL    HW120552   4.584   4.409   8.618 -1.3328 -0.4332  1.6889
 3031SOL    HW220553   4.556   4.534   8.691  0.3608 -0.9090  0.9293
 3032SOL     OW20554   0.564   3.239   7.814  0.1938  0.0504 -0.1154
 3032SOL    HW120555   0.475   3.219   7.841  1.1116 -4.6501 -0.5089
 3032SOL    HW220556   0.579   3.319   7.866  1.2776  0.8576 -1.6665
 3033SOL     OW20557   3.424   0.463   2.187  0.2569 -0.3041 -0.1557
 3033SOL    HW120558   3.406   0.384   2.238 -0.2723  0.4550  0.8632
 3033SOL    HW220559   3.492   0.434   2.127  0.4152 -0.1658 -0.0423
 3034SOL     OW20560   2.081   0.444   5.772  0.2965  0.1378 -0.2595
 3034SOL    HW120561   2.129   0.525   5.754  0.4485 -0.2930 -1.7525
 3034SOL    HW220562   2.081   0.425   5.679 -0.7996  2.2726 -0.7056
 3035SOL     OW20563   3.619   1.113  11.943 -0.1737  0.9976  0.4759
 3035SOL    HW120564   3.663   1.163  11.874  0.2281  0.1042  0.0798
 3035SOL    HW220565   3.674   1.126  12.020  0.1149 -1.8690  0.7691
 3036SOL     OW20566   0.211   2.555   7.876 -0.2870 -0.1193  0.2805
 3036SOL    HW120567   0.251   2.488   7.931 -2.8594 -1.5405  0.3957
 3036SOL    HW220568   0.119   2.529   7.880 -0.1695 -0.2847  1.6509
 3037SOL     OW20569   2.549   4.679   2.836 -0.0559 -0.4460  0.7676
 3037SOL    HW120570   2.600   0.035   2.819  0.8113 -0.6667  2.2930
 3037SOL    HW220571   2.584   4.646   2.919 -2.2188 -0.3396  1.7170
 3038SOL     OW20572   3.742   1.930   4.419  0.5057  0.9166 -0.5259
 3038SOL    HW120573   3.690   1.882   4.484  0.0071  2.0359 -0.1018
 3038SOL    HW220574   3.801   1.859   4.395  1.0712  0.1759  3.1289
 3039SOL     OW20575   3.428   0.636   3.408  0.0592 -0.4635  0.1598
 3039SOL    HW120576   3.460   0.725   3.419  3.4872 -1.4424 -1.7688
 3039SOL    HW220577   3.400   0.632   3.499 -1.1880  2.5481 -0.0994
 3040SOL     OW20578   2.694   2.883   5.150 -0.0426 -0.6248 -0.2139
 3040SOL    HW120579   2.786   2.859   5.155  0.3122  0.6402 -0.5792
 3040SOL    HW220580   2.687   2.972   5.183 -2.7531 -0.5688 -0.9105
 3041SOL     OW20581   3.116   2.213   3.113 -0.6903 -0.4097  0.2550
 3041SOL    HW120582   3.205   2.186   3.137  0.1721  2.6169  0.4829
 3041SOL    HW220583   3.087   2.141   3.056 -2.1008  2.3014 -2.4178
 3042SOL     OW20584   1.763   3.033  10.237 -0.5478 -0.1763  0.2361
 3042SOL    HW120585   1.747   3.061  10.327 -0.7217  0.0080  0.1499
 3042SOL    HW220586   1.856   3.014  10.246 -0.0747  0.9909 -2.2110
 3043SOL     OW20587   2.879   4.449   8.841 -0.1098  0.5488 -0.8345
 3043SOL    HW120588   2.972   4.438   8.860 -0.7220 -2.6242  0.4367
 3043SOL    HW220589   2.867   4.539   8.871 -1.7142  0.4136 -1.0564
 3044SOL     OW20590   0.818   3.574   6.058  0.4865  0.1324  0.7889
 3044SOL    HW120591   0.788   3.663   6.080 -0.4104  0.0080  0.0553
 3044SOL    HW220592   0.887   3.581   5.993  1.0435  0.2421  1.3884
 3045SOL     OW20593   0.415   2.808   1.997 -0.5672 -0.2376  0.9138
 3045SOL    HW120594   0.430   2.902   2.014  1.1545 -0.0093 -1.9683
 3045SOL    HW220595   0.333   2.815   1.948  0.2084 -1.8579 -0.5640
 3046SOL     OW20596   3.046   4.208   4.728  0.2580 -0.4154 -0.5789
 3046SOL    HW120597   3.048   4.150   4.804 -4.8450 -0.6216 -0.5956
 3046SOL    HW220598   2.995   4.279   4.767  0.5044  0.3536 -1.6533
 3047SOL     OW20599   0.019   0.995   8.791  0.4859  0.2970 -0.2556
 3047SOL    HW120600   4.698   1.066   8.840  2.3455  1.0402  0.3629
 3047SOL    HW220601   0.007   1.021   8.700 -0.0969  0.3719 -0.1569
 3048SOL     OW20602   1.643   3.295   3.586  0.0416 -0.0216 -0.5798
 3048SOL    HW120603   1.737   3.281   3.587  0.0469  0.1433  1.6469
 3048SOL    HW220604   1.637   3.310   3.681 -0.4772 -1.2019 -0.4319
 3049SOL     OW20605   0.575   3.769   3.302  0.0995 -0.1782 -0.0007
 3049SOL    HW120606   0.493   3.768   3.351 -0.7570 -2.0609 -1.4865
 3049SOL    HW220607   0.620   3.844   3.343 -2.3347  1.0347  0.4431
 3050SOL     OW20608   1.402   2.501   8.135  0.3056 -0.3698  0.0328
 3050SOL    HW120609   1.338   2.432   8.115 -0.3456  0.7186 -1.6461
 3050SOL    HW220610   1.478   2.478   8.082  0.0762 -3.0867  0.9135
 3051SOL     OW20611   1.633   1.398   3.429 -0.8799  0.5101 -0.0831
 3051SOL    HW120612   1.632   1.363   3.518  2.9174  0.9423  0.1183
 3051SOL    HW220613   1.670   1.485   3.443 -3.1766  1.5062 -0.1709
 3052SOL     OW20614   0.159   1.351   4.601 -0.5411 -0.0216 -0.1157
 3052SOL    HW120615   0.198   1.418   4.657 -0.7181  0.5049 -0.6181
 3052SOL    HW220616   0.211   1.284   4.644 -2.2176  0.5073  2.7755
 3053SOL     OW20617   2.497   0.555   3.115  0.6566  0.1712 -0.5294
 3053SOL    HW120618   2.587   0.587   3.122  0.5117  0.3450  0.5128
 3053SOL    HW220619   2.484   0.543   3.209 -0.3457 -0.0251 -0.6824
 3054SOL     OW20620   0.221   2.079   3.339 -0.0363 -0.3173  0.2267
 3054SOL    HW120621   0.259   2.091   3.252 -0.6509 -1.6210 -0.2303
 3054SOL    HW220622   0.205   2.172   3.352  0.0210 -0.2841  0.0670
 3055SOL     OW20623   4.263   2.589   3.918 -0.3150 -0.0013 -0.3840
 3055SOL    HW120624   4.291   2.676   3.889 -1.1785  0.5693  0.4739
 3055SOL    HW220625   4.314   2.578   3.998  0.5808 -0.7886 -1.0694
 3056SOL     OW20626   1.335   0.163   0.335 -0.1569 -0.3582  0.2789
 3056SOL    HW120627   1.263   0.215   0.299  2.1550  1.0054 -2.3414
 3056SOL    HW220628   1.307   0.165   0.426 -0.6712  0.5832  0.1032
 3057SOL     OW20629   3.703   3.415   6.303 -0.4016  1.1677 -0.1130
 3057SOL    HW120630   3.768   3.418   6.373  0.9268  1.0625 -1.3470
 3057SOL    HW220631   3.718   3.503   6.270  1.8085  1.9328  2.9981
 3058SOL     OW20632   0.681   2.540   1.739  0.1185 -0.5773  0.3234
 3058SOL    HW120633   0.628   2.539   1.818 -1.4598  0.7244 -0.7203
 3058SOL    HW220634   0.678   2.631   1.709  0.5418 -0.8795 -0.6700
 3059SOL     OW20635   0.320   3.478   4.797 -0.7163 -0.1797 -0.2453
 3059SOL    HW120636   0.262   3.422   4.849  0.9930 -2.3757 -0.7298
 3059SOL    HW220637   0.308   3.566   4.833  2.9513  0.1600  0.1366
 3060SOL     OW20638   2.234   0.278   1.892 -0.5715 -0.4336 -0.6784
 3060SOL    HW120639   2.271   0.365   1.907 -0.3205 -1.0384  2.3376
 3060SOL    HW220640   2.140   0.295   1.891 -0.5902 -0.3377  1.4295
 3061SOL     OW20641   2.447   1.290   5.348 -0.0202 -0.0789  0.1141
 3061SOL    HW120642   2.492   1.298   5.432  1.9880 -1.7568 -0.7765
 3061SOL    HW220643   2.435   1.195   5.339  1.1678 -0.3167  1.0137
 3062SOL     OW20644   2.397   0.254   6.689 -0.0873  0.1536 -0.5837
 3062SOL    HW120645   2.491   0.265   6.678 -0.0571  1.8155  1.4438
 3062SOL    HW220646   2.398   0.170   6.736  1.6892  0.6924  0.3653
 3063SOL     OW20647   1.158   4.065  10.597 -0.1278  0.1967  0.1854
 3063SOL    HW120648   1.181   4.157  10.607  0.3823  0.0882  0.0570
 3063SOL    HW220649   1.250   4.037  10.594  0.4194  1.8161  2.0287
 3064SOL     OW20650   2.159   4.520   3.836 -0.0536  0.1289 -0.1204
 3064SOL    HW120651   2.208   4.498   3.757  0.3081  0.0770  0.1159
 3064SOL    HW220652   2.197   4.602   3.867  1.8338 -0.6355 -0.4296
 3065SOL     OW20653   3.816   4.452   2.025 -0.2831 -0.1957  0.0374
 3065SOL    HW120654   3.863   4.390   2.080  1.8444  0.0214 -1.5345
 3065SOL    HW220655   3.855   4.535   2.054 -0.6100  0.8120 -2.3527
 3066SOL     OW20656   0.151   3.761  14.217 -0.6699 -0.1271 -0.4457
 3066SOL    HW120657   0.077   3.818  14.201  1.0381  1.8163 -1.3560
 3066SOL    HW220658   0.150   3.772  14.312 -0.8962  1.2723 -0.6149
 3067SOL     OW20659   3.195   0.087   7.067  0.4142 -0.1158 -0.3647
 3067SOL    HW120660   3.165   0.138   6.992 -0.5739 -0.2103 -0.0260
 3067SOL    HW220661   3.137   0.012   7.069 -2.1702  1.9330  0.8026
 3068SOL     OW20662   0.131   3.286   5.086 -0.3410 -0.0852  0.3096
 3068SOL    HW120663   0.170   3.340   5.155  1.9937 -1.7110  0.2738
 3068SOL    HW220664   0.040   3.304   5.108 -0.9047  0.3567 -2.4234
 3069SOL     OW20665   3.743   4.689   3.957 -0.0217  0.2096  0.4519
 3069SOL    HW120666   3.762   0.042   3.902 -2.5102 -1.2962 -2.5126
 3069SOL    HW220667   3.688   0.014   4.020 -0.4376  1.2470 -0.6951
 3070SOL     OW20668   1.508   3.220   2.494 -1.1148  0.2533 -0.1461
 3070SOL    HW120669   1.523   3.260   2.409  0.1019 -0.5237 -0.3069
 3070SOL    HW220670   1.541   3.292   2.548  2.5977 -1.0905 -0.5896
 3071SOL     OW20671   3.411   2.268  12.870  0.2840  0.5335  0.3379
 3071SOL    HW120672   3.456   2.201  12.920 -1.8433 -1.3118 -0.2215
 3071SOL    HW220673   3.323   2.266  12.908  0.5075 -1.3498  0.7510
 3072SOL     OW20674   0.934   1.174   6.053 -0.4082 -0.7439  0.7095
 3072SOL    HW120675   0.853   1.150   6.009 -0.8818 -1.8649  2.2005
 3072SOL    HW220676   0.925   1.269   6.067  0.4999 -0.9133  2.5124
 3073SOL     OW20677   2.775   3.397   2.639  0.2129  0.2944  0.1959
 3073SOL    HW120678   2.840   3.459   2.607  0.0746  0.2523 -0.1728
 3073SOL    HW220679   2.812   3.369   2.722 -0.3145 -2.0819 -0.3434
 3074SOL     OW20680   0.988   4.721   1.802 -0.2089  0.3388 -0.5158
 3074SOL    HW120681   0.964   0.018   1.711 -2.4409 -0.1889 -0.0571
 3074SOL    HW220682   0.989   0.085   1.841  1.2272  0.3780 -0.6707
 3075SOL     OW20683   2.759   2.142  16.145  0.2839  0.3902 -0.0526
 3075SOL    HW120684   2.799   2.061  16.174  0.0981 -0.3303 -1.7781
 3075SOL    HW220685   2.790   2.154  16.055  0.9435  0.3473  0.1682
 3076SOL     OW20686   4.440   1.217  17.215 -0.2676 -0.5236  0.0475
 3076SOL    HW120687   4.354   1.176  17.218  0.1215 -1.4067 -0.8492
 3076SOL    HW220688   4.419   1.310  17.208 -1.9413 -0.9694 -0.8452
 3077SOL     OW20689   0.488   4.261   7.392  0.0459  0.4629 -0.1027
 3077SOL    HW120690   0.432   4.184   7.377 -0.2693  0.6391  0.1763
 3077SOL    HW220691   0.561   4.216   7.435 -1.0126 -1.6493 -0.4818
 3078SOL     OW20692   0.813   1.838   9.807  0.1368 -0.4729  0.1167
 3078SOL    HW120693   0.878   1.901   9.778  1.4325 -1.3667  1.0812
 3078SOL    HW220694   0.870   1.772   9.846  1.1969 -0.0707 -0.7701
 3079SOL     OW20695   1.619   1.381  16.683  0.0866 -0.1553 -0.3003
 3079SOL    HW120696   1.672   1.455  16.653 -2.0572  1.0749 -0.9949
 3079SOL    HW220697   1.557   1.365  16.612 -0.1193  1.0302 -0.3786
 3080SOL     OW20698   3.552   2.029   4.232 -0.1352 -0.1212 -0.0208
 3080SOL    HW120699   3.626   1.988   4.276 -0.3284 -1.2258 -0.7167
 3080SOL    HW220700   3.596   2.113   4.219  0.8529 -0.7600 -0.7499
 3081SOL     OW20701   1.613   2.752   8.968 -0.5641  0.0584 -0.2552
 3081SOL    HW120702   1.635   2.820   8.904 -1.1341  2.4336  2.0963
 3081SOL    HW220703   1.686   2.693   8.948 -0.0424  0.4373  0.5630
 3082SOL     OW20704   2.736   4.429   1.392 -0.1515  0.0492 -0.6218
 3082SOL    HW120705   2.770   4.348   1.353 -0.5543 -0.0122 -0.8440
 3082SOL    HW220706   2.654   4.453   1.349  0.9876  2.5964 -1.3541
 3083SOL     OW20707   2.728   3.826   1.681 -0.2276 -0.2307  0.4371
 3083SOL    HW120708   2.700   3.740   1.648 -0.5019  0.1630 -0.3704
 3083SOL    HW220709   2.729   3.819   1.776  0.1759  0.3238  0.4728
 3084SOL     OW20710   0.398   2.794   8.371 -0.6981  0.1914  0.4850
 3084SOL    HW120711   0.316   2.750   8.348  0.5145 -1.2630 -1.0483
 3084SOL    HW220712   0.404   2.767   8.462 -2.3895 -1.2649  0.1589
 3085SOL     OW20713   3.771   0.019  12.812  0.8222  0.1281  0.3270
 3085SOL    HW120714   3.782   0.114  12.820  0.6899 -0.1092  3.4398
 3085SOL    HW220715   3.826   4.713  12.885 -2.3513 -1.6117  2.0463
 3086SOL     OW20716   0.608   0.889   6.480  0.1157  0.4199 -0.1857
 3086SOL    HW120717   0.696   0.855   6.463 -0.7951 -1.4585 -1.1531
 3086SOL    HW220718   0.556   0.845   6.412 -0.6129 -0.5273  0.9655
 3087SOL     OW20719   1.043   2.376   4.723  0.7420  0.2858  0.0352
 3087SOL    HW120720   0.956   2.396   4.689 -0.0532 -2.8809  0.2691
 3087SOL    HW220721   1.070   2.300   4.672  0.0538 -0.0669  0.2050
 3088SOL     OW20722   3.157   4.373   5.325 -0.0085  0.6124  0.2930
 3088SOL    HW120723   3.075   4.391   5.371 -1.2875 -0.9878 -1.3691
 3088SOL    HW220724   3.166   4.465   5.299  1.0046  0.3294 -0.3684
 3089SOL     OW20725   1.238   3.859   3.722 -0.4511  0.0049 -0.4316
 3089SOL    HW120726   1.251   3.844   3.629  1.2817 -2.5651  0.2242
 3089SOL    HW220727   1.144   3.877   3.719 -0.0922  1.8520 -0.4430
 3090SOL     OW20728   2.669   2.829   6.949 -0.1011  0.5427 -0.2462
 3090SOL    HW120729   2.692   2.908   6.998  1.7665 -0.8912  1.1668
 3090SOL    HW220730   2.573   2.833   6.944 -0.1361  1.0405  0.9285
 3091SOL     OW20731   2.881   2.544   4.370  0.0679 -0.0381 -0.0195
 3091SOL    HW120732   2.950   2.552   4.304  0.4475  0.5525  0.4457
 3091SOL    HW220733   2.902   2.611   4.435  0.9470 -0.6375  0.3190
 3092SOL     OW20734   4.176   4.339   6.409 -0.4735 -0.3400 -0.0652
 3092SOL    HW120735   4.137   4.325   6.495  2.0777  0.4887  1.2319
 3092SOL    HW220736   4.262   4.298   6.423  0.0109  0.2554 -1.2162
 3093SOL     OW20737   3.825   0.062   5.625  0.1998  0.1421  0.0592
 3093SOL    HW120738   3.835   0.119   5.701  0.8856  2.6716 -1.9156
 3093SOL    HW220739   3.905   0.010   5.628  1.8584  2.6680 -0.2117
 3094SOL     OW20740   1.115   4.156  15.258 -0.2980  0.3259 -0.1730
 3094SOL    HW120741   1.202   4.159  15.298  0.0369  1.3472 -0.9778
 3094SOL    HW220742   1.134   4.102  15.180 -0.6156 -3.1408  2.1484
 3095SOL     OW20743   3.065   1.656   6.121 -0.2249  0.1029 -0.3090
 3095SOL    HW120744   3.072   1.745   6.157  0.8739 -1.0496  2.3676
 3095SOL    HW220745   2.972   1.637   6.131 -0.4710  1.1201 -0.7482
 3096SOL     OW20746   0.512   1.842   9.401 -0.5067 -0.0616  0.3995
 3096SOL    HW120747   0.476   1.809   9.483 -2.8892  3.0174  0.6020
 3096SOL    HW220748   0.535   1.762   9.355  0.7827  0.7592 -0.3891
 3097SOL     OW20749   3.328   2.395   9.771  0.2951 -0.2353  1.3452
 3097SOL    HW120750   3.284   2.349   9.842  2.8395 -3.3035  0.9428
 3097SOL    HW220751   3.372   2.462   9.824  1.0083 -1.0550  1.7997
 3098SOL     OW20752   1.798   2.137   0.551  0.6612  0.3003 -0.4378
 3098SOL    HW120753   1.859   2.104   0.485  1.7667  1.2498  0.1036
 3098SOL    HW220754   1.822   2.078   0.623  1.6595  1.3395  0.0820
 3099SOL     OW20755   0.170   1.203  11.188  0.0179 -0.0153  0.2011
 3099SOL    HW120756   0.192   1.287  11.227  1.2576  0.0328 -0.5989
 3099SOL    HW220757   0.076   1.204  11.205 -0.1852  2.2209 -1.0746
 3100SOL     OW20758   3.707   3.630   8.418 -0.2260  0.4860  0.5698
 3100SOL    HW120759   3.766   3.659   8.348 -1.1184  0.1211 -0.3338
 3100SOL    HW220760   3.767   3.622   8.492 -0.6641 -0.7467  0.8037
 3101SOL     OW20761   2.779   3.662   9.088 -0.4845 -0.1581  0.0821
 3101SOL    HW120762   2.840   3.679   9.159 -0.2061 -0.4791 -0.0814
 3101SOL    HW220763   2.710   3.629   9.146 -1.7114  2.3367  0.0289
 3102SOL     OW20764   3.657   2.297  13.808  0.2202  0.2240 -0.3326
 3102SOL    HW120765   3.710   2.237  13.755  0.1450 -2.6752  2.8728
 3102SOL    HW220766   3.595   2.327  13.742 -2.0452 -2.6237  0.5307
 3103SOL     OW20767   1.236   2.308   7.992  0.1657  0.5767  0.4454
 3103SOL    HW120768   1.266   2.259   7.915  0.4673  2.4164 -0.5977
 3103SOL    HW220769   1.146   2.279   8.001  0.4892 -0.4231  0.5278
 3104SOL     OW20770   1.159   4.436  11.677 -0.4239  0.0878 -0.4053
 3104SOL    HW120771   1.077   4.393  11.704  1.0521  0.3045  4.3384
 3104SOL    HW220772   1.211   4.364  11.712  1.0005  0.6247 -1.4283
 3105SOL     OW20773   2.733   2.711   9.070 -0.2722  0.4814  0.0488
 3105SOL    HW120774   2.703   2.778   9.132 -1.4008  1.2799 -1.3671
 3105SOL    HW220775   2.676   2.636   9.085 -0.0569  0.4046  0.4935
 3106SOL     OW20776   0.882   0.047   3.230  0.0039  0.1588 -0.3967
 3106SOL    HW120777   0.830   0.022   3.154 -0.8364  1.5147 -0.2633
 3106SOL    HW220778   0.883   0.141   3.212 -0.2922 -0.3203 -2.9471
 3107SOL     OW20779   0.537   4.720   1.391  0.7091  0.1067  0.2521
 3107SOL    HW120780   0.495   0.016   1.307 -1.0885  1.1953  1.3979
 3107SOL    HW220781   0.577   4.636   1.368  1.8025  0.6024  0.3288
 3108SOL     OW20782   4.089   2.853   7.740  0.2447 -0.0605 -0.1151
 3108SOL    HW120783   4.137   2.794   7.682  2.0549  0.3116  0.9905
 3108SOL    HW220784   4.052   2.786   7.797  0.1519  0.2595  0.2012
 3109SOL     OW20785   4.606   4.673   1.645  0.5343 -0.1088 -0.1004
 3109SOL    HW120786   4.610   4.596   1.701 -0.6980 -0.1481 -0.0644
 3109SOL    HW220787   4.592   4.637   1.557 -0.7743 -2.3437  1.0210
 3110SOL     OW20788   3.621   3.627  15.459  0.4334 -0.0276  0.4275
 3110SOL    HW120789   3.645   3.629  15.366  2.9221  1.7493  1.0918
 3110SOL    HW220790   3.537   3.582  15.459  0.4073  0.0270 -0.0217
 3111SOL     OW20791   1.956   2.753   2.197 -0.0461 -0.1808 -0.1720
 3111SOL    HW120792   1.948   2.784   2.287  0.6705  0.0132 -0.1792
 3111SOL    HW220793   2.042   2.711   2.204  1.0149  2.0802  0.4685
 3112SOL     OW20794   0.590   0.373   4.739 -0.2062 -0.0687  0.4951
 3112SOL    HW120795   0.624   0.439   4.678  0.1565 -1.7082 -1.0872
 3112SOL    HW220796   0.664   0.313   4.736  0.2530  0.4739  0.9298
 3113SOL     OW20797   4.492   0.087   1.944  0.1706 -0.8530 -0.3440
 3113SOL    HW120798   4.560   0.041   1.993 -0.6026 -1.0659  0.5339
 3113SOL    HW220799   4.423   0.023   1.962  0.2327 -2.0829 -4.4663
 3114SOL     OW20800   1.279   2.751   2.918  0.2705  0.2033  0.0184
 3114SOL    HW120801   1.193   2.754   2.876  0.4236  0.2749 -0.2917
 3114SOL    HW220802   1.245   2.713   2.998  1.7603  2.0989  1.5575
 3115SOL     OW20803   2.058   1.210   2.078  0.0171 -0.5435 -0.2145
 3115SOL    HW120804   2.009   1.277   2.031 -1.3252 -0.1353  1.7809
 3115SOL    HW220805   2.003   1.132   2.071 -1.6886  0.6601 -0.1519
 3116SOL     OW20806   2.998   3.646   9.272  0.4528 -0.6096  0.6168
 3116SOL    HW120807   3.039   3.562   9.249 -0.4649 -0.6679 -0.8515
 3116SOL    HW220808   3.070   3.706   9.256 -1.6959  1.8119  0.0750
 3117SOL     OW20809   0.186   3.377   7.084  0.1024  0.0166  0.1486
 3117SOL    HW120810   0.149   3.289   7.073 -0.5639  0.5585 -1.8092
 3117SOL    HW220811   0.159   3.402   7.173 -2.1134 -0.8857 -0.2637
 3118SOL     OW20812   2.923   1.427   2.589 -0.3068 -0.0386 -0.3932
 3118SOL    HW120813   2.911   1.334   2.569  1.9195 -0.0433 -1.6959
 3118SOL    HW220814   2.847   1.461   2.540 -0.3199 -0.3214 -0.5673
 3119SOL     OW20815   4.487   2.712   5.312  0.2917  0.1921  0.2744
 3119SOL    HW120816   4.452   2.800   5.324 -0.2483 -0.1862  1.4002
 3119SOL    HW220817   4.575   2.737   5.284 -0.5051  2.1580 -0.5446
 3120SOL     OW20818   1.752   3.734   6.893  0.1832 -0.1647 -0.1028
 3120SOL    HW120819   1.696   3.701   6.963  0.7878 -0.7266  0.1133
 3120SOL    HW220820   1.791   3.814   6.928  0.9054 -0.5451 -0.0427
 3121SOL     OW20821   3.601   3.378   1.653 -0.0929  0.2245 -0.7380
 3121SOL    HW120822   3.676   3.324   1.677  0.4442  0.9176 -0.8489
 3121SOL    HW220823   3.519   3.332   1.667 -0.2747  1.5511  2.5932
 3122SOL     OW20824   3.983   2.563  14.964 -0.0386 -0.1738  0.3394
 3122SOL    HW120825   3.949   2.650  14.987 -2.7776 -1.0604 -0.3379
 3122SOL    HW220826   3.930   2.540  14.888 -0.7313  1.4186  0.3300
 3123SOL     OW20827   1.201   1.658   2.876  0.3389 -0.6618  0.1060
 3123SOL    HW120828   1.237   1.746   2.884  1.2913 -1.1263  1.0998
 3123SOL    HW220829   1.198   1.653   2.781 -1.5828 -2.3416  0.2567
 3124SOL     OW20830   0.129   2.223   3.674  0.4479  0.3203 -0.4214
 3124SOL    HW120831   0.162   2.255   3.590  1.8678  4.0071  1.5414
 3124SOL    HW220832   0.092   2.141   3.641  1.0203  0.1721 -0.7105
 3125SOL     OW20833   4.504   1.789   6.066 -0.6941 -0.0574 -0.0552
 3125SOL    HW120834   4.456   1.865   6.099 -1.7793 -1.4398  1.5762
 3125SOL    HW220835   4.591   1.795   6.104 -0.0012 -2.1844 -1.2922
 3126SOL     OW20836   4.257   3.931  17.666  0.3501  0.3548 -0.1920
 3126SOL    HW120837   4.171   3.954   0.007  0.3918 -0.6364  0.5427
 3126SOL    HW220838   4.288   4.020  17.649  0.7852 -0.1099 -1.8426
 3127SOL     OW20839   1.599   2.697  10.792 -0.6138  0.0929 -0.0355
 3127SOL    HW120840   1.568   2.611  10.762  1.4706 -0.4002 -0.7739
 3127SOL    HW220841   1.588   2.731  10.703  0.7578 -0.9645 -0.6159
 3128SOL     OW20842   3.923   4.607   7.101  0.4191 -0.2375 -0.2811
 3128SOL    HW120843   3.990   4.598   7.169  0.9909  1.5774 -0.6124
 3128SOL    HW220844   3.888   4.694   7.124 -1.2122 -0.9590 -0.0391
 3129SOL     OW20845   0.801   2.576   1.146  0.3654  0.4175 -0.4149
 3129SOL    HW120846   0.856   2.535   1.079 -3.4709  0.1454 -3.3501
 3129SOL    HW220847   0.715   2.564   1.106 -0.0196 -0.6656  0.7448
 3130SOL     OW20848   3.719   1.616  11.016 -0.3638  1.0138  0.4235
 3130SOL    HW120849   3.669   1.696  11.035 -0.7919  1.4647 -2.5499
 3130SOL    HW220850   3.810   1.643  11.013 -0.9571  2.8183 -1.8149
 3131SOL     OW20851   3.409   3.920   3.740 -0.3576  0.0279  0.1624
 3131SOL    HW120852   3.441   3.830   3.736 -1.5995 -0.4252  0.2725
 3131SOL    HW220853   3.326   3.910   3.787 -0.3897  0.8599  0.2763
 3132SOL     OW20854   0.740   0.565   5.801 -0.7950  0.1181 -0.9031
 3132SOL    HW120855   0.811   0.628   5.793  0.5048 -1.1950  0.2416
 3132SOL    HW220856   0.782   0.504   5.862  2.3087  1.6331 -1.5263
 3133SOL     OW20857   1.843   1.195   6.337 -0.0859  0.1364 -0.7609
 3133SOL    HW120858   1.890   1.147   6.405  1.1544  0.4554 -1.3999
 3133SOL    HW220859   1.889   1.278   6.344 -0.7097  0.4048  0.0358
 3134SOL     OW20860   0.964   3.655  17.104  0.5056  0.3056  0.2227
 3134SOL    HW120861   0.913   3.722  17.058  0.9658 -0.2424 -1.0694
 3134SOL    HW220862   0.888   3.616  17.148  1.0564 -0.2529  0.6697
 3135SOL     OW20863   1.844   3.347   8.882 -0.1500  0.3378 -1.0254
 3135SOL    HW120864   1.810   3.314   8.965  0.0051 -0.1968 -1.1758
 3135SOL    HW220865   1.764   3.373   8.836 -1.0160  0.8916  0.8088
 3136SOL     OW20866   2.228   0.703   5.037 -0.5547 -0.6700 -0.5100
 3136SOL    HW120867   2.215   0.791   5.072 -0.0264 -0.8762  0.2153
 3136SOL    HW220868   2.319   0.697   5.065 -0.6801  1.6955  0.4257
 3137SOL     OW20869   0.222   1.999   2.931  0.2133 -0.7998 -0.1631
 3137SOL    HW120870   0.172   2.080   2.924  0.8636 -0.4891 -1.0329
 3137SOL    HW220871   0.200   1.954   2.850  1.6346 -2.5610  0.4180
 3138SOL     OW20872   4.278   1.359   0.031 -0.6434 -0.4546  0.4935
 3138SOL    HW120873   4.250   1.440   0.075  0.2632 -0.7610  1.6568
 3138SOL    HW220874   4.264   1.381  17.633  2.0905 -1.3017 -0.1118
 3139SOL     OW20875   3.324   1.343   0.236  0.3369 -0.6927 -0.4528
 3139SOL    HW120876   3.286   1.424   0.269 -2.2847 -2.3542  0.6992
 3139SOL    HW220877   3.406   1.368   0.195 -0.7906  1.2527 -1.5047
 3140SOL     OW20878   2.450   1.400   9.455  0.2081 -0.2851 -0.8348
 3140SOL    HW120879   2.376   1.457   9.438 -1.4011 -2.0462  0.2804
 3140SOL    HW220880   2.493   1.450   9.525  1.2290 -2.7091  0.2770
 3141SOL     OW20881   4.518   2.462   4.351 -0.0126  0.1524  0.8236
 3141SOL    HW120882   4.521   2.480   4.445  0.1088  0.5353  0.7473
 3141SOL    HW220883   4.610   2.477   4.331  0.4423 -0.8716  2.1852
 3142SOL     OW20884   4.075   0.616   3.585 -0.4377  0.5393 -0.0952
 3142SOL    HW120885   3.992   0.568   3.586  0.3998 -0.9074 -0.1566
 3142SOL    HW220886   4.137   0.547   3.609 -1.9429 -0.9258 -0.4312
 3143SOL     OW20887   0.212   2.621   5.745 -0.0395  0.0068  0.3451
 3143SOL    HW120888   0.147   2.639   5.813  0.1616 -2.5906  1.2154
 3143SOL    HW220889   0.193   2.694   5.686 -0.5600 -0.5252 -0.1528
 3144SOL     OW20890   3.544   0.846   8.782  0.2159 -0.1550 -0.5948
 3144SOL    HW120891   3.514   0.936   8.800  1.2642  0.2515 -0.9207
 3144SOL    HW220892   3.600   0.846   8.859 -0.9386 -1.1118  0.2561
 3145SOL     OW20893   0.117   0.862  17.669 -0.4511  0.1495 -0.3944
 3145SOL    HW120894   0.080   0.850   0.062 -2.2280  1.0672 -1.0247
 3145SOL    HW220895   0.083   0.789  17.617 -1.7455 -0.9895  2.0488
 3146SOL     OW20896   3.030   0.208   7.791  0.0244 -0.0922  0.1679
 3146SOL    HW120897   3.026   0.113   7.793  0.0430 -0.0855  0.6692
 3146SOL    HW220898   3.122   0.228   7.773  0.3284 -0.8086  0.9394
 3147SOL     OW20899   4.587   2.631   9.326 -0.6997  0.3744  0.7371
 3147SOL    HW120900   4.535   2.551   9.317 -0.0534  0.0125  0.1674
 3147SOL    HW220901   4.657   2.633   9.261 -2.0901  0.7014 -0.7619
 3148SOL     OW20902   1.428   0.599   4.949  0.7752 -0.4655  0.1592
 3148SOL    HW120903   1.337   0.577   4.970  0.3830  1.9264  0.9700
 3148SOL    HW220904   1.429   0.688   4.914 -1.8678 -0.2575  0.5661
 3149SOL     OW20905   4.220   2.443   2.501  0.3526 -0.0083  0.2967
 3149SOL    HW120906   4.125   2.455   2.497  0.4682  1.3990  1.6239
 3149SOL    HW220907   4.235   2.431   2.408 -1.9623 -0.4570 -0.0191
 3150SOL     OW20908   1.559   1.901   3.104  0.2052 -0.1302 -0.1636
 3150SOL    HW120909   1.619   1.966   3.068 -0.6196  1.6858  1.7798
 3150SOL    HW220910   1.567   1.830   3.040  0.7458 -0.9519  0.8154
 3151SOL     OW20911   4.672   1.599   5.594  0.1518  0.1793  0.3354
 3151SOL    HW120912   4.661   1.598   5.689  0.7881 -3.4126  0.3633
 3151SOL    HW220913   4.711   1.514   5.575 -0.6273 -0.5155  1.8910
 3152SOL     OW20914   1.470   4.184  12.757  0.6947 -0.0134 -0.2392
 3152SOL    HW120915   1.562   4.163  12.738  0.7559  2.0198 -2.2789
 3152SOL    HW220916   1.426   4.101  12.774  3.2489 -1.0743  1.2270
 3153SOL     OW20917   0.639   2.806  11.541 -0.0389  0.4133 -0.1487
 3153SOL    HW120918   0.664   2.800  11.449  0.5070 -1.3744  0.1180
 3153SOL    HW220919   0.545   2.799  11.520 -0.3331  1.6673  0.7386
 3154SOL     OW20920   4.164   2.604   1.286  0.2850  0.2921 -0.8300
 3154SOL    HW120921   4.243   2.552   1.269  0.0095  0.1500 -1.6793
 3154SOL    HW220922   4.109   2.529   1.311 -0.1447 -0.5567 -4.3219
 3155SOL     OW20923   4.695   2.737   1.665 -0.3317  0.3559 -0.2076
 3155SOL    HW120924   4.604   2.732   1.637  0.0551 -0.5381 -1.2739
 3155SOL    HW220925   4.709   2.647   1.693 -1.7489  0.4536  0.8436
 3156SOL     OW20926   1.999   1.856  14.495  0.2235 -0.2618  0.1106
 3156SOL    HW120927   1.977   1.836  14.404  1.7872  0.3360 -0.3928
 3156SOL    HW220928   2.081   1.903  14.484  0.0929  0.3742  1.8102
 3157SOL     OW20929   1.326   0.861   5.125 -0.2595 -0.5889 -0.3066
 3157SOL    HW120930   1.378   0.874   5.046 -2.2974 -0.7751 -1.6831
 3157SOL    HW220931   1.267   0.936   5.121 -0.6827 -0.9106 -0.0981
 3158SOL     OW20932   3.921   0.262   1.832  0.2473 -0.0806  0.3532
 3158SOL    HW120933   3.980   0.300   1.767  0.7406 -0.5899  0.5045
 3158SOL    HW220934   3.886   0.185   1.788  0.0548 -0.6053  1.4364
 3159SOL     OW20935   0.907   4.407  15.616 -0.2987 -0.6076 -0.0073
 3159SOL    HW120936   0.997   4.439  15.608  0.0241 -1.2785  1.1078
 3159SOL    HW220937   0.910   4.354  15.536 -1.0140 -1.1414  0.3169
 3160SOL     OW20938   1.307   1.397   5.910 -0.0929  0.0957 -0.2111
 3160SOL    HW120939   1.353   1.380   5.993 -2.1799  0.6757  1.0812
 3160SOL    HW220940   1.295   1.492   5.905 -0.1450  0.0858 -0.2720
 3161SOL     OW20941   4.245   0.818   5.620 -0.3112 -0.4325 -0.1129
 3161SOL    HW120942   4.289   0.866   5.691 -1.8209 -2.0769  1.9461
 3161SOL    HW220943   4.298   0.741   5.602  0.3673  0.1268 -0.5036
 3162SOL     OW20944   2.805   1.033   2.256  0.3356  0.0592  0.3814
 3162SOL    HW120945   2.815   0.946   2.296  0.0025  0.2716  0.9194
 3162SOL    HW220946   2.725   1.022   2.204  0.6197  2.3068 -0.5225
 3163SOL     OW20947   3.535   2.190   5.236 -0.6941  0.0590  0.0150
 3163SOL    HW120948   3.480   2.127   5.283  0.5438 -0.1558  1.1864
 3163SOL    HW220949   3.465   2.244   5.201 -0.2541 -1.2215 -2.7953
 3164SOL     OW20950   1.186   0.651   4.215  0.3156 -0.2832 -0.2172
 3164SOL    HW120951   1.233   0.711   4.274  0.4702 -0.1276 -0.4964
 3164SOL    HW220952   1.239   0.571   4.214  2.0845  0.8502  1.7179
 3165SOL     OW20953   0.796   3.024  10.465  0.5750  0.2320  0.0154
 3165SOL    HW120954   0.819   2.966  10.537  3.3657  0.6377 -0.5478
 3165SOL    HW220955   0.867   3.087  10.481 -0.8659  2.0086 -0.6206
 3166SOL     OW20956   2.335   1.509   7.067 -0.6642 -0.5273 -0.2615
 3166SOL    HW120957   2.367   1.527   6.979 -1.2270  2.6582  0.1808
 3166SOL    HW220958   2.393   1.439   7.099  0.7193  0.4814 -0.6148
 3167SOL     OW20959   4.106   1.020   0.607 -0.0186  0.1946 -0.1854
 3167SOL    HW120960   4.140   0.949   0.551  0.0076  0.3176 -0.3256
 3167SOL    HW220961   4.179   1.042   0.666  0.5130  0.6011 -0.9973
 3168SOL     OW20962   2.476   4.435   3.881  0.7820  0.0495 -0.0884
 3168SOL    HW120963   2.446   4.508   3.828 -0.8708 -1.1518 -0.7971
 3168SOL    HW220964   2.397   4.405   3.926  0.9437  0.2256  0.3106
 3169SOL     OW20965   4.219   3.297   8.707  0.0894  0.3279  0.8521
 3169SOL    HW120966   4.300   3.347   8.720  1.9272 -2.1987 -0.8666
 3169SOL    HW220967   4.173   3.351   8.643 -2.1535 -1.3664  1.0141
 3170SOL     OW20968   3.553   2.786   6.756  0.0002 -0.3883 -0.0790
 3170SOL    HW120969   3.555   2.712   6.817  1.6219 -0.3813 -0.1148
 3170SOL    HW220970   3.555   2.861   6.816 -0.8720 -1.8594  1.7983
 3171SOL     OW20971   2.835   4.016   8.069 -0.2414 -0.3730 -0.2353
 3171SOL    HW120972   2.847   4.058   7.984  2.1255  0.3568  0.4445
 3171SOL    HW220973   2.889   4.062   8.134 -0.2401 -0.9028  0.1390
 3172SOL     OW20974   2.464   3.497  16.950  0.1589 -0.1180 -0.0604
 3172SOL    HW120975   2.554   3.494  16.982  1.2236 -0.6878 -3.1366
 3172SOL    HW220976   2.468   3.586  16.915 -1.1681 -0.9959 -2.4272
 3173SOL     OW20977   2.500   3.481   7.827 -0.0975 -0.0190 -0.4343
 3173SOL    HW120978   2.501   3.530   7.909  1.5972 -1.2715  0.3076
 3173SOL    HW220979   2.567   3.524   7.774  1.0876 -0.2594  0.8466
 3174SOL     OW20980   2.238   1.720  14.674 -0.2950  0.2832 -0.0244
 3174SOL    HW120981   2.163   1.707  14.616 -0.2600  3.0133 -0.7158
 3174SOL    HW220982   2.270   1.801  14.633  2.0473 -0.7381 -0.1954
 3175SOL     OW20983   4.392   4.335   2.577 -0.0707 -0.2676 -0.2591
 3175SOL    HW120984   4.473   4.338   2.526 -1.9006 -4.5962 -3.4215
 3175SOL    HW220985   4.414   4.264   2.637 -2.5252 -1.2696 -0.5484
 3176SOL     OW20986   2.665   1.215   8.465  0.1780 -0.3526  0.0713
 3176SOL    HW120987   2.717   1.155   8.518 -2.1820 -0.8094  1.8872
 3176SOL    HW220988   2.590   1.231   8.524 -1.2964 -2.6191 -1.1778
 3177SOL     OW20989   4.719   3.738   1.910  0.6528  0.1179  0.2446
 3177SOL    HW120990   4.649   3.783   1.862  0.1769  1.2390  1.9616
 3177SOL    HW220991   0.063   3.716   1.846  2.1759 -1.2911  2.3175
 3178SOL     OW20992   1.118   2.141   7.569 -0.1139 -0.3635  0.1610
 3178SOL    HW120993   1.188   2.108   7.513  1.9260  0.1655  2.3925
 3178SOL    HW220994   1.163   2.159   7.652 -2.9785 -0.2967  1.6975
 3179SOL     OW20995   4.487   0.394   2.217 -0.8450 -0.5543 -0.0496
 3179SOL    HW120996   4.483   0.457   2.145  1.3163  1.0706  1.2763
 3179SOL    HW220997   4.401   0.412   2.254 -0.5817 -1.7477  1.1479
 3180SOL     OW20998   1.512   3.537  11.694 -0.0822 -0.2859  0.5548
 3180SOL    HW120999   1.468   3.501  11.771 -1.8150  2.3227  0.8108
 3180SOL    HW221000   1.602   3.537  11.725  0.1898  1.3709 -0.2293
 3181SOL     OW21001   1.903   3.638   5.228 -0.2490  0.1170 -0.0342
 3181SOL    HW121002   1.988   3.601   5.207 -0.1975  0.4198 -0.3566
 3181SOL    HW221003   1.873   3.579   5.298  1.0240 -0.3454  0.1185
 3182SOL     OW21004   2.956   0.613   3.918 -0.2854 -1.0065  0.5221
 3182SOL    HW121005   3.017   0.567   3.859  0.4196 -0.2184  0.6363
 3182SOL    HW221006   2.932   0.688   3.864  2.7510 -0.3435  0.0945
 3183SOL     OW21007   1.337   3.918   3.473  0.4023 -0.0890  0.3946
 3183SOL    HW121008   1.268   3.946   3.413  1.6319  1.1007 -0.4665
 3183SOL    HW221009   1.397   3.992   3.477  2.7577 -2.1312  2.4768
 3184SOL     OW21010   4.560   0.357   1.487  0.9141  0.0527 -0.0233
 3184SOL    HW121011   4.504   0.424   1.526  1.4977  1.1749 -1.1196
 3184SOL    HW221012   4.545   0.285   1.548 -1.1641  0.3726 -0.1817
 3185SOL     OW21013   4.021   0.979  15.798 -0.1439  0.1848 -0.1498
 3185SOL    HW121014   4.055   1.016  15.717 -1.0416  1.2597 -0.0296
 3185SOL    HW221015   4.089   0.922  15.835 -0.8265  0.2546  1.2281
 3186SOL     OW21016   2.990   3.030   2.926  0.4311  0.0585  0.0033
 3186SOL    HW121017   2.910   3.074   2.955 -2.0792 -2.8494 -2.5418
 3186SOL    HW221018   3.054   3.101   2.915 -0.4926  0.8891 -0.0604
 3187SOL     OW21019   3.292   3.078   2.029 -0.4196  0.2708  1.0804
 3187SOL    HW121020   3.255   2.996   1.997  1.9013 -0.2585 -0.2251
 3187SOL    HW221021   3.258   3.088   2.118 -0.1336  0.2293  1.1946
 3188SOL     OW21022   1.854   0.285  12.239 -0.6631 -0.3853 -0.1833
 3188SOL    HW121023   1.924   0.288  12.173 -3.1406  3.8584 -2.6320
 3188SOL    HW221024   1.823   0.376  12.235  1.1027  0.2540  0.6334
 3189SOL     OW21025   1.196   4.159   3.830 -0.5145  0.3515  0.0932
 3189SOL    HW121026   1.281   4.135   3.867 -0.6165  1.7979  1.2821
 3189SOL    HW221027   1.198   4.100   3.754 -0.9611 -1.7905  1.7420
 3190SOL     OW21028   3.316   0.554  14.740 -0.3173 -0.6887  0.2945
 3190SOL    HW121029   3.361   0.513  14.813 -0.0269 -0.0217  0.4880
 3190SOL    HW221030   3.321   0.648  14.756  1.1012 -0.0995 -3.4653
 3191SOL     OW21031   0.067   1.412   3.646  0.1941  0.1795  0.2147
 3191SOL    HW121032   0.125   1.487   3.637  2.1777 -1.0070  3.3501
 3191SOL    HW221033   4.718   1.428   3.586 -1.3306 -1.4085  1.6388
 3192SOL     OW21034   3.768   3.401   9.895  0.4396 -0.1070 -0.0371
 3192SOL    HW121035   3.782   3.491   9.866  0.8088 -0.6452 -1.4821
 3192SOL    HW221036   3.673   3.394   9.881  0.3344  1.3051 -0.0321
 3193SOL     OW21037   0.082   1.265  16.571 -0.0471  0.2243 -0.2412
 3193SOL    HW121038   0.053   1.350  16.536  1.6712  0.4709 -1.0511
 3193SOL    HW221039   0.022   1.202  16.532  0.6121 -0.9449  0.6430
 3194SOL     OW21040   0.602   0.918  10.891 -0.0611 -0.3245 -0.0778
 3194SOL    HW121041   0.671   0.852  10.890 -0.7541 -1.0438  0.5150
 3194SOL    HW221042   0.646   0.994  10.930 -0.0124  0.7689 -2.2287
 3195SOL     OW21043   2.426   0.068  15.814  0.0065 -0.6589 -0.6892
 3195SOL    HW121044   2.486   0.045  15.885  1.4282  0.6220 -1.4693
 3195SOL    HW221045   2.449   0.160  15.801 -1.5068 -0.3686 -1.3907
 3196SOL     OW21046   1.421   3.934   6.458 -0.6793 -1.0247  0.5362
 3196SOL    HW121047   1.377   4.013   6.491 -0.5410 -1.2359  1.2316
 3196SOL    HW221048   1.358   3.872   6.493 -1.1928 -0.9206 -0.2104
 3197SOL     OW21049   4.319   3.759  14.756 -0.2215 -0.2040  0.5007
 3197SOL    HW121050   4.267   3.710  14.692 -2.1963  0.2882  1.7064
 3197SOL    HW221051   4.374   3.685  14.784 -0.1710 -0.3837 -0.0846
 3198SOL     OW21052   4.469   4.388  17.138 -0.0400  0.4408  0.3548
 3198SOL    HW121053   4.412   4.462  17.119  1.1932  1.9246  2.4421
 3198SOL    HW221054   4.486   4.349  17.051 -1.0878 -1.4164  0.9760
 3199SOL     OW21055   3.325   1.451  14.165  0.2312  0.0978 -0.3602
 3199SOL    HW121056   3.355   1.473  14.254 -1.1512  0.7221 -0.0468
 3199SOL    HW221057   3.386   1.498  14.109  0.3633  1.5433  1.0133
 3200SOL     OW21058   0.372   0.460   4.587 -0.2565 -0.4041 -0.0233
 3200SOL    HW121059   0.346   0.376   4.550 -1.0644  0.0903 -0.5839
 3200SOL    HW221060   0.427   0.436   4.662  0.7595 -2.7114 -1.5156
 3201SOL     OW21061   2.332   4.097   4.119  0.3213 -0.5301 -0.0940
 3201SOL    HW121062   2.343   4.187   4.149  1.3146 -0.3767 -0.8890
 3201SOL    HW221063   2.389   4.040   4.170  1.4055 -0.5886 -1.3504
 3202SOL     OW21064   4.270   4.216   2.958  0.1949  0.0012 -0.2161
 3202SOL    HW121065   4.338   4.189   2.895  0.8897  1.4694 -0.0983
 3202SOL    HW221066   4.263   4.310   2.943  2.7595  0.3616  0.7308
 3203SOL     OW21067   1.092   4.471  13.630  0.7076 -0.6024 -0.1204
 3203SOL    HW121068   1.016   4.435  13.676 -0.8042  1.6530 -0.8419
 3203SOL    HW221069   1.054   4.496  13.546 -1.4404  0.5199  1.1743
 3204SOL     OW21070   3.112   2.335   2.309  0.0608 -0.5156 -0.0522
 3204SOL    HW121071   3.171   2.313   2.381  0.9162 -0.6968 -0.8048
 3204SOL    HW221072   3.123   2.430   2.302  0.6947 -0.5580  0.3375
 3205SOL     OW21073   0.577   3.055   6.191  0.0311 -0.1836  0.2834
 3205SOL    HW121074   0.506   3.076   6.130  0.1392 -1.4111 -0.2758
 3205SOL    HW221075   0.528   3.015   6.262  2.7074 -2.7135  0.7171
 3206SOL     OW21076   1.373   2.663  14.560 -0.8696  0.0870  0.0252
 3206SOL    HW121077   1.325   2.669  14.478 -0.1123 -1.3116 -0.5298
 3206SOL    HW221078   1.317   2.698  14.630 -0.9432 -1.4575  0.7314
 3207SOL     OW21079   0.894   1.066  14.440 -0.4328  0.4630  0.1924
 3207SOL    HW121080   0.955   0.997  14.414 -2.0546 -0.8688 -0.0666
 3207SOL    HW221081   0.952   1.136  14.410 -0.4125  0.6837  0.7339
 3208SOL     OW21082   2.074   1.196   4.980 -0.3364 -0.0675 -0.3671
 3208SOL    HW121083   2.125   1.163   4.906  2.2301  1.2275  0.8360
 3208SOL    HW221084   2.118   1.147   5.049  0.4950  1.7081  0.3696
 3209SOL     OW21085   3.204   3.643  11.304 -0.0846 -0.4649 -0.5174
 3209SOL    HW121086   3.229   3.695  11.228 -2.1819  0.0799 -0.8575
 3209SOL    HW221087   3.286   3.645  11.352 -1.2745 -2.4642  1.5885
 3210SOL     OW21088   2.068   1.661  14.923  0.0441  0.5026 -0.4424
 3210SOL    HW121089   2.132   1.689  14.989 -0.6984 -3.0201  1.7298
 3210SOL    HW221090   2.108   1.692  14.842  1.6454  1.4231  0.6963
 3211SOL     OW21091   0.399   3.786  10.880  0.2744 -0.2270  0.0318
 3211SOL    HW121092   0.417   3.808  10.789 -0.7234  0.2096 -0.0683
 3211SOL    HW221093   0.308   3.817  10.880 -0.2057 -1.6271  0.4591
 3212SOL     OW21094   0.220   2.965   6.237 -0.4710  0.1385  0.3779
 3212SOL    HW121095   0.213   2.958   6.142  0.3572 -0.2924  0.3506
 3212SOL    HW221096   0.167   3.045   6.247  0.1145  0.6922 -0.8554
 3213SOL     OW21097   3.932   0.865   6.851  0.0241  0.3877 -0.0843
 3213SOL    HW121098   3.941   0.878   6.945 -0.1087 -1.1434  0.1482
 3213SOL    HW221099   3.897   0.776   6.847  1.7591 -0.2526 -1.3293
 3214SOL     OW21100   3.313   2.470   5.423 -0.0405  0.6168  0.4419
 3214SOL    HW121101   3.247   2.410   5.388 -2.1305  1.3713  3.0911
 3214SOL    HW221102   3.257   2.526   5.477  1.2714  2.6184 -0.2737
 3215SOL     OW21103   0.049   1.287   7.270  0.0534 -0.3262  0.2854
 3215SOL    HW121104   0.001   1.282   7.187  0.9029  1.6658 -0.3228
 3215SOL    HW221105   0.138   1.298   7.237 -0.6751  1.8270 -0.9767
 3216SOL     OW21106   3.324   0.858   6.812  0.2183  0.1137  0.1397
 3216SOL    HW121107   3.367   0.856   6.726  1.5794 -0.4636  0.8256
 3216SOL    HW221108   3.381   0.921   6.855  0.9162  0.4789 -1.3036
 3217SOL     OW21109   1.276   3.542   2.320 -0.9769  0.5891  0.3092
 3217SOL    HW121110   1.245   3.495   2.243  0.2543  0.9999 -0.4255
 3217SOL    HW221111   1.359   3.573   2.285 -0.1478 -0.6890  1.1474
 3218SOL     OW21112   1.128   0.757  11.193  0.3398 -0.5367  0.3855
 3218SOL    HW121113   1.168   0.836  11.158 -0.2430 -0.6683 -0.5755
 3218SOL    HW221114   1.035   0.762  11.170  0.5038  3.4644  0.6461
 3219SOL     OW21115   3.486   0.195   3.954  0.3439  0.1265 -0.0596
 3219SOL    HW121116   3.420   0.233   4.012 -0.5104  1.5280 -1.9658
 3219SOL    HW221117   3.441   0.112   3.940 -0.9468  1.3816 -3.3563
 3220SOL     OW21118   0.444   0.302   6.580  0.0105 -0.5192  0.1841
 3220SOL    HW121119   0.371   0.300   6.519 -0.0769 -0.8572  0.2990
 3220SOL    HW221120   0.401   0.298   6.666  0.9002 -0.0239  0.6546
 3221SOL     OW21121   2.359   3.659  12.364  0.2883  0.0623 -0.0782
 3221SOL    HW121122   2.304   3.717  12.416 -1.2646 -1.0834 -0.4640
 3221SOL    HW221123   2.440   3.702  12.393 -0.4662  0.9997  0.6140
 3222SOL     OW21124   1.441   3.241   3.312 -0.4141  0.3811  0.3539
 3222SOL    HW121125   1.495   3.187   3.369 -0.6589  0.2595  0.4709
 3222SOL    HW221126   1.503   3.296   3.264 -0.7797 -0.2318 -0.8264
 3223SOL     OW21127   3.232   3.877  15.983  0.1453 -0.2318 -0.5236
 3223SOL    HW121128   3.219   3.822  16.060  3.1739 -0.4835 -0.1800
 3223SOL    HW221129   3.319   3.915  15.997 -1.1782  2.8395 -0.6178
 3224SOL     OW21130   0.024   3.990   3.591  0.2647 -0.3198  0.3856
 3224SOL    HW121131   4.684   4.030   3.651  0.5724 -0.6423  0.9206
 3224SOL    HW221132   0.060   3.917   3.641 -0.8681 -1.3805 -0.3555
 3225SOL     OW21133   0.728   3.065   3.223 -0.2608 -0.0201  0.8181
 3225SOL    HW121134   0.804   3.046   3.277 -2.6533  0.3115  4.3068
 3225SOL    HW221135   0.674   2.986   3.227 -1.5908  0.7496 -1.9322
 3226SOL     OW21136   2.928   1.634   0.029 -0.2153 -0.0104 -0.0114
 3226SOL    HW121137   2.892   1.572   0.093 -0.2023  0.3246  0.3241
 3226SOL    HW221138   3.010   1.588   0.013 -0.2597  0.4266 -1.4452
 3227SOL     OW21139   4.390   2.994  14.183  0.4704 -0.2781  0.0307
 3227SOL    HW121140   4.458   3.038  14.233  1.4000  0.4664 -1.9082
 3227SOL    HW221141   4.410   2.903  14.208 -2.3217 -0.5834  1.1838
 3228SOL     OW21142   0.666   0.998   2.799 -0.2991 -0.5604 -0.5843
 3228SOL    HW121143   0.585   0.955   2.771 -2.5746  2.5067  1.3514
 3228SOL    HW221144   0.738   0.948   2.760  0.1802 -0.5810  0.3391
 3229SOL     OW21145   3.783   2.397  12.930 -0.2795 -0.0893  0.3529
 3229SOL    HW121146   3.750   2.383  13.019 -0.8063 -2.5157 -0.2317
 3229SOL    HW221147   3.697   2.431  12.904 -0.6897 -0.5323  1.1471
 3230SOL     OW21148   4.678   3.784  10.336  0.4558  0.5640 -0.1749
 3230SOL    HW121149   4.589   3.818  10.326 -0.7751 -2.0419  2.1257
 3230SOL    HW221150   0.000   3.866  10.353 -3.4587  2.8173 -0.4935
 3231SOL     OW21151   3.984   2.263   9.831  0.5107 -0.2993 -0.3164
 3231SOL    HW121152   4.075   2.277   9.857  0.6442 -1.6111 -0.1157
 3231SOL    HW221153   3.953   2.350   9.857  4.0807  0.4912  1.2039
 3232SOL     OW21154   3.449   3.616   8.686  0.2968  1.0851  0.5116
 3232SOL    HW121155   3.480   3.696   8.728 -0.6299  0.8784  1.6164
 3232SOL    HW221156   3.522   3.555   8.701 -0.3301  0.6068  1.6802
 3233SOL     OW21157   2.811   4.162   7.828  0.0519  0.0461  0.2427
 3233SOL    HW121158   2.826   4.104   7.752  1.0968 -0.1651  0.6079
 3233SOL    HW221159   2.716   4.153   7.826  0.1729 -0.7088 -3.4077
 3234SOL     OW21160   0.267   0.709   1.423  0.1616  0.2917  0.1967
 3234SOL    HW121161   0.270   0.656   1.343  1.7956  1.6487 -0.6449
 3234SOL    HW221162   0.190   0.674   1.467  0.5308  0.0570  0.6539
 3235SOL     OW21163   3.620   2.311   9.726 -0.5798  0.4379  1.0238
 3235SOL    HW121164   3.611   2.400   9.758  0.7217  0.9782 -0.1621
 3235SOL    HW221165   3.534   2.288   9.690  0.5923 -0.8108 -0.9430
 3236SOL     OW21166   2.063   0.182   7.368 -0.5910 -0.2893  0.0720
 3236SOL    HW121167   2.050   0.158   7.276 -0.8361  0.8256 -0.1858
 3236SOL    HW221168   1.971   0.171   7.389 -1.0955  1.1498 -1.3714
 3237SOL     OW21169   4.480   2.576   3.642 -0.1389 -0.5353  0.1618
 3237SOL    HW121170   4.463   2.586   3.549 -0.6456 -1.7961  0.1131
 3237SOL    HW221171   4.413   2.637   3.675  1.7645  0.1622  2.7099
 3238SOL     OW21172   0.610   2.660   4.211 -0.2940  0.5382  0.0537
 3238SOL    HW121173   0.546   2.631   4.145  1.0131  1.6827 -1.7110
 3238SOL    HW221174   0.537   2.686   4.267 -0.0131 -0.6069  0.9562
 3239SOL     OW21175   2.277   1.304   2.248  0.5133 -0.0081  0.2336
 3239SOL    HW121176   2.221   1.280   2.174  1.6042 -0.7648 -0.3556
 3239SOL    HW221177   2.221   1.264   2.314 -1.4406  1.4921 -0.5097
 3240SOL     OW21178   0.016   1.561   3.173 -0.2754  0.0836 -0.3542
 3240SOL    HW121179   0.027   1.624   3.244 -0.9924  0.4712 -0.5867
 3240SOL    HW221180   0.070   1.597   3.103 -1.0948  1.6308 -0.2052
 3241SOL     OW21181   4.625   2.631   6.885  0.0411 -0.6024 -0.5384
 3241SOL    HW121182   4.681   2.579   6.826  0.8697  0.1006 -0.3722
 3241SOL    HW221183   4.614   2.577   6.964  0.4551  0.2290  0.0868
 3242SOL     OW21184   3.208   2.937  16.853  0.0276  0.5112  0.5318
 3242SOL    HW121185   3.283   2.906  16.905  0.1743  0.5238  0.3278
 3242SOL    HW221186   3.169   2.962  16.937  1.3069 -1.2474  1.6585
 3243SOL     OW21187   4.426   1.056   1.652 -0.0801 -0.0708  0.0109
 3243SOL    HW121188   4.398   1.099   1.733  0.3126 -0.8192  0.5343
 3243SOL    HW221189   4.496   1.116   1.625  0.3581 -0.0996  1.0846
 3244SOL     OW21190   1.047   1.949  13.765  0.2558 -0.1016  0.1564
 3244SOL    HW121191   1.024   1.985  13.851  0.7588  0.4621  0.0584
 3244SOL    HW221192   1.133   1.909  13.778  0.0585 -0.5001  0.2438
 3245SOL     OW21193   0.449   3.461   6.600  0.3139  0.6327  0.6324
 3245SOL    HW121194   0.400   3.391   6.555  0.9255  1.1096 -0.7648
 3245SOL    HW221195   0.410   3.442   6.685  0.0690 -1.8545 -0.0390
 3246SOL     OW21196   2.089   4.328   4.546  0.3733 -0.4790  0.4173
 3246SOL    HW121197   2.069   4.289   4.631  0.7304 -1.7587 -0.0761
 3246SOL    HW221198   2.105   4.247   4.498  0.5781  0.4807 -1.1463
 3247SOL     OW21199   4.329   3.670   1.654  0.1414  0.1059  0.1568
 3247SOL    HW121200   4.264   3.697   1.718 -0.0822  1.2796 -0.5776
 3247SOL    HW221201   4.358   3.594   1.705 -0.7287  0.2663  0.8945
 3248SOL     OW21202   0.421   1.257   8.651 -0.4541 -0.2663 -0.2646
 3248SOL    HW121203   0.457   1.244   8.739 -0.3667  1.2600 -0.0798
 3248SOL    HW221204   0.377   1.340   8.669 -1.4078 -0.9177  0.4121
 3249SOL     OW21205   0.725   1.473  12.549 -0.3123 -0.1680  0.8045
 3249SOL    HW121206   0.665   1.404  12.519 -2.6170  1.7537  1.0258
 3249SOL    HW221207   0.750   1.507  12.463 -0.9244 -0.9321  0.3249
 3250SOL     OW21208   2.876   0.756   6.313  0.0259 -0.5547 -0.1483
 3250SOL    HW121209   2.932   0.738   6.237  0.4276 -1.3119  0.3247
 3250SOL    HW221210   2.789   0.739   6.277 -0.8197  0.3968  1.4404
 3251SOL     OW21211   1.723   2.694   9.223  0.0648 -0.4389 -0.0827
 3251SOL    HW121212   1.678   2.711   9.141  2.3818 -0.5236 -1.3737
 3251SOL    HW221213   1.732   2.598   9.226  1.7836 -0.2646  0.1903
 3252SOL     OW21214   0.613   1.264   2.468 -0.2389 -0.4628  0.7147
 3252SOL    HW121215   0.587   1.355   2.460 -1.2309 -0.5177  3.4363
 3252SOL    HW221216   0.551   1.229   2.533 -0.5507  0.0790  0.7039
 3253SOL     OW21217   1.209   1.763   3.887 -0.9746  0.4896  0.1494
 3253SOL    HW121218   1.233   1.800   3.803 -0.2651 -2.7567 -1.1041
 3253SOL    HW221219   1.121   1.731   3.867 -0.1501 -0.3248 -2.1349
 3254SOL     OW21220   0.271   0.117   2.692 -0.0763  0.5784 -0.2422
 3254SOL    HW121221   0.239   0.095   2.605  0.7343 -0.8625 -0.1961
 3254SOL    HW221222   0.333   0.189   2.686  0.1103  0.4637  0.2614
 3255SOL     OW21223   3.662   0.946   7.792  0.1869  0.2378 -0.3938
 3255SOL    HW121224   3.605   0.998   7.849  1.4183  0.2350  0.8497
 3255SOL    HW221225   3.675   0.873   7.853 -1.9530 -1.8258 -2.3477
 3256SOL     OW21226   1.798   1.873   8.058  0.2558 -0.0943 -0.1864
 3256SOL    HW121227   1.793   1.828   7.974  3.0899  0.1664 -0.4854
 3256SOL    HW221228   1.724   1.829   8.099  2.0500 -2.5408  0.4135
 3257SOL     OW21229   2.078   2.525   1.584  0.6806 -0.4037  0.0557
 3257SOL    HW121230   2.020   2.452   1.606  1.4900 -2.1831 -3.7518
 3257SOL    HW221231   2.154   2.511   1.640  1.1761 -1.4149 -0.8595
 3258SOL     OW21232   2.239   1.647   6.696  0.1174  0.0467 -0.2356
 3258SOL    HW121233   2.144   1.636   6.703  0.2249  0.2589  1.4245
 3258SOL    HW221234   2.270   1.563   6.663  1.2417  0.7968 -1.0959
 3259SOL     OW21235   2.342   2.111   5.330  0.4345 -0.0521  0.2406
 3259SOL    HW121236   2.303   2.144   5.411 -0.8263 -1.6635  0.2895
 3259SOL    HW221237   2.402   2.050   5.372 -1.4606 -0.2407  2.6699
 3260SOL     OW21238   1.504   2.250   5.779 -0.4719 -0.5198 -0.2137
 3260SOL    HW121239   1.515   2.160   5.747  0.6924  0.0046 -1.2983
 3260SOL    HW221240   1.426   2.248   5.834  1.6984 -0.1499  2.8270
 3261SOL     OW21241   0.885   3.586  13.603  0.0220  0.5792  0.2596
 3261SOL    HW121242   0.912   3.595  13.512  2.0192  1.2913  0.9297
 3261SOL    HW221243   0.795   3.558  13.584  1.3742 -2.6091 -1.3554
 3262SOL     OW21244   2.453   4.460  17.247  0.4188 -0.4803 -0.5013
 3262SOL    HW121245   2.530   4.517  17.235 -0.0262  0.0039 -1.0615
 3262SOL    HW221246   2.430   4.493  17.334  1.0625 -1.3726  0.0083
 3263SOL     OW21247   2.422   0.836   2.894  0.2237  0.0385  0.2091
 3263SOL    HW121248   2.514   0.818   2.873  0.0209  0.5632 -1.1670
 3263SOL    HW221249   2.420   0.837   2.990 -2.6154  0.8150  0.1440
 3264SOL     OW21250   1.330   0.565  11.188 -0.8460 -0.0884 -0.2683
 3264SOL    HW121251   1.271   0.633  11.218 -0.9502 -1.8209  3.5060
 3264SOL    HW221252   1.317   0.554  11.094 -2.9488  0.3302 -0.0154
 3265SOL     OW21253   2.040   1.983  13.719  0.1395 -0.1544 -0.1929
 3265SOL    HW121254   2.132   1.956  13.710 -0.5334 -1.2131 -4.1608
 3265SOL    HW221255   2.006   1.898  13.694 -1.9293  1.2955 -2.3170
 3266SOL     OW21256   3.643   3.644   8.076  0.6504 -0.6048  0.1549
 3266SOL    HW121257   3.571   3.641   8.140  1.1474  1.4350  0.7878
 3266SOL    HW221258   3.654   3.738   8.064 -3.1236 -0.1439  0.3620
 3267SOL     OW21259   3.680   2.677  13.672 -0.4987  0.1438 -0.3472
 3267SOL    HW121260   3.697   2.647  13.583  0.6131  0.9536 -0.3959
 3267SOL    HW221261   3.601   2.630  13.701  0.1377 -1.4154 -1.1773
 3268SOL     OW21262   2.539   0.683  15.297  0.7369  0.5668  0.0901
 3268SOL    HW121263   2.502   0.616  15.354 -1.1494  1.1829 -0.4004
 3268SOL    HW221264   2.598   0.629  15.245  1.9262  1.1374  0.8467
 3269SOL     OW21265   4.530   1.612   9.813  0.4613  0.0476  0.1745
 3269SOL    HW121266   4.605   1.554   9.797  0.3910  0.3938 -1.4226
 3269SOL    HW221267   4.471   1.550   9.771 -1.2742  0.8020  1.5184
 3270SOL     OW21268   3.308   3.115   6.134 -0.2634  0.2087 -0.6699
 3270SOL    HW121269   3.398   3.086   6.119  0.4387  1.6873  0.5482
 3270SOL    HW221270   3.257   3.038   6.156 -0.7042  0.2986 -1.4043
 3271SOL     OW21271   2.075   1.926   1.912  1.4427  0.1567  0.3011
 3271SOL    HW121272   2.109   1.859   1.853 -0.0060 -0.8722  0.6555
 3271SOL    HW221273   2.152   1.983   1.922 -1.3042  3.7146  1.3229
 3272SOL     OW21274   4.090   3.636  13.643  0.3819 -0.7376 -0.1307
 3272SOL    HW121275   4.119   3.695  13.573 -1.1245  1.9014  1.4705
 3272SOL    HW221276   4.010   3.677  13.676  0.1989 -1.6180  0.5238
 3273SOL     OW21277   1.107   2.744   9.164 -0.1746  0.0356 -0.0658
 3273SOL    HW121278   1.126   2.816   9.226  0.1947  1.5059 -1.8801
 3273SOL    HW221279   1.135   2.775   9.078 -0.1637  1.0448  0.2905
 3274SOL     OW21280   4.505   3.877   1.841  0.2588  0.4008 -0.1980
 3274SOL    HW121281   4.411   3.862   1.847  0.2099  0.0674 -1.7947
 3274SOL    HW221282   4.535   3.880   1.932 -1.7213 -1.0094  0.5012
 3275SOL     OW21283   2.258   3.690   5.227  0.4599  0.1145  0.7877
 3275SOL    HW121284   2.260   3.720   5.136  0.6761 -2.2800  0.0037
 3275SOL    HW221285   2.351   3.684   5.251  1.2543  1.9218 -1.8081
 3276SOL     OW21286   3.097   3.209   4.756 -0.3585  0.0863 -0.3975
 3276SOL    HW121287   3.079   3.151   4.830 -2.1049  0.8704 -0.2110
 3276SOL    HW221288   3.053   3.159   4.687  1.6236 -0.7169 -1.0831
 3277SOL     OW21289   2.474   1.544   2.810 -0.4636 -0.2251  0.0622
 3277SOL    HW121290   2.406   1.610   2.798 -0.9643 -0.9874 -1.2620
 3277SOL    HW221291   2.439   1.471   2.760 -0.3779 -0.5458  0.4696
 3278SOL     OW21292   3.259   3.449   3.442 -0.8915  0.8699 -0.4970
 3278SOL    HW121293   3.186   3.500   3.479  1.0679  2.9432  0.4944
 3278SOL    HW221294   3.333   3.492   3.485 -0.9172 -1.3181  1.7064
 3279SOL     OW21295   3.039   4.093   7.604  0.0050  0.0563 -0.1854
 3279SOL    HW121296   3.077   4.118   7.688  1.5159 -0.3616 -0.7481
 3279SOL    HW221297   3.026   3.998   7.610 -1.4752  0.2785  0.1162
 3280SOL     OW21298   4.216   1.324  13.161 -0.6252  0.7292  0.7152
 3280SOL    HW121299   4.257   1.303  13.077  3.5022  0.6893  2.7638
 3280SOL    HW221300   4.167   1.244  13.180 -1.4296  1.0770  0.0961
 3281SOL     OW21301   1.349   0.638   7.170 -0.4139 -0.5226  0.2946
 3281SOL    HW121302   1.305   0.578   7.231 -1.2411  1.5854  1.7684
 3281SOL    HW221303   1.290   0.713   7.166  2.6560  1.8782  0.1167
 3282SOL     OW21304   1.477   1.028   7.615 -0.4307 -0.0961 -0.0683
 3282SOL    HW121305   1.466   1.016   7.710  1.2764  1.4357  0.3368
 3282SOL    HW221306   1.571   1.016   7.608 -0.4416 -0.8926  1.2007
 3283SOL     OW21307   4.570   3.446  13.057  0.3798 -0.1149 -0.7061
 3283SOL    HW121308   4.527   3.377  13.006  0.1191  0.2886 -1.0293
 3283SOL    HW221309   4.501   3.507  13.030  1.6126  0.1393 -3.2859
 3284SOL     OW21310   4.463   4.049   1.300  0.4244  0.1617 -0.4103
 3284SOL    HW121311   4.546   4.093   1.318  1.2478 -0.7738 -1.9050
 3284SOL    HW221312   4.467   3.984   1.370 -1.4041 -0.7361 -1.1312
 3285SOL     OW21313   3.739   2.804   3.122 -0.4291 -1.0598 -0.5455
 3285SOL    HW121314   3.731   2.794   3.027  0.3664  2.2975 -0.9421
 3285SOL    HW221315   3.825   2.846   3.124 -2.1535  2.2311  2.1037
 3286SOL     OW21316   1.685   2.016   4.795 -0.1350  0.7900 -0.3970
 3286SOL    HW121317   1.604   2.005   4.746 -1.2271  2.1024  1.1237
 3286SOL    HW221318   1.709   1.923   4.793  0.7906  0.9585  2.3093
 3287SOL     OW21319   4.029   2.481  15.968  0.2752 -0.2199 -0.1230
 3287SOL    HW121320   4.098   2.416  15.956  0.3416 -0.5797  2.1410
 3287SOL    HW221321   3.956   2.428  15.938 -0.4090  1.1690 -0.9122
 3288SOL     OW21322   2.368   0.163   2.826 -0.4234  0.3389  0.1179
 3288SOL    HW121323   2.298   0.138   2.765 -0.7535 -0.0752  0.6717
 3288SOL    HW221324   2.415   0.080   2.817  1.4342  1.4569 -0.2932
 3289SOL     OW21325   2.315   2.844   0.641 -0.1148  0.5619  0.1933
 3289SOL    HW121326   2.322   2.762   0.689 -2.0566  0.5572  0.4830
 3289SOL    HW221327   2.302   2.908   0.710  1.4828  0.5466  0.5124
 3290SOL     OW21328   0.266   4.105   0.630  0.5340  0.2281  0.0296
 3290SOL    HW121329   0.270   4.168   0.702  3.0795  2.1368 -1.7770
 3290SOL    HW221330   0.208   4.037   0.664 -2.8321  1.7573 -2.6643
 3291SOL     OW21331   2.958   3.725   7.000  0.0729  0.0277 -0.1287
 3291SOL    HW121332   3.027   3.701   6.937  0.4373  1.7178 -0.3810
 3291SOL    HW221333   2.989   3.673   7.074 -0.8886 -0.9185 -0.3892
 3292SOL     OW21334   0.819   1.336   3.843 -0.0743 -0.0232 -0.3109
 3292SOL    HW121335   0.894   1.288   3.809 -0.0416 -0.1535 -0.0497
 3292SOL    HW221336   0.793   1.378   3.761 -1.9508 -1.4051 -0.4104
 3293SOL     OW21337   3.338   2.270   6.601  0.0947  0.4278  0.1828
 3293SOL    HW121338   3.356   2.190   6.651  0.1781  0.5754  0.3879
 3293SOL    HW221339   3.243   2.269   6.591  0.0874 -0.1157  0.2674
 3294SOL     OW21340   1.848   3.569   7.623 -0.2329  0.3836  0.4604
 3294SOL    HW121341   1.857   3.659   7.594  0.8017 -0.1537 -0.9029
 3294SOL    HW221342   1.937   3.538   7.606  0.1136  2.3188 -1.2366
 3295SOL     OW21343   3.069   2.751   4.187 -0.1583 -0.3461 -0.4598
 3295SOL    HW121344   2.982   2.784   4.212  0.2669  0.6896 -0.3341
 3295SOL    HW221345   3.071   2.819   4.119 -0.9709 -0.5425 -0.6835
 3296SOL     OW21346   4.602   2.930   5.583  0.4239  0.4038 -0.8407
 3296SOL    HW121347   4.512   2.936   5.613  0.7602 -0.5513  0.3901
 3296SOL    HW221348   4.606   3.004   5.523  0.4178  1.2093  0.1737
 3297SOL     OW21349   1.089   0.311   6.062 -0.3293 -0.0156 -0.0272
 3297SOL    HW121350   1.076   0.278   6.151  0.0584  1.9823  0.7783
 3297SOL    HW221351   1.069   0.403   6.079 -1.3903  0.1134 -2.0162
 3298SOL     OW21352   0.872   1.526  14.793 -0.1350 -0.3641 -0.2547
 3298SOL    HW121353   0.963   1.505  14.769 -0.2345  1.0538 -1.8843
 3298SOL    HW221354   0.868   1.461  14.863  1.0479 -1.7124 -1.4386
 3299SOL     OW21355   2.585   3.802   1.190  0.4514 -0.1304  0.6076
 3299SOL    HW121356   2.631   3.817   1.107  0.7187 -1.1668  0.5652
 3299SOL    HW221357   2.551   3.713   1.182 -2.2544  0.8853  0.6767
 3300SOL     OW21358   4.652   4.318  14.378  0.0376  0.2237 -0.1473
 3300SOL    HW121359   4.589   4.384  14.407  0.0820  0.3769 -0.4010
 3300SOL    HW221360   4.596   4.273  14.315  0.6508 -2.4741  1.2348
 3301SOL     OW21361   1.297   1.320  14.561  0.3706 -0.2437  0.0549
 3301SOL    HW121362   1.385   1.358  14.555  0.3242 -0.3309 -1.2682
 3301SOL    HW221363   1.318   1.244  14.615 -1.5390 -0.4844  0.4488
 3302SOL     OW21364   1.350   3.584   3.823  0.3156 -1.3778 -0.8606
 3302SOL    HW121365   1.257   3.601   3.836  0.0414 -1.8571 -2.1696
 3302SOL    HW221366   1.370   3.609   3.733 -1.3372 -0.8435 -1.0798
 3303SOL     OW21367   0.345   4.527   4.976 -0.3380 -0.2429 -0.4532
 3303SOL    HW121368   0.272   4.563   5.026  1.5951  2.5335  0.3725
 3303SOL    HW221369   0.384   4.611   4.952 -1.6785  0.3482 -0.5517
 3304SOL     OW21370   4.185   3.059   6.198  0.3408 -0.7846  0.3073
 3304SOL    HW121371   4.134   3.075   6.278 -0.5824  0.5057 -0.5436
 3304SOL    HW221372   4.174   3.144   6.156  1.8397 -1.3497 -1.2071
 3305SOL     OW21373   2.278   4.657   3.049 -0.6215  0.3298 -0.1916
 3305SOL    HW121374   2.367   4.626   3.066 -1.1595 -1.7739 -1.3378
 3305SOL    HW221375   2.286   4.676   2.956 -1.3977 -0.0594 -0.3355
 3306SOL     OW21376   4.712   1.239   5.717 -0.2066 -0.4316  0.2365
 3306SOL    HW121377   0.038   1.274   5.643 -0.9152 -0.2815 -0.1622
 3306SOL    HW221378   4.693   1.151   5.685  0.2519 -0.1800 -0.7181
 3307SOL     OW21379   1.928   0.952   2.051 -1.0623  0.2027  0.2133
 3307SOL    HW121380   1.911   0.966   1.958  1.3571 -0.0367 -0.2737
 3307SOL    HW221381   1.839   0.942   2.085 -0.8916 -2.0020 -0.0087
 3308SOL     OW21382   2.675   4.036   9.375 -0.6929  0.0241 -0.9565
 3308SOL    HW121383   2.588   4.057   9.341 -1.1693 -1.0850 -0.4088
 3308SOL    HW221384   2.725   4.074   9.303 -0.2169 -0.3849 -0.8384
 3309SOL     OW21385   4.217   1.909   6.049  0.3267  0.4030  0.3581
 3309SOL    HW121386   4.182   1.852   5.980  0.2245  2.0699 -0.9481
 3309SOL    HW221387   4.166   1.987   6.029 -0.1729  0.4781  1.9148
 3310SOL     OW21388   3.049   4.124   3.923 -0.1418  0.7948 -0.0056
 3310SOL    HW121389   3.035   4.168   4.007 -1.5860  1.2249 -0.4641
 3310SOL    HW221390   2.993   4.178   3.868 -2.6567 -0.0339  1.7443
 3311SOL     OW21391   3.996   3.653  12.373 -0.0343  0.4301 -0.0783
 3311SOL    HW121392   4.028   3.716  12.308  1.8980 -1.6027 -1.1043
 3311SOL    HW221393   4.064   3.658  12.440 -0.3128  2.2000  0.0801
 3312SOL     OW21394   4.153   3.830   6.269  0.1271  0.2101 -0.4722
 3312SOL    HW121395   4.099   3.883   6.210  0.8174 -0.1475 -1.4234
 3312SOL    HW221396   4.224   3.895   6.269  1.7289 -1.5530 -2.0022
 3313SOL     OW21397   0.896   0.795   5.515 -0.1783 -0.2096  0.1824
 3313SOL    HW121398   0.968   0.793   5.451  0.5237 -1.4809  0.9934
 3313SOL    HW221399   0.938   0.738   5.580 -0.1603 -0.9386 -0.4666
 3314SOL     OW21400   1.355   3.348   8.430 -0.2019 -0.0951 -0.9781
 3314SOL    HW121401   1.362   3.296   8.351  1.3848 -3.1439  1.1922
 3314SOL    HW221402   1.262   3.370   8.425 -0.5751 -1.2261  0.8946
 3315SOL     OW21403   1.918   1.150   4.136  0.0373 -0.0110  0.4987
 3315SOL    HW121404   1.848   1.092   4.165 -0.3355  0.3649  0.3390
 3315SOL    HW221405   1.926   1.121   4.045 -4.1341 -0.9336  0.4554
 3316SOL     OW21406   2.067   1.781   4.759  0.3362  0.2830 -0.4295
 3316SOL    HW121407   1.991   1.730   4.788  1.2124 -0.7616  0.0302
 3316SOL    HW221408   2.066   1.851   4.823 -2.3110  0.3543 -0.5664
 3317SOL     OW21409   0.472   0.455  14.649 -0.4249  0.6308 -0.3430
 3317SOL    HW121410   0.436   0.367  14.657 -0.5830  0.6969 -0.3187
 3317SOL    HW221411   0.516   0.465  14.733 -1.5783  3.2719 -0.0411
 3318SOL     OW21412   1.741   4.483   9.895  0.6136 -0.0432  0.3444
 3318SOL    HW121413   1.827   4.522   9.908  0.8782 -0.7917  0.8307
 3318SOL    HW221414   1.733   4.474   9.800  0.3972  4.3006 -0.0251
 3319SOL     OW21415   2.414   2.496   7.805 -0.2722 -0.0911 -0.1601
 3319SOL    HW121416   2.430   2.464   7.894 -2.3934 -1.6683 -0.3302
 3319SOL    HW221417   2.318   2.499   7.812 -0.1763  1.9313  0.3354
 3320SOL     OW21418   1.808   1.146  16.775  0.0534  0.3978 -0.2077
 3320SOL    HW121419   1.746   1.192  16.832 -0.0937  1.6162 -1.3380
 3320SOL    HW221420   1.823   1.200  16.697  0.9018  0.7429  0.1931
 3321SOL     OW21421   0.044   0.866  14.924 -0.3338 -0.3922 -0.1831
 3321SOL    HW121422   4.677   0.856  14.893 -0.0009 -1.8943 -0.7146
 3321SOL    HW221423   0.088   0.883  14.840 -0.9033  0.8868 -0.2092
 3322SOL     OW21424   3.369   2.280   8.128  0.5007  0.3077 -0.1590
 3322SOL    HW121425   3.394   2.315   8.043  0.9493  0.6067  0.0968
 3322SOL    HW221426   3.427   2.330   8.185 -0.8103 -0.2209  1.6432
 3323SOL     OW21427   2.671   1.223   4.836  0.3526  0.3508  0.3947
 3323SOL    HW121428   2.647   1.228   4.928 -1.8104  0.6087 -0.1805
 3323SOL    HW221429   2.618   1.149   4.806  0.9117 -0.7114  2.0528
 3324SOL     OW21430   0.166   4.146  14.195  0.0105 -0.1853  0.1164
 3324SOL    HW121431   0.093   4.086  14.181 -1.3143  1.5179 -0.4287
 3324SOL    HW221432   0.189   4.156  14.102  0.2520  1.3147  0.3363
 3325SOL     OW21433   4.595   2.647   8.695  0.0573 -0.1269  0.3910
 3325SOL    HW121434   4.595   2.707   8.770  1.3651  1.2258 -0.7080
 3325SOL    HW221435   4.515   2.601   8.722 -1.7474  2.9204  0.2181
 3326SOL     OW21436   2.917   4.158   8.983 -0.3875  0.2345 -0.2788
 3326SOL    HW121437   3.012   4.163   8.979 -0.4523  1.2977 -0.4403
 3326SOL    HW221438   2.906   4.064   8.972 -0.2858  0.3390 -1.2167
 3327SOL     OW21439   3.207   3.714  16.214  0.1196  0.1820  0.0120
 3327SOL    HW121440   3.121   3.755  16.212 -1.0745 -2.3191  0.4417
 3327SOL    HW221441   3.230   3.734  16.305  1.0685 -0.7947 -0.0016
 3328SOL     OW21442   3.877   0.319  11.983 -0.0687  0.0171 -0.3209
 3328SOL    HW121443   3.847   0.349  11.898  0.4041  1.1743 -0.0833
 3328SOL    HW221444   3.806   0.268  12.023 -1.6938  2.7150  0.2033
 3329SOL     OW21445   0.206   1.571   7.930 -0.2876 -0.4209 -0.1499
 3329SOL    HW121446   0.168   1.628   7.863  0.0207  0.0845  0.1003
 3329SOL    HW221447   0.210   1.485   7.888  2.5346 -1.4761  2.2544
 3330SOL     OW21448   2.077   3.545   6.479  0.4826 -0.4248 -0.4112
 3330SOL    HW121449   2.015   3.618   6.470  2.2755  1.5025  3.1980
 3330SOL    HW221450   2.047   3.490   6.406 -1.5356  0.2852 -0.1287
 3331SOL     OW21451   3.953   2.313  15.117 -0.2707  0.3138  0.1846
 3331SOL    HW121452   3.972   2.398  15.078 -0.0539 -0.0858 -0.5956
 3331SOL    HW221453   3.940   2.262  15.036  1.1273 -0.8400  0.6889
 3332SOL     OW21454   3.746   2.416   6.966 -0.1494 -0.3935  0.4045
 3332SOL    HW121455   3.657   2.446   6.946  0.6241  0.7346 -1.3307
 3332SOL    HW221456   3.722   2.346   7.027  1.8113 -1.9919 -0.6421
 3333SOL     OW21457   0.830   0.442   2.209 -0.4212 -0.1727  0.4461
 3333SOL    HW121458   0.876   0.455   2.126  1.6347 -0.1586  1.5888
 3333SOL    HW221459   0.758   0.504   2.202  1.2210  1.8914  1.5786
 3334SOL     OW21460   2.709   4.020   2.835  0.5702 -0.9644  0.8942
 3334SOL    HW121461   2.776   3.953   2.846  2.8804  0.8969 -1.6876
 3334SOL    HW221462   2.731   4.077   2.909 -2.2438  0.1696  0.8413
 3335SOL     OW21463   4.033   4.114   2.580 -0.0720 -0.3997 -0.0929
 3335SOL    HW121464   3.969   4.109   2.651 -1.7505  1.8127 -1.4548
 3335SOL    HW221465   4.102   4.050   2.600 -0.4891 -0.4706  1.0904
 3336SOL     OW21466   4.240   1.978   2.838  0.4220  0.3229 -0.0712
 3336SOL    HW121467   4.222   2.055   2.783  0.7920 -0.5383 -1.4056
 3336SOL    HW221468   4.226   1.912   2.769 -3.1586  1.3997 -0.3654
 3337SOL     OW21469   2.507   4.588   7.043 -0.2553  0.3147  0.0419
 3337SOL    HW121470   2.458   4.524   6.992  3.2953 -1.5032 -1.0681
 3337SOL    HW221471   2.442   4.652   7.072 -2.1677 -0.7198 -2.0067
 3338SOL     OW21472   1.452   3.077   1.255  0.0239 -0.2018  0.0988
 3338SOL    HW121473   1.530   3.118   1.218  0.6173 -0.0735  1.4959
 3338SOL    HW221474   1.441   3.000   1.199  3.0994 -0.2549 -0.4081
 3339SOL     OW21475   1.413   0.955   7.879  0.0576 -0.0910 -0.3986
 3339SOL    HW121476   1.451   0.870   7.901 -0.1772  0.1702  1.0007
 3339SOL    HW221477   1.454   1.002   7.952 -0.2799  0.4388 -0.5523
 3340SOL     OW21478   2.998   0.848  17.139 -0.0622  0.1516 -0.4547
 3340SOL    HW121479   3.087   0.882  17.136  0.7696 -1.9271  0.8020
 3340SOL    HW221480   2.963   0.923  17.187 -2.6496 -1.5831  0.3441
 3341SOL     OW21481   4.720   2.175  12.241  0.3015 -0.4731  0.1184
 3341SOL    HW121482   4.677   2.258  12.263  1.3099  0.4605 -1.4408
 3341SOL    HW221483   0.070   2.215  12.194 -0.4621  1.7468  0.8166
 3342SOL     OW21484   0.740   1.550  15.056  0.3614 -0.1513  0.6966
 3342SOL    HW121485   0.646   1.537  15.045  0.6040 -1.2071 -0.1487
 3342SOL    HW221486   0.777   1.462  15.051  1.7832  0.4132  1.4485
 3343SOL     OW21487   0.089   4.638   4.017 -0.1289  0.1215 -0.1228
 3343SOL    HW121488   0.030   4.650   4.091 -0.0341  1.6011 -0.2727
 3343SOL    HW221489   0.058   4.558   3.976  0.0237  0.1421 -0.2832
 3344SOL     OW21490   1.759   0.539   3.279  0.6559  0.1821  0.3759
 3344SOL    HW121491   1.681   0.507   3.323 -0.3535  2.0915 -0.0105
 3344SOL    HW221492   1.807   0.555   3.360  0.4414  1.1317  0.3189
 3345SOL     OW21493   2.482   1.447  17.490  0.1665 -0.6440 -0.3189
 3345SOL    HW121494   2.390   1.425  17.501  0.0657  0.9887  2.1184
 3345SOL    HW221495   2.487   1.469  17.397  1.1014 -2.3967 -0.6725
 3346SOL     OW21496   1.958   3.824  12.969  0.4873 -0.2782 -0.2753
 3346SOL    HW121497   1.884   3.830  12.908 -0.3636  1.5062  0.9083
 3346SOL    HW221498   2.032   3.839  12.911  1.1055 -0.4470  0.4763
 3347SOL     OW21499   0.903   2.420   7.779 -0.4504  0.2300 -0.6859
 3347SOL    HW121500   0.855   2.462   7.850  1.7844 -0.9935  1.5873
 3347SOL    HW221501   0.954   2.351   7.821 -0.9039  1.3093  1.6332
 3348SOL     OW21502   4.190   2.792   8.422  0.0837 -0.1178 -0.3707
 3348SOL    HW121503   4.138   2.809   8.500 -2.0944  1.5615 -2.1938
 3348SOL    HW221504   4.126   2.807   8.353 -1.1648  0.6758  0.9626
 3349SOL     OW21505   1.281   4.676   2.490 -0.2452  0.0868  0.5925
 3349SOL    HW121506   1.301   4.681   2.397  0.2745  0.1161  0.7092
 3349SOL    HW221507   1.203   0.009   2.502 -0.8551 -0.3128 -1.5215
 3350SOL     OW21508   0.439   0.543   8.060  0.1720 -0.0496  0.5172
 3350SOL    HW121509   0.433   0.523   7.967 -0.2252 -0.7450  0.6915
 3350SOL    HW221510   0.535   0.543   8.065  0.1796  0.1335  0.3612
 3351SOL     OW21511   4.302   2.507  16.292 -0.0806  0.2367 -0.2210
 3351SOL    HW121512   4.354   2.448  16.237 -1.9086 -0.9521 -0.6660
 3351SOL    HW221513   4.257   2.560  16.226 -1.1132  0.9688  1.0655
 3352SOL     OW21514   1.062   0.981  15.630 -0.2526  0.3706 -0.1062
 3352SOL    HW121515   1.098   0.893  15.617  0.0295  0.6507 -1.2489
 3352SOL    HW221516   1.023   0.987  15.717 -2.6452 -2.3233 -1.0034
 3353SOL     OW21517   0.242   0.967   1.496 -0.5179  0.1045 -0.2112
 3353SOL    HW121518   0.255   0.877   1.464  0.3113 -0.0783  0.6197
 3353SOL    HW221519   0.315   0.973   1.557 -0.5111 -1.8754 -0.0185
 3354SOL     OW21520   3.965   3.026   5.245  0.3562  0.1158  0.3000
 3354SOL    HW121521   3.973   3.036   5.151  3.2437  1.5295  0.7060
 3354SOL    HW221522   3.878   2.986   5.255  0.1894  0.4550  0.1730
 3355SOL     OW21523   1.332   0.633   7.938 -0.7988 -0.2659 -0.2712
 3355SOL    HW121524   1.422   0.665   7.940 -1.3408  1.4862 -4.9151
 3355SOL    HW221525   1.323   0.608   8.030  1.1860  0.8368  0.2283
 3356SOL     OW21526   0.848   4.539  11.621  0.1436 -0.5675  0.4260
 3356SOL    HW121527   0.767   4.504  11.585  0.3745 -0.5480 -0.1113
 3356SOL    HW221528   0.912   4.519  11.552 -0.4143  1.7626 -0.7988
 3357SOL     OW21529   0.657   3.723   8.434  0.6347  0.0740 -0.5556
 3357SOL    HW121530   0.612   3.796   8.391  0.8747  0.4547 -0.1668
 3357SOL    HW221531   0.592   3.691   8.496  0.2901  3.0654  0.6313
 3358SOL     OW21532   3.576   2.925  11.779 -0.2680 -0.1265 -0.2859
 3358SOL    HW121533   3.565   2.894  11.869 -0.8393 -1.1268 -0.6987
 3358SOL    HW221534   3.485   2.912  11.750 -0.1634 -0.3235 -0.5260
 3359SOL     OW21535   2.820   2.478   2.288  0.3707  0.3585  0.2427
 3359SOL    HW121536   2.873   2.411   2.332  0.1499 -0.6696 -1.0519
 3359SOL    HW221537   2.735   2.440   2.310  0.0608 -0.2603 -2.0564
 3360SOL     OW21538   1.139   4.069   3.063 -0.6084  0.1242 -0.2650
 3360SOL    HW121539   1.199   4.008   3.021  0.5625  1.1364 -0.0607
 3360SOL    HW221540   1.132   4.012   3.140  0.9461 -1.3071 -1.1850
 3361SOL     OW21541   3.167   1.324  11.711 -0.3342  0.2838  0.1205
 3361SOL    HW121542   3.097   1.389  11.712  0.4544  1.1125  1.2286
 3361SOL    HW221543   3.146   1.289  11.624 -3.8055 -2.1637  1.9842
 3362SOL     OW21544   4.219   2.276   4.047  0.2419  0.0733 -0.3037
 3362SOL    HW121545   4.170   2.358   4.034 -1.4209 -1.0886 -1.2925
 3362SOL    HW221546   4.156   2.208   4.024 -1.1328  1.6340 -1.1989
 3363SOL     OW21547   0.236   4.231   6.005  0.0349  0.0563 -0.0966
 3363SOL    HW121548   0.149   4.207   6.034  0.4426  1.4496  2.2537
 3363SOL    HW221549   0.250   4.307   6.062 -1.6519  0.1208  0.2309
 3364SOL     OW21550   1.357   0.240   5.628 -0.4036  0.0864 -0.0271
 3364SOL    HW121551   1.350   0.147   5.603  0.5372 -0.9100  3.5217
 3364SOL    HW221552   1.338   0.219   5.719  2.0927 -3.0579 -0.2317
 3365SOL     OW21553   0.893   0.458  11.112 -0.4048  0.1805  0.2134
 3365SOL    HW121554   0.968   0.440  11.168  0.6971 -1.0298 -1.6446
 3365SOL    HW221555   0.932   0.517  11.047 -1.4942  0.3420 -0.3030
 3366SOL     OW21556   0.868   0.371   6.998  0.4775  0.3693 -0.0406
 3366SOL    HW121557   0.789   0.384   7.050 -2.4580 -1.5679 -4.0840
 3366SOL    HW221558   0.905   0.459   7.012 -0.4276  0.6456  0.5908
 3367SOL     OW21559   3.447   3.599   1.057  0.1560  0.6128 -0.5601
 3367SOL    HW121560   3.363   3.555   1.047  1.0423 -1.0486 -0.6790
 3367SOL    HW221561   3.422   3.687   1.032 -0.7608  0.3467 -0.5585
 3368SOL     OW21562   2.870   3.869   4.621 -0.4148 -0.7388  0.4299
 3368SOL    HW121563   2.833   3.934   4.680 -0.6118 -0.6859  0.2495
 3368SOL    HW221564   2.886   3.919   4.541  0.6335 -3.0706 -0.8450
 3369SOL     OW21565   3.968   3.188   7.422 -0.3026 -0.1726  0.7445
 3369SOL    HW121566   3.930   3.133   7.490  0.7567 -2.1991 -0.3154
 3369SOL    HW221567   4.035   3.140   7.374 -0.2453  1.0025 -0.3597
 3370SOL     OW21568   4.541   2.221  15.592 -0.5509 -0.1459  0.1261
 3370SOL    HW121569   4.534   2.186  15.503  0.2544  0.9347 -0.3629
 3370SOL    HW221570   4.544   2.136  15.637 -2.2471 -0.2332  0.0474
 3371SOL     OW21571   2.355   2.454   1.732  0.0737 -0.4114 -0.5790
 3371SOL    HW121572   2.384   2.496   1.813 -1.1538 -0.1220 -0.2870
 3371SOL    HW221573   2.346   2.367   1.772  1.5693 -0.5035 -0.4711
 3372SOL     OW21574   3.641   1.340  16.458  0.2192 -0.1121 -0.1228
 3372SOL    HW121575   3.704   1.268  16.457 -0.3396 -0.5982 -0.3705
 3372SOL    HW221576   3.565   1.310  16.409  0.6176  0.4664 -1.1059
 3373SOL     OW21577   2.591   2.661   2.973 -0.3497  0.7536  0.0384
 3373SOL    HW121578   2.664   2.602   2.991  0.6261  1.1617 -2.6542
 3373SOL    HW221579   2.609   2.697   2.887  0.4529  1.1994  0.3946
 3374SOL     OW21580   2.043   3.147  14.745 -0.0593  0.0441  0.1332
 3374SOL    HW121581   2.063   3.142  14.838  0.2334 -1.3441  0.0034
 3374SOL    HW221582   1.965   3.092  14.730  0.7526 -0.3666 -2.7262
 3375SOL     OW21583   0.328   1.164   4.744  0.5202 -0.0126  0.5299
 3375SOL    HW121584   0.376   1.247   4.751  1.3466 -0.3371 -1.2814
 3375SOL    HW221585   0.379   1.120   4.677 -2.1748 -0.7391 -1.0292
 3376SOL     OW21586   2.681   2.709   7.929  0.7074  0.3493  0.0312
 3376SOL    HW121587   2.670   2.799   7.900  1.8907  0.7690  0.8926
 3376SOL    HW221588   2.721   2.667   7.853 -0.1594  0.2614 -0.3765
 3377SOL     OW21589   0.112   3.293   4.822 -0.4250 -0.3092 -0.2022
 3377SOL    HW121590   0.125   3.260   4.911  1.3067 -1.1029 -0.7341
 3377SOL    HW221591   0.036   3.346   4.845 -0.1001  0.5691 -1.1394
 3378SOL     OW21592   1.574   4.687  14.627  0.5935  0.0387  0.4943
 3378SOL    HW121593   1.547   0.056  14.623 -3.0897 -1.0881 -0.8052
 3378SOL    HW221594   1.637   4.683  14.555 -0.1118 -1.9497 -0.0004
 3379SOL     OW21595   4.708   4.689  14.634  0.1489  0.0136 -0.4841
 3379SOL    HW121596   4.723   4.598  14.659  0.2098 -0.0830 -0.8669
 3379SOL    HW221597   0.034   4.681  14.552 -1.7068 -0.7774 -1.5119
 3380SOL     OW21598   4.279   2.915   3.114  0.2490 -0.1449 -0.6101
 3380SOL    HW121599   4.248   2.825   3.103 -0.2705  0.0914 -1.1133
 3380SOL    HW221600   4.345   2.914   3.045 -0.1485  0.7444 -1.0054
 3381SOL     OW21601   0.662   0.793  14.342 -0.3877  0.2271 -0.6857
 3381SOL    HW121602   0.708   0.761  14.264 -0.9854 -0.7039 -0.6539
 3381SOL    HW221603   0.582   0.822  14.299  0.7038 -0.8881 -3.4574
 3382SOL     OW21604   3.086   2.005  16.865  0.9388 -0.3138  0.0355
 3382SOL    HW121605   3.125   2.070  16.924 -1.2066  0.2303  0.8601
 3382SOL    HW221606   3.092   1.929  16.923  1.7275 -1.5765 -1.6801
 3383SOL     OW21607   4.247   1.799   2.553  0.3402  0.2460  0.3976
 3383SOL    HW121608   4.334   1.770   2.525 -0.0307 -1.9138  1.4650
 3383SOL    HW221609   4.226   1.872   2.495  2.1092 -0.7062 -1.4411
 3384SOL     OW21610   0.006   4.606   4.288 -0.4174  0.6925  0.3348
 3384SOL    HW121611   4.678   4.530   4.317 -0.2871  0.6398  0.4268
 3384SOL    HW221612   0.073   4.607   4.356 -2.0740 -0.4336  1.9802
 3385SOL     OW21613   3.656   0.678   3.998  0.3949  0.4086  0.4455
 3385SOL    HW121614   3.585   0.705   3.940  1.7402 -0.3595 -1.5305
 3385SOL    HW221615   3.741   0.714   3.971  1.6238 -2.2298  0.8182
 3386SOL     OW21616   2.997   3.588  10.355 -0.0985 -0.0025  0.4228
 3386SOL    HW121617   3.037   3.562  10.273  2.3166 -3.0236  2.5735
 3386SOL    HW221618   3.001   3.683  10.358  1.4333 -0.1005  1.4410
 3387SOL     OW21619   1.537   4.339   2.327 -0.1254  0.1341 -0.3632
 3387SOL    HW121620   1.573   4.250   2.332 -1.9140 -0.5280  1.0897
 3387SOL    HW221621   1.573   4.371   2.245 -1.7713 -2.6151 -2.1456
 3388SOL     OW21622   3.187   3.100   7.157 -0.1796 -0.0642  0.0246
 3388SOL    HW121623   3.237   3.023   7.186  0.9078  0.8869  0.6993
 3388SOL    HW221624   3.112   3.106   7.217  1.3852 -2.0193  2.1664
 3389SOL     OW21625   1.960   3.853   8.061  0.0396  0.1312  0.1919
 3389SOL    HW121626   2.040   3.890   8.023 -0.4259  1.5244  0.5869
 3389SOL    HW221627   1.901   3.911   8.014  0.1849  0.6794  0.6794
 3390SOL     OW21628   4.498   2.286   4.129 -0.2275  0.1092  0.4113
 3390SOL    HW121629   4.416   2.321   4.094 -0.9606 -0.8862  1.1337
 3390SOL    HW221630   4.505   2.335   4.211 -1.0360  1.4838 -0.3491
 3391SOL     OW21631   2.340   1.543   7.546  0.7346 -0.1525 -0.3125
 3391SOL    HW121632   2.315   1.517   7.635  2.6845  0.0299  0.2786
 3391SOL    HW221633   2.416   1.597   7.565  0.8253 -0.8518  1.3820
 3392SOL     OW21634   0.010   1.346   5.442  0.3460  0.1683  0.5315
 3392SOL    HW121635   0.084   1.392   5.403 -1.6241  2.7614 -0.2415
 3392SOL    HW221636   0.019   1.258   5.408  1.2948 -0.0437  1.3488
 3393SOL     OW21637   1.386   3.945   3.012  0.1470 -0.0023 -0.0778
 3393SOL    HW121638   1.415   3.983   2.929  2.1341 -0.8256  0.2325
 3393SOL    HW221639   1.447   3.872   3.025 -1.5557 -1.8396 -2.4516
 3394SOL     OW21640   2.863   1.316   8.302 -0.4526  0.0700 -0.0008
 3394SOL    HW121641   2.791   1.354   8.252  0.0225  0.9007 -0.0496
 3394SOL    HW221642   2.813   1.265   8.365 -0.5365 -0.3823 -0.4372
 3395SOL     OW21643   2.089   1.037   6.720  0.2379 -0.2680 -0.2933
 3395SOL    HW121644   2.023   0.968   6.723  0.9570 -0.7650  3.4150
 3395SOL    HW221645   2.148   1.007   6.789 -0.5620 -2.3152 -0.4998
 3396SOL     OW21646   3.462   0.155   7.042  0.0531 -0.0699  0.0740
 3396SOL    HW121647   3.379   0.108   7.041 -0.7067  1.3044 -0.3461
 3396SOL    HW221648   3.472   0.180   6.950 -0.4493  2.4227  0.7133
 3397SOL     OW21649   1.928   3.039  12.245  0.0440  0.6542  0.1083
 3397SOL    HW121650   2.006   3.007  12.290  0.3604  0.6123 -0.4814
 3397SOL    HW221651   1.905   3.112  12.302  2.5324  0.7934  0.9348
 3398SOL     OW21652   4.212   3.433   4.618 -0.4887  0.2241 -0.0199
 3398SOL    HW121653   4.268   3.504   4.584  2.4068 -2.6728 -1.3395
 3398SOL    HW221654   4.257   3.357   4.583 -0.5720 -0.0098  0.3869
 3399SOL     OW21655   2.407   4.044  17.353  0.3147 -0.1403  0.0622
 3399SOL    HW121656   2.422   4.087  17.268 -1.8318 -0.6241 -0.5777
 3399SOL    HW221657   2.312   4.031  17.350  0.0665  1.3307  2.1023
 3400SOL     OW21658   0.467   0.564   9.007  0.1628  0.1007  0.0892
 3400SOL    HW121659   0.402   0.567   8.936 -1.9218  1.9012  2.1083
 3400SOL    HW221660   0.401   0.542   9.073 -2.5461  0.8777 -2.3534
 3401SOL     OW21661   1.094   1.278  17.025  0.0997  0.1807 -0.5030
 3401SOL    HW121662   1.175   1.272  16.974 -0.6997 -0.1309 -1.7306
 3401SOL    HW221663   1.081   1.373  17.019 -0.5895 -0.0069 -2.0231
 3402SOL     OW21664   3.474   3.441  12.802 -0.2058 -0.2224  0.3058
 3402SOL    HW121665   3.556   3.491  12.802 -0.6603  0.5118 -2.4015
 3402SOL    HW221666   3.420   3.474  12.874 -1.5761  0.8919 -1.2309
 3403SOL     OW21667   3.531   2.241  16.926 -0.0992  0.2989  0.6527
 3403SOL    HW121668   3.564   2.155  16.900 -0.0492  0.9211 -1.3221
 3403SOL    HW221669   3.510   2.230  17.019  1.3985 -1.3818  0.7868
 3404SOL     OW21670   0.408   0.398  16.162 -0.6279 -0.0961  0.5801
 3404SOL    HW121671   0.426   0.315  16.206  2.7800  1.6499  2.4525
 3404SOL    HW221672   0.333   0.369  16.109  0.4442 -1.1297 -0.3519
 3405SOL     OW21673   0.100   1.263   5.959  0.1202 -0.2681 -0.5855
 3405SOL    HW121674   0.056   1.265   5.874 -0.4790 -2.9911 -0.3559
 3405SOL    HW221675   0.024   1.283   6.012  1.3176 -0.7800  1.3284
 3406SOL     OW21676   0.162   0.095   7.165  0.0529 -0.4226  0.3484
 3406SOL    HW121677   0.231   0.124   7.224 -0.5987 -0.3161  1.0619
 3406SOL    HW221678   0.089   0.082   7.226 -1.0715  3.7618 -0.1563
 3407SOL     OW21679   4.512   1.913  10.852  0.7324 -0.1837  0.2238
 3407SOL    HW121680   4.585   1.939  10.909  2.3941 -0.7378 -1.6492
 3407SOL    HW221681   4.537   1.824  10.827  0.0078  0.1685 -1.6930
 3408SOL     OW21682   4.088   2.479   6.274  0.2191  0.2683  0.1737
 3408SOL    HW121683   4.181   2.490   6.291  0.2171  0.2511  0.1967
 3408SOL    HW221684   4.085   2.441   6.186  2.0017  1.5376 -0.4179
 3409SOL     OW21685   0.538   0.324   0.235 -0.3054 -0.7724 -0.0430
 3409SOL    HW121686   0.579   0.411   0.240  0.2969 -1.1093  0.9213
 3409SOL    HW221687   0.460   0.347   0.185  0.2529  0.7897 -0.2034
 3410SOL     OW21688   4.164   0.587   5.849  0.0626 -0.0246  0.0400
 3410SOL    HW121689   4.242   0.601   5.795 -0.0724  1.5051  0.2414
 3410SOL    HW221690   4.094   0.579   5.784  0.2283 -5.8474  0.6052
 3411SOL     OW21691   2.773   3.783   1.955  0.4711  0.0143  0.3153
 3411SOL    HW121692   2.684   3.800   1.985  0.8731  1.8660  0.4165
 3411SOL    HW221693   2.812   3.835   2.026 -0.7238  0.6811  0.4914
 3412SOL     OW21694   3.538   2.622   7.420  0.8399  0.2071  0.2435
 3412SOL    HW121695   3.607   2.685   7.439  0.1618  0.8826  0.4206
 3412SOL    HW221696   3.468   2.662   7.471 -1.1621 -0.5665 -1.9213
 3413SOL     OW21697   1.671   0.633   9.698 -0.6989 -0.3701 -0.4331
 3413SOL    HW121698   1.634   0.711   9.655  0.7554  1.8471  2.3928
 3413SOL    HW221699   1.629   0.652   9.781 -0.5804  1.1137 -0.7147
 3414SOL     OW21700   4.245   4.134   9.198 -0.4573  0.4237  0.2349
 3414SOL    HW121701   4.310   4.098   9.259  0.6543  0.8105 -0.7242
 3414SOL    HW221702   4.216   4.212   9.245 -0.7582 -0.3244  1.2965
 3415SOL     OW21703   3.020   2.158  12.409 -0.1940  0.2679 -0.0780
 3415SOL    HW121704   3.085   2.217  12.446  0.3393 -1.8309  2.3151
 3415SOL    HW221705   3.041   2.086  12.468  1.0568  1.4395  0.9154
 3416SOL     OW21706   1.283   1.368   3.622 -0.0279 -0.1863  0.2172
 3416SOL    HW121707   1.348   1.334   3.684 -0.7176  0.6461  1.3782
 3416SOL    HW221708   1.344   1.429   3.580  1.6813 -0.8747  1.6785
 3417SOL     OW21709   4.139   1.545  13.787 -0.1263  0.3780 -0.4739
 3417SOL    HW121710   4.164   1.630  13.752  1.5095 -0.7028 -1.9152
 3417SOL    HW221711   4.093   1.523  13.705 -3.2417 -1.5490  1.8131
 3418SOL     OW21712   0.726   4.004   6.143 -0.0879  0.7465 -0.4244
 3418SOL    HW121713   0.747   3.925   6.193  3.2072  2.2221  0.5066
 3418SOL    HW221714   0.632   4.024   6.142  0.0593  1.4394  0.6883
 3419SOL     OW21715   3.574   2.388   6.489 -0.0306  0.1158 -0.6964
 3419SOL    HW121716   3.499   2.357   6.439  0.5675 -2.2794 -0.1175
 3419SOL    HW221717   3.587   2.315   6.548  1.3709  0.4881 -0.5402
 3420SOL     OW21718   0.839   4.487   5.121  0.0400 -0.4338  0.1250
 3420SOL    HW121719   0.758   4.473   5.072  0.8584 -1.7082 -0.8617
 3420SOL    HW221720   0.833   4.436   5.201 -1.9697 -0.4119 -0.0026
 3421SOL     OW21721   0.533   3.526  10.911 -0.5190 -0.1585 -0.4248
 3421SOL    HW121722   0.533   3.621  10.897  0.1742 -0.0930 -0.0207
 3421SOL    HW221723   0.535   3.525  11.007 -1.1573  4.7605 -0.3456
 3422SOL     OW21724   0.912   2.029   4.314  0.8990  0.6075 -0.6370
 3422SOL    HW121725   0.906   2.111   4.265 -2.1579 -0.3303 -1.8116
 3422SOL    HW221726   0.964   1.980   4.249 -0.2059 -0.7834 -0.4877
 3423SOL     OW21727   2.626   0.612   7.132 -0.4683 -0.1896  0.5186
 3423SOL    HW121728   2.568   0.569   7.195  0.4418  0.1410  1.5790
 3423SOL    HW221729   2.563   0.615   7.060  1.9250  1.9594 -1.4641
 3424SOL     OW21730   4.181   2.662   7.581 -0.5348 -0.0442 -0.1639
 3424SOL    HW121731   4.116   2.611   7.532 -0.2260 -0.0686 -0.5522
 3424SOL    HW221732   4.261   2.611   7.569  0.4472  0.5360  4.0419
 3425SOL     OW21733   2.360   2.201   5.951 -0.6748  0.0638  0.6124
 3425SOL    HW121734   2.276   2.243   5.929 -0.9508 -0.4509  0.6929
 3425SOL    HW221735   2.335   2.110   5.936 -0.5308  0.2300 -0.6875
 3426SOL     OW21736   0.756   1.475  11.054  0.4522 -0.7096  0.1845
 3426SOL    HW121737   0.816   1.451  11.125 -0.3155 -2.1595  0.3373
 3426SOL    HW221738   0.711   1.395  11.027 -1.5651  0.5317 -0.0922
 3427SOL     OW21739   4.201   1.857   4.056  0.2699 -0.0380  0.6056
 3427SOL    HW121740   4.191   1.812   4.140  1.2593  3.5805  2.6840
 3427SOL    HW221741   4.278   1.819   4.013 -1.2800 -0.6580 -1.6062
 3428SOL     OW21742   2.233   0.377  13.275  0.4130  0.0691  0.2468
 3428SOL    HW121743   2.305   0.437  13.259 -0.6210  1.2169 -0.1660
 3428SOL    HW221744   2.166   0.441  13.299  1.4178  0.7672  1.1830
 3429SOL     OW21745   1.243   0.755  13.869 -0.2199 -0.2355  0.2525
 3429SOL    HW121746   1.215   0.693  13.802 -1.5979  0.2741  0.3524
 3429SOL    HW221747   1.310   0.802  13.818 -0.7593  1.4323  1.0882
 3430SOL     OW21748   0.980   4.254   4.487 -0.5239 -0.7437 -0.3296
 3430SOL    HW121749   0.993   4.347   4.503 -1.4185 -0.6591 -0.0648
 3430SOL    HW221750   0.885   4.242   4.496 -0.9055  4.2260  2.0077
 3431SOL     OW21751   0.050   1.825  15.570  0.1791  0.4569  0.8475
 3431SOL    HW121752   0.074   1.917  15.576  0.8608  0.4700 -1.9522
 3431SOL    HW221753   0.115   1.780  15.624  1.4829  1.7340  0.3169
 3432SOL     OW21754   1.179   1.116   6.394  0.1893  0.8183  0.7358
 3432SOL    HW121755   1.087   1.109   6.419 -0.2160  3.6695  0.1015
 3432SOL    HW221756   1.183   1.098   6.301 -1.6803  1.8105  0.4602
 3433SOL     OW21757   1.000   0.114   6.844  0.0954 -0.4452  0.1139
 3433SOL    HW121758   1.062   0.098   6.915  0.1024  1.4431  0.5230
 3433SOL    HW221759   0.950   0.187   6.881 -2.2905 -1.5736 -0.8771
 3434SOL     OW21760   3.891   0.171  11.431 -0.5024 -0.1118 -0.4320
 3434SOL    HW121761   3.955   0.145  11.365  2.5414  4.2305  0.7200
 3434SOL    HW221762   3.837   0.093  11.432  0.5819 -0.8114  3.2608
 3435SOL     OW21763   2.915   0.971   8.869 -0.3691 -0.4185  0.0023
 3435SOL    HW121764   2.904   1.053   8.918  1.1475  0.1921 -0.6692
 3435SOL    HW221765   2.979   0.934   8.929  0.4168  0.6262 -0.1941
 3436SOL     OW21766   4.191   2.971   9.158 -0.6797 -0.0999 -0.5925
 3436SOL    HW121767   4.270   2.999   9.202 -1.4168 -0.9131  1.2386
 3436SOL    HW221768   4.176   3.046   9.100 -0.4885  0.0124 -0.4955
 3437SOL     OW21769   3.069   1.675   4.504  0.3468 -0.1556  0.0775
 3437SOL    HW121770   3.029   1.705   4.423  2.2843  1.3910 -0.3183
 3437SOL    HW221771   3.012   1.602   4.526 -1.5838  1.5789  0.7952
 3438SOL     OW21772   1.782   0.925   6.868  0.0058 -0.7128 -0.1548
 3438SOL    HW121773   1.710   0.905   6.808 -0.4152  1.1123 -0.2643
 3438SOL    HW221774   1.842   0.860   6.831  0.2363 -0.7694  0.3185
 3439SOL     OW21775   3.219   1.888  12.239 -0.4134 -0.1530 -0.3261
 3439SOL    HW121776   3.168   1.851  12.311 -0.4208  1.0497  0.2869
 3439SOL    HW221777   3.276   1.934  12.301 -2.3901 -0.0361  1.4158
 3440SOL     OW21778   1.116   0.643   2.233 -0.2468 -0.1555  0.0082
 3440SOL    HW121779   1.208   0.632   2.258 -0.4360 -1.2891  0.2232
 3440SOL    HW221780   1.116   0.736   2.211 -0.2599 -0.6140 -1.8844
 3441SOL     OW21781   1.797   1.746   3.183 -0.3820 -0.1962  0.3823
 3441SOL    HW121782   1.850   1.800   3.242  1.2867  1.2901 -2.5166
 3441SOL    HW221783   1.709   1.765   3.216 -0.8838 -0.7234 -0.6705
 3442SOL     OW21784   4.409   2.361  14.975 -0.1726  0.0350  0.3443
 3442SOL    HW121785   4.373   2.446  15.001  2.0827  0.3776  2.3141
 3442SOL    HW221786   4.399   2.300  15.048 -0.5996  0.9474  1.0548
 3443SOL     OW21787   1.557   4.132  10.128  0.0424  0.3479 -0.3821
 3443SOL    HW121788   1.538   4.118  10.036  1.4616 -2.1429 -0.3133
 3443SOL    HW221789   1.598   4.218  10.132 -0.9218  0.7017  2.3474
 3444SOL     OW21790   2.791   2.364   3.955  0.3160 -0.3190 -0.2886
 3444SOL    HW121791   2.773   2.443   4.004  0.3125  0.1928 -1.1101
 3444SOL    HW221792   2.769   2.396   3.867  3.1227  1.9285 -0.1510
 3445SOL     OW21793   4.414   2.596   4.134  1.0378 -0.1682 -0.2389
 3445SOL    HW121794   4.495   2.643   4.115  2.0899 -0.5784  3.3430
 3445SOL    HW221795   4.437   2.550   4.214  0.2275 -1.3372 -0.6685
 3446SOL     OW21796   4.374   2.788   9.350  0.1678 -0.6790  0.2005
 3446SOL    HW121797   4.440   2.720   9.336  0.6918 -0.1764  0.2321
 3446SOL    HW221798   4.402   2.864   9.298 -1.5652  0.2900  0.6909
 3447SOL     OW21799   2.801   4.107   7.234 -0.0003  0.5543 -0.1464
 3447SOL    HW121800   2.875   4.046   7.241 -0.2494  0.1537 -0.9725
 3447SOL    HW221801   2.757   4.091   7.317  0.1199  1.7289  0.1423
 3448SOL     OW21802   2.549   1.707  12.992 -0.2460 -0.2438 -0.0401
 3448SOL    HW121803   2.601   1.767  12.939  0.0968  0.3511  0.9570
 3448SOL    HW221804   2.464   1.747  12.974 -0.8203 -1.8120 -0.7877
 3449SOL     OW21805   2.578   3.683   5.891 -0.6991  0.3896 -0.7434
 3449SOL    HW121806   2.610   3.658   5.804  1.9044  1.0472  0.0487
 3449SOL    HW221807   2.558   3.776   5.883 -0.8987  0.4359  0.2396
 3450SOL     OW21808   0.010   1.367   0.429  0.4643  0.3626  0.0352
 3450SOL    HW121809   0.104   1.384   0.424  0.7890 -1.8922 -1.4243
 3450SOL    HW221810   4.697   1.405   0.348  2.0943  0.5099 -0.6083
 3451SOL     OW21811   1.736   0.757   5.686  0.0900 -0.2070 -0.0360
 3451SOL    HW121812   1.784   0.773   5.605  0.6136 -3.9113 -0.4817
 3451SOL    HW221813   1.752   0.837   5.736 -2.4171  1.0666 -1.2484
 3452SOL     OW21814   3.838   1.153   7.066  0.0089 -0.2955  0.6062
 3452SOL    HW121815   3.872   1.064   7.067  1.2028  0.1294 -2.7781
 3452SOL    HW221816   3.837   1.177   6.973 -4.1715 -1.3675  0.3765
 3453SOL     OW21817   4.378   0.845   4.989 -0.4498 -0.6911  0.4802
 3453SOL    HW121818   4.386   0.868   5.081 -3.1349  1.6627  0.1004
 3453SOL    HW221819   4.284   0.858   4.977 -0.0003  3.3908  1.3237
 3454SOL     OW21820   0.937   3.758  13.006 -0.2609 -0.3376 -0.3714
 3454SOL    HW121821   1.017   3.704  13.007  0.6438  0.9994 -0.6846
 3454SOL    HW221822   0.876   3.684  13.011 -0.4882 -0.1467 -0.3591
 3455SOL     OW21823   2.009   3.604   4.628  0.2729 -0.2273  0.3552
 3455SOL    HW121824   1.918   3.612   4.656 -0.0342  0.5496 -0.8825
 3455SOL    HW221825   2.020   3.519   4.671  3.6012 -0.6354 -1.2927
 3456SOL     OW21826   3.410   3.053   5.813  0.1871  0.1850 -0.0575
 3456SOL    HW121827   3.404   3.141   5.850  1.5225 -0.1573  0.9694
 3456SOL    HW221828   3.359   2.999   5.873  1.2454 -0.2315  0.4679
 3457SOL     OW21829   4.377   1.542   6.068 -0.5637 -0.5956 -0.2849
 3457SOL    HW121830   4.419   1.628   6.062 -2.2163  0.2974  0.8541
 3457SOL    HW221831   4.308   1.548   6.135 -2.2933  1.0669 -2.2110
 3458SOL     OW21832   3.140   0.965   2.510  0.2280 -0.0701  0.3630
 3458SOL    HW121833   3.222   1.014   2.496 -0.1817  0.5630  0.1739
 3458SOL    HW221834   3.080   1.039   2.498  0.8261  0.5024  0.8793
 3459SOL     OW21835   2.432   3.935   6.498 -0.6111 -0.4448 -0.5530
 3459SOL    HW121836   2.472   4.021   6.513  0.5819 -1.0257 -0.3453
 3459SOL    HW221837   2.429   3.924   6.403  2.1394  1.0333 -0.8093
 3460SOL     OW21838   1.361   1.507   2.464  0.5282  0.0827 -0.0795
 3460SOL    HW121839   1.313   1.576   2.511 -1.5455 -2.7832  2.0740
 3460SOL    HW221840   1.449   1.506   2.501  0.4496  0.5567  0.1208
 3461SOL     OW21841   4.556   2.574   5.888 -0.3723 -0.0085  0.8559
 3461SOL    HW121842   4.599   2.516   5.825 -1.3601  1.3032 -1.0180
 3461SOL    HW221843   4.475   2.599   5.843  0.2207  1.9940  0.9273
 3462SOL     OW21844   2.720   4.598   4.234  0.4610 -0.1349  0.3632
 3462SOL    HW121845   2.696   4.602   4.326 -1.8561 -0.8304 -0.2051
 3462SOL    HW221846   2.656   4.657   4.193  1.0640 -0.3817 -0.9287
 3463SOL     OW21847   0.712   1.775  14.316 -0.5724  0.4336  0.0007
 3463SOL    HW121848   0.770   1.773  14.240  1.5464  3.8238  1.5466
 3463SOL    HW221849   0.628   1.759  14.272  0.1069  0.5401 -1.3296
 3464SOL     OW21850   2.486   4.546   5.681 -0.1552  0.0704  0.2093
 3464SOL    HW121851   2.412   4.485   5.688 -0.3976  0.4690  1.1091
 3464SOL    HW221852   2.461   4.605   5.751  2.2039  0.9264  0.2991
 3465SOL     OW21853   1.882   0.173   8.255  0.2152 -0.0163  0.1785
 3465SOL    HW121854   1.962   0.208   8.294  0.8512  0.9048 -1.9667
 3465SOL    HW221855   1.839   0.154   8.338 -0.8710  0.5425 -0.2700
 3466SOL     OW21856   0.432   1.862  14.684 -0.5570 -0.5052 -0.0285
 3466SOL    HW121857   0.458   1.933  14.624 -1.6056 -1.5865 -1.7624
 3466SOL    HW221858   0.342   1.882  14.708 -0.4984  0.7547 -0.8153
 3467SOL     OW21859   2.557   2.439  12.851  0.0541 -0.2383  0.2117
 3467SOL    HW121860   2.633   2.495  12.861 -0.6461  0.8373 -0.5312
 3467SOL    HW221861   2.562   2.397  12.765 -1.7391 -0.9183  0.4217
 3468SOL     OW21862   1.259   2.637   7.482 -0.3931 -0.0609  0.6112
 3468SOL    HW121863   1.212   2.694   7.543 -0.2397 -0.0736  0.7392
 3468SOL    HW221864   1.304   2.690   7.417 -4.2659 -0.0297 -2.0851
 3469SOL     OW21865   3.708   3.800   0.678  0.0791 -0.5610  0.3196
 3469SOL    HW121866   3.652   3.797   0.600  1.5688 -0.9448 -0.7322
 3469SOL    HW221867   3.658   3.868   0.724  0.7054 -0.0489  0.2466
 3470SOL     OW21868   4.264   0.417  11.565 -0.2560  0.4878 -0.5574
 3470SOL    HW121869   4.307   0.363  11.499  1.8365 -0.5054  1.6269
 3470SOL    HW221870   4.192   0.458  11.516 -0.3999 -0.7673 -1.4075
 3471SOL     OW21871   3.231   3.382  16.125  0.0740  0.2935 -0.1227
 3471SOL    HW121872   3.238   3.465  16.173  0.5048  0.0501  0.2362
 3471SOL    HW221873   3.283   3.397  16.046  1.5235 -1.4858  0.5154
 3472SOL     OW21874   0.394   3.723   5.318 -0.2626 -0.1931  0.6384
 3472SOL    HW121875   0.409   3.810   5.355 -1.8438  0.3788 -0.0709
 3472SOL    HW221876   0.398   3.668   5.396 -2.0755 -0.6094  0.4283
 3473SOL     OW21877   0.767   3.812  12.105 -0.1380  0.2429  0.2067
 3473SOL    HW121878   0.786   3.739  12.164  1.1928  1.8777  1.8022
 3473SOL    HW221879   0.703   3.855  12.161  1.8707 -0.1225  2.7652
 3474SOL     OW21880   0.548   3.354  13.753 -0.3188 -0.8542 -0.0724
 3474SOL    HW121881   0.454   3.375  13.746  0.0659  0.2426 -1.9678
 3474SOL    HW221882   0.569   3.402  13.673 -0.4903  0.3193  0.5947
 3475SOL     OW21883   3.671   2.411   1.057  0.0991  0.1340  0.4273
 3475SOL    HW121884   3.643   2.456   1.136  0.1820  3.5710 -1.4790
 3475SOL    HW221885   3.694   2.324   1.088  0.4796 -0.1488 -0.6377
 3476SOL     OW21886   1.280   1.208  13.198 -0.0178  0.3484 -0.0618
 3476SOL    HW121887   1.206   1.264  13.173  0.0389 -0.5869 -2.3276
 3476SOL    HW221888   1.330   1.201  13.117  0.8079 -0.9217  0.5501
 3477SOL     OW21889   3.827   1.440  11.619  0.2192 -0.1584  0.1486
 3477SOL    HW121890   3.790   1.527  11.605 -1.3690 -0.7625  0.6066
 3477SOL    HW221891   3.915   1.471  11.639 -0.0915  1.2300 -0.6124
 3478SOL     OW21892   1.961   3.025   0.672 -0.5717  0.2607 -0.0986
 3478SOL    HW121893   1.967   2.939   0.630 -3.9935 -0.9938  2.0378
 3478SOL    HW221894   1.964   3.071   0.588 -0.1096  0.7314  0.1805
 3479SOL     OW21895   1.180   2.238  16.106 -0.1484 -0.2073 -0.0637
 3479SOL    HW121896   1.207   2.308  16.165 -0.1540 -2.2169  2.3041
 3479SOL    HW221897   1.118   2.283  16.048 -1.0118 -0.7121  0.4687
 3480SOL     OW21898   2.621   1.522   5.213  0.2466  0.5727 -0.6679
 3480SOL    HW121899   2.626   1.513   5.118 -0.5514  1.3614 -0.7846
 3480SOL    HW221900   2.561   1.451   5.233 -0.5437  0.8615 -1.9819
 3481SOL     OW21901   1.671   3.107   6.411 -0.2636  0.4704 -0.1465
 3481SOL    HW121902   1.711   3.149   6.487 -0.8390  0.6274  0.0723
 3481SOL    HW221903   1.739   3.065   6.359 -1.6419 -0.7460 -0.9873
 3482SOL     OW21904   0.346   1.387  13.949 -0.4899  0.0021 -0.5110
 3482SOL    HW121905   0.350   1.481  13.927  2.1192  0.3528  1.4537
 3482SOL    HW221906   0.416   1.349  13.897 -2.4394 -0.4527 -2.8150
 3483SOL     OW21907   2.768   4.067   1.564  0.1128 -0.2342 -0.1069
 3483SOL    HW121908   2.751   3.983   1.607 -0.6514 -0.7256 -1.3822
 3483SOL    HW221909   2.838   4.044   1.504  0.3014  0.5550 -0.1916
 3484SOL     OW21910   0.110   2.462   8.374  0.2670 -0.6853  0.1320
 3484SOL    HW121911   0.124   2.457   8.468 -3.1681 -0.3522  0.6752
 3484SOL    HW221912   0.041   2.529   8.375  1.6146  0.7108 -1.1894
 3485SOL     OW21913   0.886   1.438   6.076 -0.1876 -0.2228 -0.0900
 3485SOL    HW121914   0.882   1.470   5.985 -1.4904  0.1783  0.1003
 3485SOL    HW221915   0.951   1.490   6.124 -1.2159 -1.4646  2.6275
 3486SOL     OW21916   1.710   4.083   4.576 -0.2747  0.4001 -0.1651
 3486SOL    HW121917   1.756   4.084   4.492  1.3943  1.0055  0.7683
 3486SOL    HW221918   1.624   4.110   4.542 -0.1758  1.6840  0.6239
 3487SOL     OW21919   0.838   1.253   7.944  0.4062 -0.1545  0.3702
 3487SOL    HW121920   0.922   1.209   7.932  0.6070  0.1936  0.4721
 3487SOL    HW221921   0.793   1.185   7.994  1.3226 -0.0246  1.4018
 3488SOL     OW21922   4.438   0.398  11.807 -0.8483  0.0807  0.0865
 3488SOL    HW121923   4.470   0.486  11.787  0.3944 -0.8347 -1.9996
 3488SOL    HW221924   4.407   0.377  11.719 -2.5081 -0.1055  0.7243
 3489SOL     OW21925   0.518   4.558   8.684  0.6762 -0.2129 -0.4010
 3489SOL    HW121926   0.562   4.475   8.668  0.3315 -0.2051 -1.3747
 3489SOL    HW221927   0.582   4.617   8.724 -1.1963  0.5970  1.4084
 3490SOL     OW21928   0.138   4.684   8.954 -0.0157  0.7614  0.0947
 3490SOL    HW121929   0.044   4.703   8.956 -0.2071 -0.2044  0.5444
 3490SOL    HW221930   0.180   0.046   8.971  0.1482  0.4518  1.2451
 3491SOL     OW21931   1.084   3.583  15.884  0.1794  0.8235 -0.0725
 3491SOL    HW121932   1.117   3.660  15.838 -1.6558  0.7508 -1.5355
 3491SOL    HW221933   1.019   3.557  15.819 -1.2591 -2.4606  2.6317
 3492SOL     OW21934   0.468   1.104   5.619  0.3323 -0.3616  0.0936
 3492SOL    HW121935   0.500   1.049   5.690 -1.3084  0.3437  1.3823
 3492SOL    HW221936   0.389   1.054   5.596  0.7293 -0.0513 -1.9834
 3493SOL     OW21937   0.203   2.520   7.115 -0.6091  0.3748 -0.3568
 3493SOL    HW121938   0.215   2.520   7.210  1.9651 -0.4199 -0.6548
 3493SOL    HW221939   0.145   2.444   7.111 -1.8353  1.3156 -0.4343
 3494SOL     OW21940   2.378   1.905  13.873  0.4208  0.1616 -0.7521
 3494SOL    HW121941   2.343   1.821  13.843 -0.9485  1.0647 -1.6905
 3494SOL    HW221942   2.414   1.881  13.958 -3.0521 -0.1615  0.6501
 3495SOL     OW21943   3.455   3.456   2.547 -0.1568  0.4194 -0.3023
 3495SOL    HW121944   3.395   3.483   2.478  1.1897  0.4032 -1.4826
 3495SOL    HW221945   3.458   3.361   2.537  0.8855  0.3686  0.5496
 3496SOL     OW21946   2.028   1.492   4.273  0.3921  0.0191  0.2806
 3496SOL    HW121947   1.936   1.486   4.298  0.2538 -4.2334 -1.2870
 3496SOL    HW221948   2.055   1.580   4.302 -2.3893  1.1816 -0.6571
 3497SOL     OW21949   4.578   0.610  14.627 -0.3908  0.2566 -0.4350
 3497SOL    HW121950   4.594   0.689  14.678 -0.1145 -0.1691  0.1443
 3497SOL    HW221951   4.668   0.577  14.634  0.4294  2.2779 -1.5030
 3498SOL     OW21952   4.247   0.353   3.917  0.2539 -0.3597 -0.5546
 3498SOL    HW121953   4.307   0.374   3.989  0.4246 -0.5642 -0.6388
 3498SOL    HW221954   4.166   0.397   3.944 -0.2964 -1.7188  0.0029
 3499SOL     OW21955   2.112   0.774  11.951 -0.1159  0.0685  0.4029
 3499SOL    HW121956   2.168   0.705  11.986 -3.2259 -2.9785 -0.5830
 3499SOL    HW221957   2.121   0.844  12.016 -0.4564  0.1416  0.3713
 3500SOL     OW21958   0.383   3.143   6.024  0.1284  0.0430  0.2567
 3500SOL    HW121959   0.294   3.109   6.015  0.7308 -1.4447  0.0219
 3500SOL    HW221960   0.367   3.237   6.017 -1.3150 -0.2317 -0.2338
 3501SOL     OW21961   2.103   3.715  16.040 -0.3808 -0.5169 -0.4825
 3501SOL    HW121962   2.141   3.643  15.990 -0.0254  1.9480 -3.8086
 3501SOL    HW221963   2.047   3.751  15.970 -0.0144 -1.4982 -1.2702
 3502SOL     OW21964   2.167   3.479  15.188  0.0161 -0.1829  0.4710
 3502SOL    HW121965   2.151   3.402  15.243 -2.8948  0.0564 -0.0752
 3502SOL    HW221966   2.137   3.556  15.235  0.6125  0.3976 -0.0914
 3503SOL     OW21967   2.238   3.092   2.565  0.1466 -0.4366  0.1380
 3503SOL    HW121968   2.312   3.048   2.525 -0.1242 -1.3179  0.5983
 3503SOL    HW221969   2.193   3.143   2.497  3.0929  2.3554  0.2647
 3504SOL     OW21970   0.057   4.069   2.335 -0.6516 -0.1283 -0.1744
 3504SOL    HW121971   0.118   4.017   2.283 -2.9131 -2.0387 -0.9171
 3504SOL    HW221972   0.013   4.120   2.268  1.1934  2.1424  0.3381
 3505SOL     OW21973   1.049   4.264   7.021  0.0292 -0.2033  0.0713
 3505SOL    HW121974   1.029   4.180   6.980  0.5830  0.5661 -1.7588
 3505SOL    HW221975   1.007   4.325   6.961 -2.4017 -0.7471  1.2173
 3506SOL     OW21976   2.332   1.628   5.600  0.2579  0.3547  0.1867
 3506SOL    HW121977   2.317   1.551   5.545  1.0834 -0.7399  1.4891
 3506SOL    HW221978   2.406   1.595   5.652  0.2207 -0.8198 -0.5080
 3507SOL     OW21979   1.504   1.036   8.791 -0.2611  0.1972  0.5991
 3507SOL    HW121980   1.423   1.052   8.838  0.0870 -0.7737  1.5202
 3507SOL    HW221981   1.474   1.006   8.705 -0.6150 -2.0931  1.5347
 3508SOL     OW21982   4.638   4.691   6.637 -0.3228 -0.2682  0.4233
 3508SOL    HW121983   4.576   0.026   6.681  2.1716  1.2808  1.9485
 3508SOL    HW221984   4.716   4.689   6.693 -1.1845 -0.6562  1.6187
 3509SOL     OW21985   1.001   1.595   7.639  0.1394 -0.1600  0.2233
 3509SOL    HW121986   0.968   1.512   7.607 -0.4388 -0.0948  0.6546
 3509SOL    HW221987   1.016   1.637   7.555 -1.1851 -0.4164 -0.1294
 3510SOL     OW21988   0.536   4.050  13.906 -0.2976 -0.4512  0.0518
 3510SOL    HW121989   0.594   4.001  13.848  0.4837  0.0283  0.4370
 3510SOL    HW221990   0.533   3.991  13.981  0.9039 -0.0502  0.4045
 3511SOL     OW21991   2.367   1.904   9.041  0.1925  0.0625 -0.7951
 3511SOL    HW121992   2.410   1.988   9.052  1.6349 -0.6655 -0.8460
 3511SOL    HW221993   2.320   1.935   8.964 -1.1345  0.4002  0.1399
 3512SOL     OW21994   0.997   3.600   5.351  0.1048  0.0029 -0.5204
 3512SOL    HW121995   1.011   3.585   5.444 -1.0639 -1.2733 -0.5505
 3512SOL    HW221996   1.004   3.511   5.317  1.0836  0.3955 -1.3466
 3513SOL     OW21997   4.601   2.377   2.804 -0.1924  0.4187 -0.1289
 3513SOL    HW121998   4.562   2.365   2.891  1.3699 -1.1912  0.3376
 3513SOL    HW221999   4.592   2.473   2.798  0.9860  0.4816 -0.9463
 3514SOL     OW22000   3.263   0.020  14.764  0.0699 -0.1804 -0.2893
 3514SOL    HW122001   3.318   0.062  14.698 -0.5845  0.1752 -0.6146
 3514SOL    HW222002   3.291   0.064  14.844 -0.7074  0.7358 -0.5146
 3515SOL     OW22003   1.826   2.258   1.335  0.4736  0.4698  0.0782
 3515SOL    HW122004   1.806   2.277   1.243 -0.1483 -1.3370 -0.1574
 3515SOL    HW222005   1.844   2.164   1.339  0.1184  0.2918 -2.2721
 3516SOL     OW22006   4.136   4.028   7.118 -0.0032 -0.2307  0.1908
 3516SOL    HW122007   4.192   3.960   7.079  3.1923  2.0923  0.7584
 3516SOL    HW222008   4.170   4.042   7.206 -1.1191  1.5982  0.3161
 3517SOL     OW22009   0.037   3.159   6.220  0.5142  0.2134  1.0494
 3517SOL    HW122010   4.687   3.169   6.281 -0.4270 -1.1245  0.1634
 3517SOL    HW222011   4.702   3.164   6.144  2.5434 -0.3005 -0.5186
 3518SOL     OW22012   2.541   0.325  15.831  0.2173 -0.0137 -0.1326
 3518SOL    HW122013   2.499   0.368  15.757  0.5290 -3.4045 -2.2777
 3518SOL    HW222014   2.550   0.396  15.895 -2.4877  0.4472 -0.2759
 3519SOL     OW22015   2.683   3.964  17.061 -0.3542  0.0092 -0.3580
 3519SOL    HW122016   2.665   4.010  17.142  0.0916  3.0918 -2.0144
 3519SOL    HW222017   2.596   3.927  17.043  0.1537 -1.9544  1.3266
 3520SOL     OW22018   1.341   2.106  17.283 -0.0141 -0.0371  0.3895
 3520SOL    HW122019   1.416   2.058  17.315  0.3239 -0.3174 -0.8243
 3520SOL    HW222020   1.345   2.181  17.343 -0.9540 -0.1809  0.6375
 3521SOL     OW22021   3.509   0.509   4.173  0.4199  0.1010  0.3481
 3521SOL    HW122022   3.587   0.532   4.224  0.8405  1.7391 -1.0464
 3521SOL    HW222023   3.518   0.570   4.100  4.9843  0.2713  1.0445
 3522SOL     OW22024   0.034   2.177   7.401  1.1364 -0.1910  0.1124
 3522SOL    HW122025   4.704   2.201   7.326 -0.2077 -2.5394  0.3273
 3522SOL    HW222026   0.016   2.256   7.451  0.1142 -0.8110  0.7161
 3523SOL     OW22027   2.889   1.638   0.811  0.2305 -0.3795 -0.4209
 3523SOL    HW122028   2.845   1.707   0.860  1.3224  1.7039 -2.3862
 3523SOL    HW222029   2.944   1.695   0.757  1.4982 -1.9728 -0.8374
 3524SOL     OW22030   2.891   3.241   7.755 -0.2053  0.0323  0.0103
 3524SOL    HW122031   2.903   3.336   7.752 -0.4764  0.1139  1.3713
 3524SOL    HW222032   2.830   3.225   7.827 -0.8302  0.9833 -0.3217
 3525SOL     OW22033   1.680   0.523   7.387 -0.4277  0.1932  0.5501
 3525SOL    HW122034   1.708   0.507   7.297  1.1866  2.0389  0.7247
 3525SOL    HW222035   1.596   0.478   7.397 -0.6583  0.4658 -0.1619
 3526SOL     OW22036   2.737   2.124   0.335  0.0444  0.3512  0.8128
 3526SOL    HW122037   2.797   2.116   0.410 -0.6347 -1.5185  1.1656
 3526SOL    HW222038   2.788   2.111   0.255 -0.2337 -1.5579  0.9353
 3527SOL     OW22039   0.567   3.498   4.967  0.2110 -0.2599 -0.2754
 3527SOL    HW122040   0.539   3.413   5.002 -0.1050 -0.0048  0.1083
 3527SOL    HW222041   0.482   3.521   4.929  0.8828  0.0430 -1.5801
 3528SOL     OW22042   3.377   2.451   6.303  0.2487  0.4139  0.2392
 3528SOL    HW122043   3.288   2.468   6.333 -0.0384  0.9451 -0.9247
 3528SOL    HW222044   3.403   2.543   6.309 -1.8680  1.1467 -1.8771
 3529SOL     OW22045   1.380   1.245  11.568 -0.1803 -0.1289  0.2144
 3529SOL    HW122046   1.295   1.255  11.610 -0.3487 -1.5238  0.1968
 3529SOL    HW222047   1.365   1.191  11.491  1.0208 -0.2651  0.0812
 3530SOL     OW22048   1.159   0.916  10.174  0.3864 -0.0881  0.1296
 3530SOL    HW122049   1.128   0.973  10.245  1.1438 -0.4457  0.7527
 3530SOL    HW222050   1.248   0.892  10.200 -0.0963 -3.0425 -0.9728
 3531SOL     OW22051   3.367   3.365   2.199  0.5373 -0.2285 -0.4026
 3531SOL    HW122052   3.323   3.448   2.217  0.2337 -0.4652 -0.0413
 3531SOL    HW222053   3.330   3.319   2.274 -1.6473 -0.4865 -1.6520
 3532SOL     OW22054   2.050   0.813   8.515 -0.0443 -0.1849 -0.0111
 3532SOL    HW122055   2.043   0.899   8.474  1.0429 -0.7354 -1.3445
 3532SOL    HW222056   1.957   0.792   8.524  0.7077 -3.3338  0.2200
 3533SOL     OW22057   2.264   1.165  14.796  0.8774  0.3853  0.0718
 3533SOL    HW122058   2.196   1.175  14.862  1.5183  1.6854  0.5291
 3533SOL    HW222059   2.217   1.126  14.723 -1.6833  1.1172  1.3398
 3534SOL     OW22060   3.267   0.975   2.196 -0.3265 -0.4441  0.0649
 3534SOL    HW122061   3.240   1.059   2.161  0.8819 -0.3515 -0.6376
 3534SOL    HW222062   3.188   0.927   2.171 -1.1965  1.3938 -0.6626
 3535SOL     OW22063   0.402   0.994   7.316 -0.0619 -0.1786 -0.1672
 3535SOL    HW122064   0.460   0.973   7.243  0.8742 -0.8191  0.7734
 3535SOL    HW222065   0.319   0.993   7.267 -0.0522  1.5537 -0.2240
 3536SOL     OW22066   0.120   0.778   8.952  0.2630  0.0428 -0.1798
 3536SOL    HW122067   0.058   0.830   8.900 -0.1012 -0.2265 -0.0125
 3536SOL    HW222068   0.103   0.824   9.034  0.1109 -2.5243  1.2094
 3537SOL     OW22069   1.419   1.253  11.984  0.2419  0.1671 -0.1504
 3537SOL    HW122070   1.401   1.200  11.906 -0.5629 -0.5837  0.5481
 3537SOL    HW222071   1.327   1.269  12.006  0.1625 -0.6709  0.1299
 3538SOL     OW22072   2.525   1.762   8.387  0.4456 -0.3060  0.4478
 3538SOL    HW122073   2.473   1.786   8.311  0.8167  0.8083  0.5495
 3538SOL    HW222074   2.592   1.830   8.380  0.3513 -0.4107 -1.4318
 3539SOL     OW22075   0.736   0.997   7.650 -0.6938  0.3860 -0.3327
 3539SOL    HW122076   0.702   0.909   7.630 -2.0784  0.6236  1.0719
 3539SOL    HW222077   0.815   0.977   7.700 -0.9208  0.5766  0.0990
 3540SOL     OW22078   0.748   2.831   2.023 -0.2222 -0.0564  0.4417
 3540SOL    HW122079   0.772   2.877   2.103 -0.9948  2.9445 -1.0165
 3540SOL    HW222080   0.663   2.867   1.998 -0.8593 -2.9860 -1.5842
 3541SOL     OW22081   0.830   4.562  15.358 -0.1519  0.2286 -0.7115
 3541SOL    HW122082   0.896   4.497  15.383 -0.0603  0.9004  0.7641
 3541SOL    HW222083   0.753   4.536  15.408  0.8177 -0.2193  0.5385
 3542SOL     OW22084   4.368   1.298   0.909 -0.0957  0.2287  0.2029
 3542SOL    HW122085   4.363   1.234   0.838  0.8507 -1.4554  1.6410
 3542SOL    HW222086   4.329   1.378   0.874 -0.4030  0.4382  1.0092
 3543SOL     OW22087   3.818   0.328   7.414  0.0278 -0.1415 -0.2061
 3543SOL    HW122088   3.819   0.238   7.448  1.4794 -0.2635 -0.5836
 3543SOL    HW222089   3.727   0.356   7.427  1.3694  3.0673  2.2782
 3544SOL     OW22090   3.242   4.410  14.172 -0.5466  0.5134  0.3930
 3544SOL    HW122091   3.260   4.485  14.115 -0.2084 -0.6736 -1.0530
 3544SOL    HW222092   3.230   4.337  14.112 -0.8166  0.8804  0.0029
 3545SOL     OW22093   1.636   4.340   9.282 -0.3395  0.0564 -0.6728
 3545SOL    HW122094   1.611   4.286   9.207 -0.7660 -1.3819  0.4861
 3545SOL    HW222095   1.726   4.364   9.260  0.1470 -0.9255  0.2162
 3546SOL     OW22096   2.470   3.271   0.309  0.0121 -0.6394  0.5984
 3546SOL    HW122097   2.421   3.201   0.354  2.9374 -1.3726  2.6844
 3546SOL    HW222098   2.531   3.297   0.378 -0.8622  1.6696  0.4743
 3547SOL     OW22099   1.182   0.773   5.976 -0.5679  1.1344  0.3523
 3547SOL    HW122100   1.246   0.798   5.910  1.7165 -1.3911  1.6042
 3547SOL    HW222101   1.210   0.830   6.048  0.0298  1.4168 -0.1109
 3548SOL     OW22102   3.898   1.598   8.266 -0.2654 -0.4076 -0.2937
 3548SOL    HW122103   3.855   1.522   8.306  0.1744 -0.4214  0.1477
 3548SOL    HW222104   3.986   1.561   8.258  0.0118  0.1149  0.3841
 3549SOL     OW22105   4.249   2.706   9.071 -0.1928  0.4237  0.5856
 3549SOL    HW122106   4.237   2.799   9.089  0.8347  0.6446  0.1284
 3549SOL    HW222107   4.220   2.668   9.154  0.8276  0.9950  1.2077
 3550SOL     OW22108   0.659   0.092   6.610 -0.4802  0.0014  0.3506
 3550SOL    HW122109   0.588   0.157   6.607 -0.2421  0.2139 -0.7991
 3550SOL    HW222110   0.730   0.152   6.632 -0.3979 -0.5177  1.5161
 3551SOL     OW22111   3.622   1.114   8.280  0.2732 -0.1623 -0.9487
 3551SOL    HW122112   3.697   1.143   8.227  1.8999 -0.6272  1.0849
 3551SOL    HW222113   3.584   1.046   8.224 -0.6792 -1.3393  1.0968
 3552SOL     OW22114   4.697   0.820   7.998  0.4736  0.2611 -0.1281
 3552SOL    HW122115   4.635   0.893   7.996  0.0433 -0.1203 -0.7415
 3552SOL    HW222116   0.047   0.862   7.953  0.5777 -1.8550 -1.8897
 3553SOL     OW22117   1.775   1.691   4.816 -0.0059  0.8295  0.4816
 3553SOL    HW122118   1.774   1.661   4.907 -2.6040 -0.2388  0.0873
 3553SOL    HW222119   1.769   1.608   4.769 -0.0714  0.1921  1.6177
 3554SOL     OW22120   1.379   1.713  15.182 -0.2371  0.3148 -0.0592
 3554SOL    HW122121   1.456   1.667  15.215 -0.9763 -0.6405  0.3510
 3554SOL    HW222122   1.422   1.737  15.099 -2.3634  0.9271 -0.9922
 3555SOL     OW22123   1.745   0.751   6.414 -0.2713 -0.4422  0.0172
 3555SOL    HW122124   1.707   0.829   6.373  1.9272  1.8763  2.3502
 3555SOL    HW222125   1.798   0.727   6.337 -1.4108  0.2461 -0.9764
 3556SOL     OW22126   2.469   2.874  16.006 -0.3932 -0.1413 -0.1978
 3556SOL    HW122127   2.473   2.935  16.080 -1.4549 -0.1852 -0.0965
 3556SOL    HW222128   2.450   2.792  16.052 -1.9160  0.9201  1.0673
 3557SOL     OW22129   1.646   1.300   7.358  0.1927 -0.2312  0.4397
 3557SOL    HW122130   1.712   1.370   7.356  1.3496 -1.3045  1.0120
 3557SOL    HW222131   1.678   1.252   7.434 -1.4569 -3.0991 -0.7168
 3558SOL     OW22132   2.846   0.303   7.976 -0.0944  0.0115  0.1093
 3558SOL    HW122133   2.859   0.233   7.912 -0.6616 -0.8074  0.8935
 3558SOL    HW222134   2.936   0.336   7.974  0.3478 -1.1678  0.7818
 3559SOL     OW22135   3.036   3.535   8.285  0.0985  0.9223 -0.1959
 3559SOL    HW122136   2.971   3.605   8.275  1.5266  2.0706 -1.3434
 3559SOL    HW222137   3.097   3.570   8.350  0.4926 -0.1480  0.0074
 3560SOL     OW22138   3.277   0.243   7.286 -0.2035  0.3343  0.4237
 3560SOL    HW122139   3.220   0.186   7.234 -0.3088 -0.3350  1.2813
 3560SOL    HW222140   3.354   0.264   7.234 -0.4115  3.8878  1.5280
 3561SOL     OW22141   2.056   1.759  11.634  0.0037  0.7000  0.1791
 3561SOL    HW122142   2.145   1.784  11.609  1.1496 -2.6563  1.0024
 3561SOL    HW222143   2.007   1.802  11.564 -2.4192  2.2296  2.7911
 3562SOL     OW22144   1.575   2.779   4.989 -0.4572 -0.7257  0.2570
 3562SOL    HW122145   1.588   2.723   4.913 -0.5432 -1.4823  0.8048
 3562SOL    HW222146   1.482   2.765   5.006 -0.2650  0.1079  1.9867
 3563SOL     OW22147   0.603   3.568   5.689  0.2972 -0.4887  0.3243
 3563SOL    HW122148   0.533   3.603   5.744  1.7176  2.0375  0.5397
 3563SOL    HW222149   0.615   3.635   5.621  0.4003  0.2675  1.0884
 3564SOL     OW22150   2.241   3.061  15.928  0.3471  0.0773  0.0339
 3564SOL    HW122151   2.202   3.094  16.009  0.2233  1.4893 -0.6016
 3564SOL    HW222152   2.324   3.025  15.960  1.2211  1.6717 -0.4360
 3565SOL     OW22153   3.078   2.845   8.767 -0.0636 -0.0747  0.3968
 3565SOL    HW122154   3.075   2.827   8.673  2.1080 -0.6209  0.4087
 3565SOL    HW222155   2.987   2.843   8.796 -0.2884  0.0597 -0.2997
 3566SOL     OW22156   3.667   3.745   7.051  0.6185  0.1028 -0.8172
 3566SOL    HW122157   3.604   3.726   7.120  1.2810 -1.6281 -0.6997
 3566SOL    HW222158   3.653   3.840   7.060  3.1558  0.1892  1.9644
 3567SOL     OW22159   4.717   2.485  17.383  0.3011 -0.2940 -0.1543
 3567SOL    HW122160   4.714   2.517  17.473 -1.1139  0.0344 -0.3178
 3567SOL    HW222161   4.693   2.393  17.386  2.3594 -0.8157 -0.0419
 3568SOL     OW22162   3.569   1.239   0.371 -0.1032  0.4290  0.0903
 3568SOL    HW122163   3.578   1.148   0.401 -2.2263  0.4583  0.7761
 3568SOL    HW222164   3.475   1.232   0.359 -0.1246 -0.4588  0.7657
 3569SOL     OW22165   4.420   4.289   6.486 -0.3435  0.1335  0.2145
 3569SOL    HW122166   4.512   4.313   6.481 -0.4108  0.3082 -0.2001
 3569SOL    HW222167   4.391   4.344   6.559 -0.0734  0.9885 -0.3254
 3570SOL     OW22168   2.179   0.515   4.319 -0.8514  0.3882 -0.1860
 3570SOL    HW122169   2.265   0.490   4.352  0.4312  2.7061 -1.7976
 3570SOL    HW222170   2.127   0.440   4.349  0.6402 -1.1667 -1.4425
 3571SOL     OW22171   3.921   1.457   6.005  0.0925 -0.8098 -0.0346
 3571SOL    HW122172   3.934   1.404   5.927 -0.5665  0.0334 -0.7016
 3571SOL    HW222173   3.991   1.520   5.989  1.3213 -1.6762  1.8079
 3572SOL     OW22174   2.761   0.623   3.130  0.2720 -0.2851 -0.3382
 3572SOL    HW122175   2.821   0.683   3.086  0.1185  1.5986  2.0567
 3572SOL    HW222176   2.793   0.538   3.098  3.6168  0.1098  1.9619
 3573SOL     OW22177   3.629   1.060   0.768  0.4016 -0.1417 -0.0702
 3573SOL    HW122178   3.580   1.076   0.688  1.6011  0.4492 -0.6758
 3573SOL    HW222179   3.661   1.146   0.796  1.2184 -0.2506 -0.6880
 3574SOL     OW22180   2.948   1.110  12.120  0.5572 -0.6884  0.5605
 3574SOL    HW122181   3.025   1.137  12.071 -1.3733  0.7730 -1.6781
 3574SOL    HW222182   2.876   1.114  12.057  0.6039  1.2697  0.6193
 3575SOL     OW22183   3.442   0.628   3.080 -0.2247 -0.1239 -0.3112
 3575SOL    HW122184   3.534   0.646   3.103 -0.6212 -0.5849  1.6562
 3575SOL    HW222185   3.425   0.667   3.166 -0.1418 -0.1125 -0.2992
 3576SOL     OW22186   1.409   4.467  14.564 -0.0283 -0.2391 -0.8350
 3576SOL    HW122187   1.478   4.462  14.498 -0.0428  0.8792 -0.9321
 3576SOL    HW222188   1.458   4.522  14.625 -0.9317 -0.5104  0.1371
 3577SOL     OW22189   4.424   4.594  10.164 -0.2267 -0.4603 -0.4880
 3577SOL    HW122190   4.465   4.668  10.120 -0.4615 -0.6717 -1.0618
 3577SOL    HW222191   4.366   4.558  10.096 -1.7497 -0.8312  1.0301
 3578SOL     OW22192   3.155   2.112   8.122 -0.2784  0.2464  0.0685
 3578SOL    HW122193   3.233   2.167   8.112 -0.5989  1.4082  3.7639
 3578SOL    HW222194   3.149   2.080   8.032 -0.6844  1.6197 -0.3900
 3579SOL     OW22195   0.673   1.901   4.297 -0.1513 -0.5711  0.7945
 3579SOL    HW122196   0.638   1.969   4.238 -0.9731 -0.5404  1.3131
 3579SOL    HW222197   0.758   1.944   4.310  0.7411 -1.5242 -1.9495
 3580SOL     OW22198   3.393   3.730   4.203  0.5921 -0.0018  0.5928
 3580SOL    HW122199   3.432   3.658   4.253  1.9640  1.0136  0.9867
 3580SOL    HW222200   3.357   3.790   4.268  0.4690  0.3563  0.1931
 3581SOL     OW22201   0.190   2.416   7.362 -0.5959 -0.0741 -0.7089
 3581SOL    HW122202   0.265   2.472   7.382 -2.8694  2.4141  0.8025
 3581SOL    HW222203   0.187   2.366   7.443  0.5502  0.5470 -0.2980
 3582SOL     OW22204   0.209   0.957   3.798  0.5070  0.3262 -0.1179
 3582SOL    HW122205   0.195   1.020   3.868 -2.5294 -2.5223  1.7928
 3582SOL    HW222206   0.304   0.962   3.786  0.6286 -1.3873  0.1075
 3583SOL     OW22207   3.536   2.354   8.481  0.1623 -0.6861  0.2565
 3583SOL    HW122208   3.585   2.381   8.559 -1.0600  0.0225  0.7837
 3583SOL    HW222209   3.599   2.300   8.433  0.0816  0.5746 -1.2505
 3584SOL     OW22210   1.890   1.118   5.995 -0.1639  0.1930 -0.2611
 3584SOL    HW122211   1.857   1.182   6.059 -0.6613 -0.1501 -0.1734
 3584SOL    HW222212   1.936   1.061   6.057 -0.2832  1.9196  1.4272
 3585SOL     OW22213   1.502   0.954  14.343  0.4500  0.5351  0.3446
 3585SOL    HW122214   1.584   0.905  14.342  0.2662  0.2518 -0.7667
 3585SOL    HW222215   1.460   0.928  14.261 -0.3862  0.7914  0.6893
 3586SOL     OW22216   2.370   0.751  14.195 -0.6224 -0.1185 -0.2264
 3586SOL    HW122217   2.389   0.791  14.110 -2.0973 -1.5811 -1.2433
 3586SOL    HW222218   2.369   0.659  14.166 -0.1706 -0.3582  0.5169
 3587SOL     OW22219   1.053   2.411   5.934  0.1664 -0.1510  0.4833
 3587SOL    HW122220   0.979   2.439   5.988  1.1330  0.2174  1.6244
 3587SOL    HW222221   1.118   2.478   5.956  1.5881 -1.2218 -0.4522
 3588SOL     OW22222   3.101   0.315   0.699 -0.4203  0.3556 -0.0759
 3588SOL    HW122223   3.165   0.377   0.736  0.7385 -1.5393  1.1130
 3588SOL    HW222224   3.038   0.311   0.770 -1.2463 -1.0467 -0.8928
 3589SOL     OW22225   0.425   2.125  12.326  0.4113  0.4510 -0.4295
 3589SOL    HW122226   0.360   2.148  12.393  1.8309 -1.6339  1.6546
 3589SOL    HW222227   0.459   2.213  12.310 -0.1199  0.5762 -0.8750
 3590SOL     OW22228   0.702   3.867  10.432 -0.2348  0.1761 -0.4206
 3590SOL    HW122229   0.637   3.937  10.432 -0.2376  0.1651 -2.0197
 3590SOL    HW222230   0.707   3.852  10.527 -2.6680  0.5591 -0.2377
 3591SOL     OW22231   3.065   4.669   7.599 -0.0969  0.3510 -0.3745
 3591SOL    HW122232   3.011   4.679   7.678 -1.0448  1.5702 -1.1836
 3591SOL    HW222233   3.119   4.595   7.628  0.4326  0.8580 -0.0719
 3592SOL     OW22234   4.648   4.102  15.959  0.2664 -0.2761  0.1556
 3592SOL    HW122235   4.561   4.101  15.919  0.2110  3.6361  0.2168
 3592SOL    HW222236   4.630   4.048  16.035  0.1356 -1.0840 -0.4438
 3593SOL     OW22237   1.528   4.218  16.395 -0.6043 -1.2810  0.4203
 3593SOL    HW122238   1.467   4.291  16.386  0.5719 -0.4715 -1.0705
 3593SOL    HW222239   1.559   4.243  16.483 -0.9836  1.4639 -0.2319
 3594SOL     OW22240   3.545   4.313  14.446  0.3164 -0.5749  0.2462
 3594SOL    HW122241   3.600   4.246  14.487  1.6833  1.1172  1.1819
 3594SOL    HW222242   3.547   4.295  14.352  0.8857  0.5150  0.0556
 3595SOL     OW22243   0.473   3.100   3.006  0.0283 -0.5088 -0.1156
 3595SOL    HW122244   0.568   3.114   3.007  0.1654 -1.3343 -1.6828
 3595SOL    HW222245   0.450   3.135   2.920  0.6336 -1.0793 -0.5183
 3596SOL     OW22246   3.944   4.575   6.832  0.2365 -0.0131 -0.2656
 3596SOL    HW122247   3.851   4.594   6.820  0.0839 -0.3784  0.3132
 3596SOL    HW222248   3.937   4.571   6.928 -0.7462 -3.6158 -0.4672
 3597SOL     OW22249   2.657   0.336   1.345 -0.1368 -0.1433 -0.0286
 3597SOL    HW122250   2.610   0.413   1.378  0.4979  0.9113 -1.5642
 3597SOL    HW222251   2.620   0.274   1.407 -0.7803  1.7114  1.4382
 3598SOL     OW22252   4.246   4.463   6.955  0.0220 -0.0601 -0.0747
 3598SOL    HW122253   4.297   4.463   7.036  0.4345  0.4833 -0.3306
 3598SOL    HW222254   4.170   4.419   6.993  0.9068 -0.5982  1.0901
 3599SOL     OW22255   4.065   4.074   5.645 -0.0816  0.2583 -0.2282
 3599SOL    HW122256   4.157   4.046   5.646 -0.4150 -0.9185 -1.7994
 3599SOL    HW222257   4.020   3.993   5.621  0.1559  0.3646 -1.0401
 3600SOL     OW22258   2.321   3.432   8.357 -0.5577 -0.3414  0.5109
 3600SOL    HW122259   2.413   3.408   8.367 -1.0835 -1.5536  2.4743
 3600SOL    HW222260   2.287   3.473   8.437 -1.6682 -0.3963  0.0613
 3601SOL     OW22261   1.809   0.492   6.797 -0.0926 -0.0924  0.2558
 3601SOL    HW122262   1.733   0.549   6.784 -0.4052 -0.5453  0.1075
 3601SOL    HW222263   1.866   0.569   6.798 -0.2371  0.0049  1.5769
 3602SOL     OW22264   4.368   3.251   1.347 -0.3156  0.1695  0.7327
 3602SOL    HW122265   4.404   3.201   1.273  1.0042  0.9762  0.8276
 3602SOL    HW222266   4.279   3.227   1.322 -0.2820 -0.9685  1.6942
 3603SOL     OW22267   0.337   0.685   6.724 -0.1658 -0.0229  0.2972
 3603SOL    HW122268   0.329   0.616   6.789 -3.5178 -0.1505 -0.2567
 3603SOL    HW222269   0.389   0.643   6.656 -2.1325 -2.4195  0.2790
 3604SOL     OW22270   4.453   2.737  16.484  0.0602  0.0836  0.1333
 3604SOL    HW122271   4.364   2.719  16.514 -0.2649  2.7490  0.7968
 3604SOL    HW222272   4.505   2.679  16.540  1.0977 -0.1732 -1.0942
 3605SOL     OW22273   0.179   2.032  10.745 -0.3430  0.2207 -0.1770
 3605SOL    HW122274   0.171   2.068  10.657  1.1277 -0.8969 -0.7752
 3605SOL    HW222275   0.212   2.108  10.794  1.7918 -2.0023  1.8888
 3606SOL     OW22276   0.588   3.971   1.340  0.1066  0.3398 -0.0445
 3606SOL    HW122277   0.576   3.918   1.261 -1.1917 -1.4222  1.3332
 3606SOL    HW222278   0.681   3.994   1.344 -0.2991  2.4088 -2.1337
 3607SOL     OW22279   1.897   3.322   8.314  0.5512 -0.1885 -0.5179
 3607SOL    HW122280   1.852   3.268   8.250 -0.1197 -0.7576  0.4211
 3607SOL    HW222281   1.938   3.393   8.265  2.4818 -1.6225 -0.9856
 3608SOL     OW22282   2.664   1.495   3.006  0.0388 -0.0370  0.2915
 3608SOL    HW122283   2.601   1.521   2.940 -1.2021 -0.2214  1.4068
 3608SOL    HW222284   2.672   1.409   2.966 -2.2423  0.1030 -0.4252
 3609SOL     OW22285   4.540   0.505   6.194  0.0110  0.0295  0.1857
 3609SOL    HW122286   4.479   0.482   6.124  2.3419  1.1121 -2.2057
 3609SOL    HW222287   4.509   0.589   6.229 -1.2313 -0.1443 -0.4818
 3610SOL     OW22288   0.916   3.370  10.182 -0.4231 -0.1053  0.2400
 3610SOL    HW122289   0.909   3.462  10.159 -0.0040 -0.3356 -0.8428
 3610SOL    HW222290   0.843   3.340  10.236 -0.3698  0.7866  0.8001
 3611SOL     OW22291   1.687   0.555   7.750  0.7285 -0.2061 -0.3887
 3611SOL    HW122292   1.734   0.474   7.767 -0.6277 -1.2329 -1.5794
 3611SOL    HW222293   1.659   0.537   7.660 -0.6951  0.8179 -0.1486
 3612SOL     OW22294   1.623   1.220   5.105  0.1740 -0.2810  0.3408
 3612SOL    HW122295   1.705   1.226   5.155  1.5691 -1.3630 -1.8361
 3612SOL    HW222296   1.662   1.203   5.020 -1.4166 -0.0635 -0.4159
 3613SOL     OW22297   1.005   0.517   1.962 -0.3635 -0.3905  0.0311
 3613SOL    HW122298   1.041   0.580   2.025  1.1028 -1.9386  0.7274
 3613SOL    HW222299   1.013   0.565   1.879 -1.1038 -0.7537 -0.2551
 3614SOL     OW22300   0.610   3.499  13.538 -0.5156 -0.5714 -0.6920
 3614SOL    HW122301   0.547   3.572  13.532 -0.6539 -0.5444  0.8894
 3614SOL    HW222302   0.649   3.496  13.451 -1.0345  0.9210 -0.9881
 3615SOL     OW22303   1.720   1.205   6.949 -0.3849  0.0404  0.0144
 3615SOL    HW122304   1.791   1.236   7.004 -0.7506 -0.3107  0.6834
 3615SOL    HW222305   1.747   1.115   6.929  0.6080  0.3860 -0.1886
 3616SOL     OW22306   2.785   4.275   3.473 -0.2782  0.1526  0.6869
 3616SOL    HW122307   2.753   4.188   3.449  3.0066 -0.4822 -1.2985
 3616SOL    HW222308   2.702   4.319   3.494 -0.4181  0.7282 -1.1098
 3617SOL     OW22309   1.156   3.436   2.761 -0.0711  0.0873  0.1275
 3617SOL    HW122310   1.219   3.420   2.691 -0.7859 -0.3838 -0.4023
 3617SOL    HW222311   1.151   3.532   2.761 -0.5401  0.0722 -1.4628
 3618SOL     OW22312   0.474   4.063  17.258  0.4638 -0.7306  0.3138
 3618SOL    HW122313   0.541   4.088  17.321 -1.1524 -1.4323  2.3447
 3618SOL    HW222314   0.393   4.094  17.300  0.8563  0.3796  0.2643
 3619SOL     OW22315   3.944   1.692   5.418  0.0385 -0.2525  0.2958
 3619SOL    HW122316   3.857   1.660   5.444 -0.0628  1.3903  1.9492
 3619SOL    HW222317   3.972   1.742   5.495 -0.1887  1.0386 -0.4782
 3620SOL     OW22318   3.081   4.271   0.873 -0.4012  0.1218  0.4892
 3620SOL    HW122319   3.100   4.236   0.960 -1.4533 -0.6090  0.4265
 3620SOL    HW222320   2.987   4.252   0.865 -0.3926  0.0597  0.5380
 3621SOL     OW22321   3.680   3.624   6.590  0.0162  0.1352 -0.3904
 3621SOL    HW122322   3.767   3.605   6.555  0.7112  0.3783  1.2335
 3621SOL    HW222323   3.681   3.581   6.675  1.4399 -0.5691 -0.7563
 3622SOL     OW22324   0.342   1.586   8.186  0.7121 -0.1235 -0.7787
 3622SOL    HW122325   0.349   1.674   8.223  2.1053  0.1292 -1.6510
 3622SOL    HW222326   0.314   1.597   8.095  0.5004  2.0996 -0.4450
 3623SOL     OW22327   1.247   3.262   3.940 -0.3815  0.3627 -0.1823
 3623SOL    HW122328   1.265   3.174   3.974 -2.4465  0.7884  1.9756
 3623SOL    HW222329   1.310   3.268   3.868 -0.4373  1.6845 -0.1200
 3624SOL     OW22330   1.350   0.926   3.489 -0.4478 -0.0561  0.1979
 3624SOL    HW122331   1.411   0.867   3.444 -3.6194 -2.8306 -0.4395
 3624SOL    HW222332   1.374   1.009   3.448  0.3841  0.2031  1.2119
 3625SOL     OW22333   0.475   3.801  11.532  0.1152 -0.3498  0.0847
 3625SOL    HW122334   0.560   3.796  11.488  0.0922 -0.5561  0.0663
 3625SOL    HW222335   0.406   3.825  11.469  0.4758 -0.5113 -0.3704
 3626SOL     OW22336   2.938   1.273   3.374  0.0126 -0.0627  0.4051
 3626SOL    HW122337   2.952   1.328   3.451 -0.4648 -2.6226  2.2926
 3626SOL    HW222338   2.848   1.298   3.356 -0.7006  1.0194  5.4848
 3627SOL     OW22339   2.283   0.074  11.574 -0.7888 -0.3072 -0.2543
 3627SOL    HW122340   2.309   4.707  11.551  1.1448  0.4777 -1.1563
 3627SOL    HW222341   2.198   0.049  11.611 -0.7017 -2.3161 -1.3897
 3628SOL     OW22342   3.889   1.005   3.638 -0.7461  0.4426 -0.7423
 3628SOL    HW122343   3.982   0.985   3.632 -0.6272  1.2751 -1.6228
 3628SOL    HW222344   3.862   0.946   3.567 -1.1754  0.5832 -0.6956
 3629SOL     OW22345   3.949   3.389   3.258 -0.4221  0.2366 -0.0934
 3629SOL    HW122346   3.863   3.428   3.243 -0.3362  0.4110 -0.1350
 3629SOL    HW222347   3.944   3.294   3.251  2.1807  0.2822 -2.5722
 3630SOL     OW22348   0.459   3.514  10.164 -0.6892  0.2180  0.1043
 3630SOL    HW122349   0.500   3.495  10.079  0.0332  0.0759  0.4858
 3630SOL    HW222350   0.535   3.565  10.191  0.4954 -1.3926 -0.2321
 3631SOL     OW22351   4.653   2.219   5.405 -0.0599 -0.2336 -0.5311
 3631SOL    HW122352   4.716   2.199   5.336  1.7846  1.8714  0.5373
 3631SOL    HW222353   4.587   2.254   5.345  1.9810 -0.4312 -2.8710
 3632SOL     OW22354   2.426   1.429   4.364  0.0791 -0.3782  0.5509
 3632SOL    HW122355   2.355   1.460   4.421  0.7584  3.4822 -0.6900
 3632SOL    HW222356   2.453   1.517   4.338 -0.7838 -0.0217  0.8360
 3633SOL     OW22357   3.384   0.505  10.446 -0.0300 -0.0452  0.3875
 3633SOL    HW122358   3.413   0.569  10.511 -0.0619 -0.1215  0.4766
 3633SOL    HW222359   3.457   0.505  10.383 -0.8902 -1.5726 -0.6113
 3634SOL     OW22360   2.245   3.336  13.954 -0.1799  0.4625  0.6884
 3634SOL    HW122361   2.228   3.349  13.861 -3.2449 -0.2985  1.1400
 3634SOL    HW222362   2.292   3.418  13.972  3.0460 -0.6877 -2.4565
 3635SOL     OW22363   4.608   0.444   3.958 -0.2868  0.1878  0.4213
 3635SOL    HW122364   4.542   0.503   3.993 -0.5636 -0.8397  1.6652
 3635SOL    HW222365   4.639   0.389   4.030 -3.3672 -2.1851 -0.0730
 3636SOL     OW22366   3.601   0.856  13.419  0.0281  0.2221 -0.2841
 3636SOL    HW122367   3.582   0.949  13.436 -0.8087  0.2571 -1.4075
 3636SOL    HW222368   3.546   0.811  13.483  1.1871 -2.2630 -1.0184
 3637SOL     OW22369   0.952   3.295   5.866  0.2737 -0.3424 -0.6149
 3637SOL    HW122370   0.924   3.253   5.946  0.2985 -1.1362 -1.0266
 3637SOL    HW222371   1.045   3.296   5.890  0.4706  0.2035 -1.3813
 3638SOL     OW22372   0.171   0.953   7.203  0.2195 -0.5481  0.2639
 3638SOL    HW122373   0.133   1.021   7.146 -1.6934 -2.4309 -0.6912
 3638SOL    HW222374   0.093   0.903   7.226 -0.1648  0.0422  0.2618
 3639SOL     OW22375   1.823   1.646  13.017  0.2352  0.2009  0.1736
 3639SOL    HW122376   1.917   1.658  13.012  0.5550 -1.1157  3.1284
 3639SOL    HW222377   1.792   1.698  13.091  0.9559 -0.1684  0.7347
 3640SOL     OW22378   4.458   3.610   7.975  0.0498  0.3594  0.3716
 3640SOL    HW122379   4.371   3.615   8.013 -0.7476  1.3792 -1.5573
 3640SOL    HW222380   4.498   3.696   7.990  0.8907 -0.1222  0.8696
 3641SOL     OW22381   1.560   0.878  11.158 -0.2315 -0.0037  0.2847
 3641SOL    HW122382   1.581   0.786  11.142  0.5265  0.1985  0.1236
 3641SOL    HW222383   1.553   0.911  11.068  1.3975  2.1396  0.9399
 3642SOL     OW22384   3.457   3.499  17.031  0.1302 -0.6385 -0.1216
 3642SOL    HW122385   3.408   3.493  16.949  0.4751  1.4593 -0.5021
 3642SOL    HW222386   3.409   3.574  17.068 -1.0988 -1.2201 -0.5366
 3643SOL     OW22387   1.854   3.610   4.902  0.6089  0.7019  0.3674
 3643SOL    HW122388   1.937   3.609   4.950  1.1819  1.6811 -0.6089
 3643SOL    HW222389   1.821   3.522   4.915  0.6246  0.7135  0.4816
 3644SOL     OW22390   0.633   1.910   3.634  0.5920 -0.3960  0.0973
 3644SOL    HW122391   0.628   1.943   3.544  0.7131 -0.4976  0.0523
 3644SOL    HW222392   0.557   1.957   3.669 -1.3089 -1.6685 -2.2354
 3645SOL     OW22393   1.270   1.787  13.818  0.0890 -0.5433 -0.2070
 3645SOL    HW122394   1.362   1.781  13.792 -0.2737  0.3433 -1.7315
 3645SOL    HW222395   1.242   1.697  13.801 -1.4734 -0.2828  1.0455
 3646SOL     OW22396   0.087   1.686   3.781  0.5447  0.0485  0.2457
 3646SOL    HW122397   0.061   1.764   3.731 -0.5766 -0.4988 -0.0285
 3646SOL    HW222398   0.016   1.690   3.844  0.8324  0.9325  0.5114
 3647SOL     OW22399   0.461   4.164  10.815  0.1106  0.2270  0.2481
 3647SOL    HW122400   0.484   4.254  10.792  0.9635 -0.3151 -0.9939
 3647SOL    HW222401   0.438   4.181  10.907  1.5017 -0.9842  0.8156
 3648SOL     OW22402   1.001   3.910  12.154 -0.5280 -0.0904 -0.1959
 3648SOL    HW122403   1.045   3.852  12.216 -2.0024 -1.2067 -0.2093
 3648SOL    HW222404   0.914   3.872  12.151 -0.4806 -0.1216 -1.1320
 3649SOL     OW22405   2.923   4.158  15.171  0.1069 -0.0466 -0.2138
 3649SOL    HW122406   2.984   4.104  15.221  1.9040 -0.7157 -3.0910
 3649SOL    HW222407   2.992   4.151  15.104 -1.4613 -0.2541 -1.8161
 3650SOL     OW22408   0.040   1.574   2.754  0.1145  0.1044  0.1267
 3650SOL    HW122409   4.696   1.597   2.818 -0.3567  0.7521 -0.6012
 3650SOL    HW222410   4.716   1.547   2.675 -3.3143 -1.1355  2.6077
 3651SOL     OW22411   2.325   3.027   1.436  0.5013 -0.0708 -0.6902
 3651SOL    HW122412   2.322   3.071   1.352 -1.5196  1.2674  0.0721
 3651SOL    HW222413   2.337   3.100   1.496 -1.0197 -0.7157  0.3964
 3652SOL     OW22414   2.305   3.322   8.943 -0.1099  0.0803 -0.4626
 3652SOL    HW122415   2.337   3.407   8.975  1.1877 -0.2296 -0.9207
 3652SOL    HW222416   2.392   3.286   8.926  0.1496  0.1485  0.7318
 3653SOL     OW22417   3.896   4.034  16.368 -0.4804 -0.0059 -0.1865
 3653SOL    HW122418   3.826   4.015  16.431  1.7727 -2.3481  1.6514
 3653SOL    HW222419   3.857   4.058  16.284 -2.7029 -1.6331  0.3834
 3654SOL     OW22420   0.490   4.620   2.453 -1.1102  0.7284  0.1189
 3654SOL    HW122421   0.553   4.667   2.506 -0.1360  2.3651 -2.4933
 3654SOL    HW222422   0.409   4.668   2.472  0.2327  2.9566  0.1235
 3655SOL     OW22423   2.609   0.853   5.653  0.5546  0.6206 -0.2845
 3655SOL    HW122424   2.659   0.867   5.734  1.3404 -0.9996 -0.4773
 3655SOL    HW222425   2.587   0.942   5.626  0.4726  0.7069  0.0672
 3656SOL     OW22426   4.473   0.777   8.426 -0.0179 -0.4265 -0.1822
 3656SOL    HW122427   4.504   0.700   8.473  1.4886  0.6207  0.5502
 3656SOL    HW222428   4.389   0.781   8.472 -0.8470 -1.4716 -1.6172
 3657SOL     OW22429   3.637   2.206   6.695  0.3184  0.3316  0.8128
 3657SOL    HW122430   3.544   2.206   6.719  0.8222  2.5405  2.7517
 3657SOL    HW222431   3.657   2.112   6.701 -1.2382 -0.0474  0.2023
 3658SOL     OW22432   2.135   3.406  14.677 -0.2410 -0.1145 -0.1038
 3658SOL    HW122433   2.115   3.478  14.736 -1.0113 -0.2217 -0.2301
 3658SOL    HW222434   2.106   3.329  14.726 -2.3986  0.9589  0.3054
 3659SOL     OW22435   0.790   4.226  10.306 -0.0971 -0.2280  0.1693
 3659SOL    HW122436   0.832   4.310  10.327  0.7570 -0.9128  1.1821
 3659SOL    HW222437   0.859   4.165  10.329  0.4703 -0.4621 -2.1552
 3660SOL     OW22438   3.567   0.823  14.911  0.5960 -0.2077 -0.0140
 3660SOL    HW122439   3.612   0.833  14.828  1.7781 -1.7725  0.4492
 3660SOL    HW222440   3.486   0.790  14.871 -0.9176  1.3071  1.7796
 3661SOL     OW22441   0.521   1.134   4.512  0.1582  0.2327  0.2901
 3661SOL    HW122442   0.541   1.091   4.429  1.4250  1.2421  0.0696
 3661SOL    HW222443   0.567   1.216   4.494  1.0876 -0.8960 -2.4649
 3662SOL     OW22444   0.197   0.335  15.159 -0.5884  0.5176  0.4557
 3662SOL    HW122445   0.151   0.419  15.153 -1.0073  0.3046  0.6228
 3662SOL    HW222446   0.281   0.371  15.187 -1.2061  1.8669  0.5778
 3663SOL     OW22447   4.638   3.821  14.798  0.0203 -0.9008  0.1005
 3663SOL    HW122448   4.620   3.779  14.714  2.9898 -0.6089 -0.6777
 3663SOL    HW222449   4.595   3.906  14.785  0.7467 -0.4238  0.8261
 3664SOL     OW22450   2.771   0.234  13.950  0.1600 -0.2774 -0.0117
 3664SOL    HW122451   2.831   0.204  13.882  1.8615  1.4674  0.7265
 3664SOL    HW222452   2.808   0.318  13.977  0.7555 -0.4324 -0.3521
 3665SOL     OW22453   3.520   0.344  15.469  0.0644  0.4391 -0.0390
 3665SOL    HW122454   3.572   0.385  15.400 -0.1503  0.0275 -0.4480
 3665SOL    HW222455   3.435   0.377  15.440 -1.4427 -3.1431  0.2585
 3666SOL     OW22456   2.476   3.553   8.723  0.1730  0.6526 -0.1011
 3666SOL    HW122457   2.525   3.474   8.701  1.6891  1.4650  0.3247
 3666SOL    HW222458   2.420   3.564   8.646  0.1857  0.4968 -0.1319
 3667SOL     OW22459   4.410   4.097   3.539 -0.2002 -0.1601  0.0455
 3667SOL    HW122460   4.423   4.188   3.565  1.6364 -0.5730  0.5944
 3667SOL    HW222461   4.420   4.064   3.629  0.3566 -0.5619 -0.1625
 3668SOL     OW22462   1.086   2.048   6.086  0.7333  0.1038  0.5619
 3668SOL    HW122463   1.093   1.998   6.005  0.0687 -0.2149  0.7048
 3668SOL    HW222464   1.137   1.993   6.146 -1.7862 -1.2353  1.4318
 3669SOL     OW22465   0.880   3.182  14.200 -0.0918  0.1535  0.4716
 3669SOL    HW122466   0.966   3.163  14.236  0.4719 -1.3799 -1.6542
 3669SOL    HW222467   0.900   3.174  14.106 -1.9511 -0.2470  0.1016
 3670SOL     OW22468   0.951   4.004   1.668  0.1263 -0.1771 -0.1377
 3670SOL    HW122469   1.008   4.049   1.606  1.0102 -1.2510 -0.0906
 3670SOL    HW222470   1.010   3.987   1.742 -2.7097 -0.0771  2.1742
 3671SOL     OW22471   3.128   3.278   4.317 -0.0318  0.2832 -0.0147
 3671SOL    HW122472   3.191   3.208   4.332 -1.1109 -0.7945 -0.5623
 3671SOL    HW222473   3.161   3.333   4.245 -1.6301  0.2394 -0.7920
 3672SOL     OW22474   4.048   1.638   3.940  0.1237 -0.3192  0.3847
 3672SOL    HW122475   3.980   1.581   3.904 -1.6546  1.0547  1.5908
 3672SOL    HW222476   4.045   1.710   3.877 -1.6334 -1.7590 -1.1667
 3673SOL     OW22477   3.206   2.659   9.010  0.1269  1.0426 -0.3579
 3673SOL    HW122478   3.210   2.704   8.926  1.6188 -1.6905 -1.7705
 3673SOL    HW222479   3.182   2.571   8.980 -0.6758  1.6218 -1.4031
 3674SOL     OW22480   2.553   3.567   1.931  0.4777 -0.1473  0.2727
 3674SOL    HW122481   2.524   3.481   1.960 -0.8112  0.8129  1.8203
 3674SOL    HW222482   2.523   3.573   1.841  0.9762 -1.0892  0.0486
 3675SOL     OW22483   4.234   2.811   4.404  0.2743 -0.2180 -0.3350
 3675SOL    HW122484   4.209   2.729   4.446 -2.4397 -0.1376 -1.7914
 3675SOL    HW222485   4.328   2.800   4.389  0.3175  0.8165 -0.8152
 3676SOL     OW22486   0.794   2.598  16.654 -0.4829  0.1207  0.0257
 3676SOL    HW122487   0.727   2.580  16.721 -2.2786 -0.2301 -1.8696
 3676SOL    HW222488   0.859   2.529  16.669 -0.6191  0.3949  1.9311
 3677SOL     OW22489   3.853   3.491   8.002 -0.2240  0.0460  0.2405
 3677SOL    HW122490   3.902   3.555   7.951 -1.3076  2.0888  1.8071
 3677SOL    HW222491   3.775   3.544   8.019  0.1183  1.2030 -1.7768
 3678SOL     OW22492   2.095   2.287   1.276 -0.0157  0.0034  0.0342
 3678SOL    HW122493   2.141   2.252   1.352 -0.0452  1.5300  0.7535
 3678SOL    HW222494   2.006   2.252   1.281  0.3873 -0.7980  1.6289
 3679SOL     OW22495   1.204   0.390   8.924 -0.3658 -0.0087  0.0543
 3679SOL    HW122496   1.187   0.397   9.018 -0.2165  0.3903  0.0528
 3679SOL    HW222497   1.140   0.454   8.892  1.3517  0.5849 -2.1766
 3680SOL     OW22498   2.115   0.375   3.800 -0.2606 -0.3990  0.2971
 3680SOL    HW122499   2.066   0.451   3.832 -0.3665 -1.0050  1.5891
 3680SOL    HW222500   2.135   0.336   3.885  1.6763 -0.4917 -0.2070
 3681SOL     OW22501   0.414   3.720   2.641  0.3953  0.8414 -0.9357
 3681SOL    HW122502   0.402   3.716   2.547 -2.0283  0.2751 -0.6019
 3681SOL    HW222503   0.423   3.813   2.663  1.2991  0.6231 -0.3652
 3682SOL     OW22504   0.625   2.706  17.287 -0.0772  0.2852  0.7372
 3682SOL    HW122505   0.546   2.760  17.288  0.1306  0.5328  3.3779
 3682SOL    HW222506   0.657   2.720  17.376 -2.3691 -0.5491  1.7006
 3683SOL     OW22507   2.525   1.310   3.559  0.4889 -0.3418 -0.5294
 3683SOL    HW122508   2.573   1.380   3.514  0.4120  0.5181  0.7353
 3683SOL    HW222509   2.571   1.322   3.642  1.1355 -1.4207 -0.7371
 3684SOL     OW22510   1.783   3.697   9.894  0.0481 -0.3710 -0.1220
 3684SOL    HW122511   1.734   3.614   9.894  0.3193 -0.5186  3.5540
 3684SOL    HW222512   1.868   3.675   9.855  0.1302  0.1920 -0.2525
 3685SOL     OW22513   0.671   2.076   6.994  0.1801  0.1406 -0.2351
 3685SOL    HW122514   0.628   2.039   6.917 -0.6062 -0.1749  0.3428
 3685SOL    HW222515   0.763   2.083   6.969  0.9423  0.4020  2.6551
 3686SOL     OW22516   0.590   1.541   2.426  0.5961 -0.2262 -0.0105
 3686SOL    HW122517   0.624   1.624   2.461 -0.1731 -1.1545  2.8756
 3686SOL    HW222518   0.500   1.565   2.403  1.2090  0.1611 -2.0773
 3687SOL     OW22519   2.629   4.481   3.625  0.2481 -0.1172  0.0576
 3687SOL    HW122520   2.633   4.439   3.711  1.1559  0.3927  0.2709
 3687SOL    HW222521   2.592   4.567   3.646 -0.6783 -0.5758  0.2878
 3688SOL     OW22522   3.079   0.407   5.972  0.6819  0.0026 -0.0659
 3688SOL    HW122523   3.169   0.384   5.996  0.5089  1.3499  1.8721
 3688SOL    HW222524   3.036   0.370   6.049  0.7779  1.5586  0.7539
 3689SOL     OW22525   3.933   0.844  12.777 -0.1900 -0.1219  0.0489
 3689SOL    HW122526   3.993   0.893  12.720  0.5569 -0.2498  0.7152
 3689SOL    HW222527   4.002   0.792  12.820  0.0334 -0.2489 -0.4612
 3690SOL     OW22528   3.054   1.624   8.765 -0.3071 -0.3439  0.5583
 3690SOL    HW122529   3.038   1.548   8.822 -0.4052  0.5185  1.6815
 3690SOL    HW222530   2.995   1.600   8.694  0.3539  0.1652 -0.1636
 3691SOL     OW22531   2.175   0.655   0.285  0.0756  0.1784  0.1620
 3691SOL    HW122532   2.105   0.689   0.341 -1.1975 -2.3488  0.0565
 3691SOL    HW222533   2.252   0.691   0.330  0.1487  3.3971 -2.5223
 3692SOL     OW22534   4.489   3.169   8.576 -0.4115 -0.0435  0.0862
 3692SOL    HW122535   4.416   3.138   8.522 -0.5631 -0.1653  0.3631
 3692SOL    HW222536   4.559   3.180   8.511  0.5744  1.3067  1.3897
 3693SOL     OW22537   3.768   2.903   2.281  0.4365 -0.1644  0.1901
 3693SOL    HW122538   3.819   2.984   2.268 -2.4628  1.6271  0.0164
 3693SOL    HW222539   3.684   2.934   2.248  0.7528 -0.9966 -1.4034
 3694SOL     OW22540   1.698   2.109   8.152 -0.1204 -0.1275  0.2644
 3694SOL    HW122541   1.749   2.039   8.110 -1.5012 -1.3877  0.6674
 3694SOL    HW222542   1.725   2.184   8.099 -1.2453 -0.5820 -0.9482
 3695SOL     OW22543   3.787   0.980   5.049  1.0998 -0.2816  0.4821
 3695SOL    HW122544   3.711   1.009   5.100 -0.3791 -0.1837 -1.7873
 3695SOL    HW222545   3.840   0.949   5.122 -0.2665  0.3882  1.7642
 3696SOL     OW22546   0.869   4.250  12.067 -0.7489  0.8630  0.0942
 3696SOL    HW122547   0.776   4.259  12.046 -0.7077  2.1014  0.4593
 3696SOL    HW222548   0.901   4.199  11.992 -0.3965 -0.7585  1.3372
 3697SOL     OW22549   1.455   0.269   7.991  0.5326 -0.1049 -0.1748
 3697SOL    HW122550   1.402   0.313   8.058 -2.5437 -1.1099 -1.9439
 3697SOL    HW222551   1.537   0.267   8.041  0.8510 -0.3577 -0.7059
 3698SOL     OW22552   1.678   2.819   7.322 -0.0503 -0.8364 -0.3435
 3698SOL    HW122553   1.733   2.849   7.250 -3.2520  2.8571 -1.2537
 3698SOL    HW222554   1.696   2.725   7.313 -0.6566 -1.0743  1.0593
 3699SOL     OW22555   0.308   3.039   8.314  0.3865 -0.3716  0.5994
 3699SOL    HW122556   0.361   2.961   8.328  0.8936 -0.5651 -2.3007
 3699SOL    HW222557   0.259   3.017   8.234 -0.1906  2.6735  0.1059
 3700SOL     OW22558   1.592   1.251   4.490  0.0850 -0.2847  0.3000
 3700SOL    HW122559   1.505   1.214   4.504  0.1733  0.0237  1.6480
 3700SOL    HW222560   1.635   1.185   4.436  0.9894  0.5133  0.0306
 3701SOL     OW22561   3.392   3.880  10.223  0.3637 -0.2196  0.6573
 3701SOL    HW122562   3.333   3.952  10.246 -1.0074 -1.1424  0.0555
 3701SOL    HW222563   3.431   3.932  10.153  0.1321 -0.1923  0.5454
 3702SOL     OW22564   1.452   2.355   6.927  0.4245  0.9424 -0.2008
 3702SOL    HW122565   1.413   2.440   6.942  0.0231  1.0654 -1.8787
 3702SOL    HW222566   1.470   2.342   7.020  0.3752  2.2403 -0.0223
 3703SOL     OW22567   2.959   3.928  17.033 -0.2356 -0.3180 -0.8878
 3703SOL    HW122568   2.995   4.016  17.022 -1.9891  0.3841 -1.0429
 3703SOL    HW222569   2.865   3.937  17.050  0.2636  2.0487  0.6061
 3704SOL     OW22570   1.810   2.647   1.393  0.5366 -0.4156 -0.0067
 3704SOL    HW122571   1.739   2.711   1.405  0.5265 -0.2668 -0.8676
 3704SOL    HW222572   1.776   2.562   1.420  2.6495 -0.2274  3.2703
 3705SOL     OW22573   1.229   3.169   7.333  0.5597  0.4067 -0.3435
 3705SOL    HW122574   1.248   3.098   7.394  0.0957 -0.1766 -0.8831
 3705SOL    HW222575   1.236   3.248   7.387  0.4380 -0.3917  0.8437
 3706SOL     OW22576   2.854   3.643   5.606  0.1935  0.0971 -0.2997
 3706SOL    HW122577   2.761   3.662   5.601 -0.0613 -0.3010  3.1550
 3706SOL    HW222578   2.874   3.662   5.514  0.7338  0.1853 -0.1652
 3707SOL     OW22579   3.298   3.661   3.963  0.2852  0.4788 -0.1589
 3707SOL    HW122580   3.261   3.743   3.928 -0.8448 -0.5457 -1.3987
 3707SOL    HW222581   3.319   3.689   4.052 -0.6002 -2.4067  0.9630
 3708SOL     OW22582   0.184   3.694  11.123 -0.8195  0.3854  0.5676
 3708SOL    HW122583   0.140   3.610  11.110  0.9151 -0.5201  0.5562
 3708SOL    HW222584   0.156   3.739  11.043  0.0798 -0.0771 -0.0034
 3709SOL     OW22585   0.114   0.537  14.967  1.0378 -0.3828 -0.4521
 3709SOL    HW122586   0.195   0.569  14.929 -0.2490  3.7265  0.2265
 3709SOL    HW222587   0.074   0.624  14.969  0.0086 -0.8535 -0.2022
 3710SOL     OW22588   1.108   2.481  10.369 -0.3855 -0.1616  0.5478
 3710SOL    HW122589   1.095   2.397  10.325 -3.4767  0.0744  0.9636
 3710SOL    HW222590   1.080   2.460  10.458  0.7381  1.9680  1.4007
 3711SOL     OW22591   2.169   4.151  13.158 -0.1228  0.2983  0.1070
 3711SOL    HW122592   2.121   4.069  13.160  0.0698  0.1650 -0.9625
 3711SOL    HW222593   2.106   4.223  13.152 -2.1280 -1.2469  2.8412
 3712SOL     OW22594   0.130   1.232   2.045  0.0814  0.1361 -0.3707
 3712SOL    HW122595   0.074   1.272   1.978 -0.2763  0.9217  0.3950
 3712SOL    HW222596   0.168   1.304   2.095  1.6675 -0.7399 -0.3211
 3713SOL     OW22597   3.686   3.443   1.925 -0.8758  0.7254  0.3710
 3713SOL    HW122598   3.601   3.400   1.912 -0.5700 -0.0474  0.9010
 3713SOL    HW222599   3.701   3.477   1.836 -2.3163 -0.3697 -0.2953
 3714SOL     OW22600   2.509   0.713   8.964  0.0011  0.2356  0.0476
 3714SOL    HW122601   2.425   0.697   9.006  0.9538  0.7306  2.1189
 3714SOL    HW222602   2.508   0.641   8.900  0.5314 -0.1331  0.4590
 3715SOL     OW22603   0.243   2.016  12.548 -0.1231 -0.4525 -0.0596
 3715SOL    HW122604   0.299   1.940  12.566 -0.0676 -0.4320 -0.1435
 3715SOL    HW222605   0.161   1.973  12.573  1.6691 -4.0623 -0.3908
 3716SOL     OW22606   3.486   4.339  10.780 -0.1713  0.5246  0.1926
 3716SOL    HW122607   3.401   4.311  10.745 -1.5318  2.2597  2.1181
 3716SOL    HW222608   3.519   4.254  10.810 -1.8794  0.1788  1.0855
 3717SOL     OW22609   1.822   4.096   5.621  0.5211 -0.5487  0.0442
 3717SOL    HW122610   1.823   4.019   5.564  1.1453 -0.8914  0.5085
 3717SOL    HW222611   1.742   4.078   5.672 -0.0589 -0.0870 -0.6980
 3718SOL     OW22612   0.736   4.006   3.811 -0.3123 -0.7411  0.0946
 3718SOL    HW122613   0.687   4.062   3.750 -0.7923 -0.3502  0.8364
 3718SOL    HW222614   0.779   4.061   3.877  0.9810  0.1957 -1.5277
 3719SOL     OW22615   1.076   0.315  16.969 -0.1327  0.4599  0.8581
 3719SOL    HW122616   1.097   0.235  17.017  1.2005  1.4961  1.9874
 3719SOL    HW222617   1.162   0.356  16.976 -1.2025  2.9050 -0.5816
 3720SOL     OW22618   1.791   1.170   4.847  0.3486  0.7758 -0.5647
 3720SOL    HW122619   1.841   1.098   4.808  0.6652  0.8071 -0.2199
 3720SOL    HW222620   1.752   1.216   4.773 -1.8758  0.6424  0.5296
 3721SOL     OW22621   0.849   2.611  12.215  0.5638  0.3283 -0.2188
 3721SOL    HW122622   0.847   2.524  12.176 -0.3868 -0.2829  1.2022
 3721SOL    HW222623   0.797   2.660  12.151  0.5701 -0.8965 -1.1540
 3722SOL     OW22624   1.049   0.259  12.189  0.2838 -0.4315 -0.5993
 3722SOL    HW122625   1.015   0.211  12.113  0.2044 -2.8520  0.9926
 3722SOL    HW222626   1.086   0.184  12.235 -1.7191 -0.5234  0.8474
 3723SOL     OW22627   4.361   0.016   9.204 -0.1722 -0.0634  0.0635
 3723SOL    HW122628   4.366   0.104   9.165  0.4547  1.7949  4.3201
 3723SOL    HW222629   4.295   0.032   9.271  1.5184  1.1772  1.4419
 3724SOL     OW22630   1.891   4.245   2.312 -0.2925  0.5902  0.4792
 3724SOL    HW122631   1.971   4.193   2.317 -1.7986 -1.7813 -0.5358
 3724SOL    HW222632   1.824   4.178   2.302  0.4394  0.1068 -1.1245
 3725SOL     OW22633   0.272   3.278   2.827 -0.1851  0.5124 -0.0992
 3725SOL    HW122634   0.314   3.340   2.768  1.0409 -1.8156 -1.6942
 3725SOL    HW222635   0.178   3.272   2.811 -0.4998 -0.6185  2.1245
 3726SOL     OW22636   4.166   2.643  12.488  0.2153 -0.2440 -0.2862
 3726SOL    HW122637   4.104   2.711  12.461  1.2293  0.9415  0.3914
 3726SOL    HW222638   4.190   2.683  12.571  1.7238  0.0085 -0.8372
 3727SOL     OW22639   1.277   3.222   7.078  0.3664  0.4815 -0.0192
 3727SOL    HW122640   1.343   3.153   7.085  1.4323  1.2523 -2.5179
 3727SOL    HW222641   1.255   3.210   7.171 -1.9375  1.1789 -0.4692
 3728SOL     OW22642   0.869   3.668  11.171 -0.1000 -0.5723  0.0687
 3728SOL    HW122643   0.798   3.605  11.157  0.6410 -1.1910 -0.9230
 3728SOL    HW222644   0.928   3.599  11.201  1.3853 -0.2554 -2.1134
 3729SOL     OW22645   1.584   3.187   7.509  0.0477  0.2602  0.3141
 3729SOL    HW122646   1.568   3.095   7.488  2.1605  0.3559 -1.7103
 3729SOL    HW222647   1.669   3.201   7.467  1.4327 -0.8813  2.7362
 3730SOL     OW22648   2.057   1.891   2.954  0.6619  0.7127 -0.6502
 3730SOL    HW122649   2.085   1.839   3.029  0.0982  1.8663  0.3439
 3730SOL    HW222650   2.039   1.823   2.889 -1.7530 -0.4122  1.1969
 3731SOL     OW22651   3.224   1.859   3.841  0.4884 -0.1799 -0.0190
 3731SOL    HW122652   3.296   1.849   3.903 -0.0289 -0.8249  0.4716
 3731SOL    HW222653   3.238   1.946   3.803 -1.8478  0.5347  0.8243
 3732SOL     OW22654   0.297   4.389   8.881  0.2219 -0.2294  0.4203
 3732SOL    HW122655   0.301   4.295   8.902 -1.1585 -0.1341  1.1358
 3732SOL    HW222656   0.334   4.426   8.960  0.3516  1.9925 -0.6947
 3733SOL     OW22657   2.453   2.844   8.030  0.9601  0.5729  1.0511
 3733SOL    HW122658   2.532   2.790   8.019  0.5249 -0.3311  2.3806
 3733SOL    HW222659   2.450   2.885   7.943  0.2166  0.6883  1.1370
 3734SOL     OW22660   4.502   2.792   2.427  0.3157  0.2266  0.4856
 3734SOL    HW122661   4.443   2.754   2.492 -0.9766  1.6944  0.1704
 3734SOL    HW222662   4.547   2.842   2.495  0.3204  0.2635  0.4552
 3735SOL     OW22663   1.081   4.012   2.642  0.2146  0.0200  0.4361
 3735SOL    HW122664   1.072   4.108   2.640 -0.5619 -0.1557 -3.3252
 3735SOL    HW222665   0.989   3.995   2.625  0.3593 -0.2784 -0.0483
 3736SOL     OW22666   4.416   1.368   3.910 -0.1109 -0.1318 -0.5861
 3736SOL    HW122667   4.503   1.329   3.918  0.6056  1.2867 -1.5803
 3736SOL    HW222668   4.360   1.308   3.960  0.5369  0.3638  0.7624
 3737SOL     OW22669   0.099   0.290   4.638 -0.1850  0.1342  0.3071
 3737SOL    HW122670   0.077   0.357   4.574  1.4777  0.4921  0.1097
 3737SOL    HW222671   0.168   0.244   4.590  1.4618 -0.0171  2.8112
 3738SOL     OW22672   2.390   0.197  14.639 -0.3328 -0.1757 -0.5123
 3738SOL    HW122673   2.394   0.239  14.553  2.5870  0.7947  0.1293
 3738SOL    HW222674   2.481   0.207  14.665  0.2356 -1.0612 -2.1309
 3739SOL     OW22675   0.979   0.088   7.385  0.0368 -1.0527  0.0910
 3739SOL    HW122676   0.916   0.141   7.433  2.4692  0.8624  1.1574
 3739SOL    HW222677   0.993   0.012   7.441 -1.4886 -0.5545  1.1551
 3740SOL     OW22678   1.245   4.246   2.056 -0.2168 -0.3062  0.4004
 3740SOL    HW122679   1.228   4.336   2.085 -2.1843 -0.3205 -0.7048
 3740SOL    HW222680   1.208   4.204   2.133 -0.8446 -5.0492 -2.4953
 3741SOL     OW22681   2.568   0.456   5.062  0.1011  0.0193 -0.2545
 3741SOL    HW122682   2.644   0.413   5.101 -0.0550 -1.2028 -1.2954
 3741SOL    HW222683   2.506   0.385   5.043  0.1542  0.2227 -1.1499
 3742SOL     OW22684   4.032   2.110   6.025  0.1237  0.4232  0.8560
 3742SOL    HW122685   4.055   2.194   6.063 -0.3258  1.7890 -1.9272
 3742SOL    HW222686   4.017   2.126   5.932 -0.0729 -4.6688  0.0010
 3743SOL     OW22687   2.598   2.363   2.351  0.2796  0.1790  0.2561
 3743SOL    HW122688   2.517   2.355   2.300  1.6104 -1.1089 -1.6316
 3743SOL    HW222689   2.625   2.272   2.359  0.0280 -0.0681 -1.7509
 3744SOL     OW22690   1.525   2.873   9.828 -1.2036 -0.6212  0.4546
 3744SOL    HW122691   1.536   2.778   9.824  0.6454 -0.4161  0.8637
 3744SOL    HW222692   1.613   2.907   9.845 -2.7935  3.5047  0.4506
 3745SOL     OW22693   2.917   0.263   8.238 -0.0097 -0.2502 -0.3202
 3745SOL    HW122694   2.884   0.261   8.148 -1.3786  0.0833  0.1626
 3745SOL    HW222695   2.957   0.349   8.249  0.6930 -0.7478  0.9472
 3746SOL     OW22696   2.831   4.275   2.313 -0.9414 -0.1424 -0.1999
 3746SOL    HW122697   2.887   4.326   2.372 -1.1757  1.4784 -1.3751
 3746SOL    HW222698   2.834   4.335   2.238 -0.5778  0.2670  0.1389
 3747SOL     OW22699   3.278   0.643   3.638 -0.3586 -0.2824 -0.3386
 3747SOL    HW122700   3.228   0.569   3.670 -0.1168 -0.1989  0.2245
 3747SOL    HW222701   3.211   0.700   3.599  0.6292  1.0623 -0.0786
 3748SOL     OW22702   3.744   2.653   2.370 -0.2270  0.3902 -0.0967
 3748SOL    HW122703   3.754   2.739   2.330 -0.6262  0.8965  0.8948
 3748SOL    HW222704   3.675   2.608   2.320 -0.7945 -0.0707  1.0838
 3749SOL     OW22705   1.562   2.520  17.594 -0.1400  0.2360  0.4256
 3749SOL    HW122706   1.633   2.490  17.537 -0.5276  2.7329 -1.3468
 3749SOL    HW222707   1.523   2.434  17.613  0.2535  0.3487  1.7131
 3750SOL     OW22708   3.623   3.240   1.107  0.4142  0.1474  0.1290
 3750SOL    HW122709   3.596   3.148   1.111 -0.1085  0.3491  1.3410
 3750SOL    HW222710   3.568   3.267   1.180  0.0237  0.6671 -0.3510
 3751SOL     OW22711   0.972   3.398   7.759  0.0980  0.6146  0.5429
 3751SOL    HW122712   0.996   3.408   7.851  0.3909  1.4922  0.3718
 3751SOL    HW222713   0.889   3.351   7.756  1.0137 -1.0844  1.9013
 3752SOL     OW22714   3.968   0.600  10.359 -0.1443 -0.3545  0.2515
 3752SOL    HW122715   4.019   0.632  10.433  0.6474  0.4879 -0.6631
 3752SOL    HW222716   3.903   0.542  10.399  1.0386 -1.3157  0.7768
 3753SOL     OW22717   2.424   3.850  17.011  0.4212  0.1751 -0.0353
 3753SOL    HW122718   2.349   3.880  16.960  0.0440  0.7321  0.8583
 3753SOL    HW222719   2.377   3.802  17.079 -0.5217  0.6858 -0.3243
 3754SOL     OW22720   1.225   0.431  14.375 -0.1168 -0.1915  0.7067
 3754SOL    HW122721   1.211   0.485  14.297  0.4943 -0.7310  0.2283
 3754SOL    HW222722   1.291   0.368  14.346 -1.7851 -1.8450  0.5161
 3755SOL     OW22723   0.943   2.522  15.711  0.1822  0.6435  0.4367
 3755SOL    HW122724   1.015   2.563  15.663 -0.1783 -1.4498 -1.8826
 3755SOL    HW222725   0.996   2.460  15.761 -1.0512 -0.3851  0.4734
 3756SOL     OW22726   0.287   4.397   4.395  0.4998 -0.3179  0.3879
 3756SOL    HW122727   0.239   4.467   4.440 -1.0849 -0.5662 -0.8954
 3756SOL    HW222728   0.335   4.442   4.326 -0.6901 -0.5812 -0.6249
 3757SOL     OW22729   1.410   0.326   7.719 -0.0941 -0.3617  0.0575
 3757SOL    HW122730   1.437   0.314   7.810  0.6981 -1.6154 -0.3580
 3757SOL    HW222731   1.371   0.241   7.699  1.2085 -0.7043 -1.0209
 3758SOL     OW22732   3.116   3.885   3.209  0.5856 -0.2205 -0.2836
 3758SOL    HW122733   3.172   3.847   3.141 -1.0126 -0.4897 -1.4273
 3758SOL    HW222734   3.144   3.846   3.292 -1.9396 -0.4830  0.4286
 3759SOL     OW22735   3.415   3.662   7.310 -0.6440 -0.0884 -0.5868
 3759SOL    HW122736   3.380   3.660   7.221 -0.5808 -0.0788 -0.6117
 3759SOL    HW222737   3.489   3.722   7.309 -1.3714  0.7897 -1.3000
 3760SOL     OW22738   0.713   4.717  13.737  0.2667 -0.3256 -0.2431
 3760SOL    HW122739   0.777   4.647  13.750  1.9013  0.9744 -1.3002
 3760SOL    HW222740   0.691   0.024  13.825  2.1845 -0.2841  0.2308
 3761SOL     OW22741   2.804   1.612   6.052 -0.4013 -0.2281 -0.5078
 3761SOL    HW122742   2.816   1.604   5.958 -0.1589 -1.3295 -0.3806
 3761SOL    HW222743   2.756   1.694   6.055  0.9255  0.4876  1.5007
 3762SOL     OW22744   2.274   1.334   6.648  0.0597 -0.3411 -0.0842
 3762SOL    HW122745   2.296   1.310   6.739 -1.3647 -1.4362 -0.0400
 3762SOL    HW222746   2.208   1.268   6.633 -0.2794  0.1331 -0.6508
 3763SOL     OW22747   3.818   0.161   2.354  0.2052 -0.7118 -0.0713
 3763SOL    HW122748   3.800   0.200   2.440  2.7002 -0.3033  0.2706
 3763SOL    HW222749   3.884   0.223   2.324  0.4160 -1.8392 -1.8970
 3764SOL     OW22750   4.192   3.729  12.575  0.2495  0.4538 -0.0164
 3764SOL    HW122751   4.201   3.634  12.561  1.4177  0.3756  1.3604
 3764SOL    HW222752   4.261   3.732  12.640 -1.7137 -2.7189  2.2189
 3765SOL     OW22753   3.593   0.122   5.496 -0.3237  0.2493  0.4569
 3765SOL    HW122754   3.680   0.121   5.538 -0.6366 -2.1308  1.0376
 3765SOL    HW222755   3.544   0.057   5.546 -0.4584 -1.6561 -2.1635
 3766SOL     OW22756   2.010   3.130  14.217 -0.0649 -0.7036  0.1770
 3766SOL    HW122757   2.038   3.142  14.308 -0.7151  1.2111  0.1276
 3766SOL    HW222758   1.963   3.212  14.200 -0.7022 -1.5737 -2.1791
 3767SOL     OW22759   4.315   3.459   5.426 -0.3532  0.0770 -0.6153
 3767SOL    HW122760   4.334   3.434   5.517  0.5820  1.4316 -0.4398
 3767SOL    HW222761   4.265   3.389   5.383 -0.1821 -1.7636  2.1322
 3768SOL     OW22762   2.911   1.459   4.206 -0.4195  0.1241  0.0957
 3768SOL    HW122763   2.902   1.554   4.209  0.5525  0.1499  1.8257
 3768SOL    HW222764   3.000   1.446   4.173  0.2718  3.7549  0.5362
 3769SOL     OW22765   0.924   2.182   6.239  0.4772 -0.0945 -0.2203
 3769SOL    HW122766   0.946   2.118   6.307 -1.2254  2.0948  2.3610
 3769SOL    HW222767   0.971   2.153   6.161  0.2957 -3.6735  0.9638
 3770SOL     OW22768   3.704   3.833   2.718 -0.5165 -0.2357  0.1528
 3770SOL    HW122769   3.702   3.761   2.655  1.1439 -1.4780  1.4920
 3770SOL    HW222770   3.672   3.787   2.796  0.6330  0.4194  1.0046
 3771SOL     OW22771   2.121   0.427  13.573 -0.2030  0.0170  0.0675
 3771SOL    HW122772   2.164   0.487  13.633  1.3099  0.2690 -1.2755
 3771SOL    HW222773   2.119   0.466  13.486 -0.4677 -1.3821 -0.5558
 3772SOL     OW22774   2.756   2.626   8.177 -0.5336  0.6299 -0.1814
 3772SOL    HW122775   2.717   2.636   8.091  1.4842  1.5469 -0.9819
 3772SOL    HW222776   2.675   2.639   8.226 -1.0533 -3.0246 -0.0738
 3773SOL     OW22777   2.211   2.434   3.199  0.1301  0.1348 -0.1254
 3773SOL    HW122778   2.178   2.366   3.140 -2.5351  1.5324 -0.2425
 3773SOL    HW222779   2.294   2.458   3.159  1.2021 -1.1011  1.3470
 3774SOL     OW22780   1.962   2.883   4.654  0.0768 -0.0745  0.0661
 3774SOL    HW122781   1.895   2.923   4.710  0.3762  0.0155  0.3580
 3774SOL    HW222782   1.905   2.833   4.595 -0.1233 -3.1149  2.8859
 3775SOL     OW22783   0.759   1.782   6.853  0.5637  0.1577 -0.1836
 3775SOL    HW122784   0.743   1.788   6.758  1.7564  1.2442 -0.3099
 3775SOL    HW222785   0.822   1.852   6.866 -0.3336  0.5802  1.7720
 3776SOL     OW22786   1.661   1.435   2.316 -0.0394 -0.0527 -0.1599
 3776SOL    HW122787   1.663   1.494   2.391  0.0718  2.0322 -1.8048
 3776SOL    HW222788   1.686   1.354   2.362  2.1038  1.6796  1.7630
 3777SOL     OW22789   0.395   0.854   7.678 -0.4452  0.5744 -0.0853
 3777SOL    HW122790   0.307   0.885   7.654 -0.0808 -0.1447 -2.2790
 3777SOL    HW222791   0.367   0.773   7.720 -1.6151  0.4793 -1.0294
 3778SOL     OW22792   4.226   0.714   0.056  0.4592 -0.3249  0.1675
 3778SOL    HW122793   4.312   0.676   0.040  0.1830 -0.9018  0.0659
 3778SOL    HW222794   4.259   0.801   0.079  1.4224 -0.4764 -0.6630
 3779SOL     OW22795   2.816   1.303   3.966  0.1051 -0.2587  0.1479
 3779SOL    HW122796   2.748   1.309   4.033  0.4831 -0.4488  0.5439
 3779SOL    HW222797   2.879   1.254   4.017  0.3581 -1.3480 -1.1944
 3780SOL     OW22798   2.291   3.415   3.992 -0.0999  0.3612 -0.1736
 3780SOL    HW122799   2.298   3.510   4.002 -4.8434  0.9034 -1.9805
 3780SOL    HW222800   2.196   3.404   3.988  0.0405 -0.8170 -0.3067
 3781SOL     OW22801   1.609   1.230  12.427  0.5573  0.3495  0.1862
 3781SOL    HW122802   1.523   1.197  12.402  0.6690 -0.1354  0.4432
 3781SOL    HW222803   1.603   1.224  12.522 -0.0859 -0.9398  0.0661
 3782SOL     OW22804   3.528   1.566   3.850 -0.0589 -0.0078 -0.1407
 3782SOL    HW122805   3.552   1.657   3.867 -2.2246  0.7985 -1.3946
 3782SOL    HW222806   3.442   1.558   3.890  0.6557 -1.4436  1.0883
 3783SOL     OW22807   1.440   0.672  16.543  0.1891 -0.3697  0.3713
 3783SOL    HW122808   1.433   0.592  16.595  0.8137 -0.8746 -0.3182
 3783SOL    HW222809   1.419   0.734  16.613  2.3046  0.3517  0.3768
 3784SOL     OW22810   0.562   1.674   0.276  0.0966  0.2118 -0.0397
 3784SOL    HW122811   0.563   1.764   0.243 -0.8469  0.2968  0.1879
 3784SOL    HW222812   0.472   1.644   0.268 -0.3571  1.4736  0.3635
 3785SOL     OW22813   3.434   2.001   2.801 -0.1092 -0.0003  0.0124
 3785SOL    HW122814   3.383   1.929   2.838  0.4640 -0.3715  0.0943
 3785SOL    HW222815   3.366   2.067   2.790 -2.0279 -2.0607 -0.6451
 3786SOL     OW22816   4.609   0.296   3.490 -0.5188  0.4884  0.4278
 3786SOL    HW122817   4.701   0.269   3.488 -1.0043 -1.3016  1.6266
 3786SOL    HW222818   4.600   0.310   3.584 -0.6457  1.3034  0.2930
 3787SOL     OW22819   0.841   1.598  13.267  0.0362 -0.2861 -0.0992
 3787SOL    HW122820   0.874   1.531  13.327 -0.7780 -0.0089  0.6454
 3787SOL    HW222821   0.887   1.575  13.186  1.0407  1.3598  0.0182
 3788SOL     OW22822   2.451   4.514   4.414  0.0667 -0.1181  0.2773
 3788SOL    HW122823   2.484   4.520   4.503 -0.6311  0.0420  0.5213
 3788SOL    HW222824   2.454   4.606   4.388  0.3949 -0.2816 -0.2798
 3789SOL     OW22825   1.604   2.676   5.733  0.1128 -0.4134 -0.0451
 3789SOL    HW122826   1.568   2.609   5.674  0.8361 -1.7509  1.0556
 3789SOL    HW222827   1.697   2.654   5.731  0.1344 -0.2001 -1.4185
 3790SOL     OW22828   4.190   0.639   1.027  0.0304  0.3260  0.0936
 3790SOL    HW122829   4.180   0.621   1.121 -2.3501  1.3679  0.0456
 3790SOL    HW222830   4.231   0.726   1.026  0.0814  0.3184  1.3406
 3791SOL     OW22831   1.431   4.269  11.378  0.0063 -0.0717 -0.1382
 3791SOL    HW122832   1.519   4.245  11.405  0.6474  1.7460 -0.5885
 3791SOL    HW222833   1.450   4.341  11.318 -2.0721 -0.4733 -1.2736
 3792SOL     OW22834   3.431   2.371   0.916  0.2274 -0.1037  0.5309
 3792SOL    HW122835   3.516   2.400   0.951  0.4000  1.4167 -1.1164
 3792SOL    HW222836   3.377   2.386   0.993 -0.9420 -0.9909 -0.1270
 3793SOL     OW22837   4.492   2.179   2.641 -0.4736 -0.3731  0.5059
 3793SOL    HW122838   4.525   2.254   2.690  0.1298  0.7096 -1.5533
 3793SOL    HW222839   4.520   2.201   2.552  0.9018  0.5306  1.1537
 3794SOL     OW22840   0.157   2.443   2.038 -0.3844 -0.0365  0.2682
 3794SOL    HW122841   0.208   2.496   1.976 -0.4488 -2.3251 -1.7370
 3794SOL    HW222842   0.148   2.363   1.986 -1.0249 -0.2676  0.7352
 3795SOL     OW22843   0.508   4.012   6.839 -0.3541  0.4848 -0.6430
 3795SOL    HW122844   0.457   4.027   6.759 -2.1747  0.4667  0.5111
 3795SOL    HW222845   0.530   3.922   6.814  0.9930  0.2290  1.5052
 3796SOL     OW22846   3.467   2.921   2.743  0.5614  0.5614 -0.0530
 3796SOL    HW122847   3.446   2.842   2.792  0.4349  0.4620 -0.2662
 3796SOL    HW222848   3.490   2.879   2.660  0.8076  1.4235 -0.4202
 3797SOL     OW22849   0.259   4.211   2.511 -0.0362  0.9108  0.2458
 3797SOL    HW122850   0.336   4.268   2.518  1.4677 -1.1411  0.5286
 3797SOL    HW222851   0.280   4.153   2.438 -3.4368  2.1286 -1.6965
 3798SOL     OW22852   3.343   1.937   3.372 -0.1571  0.6761 -0.2739
 3798SOL    HW122853   3.322   1.888   3.452 -2.0382  0.9702 -0.5699
 3798SOL    HW222854   3.315   2.025   3.395 -1.0263  0.3163  0.0674
 3799SOL     OW22855   2.641   1.535   3.486 -0.4616  0.4918 -0.0011
 3799SOL    HW122856   2.721   1.540   3.433 -0.3010  1.8764  0.3773
 3799SOL    HW222857   2.614   1.622   3.456  1.8112  1.5708  1.0527
 3800SOL     OW22858   1.831   1.872   6.512 -0.2104  0.0860  0.0694
 3800SOL    HW122859   1.862   1.784   6.532 -1.3793 -0.6267 -1.2437
 3800SOL    HW222860   1.758   1.882   6.573 -1.4842 -0.8256 -1.3032
 3801SOL     OW22861   2.521   4.433  11.109  0.2923  0.3935 -0.3225
 3801SOL    HW122862   2.582   4.406  11.177  0.0062 -2.4873 -1.2182
 3801SOL    HW222863   2.554   4.523  11.107  2.4882 -0.4421 -0.9031
 3802SOL     OW22864   2.468   1.233   7.424 -0.0729  0.2759 -0.0438
 3802SOL    HW122865   2.527   1.159   7.415 -1.7115 -1.0391 -0.0765
 3802SOL    HW222866   2.493   1.280   7.345  1.6910  0.9846  0.9409
 3803SOL     OW22867   3.502   0.653  10.764 -0.3886  0.2918 -0.1536
 3803SOL    HW122868   3.466   0.729  10.718 -3.7985 -1.5836 -0.5759
 3803SOL    HW222869   3.431   0.625  10.821  1.0376 -3.1059 -0.0503
 3804SOL     OW22870   0.318   0.183   4.530 -0.0063 -0.2750  0.4049
 3804SOL    HW122871   0.359   0.161   4.446 -3.0407 -1.9550 -0.6247
 3804SOL    HW222872   0.364   0.127   4.592  1.3705 -0.9785 -1.2509
 3805SOL     OW22873   0.415   1.665   9.633  0.7722  0.5322 -0.4330
 3805SOL    HW122874   0.446   1.581   9.666  1.4901  0.7946 -0.4347
 3805SOL    HW222875   0.325   1.668   9.666  0.8346  0.2040 -0.2393
 3806SOL     OW22876   3.207   2.484   0.341 -0.5648  0.2504 -0.1539
 3806SOL    HW122877   3.135   2.524   0.293  0.5397 -0.2181 -2.1940
 3806SOL    HW222878   3.234   2.563   0.388  0.9213 -0.1076 -0.3983
 3807SOL     OW22879   3.529   2.185   4.491  0.6124  0.0192  0.8674
 3807SOL    HW122880   3.528   2.159   4.398  2.8264 -0.3134  0.9421
 3807SOL    HW222881   3.623   2.193   4.509  0.7557 -2.1415  1.0675
 3808SOL     OW22882   3.645   3.228   3.355  0.2962  0.2502  0.3133
 3808SOL    HW122883   3.601   3.259   3.276 -0.6764  0.8033  1.0709
 3808SOL    HW222884   3.610   3.274   3.431 -0.8429  1.0768 -0.7333
 3809SOL     OW22885   1.582   0.607  11.070 -0.5004  0.3875  0.3922
 3809SOL    HW122886   1.585   0.521  11.028  1.4402  0.3013  0.6986
 3809SOL    HW222887   1.521   0.595  11.143 -0.3594 -1.6591  0.1708
 3810SOL     OW22888   3.340   0.143   9.924  0.2444 -0.4964 -0.1950
 3810SOL    HW122889   3.304   0.072   9.869 -0.2629  0.5943 -1.2819
 3810SOL    HW222890   3.311   0.225   9.883 -1.5983 -0.6667  0.7694
 3811SOL     OW22891   0.094   0.238   0.802  0.4524 -0.7491 -0.9403
 3811SOL    HW122892   4.721   0.238   0.793  0.4589  0.8745 -0.8770
 3811SOL    HW222893   0.103   0.203   0.890  0.3069  3.2405  0.6349
 3812SOL     OW22894   2.955   1.493   7.153  0.0706  0.3262 -0.1960
 3812SOL    HW122895   2.931   1.401   7.160 -1.6005  0.7320 -0.6151
 3812SOL    HW222896   2.891   1.532   7.213 -0.2447  1.2869 -1.1533
 3813SOL     OW22897   2.375   3.389   5.500 -0.2639  0.1924  0.0157
 3813SOL    HW122898   2.313   3.316   5.509  0.7408 -0.6441  0.1489
 3813SOL    HW222899   2.422   3.382   5.417  1.2513 -0.2250  0.9064
 3814SOL     OW22900   3.748   3.401   2.926  0.2982 -0.4590  0.1756
 3814SOL    HW122901   3.664   3.364   2.900 -1.4485  2.3884  1.7994
 3814SOL    HW222902   3.810   3.331   2.903 -0.1130 -0.4860 -0.8227
 3815SOL     OW22903   2.842   3.260  17.558  0.1301 -0.4736  0.4838
 3815SOL    HW122904   2.932   3.233  17.576  0.1376 -0.5451  0.3344
 3815SOL    HW222905   2.848   3.351  17.587 -1.6615 -0.1288 -0.2311
 3816SOL     OW22906   1.742   0.876  12.697 -0.0569  0.0315 -0.5492
 3816SOL    HW122907   1.703   0.832  12.621  0.8054  1.9917 -2.1143
 3816SOL    HW222908   1.827   0.833  12.706  0.7485  1.6161 -0.5780
 3817SOL     OW22909   0.630   1.132   6.217  0.1240 -0.0153  0.4043
 3817SOL    HW122910   0.577   1.212   6.224  0.5523  0.6008 -3.3335
 3817SOL    HW222911   0.714   1.157   6.178  1.0248  1.4462  3.2685
 3818SOL     OW22912   0.050   1.321   4.972 -0.2353 -0.0107  0.0485
 3818SOL    HW122913   4.718   1.398   4.959  0.0746  0.1796 -0.1442
 3818SOL    HW222914   0.127   1.352   4.924 -1.7349  0.5915 -1.9827
 3819SOL     OW22915   0.407   2.251  14.325  0.0609  0.3318  0.0569
 3819SOL    HW122916   0.366   2.198  14.257  1.0640 -2.4163  1.5885
 3819SOL    HW222917   0.334   2.296  14.368  0.8791  1.4897  0.2449
 3820SOL     OW22918   3.659   2.877   4.572  0.0659 -0.2703  0.6958
 3820SOL    HW122919   3.618   2.819   4.635  1.4007 -2.4660 -0.4547
 3820SOL    HW222920   3.725   2.918   4.628 -0.2970 -0.9897  1.6370
 3821SOL     OW22921   1.637   1.647   4.473 -0.2516  0.5933  0.2193
 3821SOL    HW122922   1.702   1.716   4.459  1.5568 -1.0680  0.4048
 3821SOL    HW222923   1.554   1.693   4.488 -1.4811 -0.6988 -2.5115
 3822SOL     OW22924   1.392   2.498   6.503 -0.4786  0.8352 -0.2069
 3822SOL    HW122925   1.311   2.543   6.477 -1.2352 -0.6417 -0.3975
 3822SOL    HW222926   1.449   2.564   6.463 -0.4845  1.8719  1.4972
 3823SOL     OW22927   3.375   0.920   5.163 -0.2043 -0.2206  0.2558
 3823SOL    HW122928   3.387   0.859   5.090 -1.4807  0.5938 -0.6285
 3823SOL    HW222929   3.319   0.987   5.123  2.4354  2.1124  0.4702
 3824SOL     OW22930   0.930   1.441  17.424  0.2205  0.4382 -0.3108
 3824SOL    HW122931   0.849   1.452  17.373 -0.2005  0.9232  0.4750
 3824SOL    HW222932   0.906   1.492  17.501  1.5149  2.6368 -1.3592
 3825SOL     OW22933   0.420   2.947   4.194 -0.2715 -0.1961  0.4307
 3825SOL    HW122934   0.472   2.989   4.125 -1.7294 -1.6671 -1.5457
 3825SOL    HW222935   0.393   3.021   4.248  0.4218  0.2682  0.1512
 3826SOL     OW22936   0.758   2.795   5.807  0.4295 -1.0115  0.4180
 3826SOL    HW122937   0.664   2.795   5.788  0.4693 -1.9800  0.2337
 3826SOL    HW222938   0.757   2.870   5.866 -0.6995 -0.1532 -0.6807
 3827SOL     OW22939   2.951   0.745   1.726  0.0510 -0.9425 -0.8337
 3827SOL    HW122940   2.872   0.769   1.678  0.1873 -1.1339 -1.1544
 3827SOL    HW222941   3.014   0.706   1.665 -0.1118  0.5974 -1.9960
 3828SOL     OW22942   2.635   3.693  17.580  0.3686  0.2384  0.0688
 3828SOL    HW122943   2.541   3.700  17.601  0.6607  2.3831  0.6008
 3828SOL    HW222944   2.677   3.750  17.644 -1.0480  0.7851  0.5249
 3829SOL     OW22945   1.887   2.242   3.134 -0.0695  0.4299  0.2925
 3829SOL    HW122946   1.969   2.194   3.144  0.2966  0.7025 -1.4547
 3829SOL    HW222947   1.845   2.190   3.067 -0.8354  2.8700 -1.1195
 3830SOL     OW22948   2.254   0.564   2.993 -0.2117 -0.0436  0.3522
 3830SOL    HW122949   2.340   0.584   3.030  0.4041  1.3493 -1.8434
 3830SOL    HW222950   2.206   0.643   3.015 -1.3114 -0.1793 -1.5399
 3831SOL     OW22951   2.658   2.213   7.458  0.5776 -0.0372  0.3402
 3831SOL    HW122952   2.580   2.267   7.455  0.2392 -0.5834 -0.7424
 3831SOL    HW222953   2.664   2.194   7.364 -0.6288 -2.6588  0.7881
 3832SOL     OW22954   3.042   1.259   8.819  0.2830  0.2908 -0.4290
 3832SOL    HW122955   3.047   1.291   8.729 -0.9826  1.7820  0.0317
 3832SOL    HW222956   3.133   1.270   8.849  0.4178 -0.1441 -0.6799
 3833SOL     OW22957   4.661   3.479  14.667 -0.1217 -0.0919 -0.3481
 3833SOL    HW122958   0.013   3.481  14.726 -1.7568  0.5091  1.7361
 3833SOL    HW222959   4.589   3.491  14.729  0.0884 -2.0775  0.2874
 3834SOL     OW22960   3.645   0.467  15.271 -0.2030  0.3076  0.0472
 3834SOL    HW122961   3.668   0.560  15.259 -0.2654  0.1893 -1.0063
 3834SOL    HW222962   3.697   0.422  15.205 -3.0316 -1.1574 -1.1681
 3835SOL     OW22963   0.054   3.088   1.173  0.2183 -0.2913 -0.2801
 3835SOL    HW122964   0.115   3.015   1.181 -1.7801 -1.9805 -0.2749
 3835SOL    HW222965   0.067   3.102   1.079 -2.3091  0.4007 -0.5322
 3836SOL     OW22966   2.919   3.570  12.262  0.4203  0.2329  0.2735
 3836SOL    HW122967   2.986   3.562  12.194 -0.4040  0.8585 -0.6162
 3836SOL    HW222968   2.879   3.653  12.236 -1.2756 -0.5575  0.3367
 3837SOL     OW22969   1.828   4.064   2.554 -0.3089  0.3017  0.1418
 3837SOL    HW122970   1.803   4.090   2.642 -0.1664  1.0830 -0.0482
 3837SOL    HW222971   1.918   4.034   2.567  0.0463  0.9986 -0.6634
 3838SOL     OW22972   4.703   4.321   1.624 -0.5078  0.1172  0.1859
 3838SOL    HW122973   4.706   4.241   1.676  1.7082 -0.1431 -0.3433
 3838SOL    HW222974   4.678   4.386   1.690  0.7948  0.0140  0.7775
 3839SOL     OW22975   1.533   4.043   5.253 -0.5851 -0.4352 -0.3096
 3839SOL    HW122976   1.561   4.112   5.194 -0.9033 -0.8778 -0.9752
 3839SOL    HW222977   1.575   3.965   5.215 -1.9447 -0.7803 -1.1034
 3840SOL     OW22978   3.400   4.019   4.352  0.3700 -0.1467  0.0597
 3840SOL    HW122979   3.371   4.050   4.266 -1.0233 -0.8188  0.2772
 3840SOL    HW222980   3.321   3.984   4.393  0.6368 -0.4401  0.3235
 3841SOL     OW22981   2.823   0.558  13.525 -0.1658 -0.5700  0.0532
 3841SOL    HW122982   2.822   0.568  13.620 -2.1319  0.1681 -0.0579
 3841SOL    HW222983   2.784   0.640  13.493 -1.8927 -1.0630  0.9239
 3842SOL     OW22984   3.177   4.308   0.433 -0.1316 -0.0240 -0.0977
 3842SOL    HW122985   3.086   4.326   0.458 -0.7331 -0.2001 -2.1675
 3842SOL    HW222986   3.205   4.389   0.391 -1.2725  1.2604  1.6269
 3843SOL     OW22987   2.202   3.967   7.963 -0.0683  0.0467 -0.2690
 3843SOL    HW122988   2.246   4.045   7.996 -2.2849  1.0540  0.2706
 3843SOL    HW222989   2.218   3.972   7.869 -1.6013  0.8488 -0.4901
 3844SOL     OW22990   4.348   1.853  15.418 -0.0789  0.3820 -0.1514
 3844SOL    HW122991   4.316   1.870  15.507  0.5682  0.4557  0.0695
 3844SOL    HW222992   4.417   1.793  15.445 -0.7254 -0.6855 -0.8919
 3845SOL     OW22993   1.466   3.891   3.875 -0.2452 -0.0586  0.0645
 3845SOL    HW122994   1.525   3.853   3.810 -0.2521 -2.9098  1.7005
 3845SOL    HW222995   1.381   3.870   3.836 -0.8937  3.8867 -0.6343
 3846SOL     OW22996   0.680   0.015   6.929  0.0664  0.2331 -0.3853
 3846SOL    HW122997   0.741   0.023   7.002  0.1903 -1.1257 -0.3361
 3846SOL    HW222998   0.699   0.095   6.879  0.1283  0.6733  0.3424
 3847SOL     OW22999   3.027   2.481   3.702  0.0966  0.2977  0.1223
 3847SOL    HW123000   2.956   2.418   3.689 -1.0758  2.5480 -4.5562
 3847SOL    HW223001   2.972   2.557   3.681 -0.5058  0.4739  2.3194
 3848SOL     OW23002   0.184   1.938  14.729  0.1222 -0.1225  0.5655
 3848SOL    HW123003   0.154   1.982  14.808 -0.1753 -1.0439  0.9582
 3848SOL    HW223004   0.113   1.969  14.672  1.5404  1.2305 -0.4726
 3849SOL     OW23005   4.466   0.147  10.082 -0.8306 -0.1132  0.4020
 3849SOL    HW123006   4.553   0.158  10.043 -0.7659 -1.1141  0.2708
 3849SOL    HW223007   4.411   0.153  10.004  3.0384 -1.3006 -2.4060
 3850SOL     OW23008   3.251   2.129   8.927 -0.3594  0.2916  0.4121
 3850SOL    HW123009   3.258   2.034   8.918  0.7719  0.2557  1.6350
 3850SOL    HW223010   3.305   2.141   9.005  0.7699 -0.8243 -0.1793
 3851SOL     OW23011   2.672   1.592   7.586 -0.0881  0.4711 -0.2229
 3851SOL    HW123012   2.656   1.684   7.563  0.0161 -0.1792 -2.7916
 3851SOL    HW223013   2.633   1.586   7.674 -1.3709 -0.6974 -0.8853
 3852SOL     OW23014   1.983   2.265   0.778 -0.1762 -0.5818  0.0858
 3852SOL    HW123015   2.073   2.242   0.755  0.1873 -1.1640  2.1498
 3852SOL    HW223016   1.934   2.186   0.757 -0.1064 -0.5003 -0.3948
 3853SOL     OW23017   0.370   3.517   5.527  0.2507  0.5924  0.0191
 3853SOL    HW123018   0.427   3.440   5.532 -0.0896  0.5108  2.6535
 3853SOL    HW223019   0.339   3.527   5.617 -0.9333 -2.2491 -0.0785
 3854SOL     OW23020   2.754   0.707   6.753 -0.3383  0.1145 -0.1683
 3854SOL    HW123021   2.845   0.679   6.746 -0.3399 -0.3626  1.8456
 3854SOL    HW223022   2.767   0.802   6.753  0.7125 -0.0315 -0.7908
 3855SOL     OW23023   2.540   4.511   6.219 -0.2260 -0.6400 -0.2039
 3855SOL    HW123024   2.469   4.482   6.276 -0.1414  0.5006  0.4991
 3855SOL    HW223025   2.542   4.442   6.153 -0.6344 -2.1436  1.3665
 3856SOL     OW23026   1.395   2.397   2.039  0.3518 -0.0531  0.1352
 3856SOL    HW123027   1.414   2.482   2.079 -0.4012 -0.8672  2.1997
 3856SOL    HW223028   1.343   2.433   1.968 -1.3268 -0.3589  1.2097
 3857SOL     OW23029   1.708   2.227  12.474  1.0147 -1.0335  0.7568
 3857SOL    HW123030   1.617   2.222  12.504  0.5835 -0.8043 -0.5461
 3857SOL    HW223031   1.725   2.133  12.470 -2.7526 -1.7696  1.3441
 3858SOL     OW23032   2.491   0.867  13.961 -0.0367  0.1907 -0.0939
 3858SOL    HW123033   2.467   0.860  13.868 -0.3745  0.0048  0.0104
 3858SOL    HW223034   2.585   0.887  13.965  0.1078 -0.6768  0.7580
 3859SOL     OW23035   1.638   3.023  11.117  0.1515 -0.0608 -0.0617
 3859SOL    HW123036   1.607   2.942  11.159  0.8188  0.4440  1.4002
 3859SOL    HW223037   1.678   2.996  11.034 -0.0232  0.3392 -0.2751
 3860SOL     OW23038   4.679   3.894  17.601  0.1963 -0.9611 -0.2878
 3860SOL    HW123039   0.004   3.969  17.636 -1.1714 -1.2356  2.2111
 3860SOL    HW223040   4.712   3.876  17.513  0.6258  0.6112 -0.4494
 3861SOL     OW23041   3.950   0.353  13.466  0.1772  0.7909 -0.0717
 3861SOL    HW123042   3.939   0.259  13.450 -2.3815  1.1514 -0.5212
 3861SOL    HW223043   3.865   0.383  13.498 -0.3975  1.1504 -1.8833
 3862SOL     OW23044   0.295   4.639  10.598 -0.2623 -0.1842 -0.7027
 3862SOL    HW123045   0.294   0.004  10.561  0.1874 -0.0659 -0.4287
 3862SOL    HW223046   0.347   4.659  10.676 -0.1497  0.6096 -0.9853
 3863SOL     OW23047   0.586   1.761   3.867 -0.3682 -0.0846 -0.5344
 3863SOL    HW123048   0.592   1.825   3.795 -2.9612 -0.9225 -1.4798
 3863SOL    HW223049   0.495   1.734   3.869 -0.6590  0.8969 -0.4956
 3864SOL     OW23050   0.101   4.593  11.526  0.2479 -0.1038 -0.1255
 3864SOL    HW123051   0.138   4.505  11.532  0.5669  0.0484  0.1100
 3864SOL    HW223052   0.085   4.598  11.431 -1.6944  0.3974  0.2281
 3865SOL     OW23053   0.497   2.526   3.157  0.8019 -0.0022 -0.1992
 3865SOL    HW123054   0.572   2.467   3.151  1.3122  0.4506  1.6246
 3865SOL    HW223055   0.484   2.533   3.062 -2.3533  0.4703  0.2650
 3866SOL     OW23056   3.002   0.543   8.141  0.1085  0.1240 -0.2405
 3866SOL    HW123057   3.038   0.597   8.211 -1.4812  2.8233 -1.4935
 3866SOL    HW223058   2.952   0.604   8.087  0.1153 -0.3199 -0.7507
 3867SOL     OW23059   0.209   0.837   3.209  0.2390  0.5855  0.4672
 3867SOL    HW123060   0.224   0.823   3.302 -0.4199  0.7159  0.5928
 3867SOL    HW223061   0.142   0.905   3.218  0.6385  1.4279 -2.8215
 3868SOL     OW23062   1.210   1.692   2.601 -0.3046  0.0491 -0.7204
 3868SOL    HW123063   1.131   1.713   2.552 -0.4321 -2.1772 -1.4524
 3868SOL    HW223064   1.269   1.758   2.562 -0.0097  1.0064  1.3227
 3869SOL     OW23065   2.184   0.426  14.393  0.7376 -0.2242  0.2608
 3869SOL    HW123066   2.239   0.353  14.364  0.0919 -0.5582 -0.1025
 3869SOL    HW223067   2.216   0.499  14.339 -0.1079 -1.3603 -1.7840
 3870SOL     OW23068   1.637   0.512   8.713  0.1565  0.5629 -0.5398
 3870SOL    HW123069   1.689   0.435   8.688  0.2035 -0.3634  2.4246
 3870SOL    HW223070   1.590   0.470   8.785 -0.7886 -0.0540 -1.5291
 3871SOL     OW23071   0.286   4.371   6.796 -0.0878 -0.2781  0.7393
 3871SOL    HW123072   0.367   4.411   6.828 -0.0749  0.4070 -0.1495
 3871SOL    HW223073   0.279   4.417   6.712  1.8829 -0.0218  0.7322
 3872SOL     OW23074   3.775   2.475  15.845 -0.2688  0.2760 -0.7260
 3872SOL    HW123075   3.826   2.472  15.765  2.4244  2.9663  0.8827
 3872SOL    HW223076   3.771   2.569  15.864  1.7846  0.1823  0.1098
 3873SOL     OW23077   2.417   2.930  17.643  0.5358 -0.1900 -0.0319
 3873SOL    HW123078   2.451   3.016  17.620 -0.4363  0.3121  0.3969
 3873SOL    HW223079   2.498   2.891  17.677  1.7311  0.8716 -1.6508
 3874SOL     OW23080   1.153   4.140   2.282  0.5079  0.4005  0.2710
 3874SOL    HW123081   1.157   4.044   2.289 -0.7911  0.3292 -0.1893
 3874SOL    HW223082   1.081   4.151   2.344 -0.2181 -1.4498 -0.2510
 3875SOL     OW23083   2.084   4.466   7.708 -0.0450 -0.2638 -0.2176
 3875SOL    HW123084   2.059   4.444   7.798  2.1916  0.2243  0.5291
 3875SOL    HW223085   2.041   4.550   7.690 -0.5462 -0.0005  2.2123
 3876SOL     OW23086   3.943   1.103   2.758 -0.6436 -0.0916 -0.2486
 3876SOL    HW123087   3.864   1.072   2.714 -0.1801  1.1096 -1.9247
 3876SOL    HW223088   3.994   1.151   2.692 -0.2198  0.1900  0.2840
 3877SOL     OW23089   2.030   1.416  14.826 -0.5129  0.4234  0.2435
 3877SOL    HW123090   1.987   1.346  14.876 -1.2592  0.7626  0.0697
 3877SOL    HW223091   2.001   1.486  14.885  0.2773  0.8217  0.1530
 3878SOL     OW23092   1.426   0.276   7.055  0.4145 -0.0723  0.4795
 3878SOL    HW123093   1.433   0.181   7.046  0.9395  0.0874 -0.8825
 3878SOL    HW223094   1.337   0.282   7.089  0.9919  3.7914  1.2096
 3879SOL     OW23095   2.907   0.020   5.289  0.5779  0.2299 -0.0188
 3879SOL    HW123096   2.940   0.097   5.335 -0.1477  0.4968  0.0498
 3879SOL    HW223097   2.947   4.672   5.339 -1.0929 -1.0721 -0.5384
 3880SOL     OW23098   3.933   1.769  11.103 -0.0825  0.3363 -0.4874
 3880SOL    HW123099   3.881   1.838  11.062  1.5028  0.9401 -1.4640
 3880SOL    HW223100   3.951   1.801  11.191  2.4310  0.5281 -1.0887
 3881SOL     OW23101   2.078   4.693   6.528 -0.0952  0.2094 -0.3268
 3881SOL    HW123102   2.086   4.635   6.604 -0.1635 -0.4079 -0.8003
 3881SOL    HW223103   1.984   4.713   6.530 -0.2994 -0.7968  0.1252
 3882SOL     OW23104   1.515   1.863  14.165 -0.2081 -0.2230  0.0771
 3882SOL    HW123105   1.466   1.931  14.119 -0.3786  0.2205  0.9057
 3882SOL    HW223106   1.513   1.891  14.257  1.7826 -0.4407  0.1730
 3883SOL     OW23107   0.036   0.785   2.294 -0.1570 -0.0573 -0.1981
 3883SOL    HW123108   0.004   0.828   2.215  2.0187  1.3116 -0.3299
 3883SOL    HW223109   0.003   0.857   2.347 -3.2180  0.1096 -2.3518
 3884SOL     OW23110   1.845   0.228   3.384 -0.1538 -0.4376 -0.4637
 3884SOL    HW123111   1.822   0.295   3.319  1.2112 -0.2013 -0.7038
 3884SOL    HW223112   1.805   0.157   3.334 -0.4579 -0.4771 -0.1641
 3885SOL     OW23113   3.574   4.083  10.865 -0.3095  0.4636  0.5490
 3885SOL    HW123114   3.644   4.041  10.816  1.0451  1.7054  1.3955
 3885SOL    HW223115   3.568   4.057  10.957  2.0803 -0.2679  0.4875
 3886SOL     OW23116   0.100   3.721   3.088 -0.7677 -0.0184 -0.0618
 3886SOL    HW123117   0.089   3.662   3.013 -1.6978  0.9566 -0.6941
 3886SOL    HW223118   0.177   3.686   3.132 -1.6407  0.3521  1.7698
 3887SOL     OW23119   4.288   4.677   6.559 -0.3471  0.8478 -0.6062
 3887SOL    HW123120   4.348   0.027   6.576 -1.7105  1.5822  1.0599
 3887SOL    HW223121   4.331   4.610   6.611  1.3103  1.2777 -1.3828
 3888SOL     OW23122   4.624   2.095   6.265  0.1376 -0.0813  0.0025
 3888SOL    HW123123   4.659   2.087   6.354  0.6754  0.5711 -0.1500
 3888SOL    HW223124   4.539   2.050   6.269 -0.6676  1.3501 -1.2481
 3889SOL     OW23125   2.597   3.604   0.262 -0.2557 -0.1099 -0.2385
 3889SOL    HW123126   2.607   3.622   0.356 -1.5177 -1.4449  0.1465
 3889SOL    HW223127   2.506   3.632   0.256  1.0350  3.8038 -1.1621
 3890SOL     OW23128   2.187   1.346  10.822  0.2022  0.4891 -0.1731
 3890SOL    HW123129   2.156   1.293  10.749 -0.0793 -0.6996  0.7999
 3890SOL    HW223130   2.280   1.361  10.805 -0.1974  0.8592 -2.0164
 3891SOL     OW23131   4.021   3.539   6.055 -0.2752  0.2227  0.3331
 3891SOL    HW123132   4.014   3.539   5.960 -1.2842  1.0255  0.4069
 3891SOL    HW223133   3.929   3.534   6.082 -0.3880 -0.5451 -0.2089
 3892SOL     OW23134   2.352   1.656   2.420 -0.5684 -0.3529 -0.1408
 3892SOL    HW123135   2.416   1.608   2.367  1.5875  1.4892  0.7763
 3892SOL    HW223136   2.358   1.744   2.383 -3.7113 -0.7101 -1.5053
 3893SOL     OW23137   1.897   0.959   4.472  0.4625 -0.6659  0.4815
 3893SOL    HW123138   1.886   0.973   4.566  1.8929 -1.5105  0.7877
 3893SOL    HW223139   1.939   0.873   4.475 -2.7735 -2.3022 -0.7913
 3894SOL     OW23140   1.448   4.154   4.450 -0.0844  0.5496 -0.0570
 3894SOL    HW123141   1.447   4.138   4.356  1.7243 -1.5390  0.2796
 3894SOL    HW223142   1.365   4.121   4.484  1.0122 -1.4019  0.7550
 3895SOL     OW23143   2.017   4.636   2.768  0.1286 -0.2519  0.4077
 3895SOL    HW123144   2.112   4.637   2.764  0.1542  1.3844  1.5373
 3895SOL    HW223145   1.995   4.617   2.677  0.3196  0.2668  0.2548
 3896SOL     OW23146   4.072   1.076   1.506  0.1941  0.0041  0.0553
 3896SOL    HW123147   4.041   1.063   1.596  1.6746  0.3544  0.6187
 3896SOL    HW223148   4.117   1.160   1.497 -0.0778 -0.0432 -1.6322
 3897SOL     OW23149   1.742   4.515  14.859  0.3056  0.7161  0.3695
 3897SOL    HW123150   1.775   4.521  14.769  1.1616 -0.0465  0.6288
 3897SOL    HW223151   1.721   4.608  14.871  1.0524  1.2343 -2.3374
 3898SOL     OW23152   0.165   2.294   0.336 -0.2511 -0.4536 -0.0037
 3898SOL    HW123153   0.128   2.218   0.290 -0.7164  2.5275 -4.5034
 3898SOL    HW223154   0.222   2.331   0.269 -1.1000 -0.3056 -0.6312
 3899SOL     OW23155   4.445   1.658   3.907  0.4636 -0.6264  0.2630
 3899SOL    HW123156   4.520   1.692   3.954  1.1920 -2.1147  0.1863
 3899SOL    HW223157   4.446   1.565   3.929 -0.2480 -0.1160  2.4440
 3900SOL     OW23158   0.805   2.955   1.613 -0.0505  0.4728  0.3381
 3900SOL    HW123159   0.748   2.879   1.600  1.0594 -0.1881 -0.6759
 3900SOL    HW223160   0.745   3.028   1.597 -0.7166  0.1586  1.4042
 3901SOL     OW23161   0.533   2.860   3.300  0.6152 -0.5696 -0.2996
 3901SOL    HW123162   0.461   2.849   3.237 -1.2579 -0.2338  1.7889
 3901SOL    HW223163   0.484   2.903   3.371  3.1917 -0.8337  1.6082
 3902SOL     OW23164   4.677   4.503  17.577  0.2727 -0.3501  0.2564
 3902SOL    HW123165   4.689   4.591  17.613  2.9628 -0.1251 -1.1543
 3902SOL    HW223166   4.663   4.518  17.483  0.2347 -0.8626  0.1795
 3903SOL     OW23167   1.142   4.549   6.306 -0.1464  0.5127 -0.0379
 3903SOL    HW123168   1.124   4.523   6.396 -0.3407 -2.9962 -1.1036
 3903SOL    HW223169   1.138   4.643   6.321 -2.1686  0.6891 -1.6319
 3904SOL     OW23170   3.351   2.704   7.603 -0.1839  0.1620 -0.6111
 3904SOL    HW123171   3.297   2.699   7.682  0.4786  2.2638 -0.0066
 3904SOL    HW223172   3.330   2.797   7.596 -2.1168 -0.3401 -1.2934
 3905SOL     OW23173   1.862   1.700   5.777  0.0655 -0.3954 -0.1508
 3905SOL    HW123174   1.823   1.614   5.760  3.4022 -2.1061  0.7676
 3905SOL    HW223175   1.813   1.763   5.725 -0.2602 -0.7270 -0.2445
 3906SOL     OW23176   4.559   3.289   3.608 -0.3338  0.5592  0.6178
 3906SOL    HW123177   4.604   3.349   3.668  0.2148  2.1770 -1.4280
 3906SOL    HW223178   4.522   3.362   3.559 -1.0045 -1.6198 -2.0705
 3907SOL     OW23179   0.477   1.453   5.434 -0.7144  0.5181 -0.0029
 3907SOL    HW123180   0.559   1.413   5.463 -1.1954  0.5104  1.3739
 3907SOL    HW223181   0.500   1.533   5.386  2.4603  0.2297  1.0103
 3908SOL     OW23182   2.835   3.185   0.818  0.0195  0.6265 -0.2387
 3908SOL    HW123183   2.796   3.241   0.750  1.4121  2.0075  0.1088
 3908SOL    HW223184   2.922   3.177   0.778  0.4097  1.3794  0.4775
 3909SOL     OW23185   1.883   0.628  12.387 -0.2646 -0.2606 -0.1328
 3909SOL    HW123186   1.940   0.627  12.463 -1.5864  0.1575  0.8729
 3909SOL    HW223187   1.811   0.680  12.423  0.6340  0.8658  0.0171
 3910SOL     OW23188   2.725   1.557  15.424  0.2261 -0.6605  0.1397
 3910SOL    HW123189   2.660   1.621  15.451 -1.2420 -2.6476  1.3004
 3910SOL    HW223190   2.685   1.538  15.339  0.7356 -1.3671  0.0501
 3911SOL     OW23191   4.296   2.616   5.791 -0.7041  0.2705 -0.2865
 3911SOL    HW123192   4.245   2.593   5.713  1.3448 -0.6758 -1.3489
 3911SOL    HW223193   4.225   2.629   5.853  1.1489 -0.8102  2.0801
 3912SOL     OW23194   0.107   2.479   8.659 -0.0057  1.0105  0.1430
 3912SOL    HW123195   0.039   2.537   8.695 -2.5543 -0.4439 -2.3714
 3912SOL    HW223196   0.107   2.406   8.721 -0.1567  1.5182  0.7472
 3913SOL     OW23197   1.880   4.207   9.950  0.5070  0.6052  0.1508
 3913SOL    HW123198   1.785   4.219   9.944  0.2231 -1.1826  0.9450
 3913SOL    HW223199   1.894   4.251  10.033  1.7966 -0.0208  0.2530
 3914SOL     OW23200   3.054   0.536   3.228  0.0304 -0.4606  0.5366
 3914SOL    HW123201   3.000   0.491   3.163 -0.2643 -0.8030  1.0126
 3914SOL    HW223202   3.083   0.615   3.183 -2.9502  0.5458  0.3815
 3915SOL     OW23203   2.556   0.744   4.271 -0.1272 -0.2437  0.5377
 3915SOL    HW123204   2.584   0.773   4.184  0.4910 -0.7713  0.5586
 3915SOL    HW223205   2.611   0.666   4.282 -0.1799 -0.1681  1.3206
 3916SOL     OW23206   2.568   2.333   4.894 -0.1523  0.4197  0.1218
 3916SOL    HW123207   2.637   2.315   4.830 -1.7654  1.6999 -1.9855
 3916SOL    HW223208   2.617   2.309   4.972  1.7688  2.3396 -0.4973
 3917SOL     OW23209   2.595   1.685   5.448  0.3741 -0.9119 -0.4335
 3917SOL    HW123210   2.581   1.635   5.368 -0.1628 -1.7086  0.1458
 3917SOL    HW223211   2.510   1.723   5.467  0.6097 -1.3577  1.6105
 3918SOL     OW23212   0.429   2.175   5.477  0.4814 -0.9273 -0.3830
 3918SOL    HW123213   0.515   2.185   5.518  0.9833 -1.7349 -1.2258
 3918SOL    HW223214   0.435   2.211   5.388  1.8019  0.3377  0.2148
 3919SOL     OW23215   1.826   4.569   5.222 -0.5476  0.1789  0.0872
 3919SOL    HW123216   1.739   4.531   5.210 -0.8830  0.8682  0.3220
 3919SOL    HW223217   1.873   4.502   5.272 -0.6131 -1.0418 -1.4901
 3920SOL     OW23218   2.962   3.458  17.214  0.1642 -0.3008  0.0805
 3920SOL    HW123219   2.928   3.512  17.285 -0.1273 -0.8347  0.3499
 3920SOL    HW223220   2.975   3.527  17.149 -1.9146  1.7982  1.9419
 3921SOL     OW23221   1.573   3.627  10.415 -0.3818  0.4070 -0.1928
 3921SOL    HW123222   1.648   3.686  10.399  0.1995 -0.0317  0.9311
 3921SOL    HW223223   1.563   3.576  10.335 -1.3508  0.9879 -0.4460
 3922SOL     OW23224   1.089   3.975   3.351  0.5217  0.3415 -0.0281
 3922SOL    HW123225   1.057   4.059   3.319 -0.0944  0.5112  1.0129
 3922SOL    HW223226   1.012   3.922   3.372 -0.0176  0.8379 -0.7320
 3923SOL     OW23227   4.298   0.144   3.545  0.4548 -1.1233  0.2876
 3923SOL    HW123228   4.362   0.154   3.615 -0.4285  2.4277  0.6164
 3923SOL    HW223229   4.350   0.111   3.472 -0.9971 -1.5625 -0.5574
 3924SOL     OW23230   1.623   0.527   2.361 -0.1188  0.5365  0.3813
 3924SOL    HW123231   1.693   0.546   2.299 -0.0261  2.6961  1.1564
 3924SOL    HW223232   1.662   0.478   2.434 -0.6251  1.5951  1.3546
 3925SOL     OW23233   0.478   1.622  16.320  0.4042 -0.3718  0.2405
 3925SOL    HW123234   0.428   1.702  16.305  1.0063  0.0165  0.3050
 3925SOL    HW223235   0.521   1.603  16.236 -0.4382 -0.9257 -0.0600
 3926SOL     OW23236   1.553   0.128   5.181 -0.1016  0.4733  0.4199
 3926SOL    HW123237   1.543   0.223   5.175  2.2691  0.6376 -0.7808
 3926SOL    HW223238   1.478   0.098   5.232  1.7215 -0.1955  2.6874
 3927SOL     OW23239   1.155   2.826   8.358 -0.1753  0.3957 -0.0856
 3927SOL    HW123240   1.225   2.890   8.341 -2.0627  2.5042  0.0349
 3927SOL    HW223241   1.159   2.776   8.276  2.2135 -0.9206  0.8593
 3928SOL     OW23242   3.067   4.032   4.918  0.0373  0.2274 -0.1851
 3928SOL    HW123243   2.972   4.035   4.912  0.0347  3.1268  1.2968
 3928SOL    HW223244   3.082   3.943   4.886 -1.7545 -0.8968  2.0736
 3929SOL     OW23245   1.094   0.855  17.269  0.1732  0.6093 -0.0983
 3929SOL    HW123246   1.181   0.870  17.307 -0.1537 -0.3725  1.0425
 3929SOL    HW223247   1.070   0.946  17.253 -0.9931 -0.4127 -4.1078
 3930SOL     OW23248   1.472   4.634  16.739  0.2483 -0.1015  0.2265
 3930SOL    HW123249   1.408   4.564  16.753 -0.5199  0.2408 -1.5465
 3930SOL    HW223250   1.508   4.609  16.653  0.9200  1.5976  0.0125
 3931SOL     OW23251   0.325   2.562   1.712 -0.5135 -0.3326  0.6170
 3931SOL    HW123252   0.311   2.471   1.686 -1.0112  0.0920 -0.6267
 3931SOL    HW223253   0.363   2.541   1.797  1.3762  0.8650  0.0735
 3932SOL     OW23254   2.236   2.428   3.595 -0.1311 -0.2250 -0.3052
 3932SOL    HW123255   2.196   2.346   3.623 -0.1499  0.0720  0.5522
 3932SOL    HW223256   2.323   2.428   3.635 -0.3404  2.4511  0.1556
 3933SOL     OW23257   4.684   4.156   0.804 -0.5703 -0.1980  0.5451
 3933SOL    HW123258   4.620   4.221   0.834  0.0666  0.5216  0.3713
 3933SOL    HW223259   4.657   4.155   0.712  0.2625 -1.0523  0.3131
 3934SOL     OW23260   2.963   1.287  12.618 -0.3641 -0.8850  0.6059
 3934SOL    HW123261   2.960   1.227  12.543 -2.9892  1.4158 -1.1385
 3934SOL    HW223262   3.017   1.240  12.681  0.0277 -2.8938 -1.2280
 3935SOL     OW23263   0.113   0.575   1.935  0.1600  0.6666 -0.0659
 3935SOL    HW123264   0.057   0.517   1.986 -0.4314  0.7298 -0.6414
 3935SOL    HW223265   0.201   0.554   1.968 -0.6017 -0.4624  1.2602
 3936SOL     OW23266   0.064   2.210   2.291  0.6659 -0.0024  0.3793
 3936SOL    HW123267   0.100   2.171   2.371  0.6540 -0.1856  0.2956
 3936SOL    HW223268   4.704   2.249   2.320 -0.4105 -1.5858 -0.5525
 3937SOL     OW23269   0.441   1.925  12.127  0.3462  0.0769 -0.0807
 3937SOL    HW123270   0.498   1.849  12.136  2.0305  1.3182 -0.2747
 3937SOL    HW223271   0.444   1.966  12.213  0.8066 -1.0251  0.4226
 3938SOL     OW23272   1.831   0.181  17.101 -0.3553 -0.2620  0.4130
 3938SOL    HW123273   1.830   0.213  17.191  1.5205  0.0225  0.3382
 3938SOL    HW223274   1.873   0.255  17.057  0.6017 -1.2649 -0.3361
 3939SOL     OW23275   3.233   4.391   7.956  0.4221  0.4592 -0.2944
 3939SOL    HW123276   3.304   4.327   7.962 -0.1012 -0.2964 -2.2632
 3939SOL    HW223277   3.172   4.341   8.010  2.7760 -0.9335  1.0712
 3940SOL     OW23278   0.598   4.042  11.222  0.1740  0.1437 -0.3137
 3940SOL    HW123279   0.562   3.967  11.176  0.1846 -0.5251  0.7547
 3940SOL    HW223280   0.681   4.001  11.245  0.3483  1.2208  1.0359
 3941SOL     OW23281   2.583   3.818   8.739 -0.0171 -0.2298 -0.2954
 3941SOL    HW123282   2.573   3.723   8.729 -2.0990 -0.3215  2.5248
 3941SOL    HW223283   2.592   3.825   8.834 -1.2185  0.7771 -0.2673
 3942SOL     OW23284   1.907   1.973   1.383 -0.1791  0.7458  0.2990
 3942SOL    HW123285   1.961   1.952   1.307  1.3936  1.2988  1.2683
 3942SOL    HW223286   1.824   1.938   1.351  1.0890 -1.4504 -0.5823
 3943SOL     OW23287   1.586   0.137   0.480  0.1090  0.2046 -0.1535
 3943SOL    HW123288   1.503   0.145   0.433 -0.2275 -1.0465  0.2375
 3943SOL    HW223289   1.559   0.067   0.539 -0.9192 -0.9769 -2.0280
 3944SOL     OW23290   2.495   0.734   2.176  0.4398  0.0983  0.0796
 3944SOL    HW123291   2.406   0.722   2.142  0.6867 -1.0310 -0.1996
 3944SOL    HW223292   2.537   0.653   2.146 -0.3388  0.1664 -1.1817
 3945SOL     OW23293   3.807   3.713   4.765  0.6713  0.0039 -0.1880
 3945SOL    HW123294   3.863   3.651   4.719 -0.2121 -2.0845  1.5215
 3945SOL    HW223295   3.835   3.682   4.852 -0.0622  4.1620  1.5276
 3946SOL     OW23296   3.797   0.535   3.665  0.4304 -0.0625 -0.1527
 3946SOL    HW123297   3.735   0.512   3.734 -0.2021  0.3281 -0.5929
 3946SOL    HW223298   3.813   0.459   3.608  1.1795 -0.2247  0.2692
 3947SOL     OW23299   4.328   3.714   2.363  0.4188 -0.6357 -0.3427
 3947SOL    HW123300   4.375   3.773   2.422  1.2067 -2.1349  0.5336
 3947SOL    HW223301   4.274   3.677   2.432 -2.5554  1.0389 -1.7979
 3948SOL     OW23302   0.167   0.570   8.373  0.1706  0.1234  0.0851
 3948SOL    HW123303   0.198   0.595   8.460 -0.5150 -0.4054  0.4745
 3948SOL    HW223304   0.118   0.645   8.340 -0.8154 -0.1008  1.0196
 3949SOL     OW23305   3.041   4.711   2.453  0.2245  0.7015 -0.6740
 3949SOL    HW123306   3.064   0.070   2.497 -2.5850  0.3380  1.4469
 3949SOL    HW223307   3.067   0.005   2.362 -1.2479  5.2332 -0.2797
 3950SOL     OW23308   0.206   3.911   7.998 -0.5518 -0.1138 -0.1393
 3950SOL    HW123309   0.210   3.999   8.036  1.6319  0.0304 -0.6679
 3950SOL    HW223310   0.184   3.927   7.906  0.8037 -0.4324 -0.5320
 3951SOL     OW23311   1.790   2.548   8.261 -0.4690 -0.3009  0.9916
 3951SOL    HW123312   1.776   2.640   8.238  0.2066 -0.2491  0.7851
 3951SOL    HW223313   1.789   2.559   8.356  1.8456  0.4861  0.9285
 3952SOL     OW23314   0.451   0.455   6.878  0.4640 -0.3398 -0.6010
 3952SOL    HW123315   0.524   0.431   6.936  2.1595 -0.1729 -2.6430
 3952SOL    HW223316   0.385   0.506   6.925  2.2268 -1.2806  2.9611
 3953SOL     OW23317   1.386   4.405   8.955  0.2703  0.1199 -0.1985
 3953SOL    HW123318   1.312   4.444   9.002 -1.7400 -1.1202 -2.3312
 3953SOL    HW223319   1.404   4.324   9.002  1.4424  0.7397  0.4213
 3954SOL     OW23320   0.978   2.143   3.644 -0.1617 -0.3795  0.1507
 3954SOL    HW123321   0.890   2.178   3.632  0.3574  0.6080 -0.8912
 3954SOL    HW223322   0.985   2.099   3.559  0.5399 -0.3414  0.1837
 3955SOL     OW23323   2.628   2.957   7.556  0.2969 -0.1631 -1.0981
 3955SOL    HW123324   2.593   2.974   7.469 -1.0089 -1.6544 -0.8633
 3955SOL    HW223325   2.554   2.925   7.607  1.1753 -0.3989  0.0222
 3956SOL     OW23326   1.564   2.486  10.637 -0.0458 -0.2722  0.2467
 3956SOL    HW123327   1.614   2.520  10.563  1.8248 -3.4762  0.0540
 3956SOL    HW223328   1.508   2.431  10.582  0.7483 -1.8488  1.0153
 3957SOL     OW23329   4.060   4.628   5.962  0.0983  0.0128 -0.4719
 3957SOL    HW123330   4.022   4.569   6.027  0.9678  1.5939  1.4983
 3957SOL    HW223331   4.042   4.712   6.006  1.3939  0.3494 -0.5824
 3958SOL     OW23332   2.085   4.212   5.586  0.1999 -0.0989 -0.7511
 3958SOL    HW123333   2.139   4.149   5.538 -0.2308 -0.4330 -0.7877
 3958SOL    HW223334   1.998   4.174   5.583  0.3790 -0.3400 -2.8527
 3959SOL     OW23335   1.688   1.734  14.005 -0.2035  0.5761  0.0037
 3959SOL    HW123336   1.637   1.749  13.926  0.4728  2.3961 -0.0943
 3959SOL    HW223337   1.623   1.758  14.071 -0.8412 -0.9049 -0.0683
 3960SOL     OW23338   3.092   3.616   1.941 -0.4631 -0.4587  0.0521
 3960SOL    HW123339   3.104   3.658   2.026  2.7417  3.1415 -2.1642
 3960SOL    HW223340   3.182   3.596   1.914 -0.5680 -0.6639 -0.1423
 3961SOL     OW23341   2.636   3.109   0.974 -0.0502  0.6134  0.0421
 3961SOL    HW123342   2.722   3.104   0.932 -0.0547  0.8000  0.0107
 3961SOL    HW223343   2.655   3.092   1.067 -2.2150 -2.8788 -0.1507
 3962SOL     OW23344   2.215   4.627   6.936  0.3085 -0.2715 -0.1913
 3962SOL    HW123345   2.186   4.629   7.027 -2.5382  0.9194 -1.1406
 3962SOL    HW223346   2.148   4.678   6.891 -1.1277  0.6285  2.9472
 3963SOL     OW23347   2.766   0.483   8.658  0.2357 -0.5743 -0.3297
 3963SOL    HW123348   2.839   0.544   8.668  0.9817 -1.1909 -2.0777
 3963SOL    HW223349   2.698   0.539   8.619 -0.0804 -0.6451  0.1224
 3964SOL     OW23350   0.881   3.361   8.250  0.0480  0.4855  0.0573
 3964SOL    HW123351   0.942   3.294   8.221 -1.2649 -0.3187 -0.8372
 3964SOL    HW223352   0.808   3.302   8.268 -0.2783  1.0088  0.4795
 3965SOL     OW23353   0.404   0.413  14.167  0.2036  1.1046 -0.6600
 3965SOL    HW123354   0.444   0.447  14.087  0.3758 -2.6392 -2.1569
 3965SOL    HW223355   0.310   0.423  14.150 -0.7227 -0.0884  3.7327
 3966SOL     OW23356   0.932   0.856   7.756 -0.1441  0.2218 -0.2376
 3966SOL    HW123357   0.917   0.786   7.818 -2.4000 -0.3647 -1.4551
 3966SOL    HW223358   1.027   0.863   7.752 -0.1014  0.1558  0.7312
 3967SOL     OW23359   4.229   2.614  11.921 -0.5378 -0.3750  0.1877
 3967SOL    HW123360   4.269   2.687  11.968  0.6318 -0.7199 -0.2737
 3967SOL    HW223361   4.170   2.591  11.993  1.1274 -2.2201  0.9512
 3968SOL     OW23362   2.466   3.767  13.707 -0.0236 -0.9326 -0.5410
 3968SOL    HW123363   2.560   3.753  13.712  0.0606 -0.0146  0.3730
 3968SOL    HW223364   2.442   3.761  13.614 -3.0350 -1.2292  0.2671
 3969SOL     OW23365   1.798   2.303   8.368  0.3755  0.4485 -0.4774
 3969SOL    HW123366   1.860   2.241   8.330 -0.9682 -1.2415  0.0627
 3969SOL    HW223367   1.824   2.388   8.334  0.2124  0.7967  0.2656
 3970SOL     OW23368   4.297   0.966   6.695 -0.3069  0.5419 -0.0215
 3970SOL    HW123369   4.250   0.901   6.748  0.8824 -0.3678 -0.0846
 3970SOL    HW223370   4.327   1.025   6.764 -0.4380 -0.2804  0.7386
 3971SOL     OW23371   4.063   0.236   6.090  0.3138 -0.3884 -0.0900
 3971SOL    HW123372   4.028   0.273   6.009 -0.4873 -2.0417 -0.4906
 3971SOL    HW223373   3.976   0.225   6.127  0.2376  1.0363  0.1312
 3972SOL     OW23374   3.182   1.409   6.015 -0.2219 -0.3974  0.5842
 3972SOL    HW123375   3.262   1.452   5.984 -1.4547  1.2466 -0.2712
 3972SOL    HW223376   3.126   1.485   6.032 -0.1749 -0.2351 -0.0017
 3973SOL     OW23377   1.622   0.691   7.092 -0.3417  0.1244  0.2491
 3973SOL    HW123378   1.536   0.651   7.107 -0.1929  0.5784  2.4277
 3973SOL    HW223379   1.684   0.618   7.082  0.0937  0.7539 -1.5653
 3974SOL     OW23380   0.732   0.246  14.603 -0.0643  0.1811  0.2326
 3974SOL    HW123381   0.727   0.163  14.556  0.8511 -1.0724  2.3263
 3974SOL    HW223382   0.716   0.225  14.695  0.3213 -0.8957  0.0496
 3975SOL     OW23383   2.696   1.486   2.455 -0.6100  0.4349  0.3648
 3975SOL    HW123384   2.700   1.541   2.377 -0.5048 -1.6395 -1.1000
 3975SOL    HW223385   2.632   1.421   2.426  2.1265 -1.9529 -0.3425
 3976SOL     OW23386   1.810   3.005  10.709  0.1016 -0.1202 -0.3807
 3976SOL    HW123387   1.834   3.064  10.638  1.2311  0.0733  0.1596
 3976SOL    HW223388   1.732   3.053  10.735  0.4829  0.6334 -0.6254
 3977SOL     OW23389   3.667   1.654  10.387  0.4591 -0.2038 -0.1906
 3977SOL    HW123390   3.656   1.566  10.351  4.6451 -1.7438  2.2554
 3977SOL    HW223391   3.653   1.706  10.308  1.7569 -0.6442 -0.7199
 3978SOL     OW23392   3.378   0.169   2.798 -0.1686 -0.1674 -0.3608
 3978SOL    HW123393   3.438   0.212   2.737 -0.6849  0.1180 -0.6753
 3978SOL    HW223394   3.391   0.212   2.883 -0.1618 -0.7200 -0.0844
 3979SOL     OW23395   4.655   0.986   5.598  0.4859 -0.2362  0.8325
 3979SOL    HW123396   4.563   1.006   5.582  0.1734 -0.5763  2.1415
 3979SOL    HW223397   4.655   0.913   5.660  3.4845  0.9873  2.2702
 3980SOL     OW23398   1.694   2.038  11.767  0.1318 -0.3278  0.1647
 3980SOL    HW123399   1.787   2.047  11.748 -0.2215  1.0626 -0.8533
 3980SOL    HW223400   1.652   2.124  11.771  1.8278  0.3914  2.6720
 3981SOL     OW23401   1.937   0.448   6.013 -0.2841 -0.0706  0.2482
 3981SOL    HW123402   1.860   0.495   5.982  0.1797  1.5544  1.5519
 3981SOL    HW223403   1.989   0.409   5.942  1.6530 -0.4956  1.8646
 3982SOL     OW23404   4.579   3.146   6.694  0.1675  0.0566 -0.5173
 3982SOL    HW123405   4.541   3.114   6.776  1.9103 -0.5244  0.0790
 3982SOL    HW223406   4.524   3.084   6.646  0.1325 -0.7377  0.5495
 3983SOL     OW23407   3.325   1.926  12.736 -0.3422  0.0723  0.3561
 3983SOL    HW123408   3.305   1.964  12.822 -0.7737  0.8589 -0.0929
 3983SOL    HW223409   3.335   1.836  12.768 -1.3579 -0.1308  0.0821
 3984SOL     OW23410   1.591   3.676   3.018 -0.6101 -0.2562  0.0341
 3984SOL    HW123411   1.608   3.759   2.973 -0.2275  0.0394  0.7213
 3984SOL    HW223412   1.671   3.626   3.001  0.6948  1.4275  1.2060
 3985SOL     OW23413   1.373   1.493   6.719 -0.1480  0.2116  0.4449
 3985SOL    HW123414   1.373   1.424   6.786  0.1643 -0.3182 -0.0907
 3985SOL    HW223415   1.332   1.568   6.761  0.7360  1.9768 -1.8402
 3986SOL     OW23416   0.453   0.479  11.078  0.1050 -0.9742  0.3742
 3986SOL    HW123417   0.516   0.462  11.148  0.6930 -2.6607 -0.5736
 3986SOL    HW223418   0.373   0.447  11.119  0.6393 -2.4575  0.2331
 3987SOL     OW23419   2.914   3.535   6.245 -0.0626  0.1103 -0.2508
 3987SOL    HW123420   2.948   3.453   6.209 -0.4976 -0.7944  1.3944
 3987SOL    HW223421   2.833   3.533   6.195  0.5228  2.4798 -1.2664
 3988SOL     OW23422   4.510   4.570   5.466  0.2383  0.5045  0.2634
 3988SOL    HW123423   4.419   4.583   5.439  0.6723  0.1413 -1.3436
 3988SOL    HW223424   4.544   4.529   5.387 -2.3740 -1.2203  0.0565
 3989SOL     OW23425   4.212   3.336   6.400  0.1371  0.1298 -0.1762
 3989SOL    HW123426   4.203   3.430   6.379 -2.2631 -0.2417 -0.8838
 3989SOL    HW223427   4.118   3.316   6.405  0.0285  1.0287  1.3350
 3990SOL     OW23428   0.415   1.799   8.841  0.2121  0.2161 -0.4353
 3990SOL    HW123429   0.392   1.781   8.932  1.5090  1.3221  0.1073
 3990SOL    HW223430   0.504   1.764   8.833  0.1540  0.1258 -0.6990
 3991SOL     OW23431   1.337   0.176  11.307  0.3620  0.1563  0.1475
 3991SOL    HW123432   1.395   0.171  11.231  0.4386 -0.5161  0.2426
 3991SOL    HW223433   1.333   0.085  11.338 -0.1891 -0.8316 -2.7929
 3992SOL     OW23434   0.929   0.183   2.717  0.3382  0.0950  0.1300
 3992SOL    HW123435   0.839   0.203   2.745  0.3496  2.1676 -1.3508
 3992SOL    HW223436   0.961   0.139   2.796 -1.9774 -0.7833  0.5805
 3993SOL     OW23437   4.243   1.243   3.406 -0.0667  0.0005  0.1314
 3993SOL    HW123438   4.267   1.284   3.489 -0.7852  1.3597 -0.3418
 3993SOL    HW223439   4.304   1.170   3.415 -0.7794 -0.8209 -1.6917
 3994SOL     OW23440   2.572   0.962   2.095 -0.6054 -0.3374 -0.0873
 3994SOL    HW123441   2.552   0.876   2.131 -1.0935  0.8159  2.4035
 3994SOL    HW223442   2.486   0.992   2.065  0.1229  0.6266 -1.2209
 3995SOL     OW23443   4.313   3.952   5.577 -0.3216  0.0569  0.2955
 3995SOL    HW123444   4.284   3.874   5.530  1.0786 -0.8865  0.9924
 3995SOL    HW223445   4.387   3.983   5.526  0.3567 -2.5283 -0.3113
 3996SOL     OW23446   4.444   4.085   6.815  0.2917  0.6854 -0.3827
 3996SOL    HW123447   4.457   4.034   6.735 -1.2028  1.3756 -1.0599
 3996SOL    HW223448   4.473   4.017   6.876 -2.2371  1.4609  1.6772
 3997SOL     OW23449   1.665   0.384   3.634 -0.3345  0.3113 -0.3924
 3997SOL    HW123450   1.661   0.385   3.729 -1.1511 -1.6109 -0.4031
 3997SOL    HW223451   1.742   0.440   3.623  0.6150 -0.7191  1.1116
 3998SOL     OW23452   2.458   2.947   0.890  0.1409 -0.4445 -0.4668
 3998SOL    HW123453   2.527   2.887   0.863  1.3933  0.7607  0.0658
 3998SOL    HW223454   2.513   3.021   0.914  1.4825 -1.6081  0.0567
 3999SOL     OW23455   0.813   2.697  17.080  0.0060  0.3363  0.1442
 3999SOL    HW123456   0.749   2.728  17.016  0.8609  2.5736  0.3790
 3999SOL    HW223457   0.757   2.705  17.157 -0.0308 -0.1484  0.1671
 4000SOL     OW23458   3.326   3.158   1.523 -0.0674  0.0085 -0.1573
 4000SOL    HW123459   3.249   3.169   1.579  0.4251  0.7938  0.3608
 4000SOL    HW223460   3.397   3.140   1.585  0.2209  0.4031 -0.3735
 4001SOL     OW23461   3.873   2.950   7.594  0.1002  0.4813 -0.1850
 4001SOL    HW123462   3.835   2.953   7.682  2.3480  1.1327  0.7899
 4001SOL    HW223463   3.956   2.906   7.613  0.4154  2.3821  2.9319
 4002SOL     OW23464   3.342   0.014  12.373  0.1103  0.0274 -0.0582
 4002SOL    HW123465   3.432   4.706  12.365  0.3496  0.8705 -0.5459
 4002SOL    HW223466   3.335   0.030  12.467  1.0059  1.0871 -0.1796
 4003SOL     OW23467   0.126   0.273   1.341  0.4485 -0.1276 -0.1255
 4003SOL    HW123468   0.096   0.360   1.365  0.4652 -0.2985  0.5263
 4003SOL    HW223469   0.050   0.217   1.356  0.9997 -1.3410 -1.8393
 4004SOL     OW23470   3.440   1.114   8.834  0.0430  0.0062  0.5007
 4004SOL    HW123471   3.365   1.172   8.846 -0.8478 -1.7717  3.5814
 4004SOL    HW223472   3.493   1.145   8.907  1.6911 -2.1108  0.2014
 4005SOL     OW23473   3.284   1.786   4.925 -0.0844  0.2017  0.2239
 4005SOL    HW123474   3.348   1.857   4.926  1.9993 -1.6564 -1.6322
 4005SOL    HW223475   3.225   1.804   4.852  0.6326  1.4127 -0.0711
 4006SOL     OW23476   2.478   0.806   4.753 -0.3899 -0.3602 -0.4915
 4006SOL    HW123477   2.537   0.810   4.678 -4.9575 -1.4848 -4.1276
 4006SOL    HW223478   2.521   0.730   4.794 -1.1766  0.4217  1.7599
 4007SOL     OW23479   1.575   2.621   6.706  0.1638  0.0109  0.0078
 4007SOL    HW123480   1.494   2.593   6.749  0.4802  1.7898  1.7337
 4007SOL    HW223481   1.563   2.596   6.614  2.3306 -2.3516  0.3558
 4008SOL     OW23482   4.694   1.607   6.412  0.7203 -0.3136 -0.6433
 4008SOL    HW123483   4.711   1.606   6.318 -1.0806  0.8338 -0.9894
 4008SOL    HW223484   0.057   1.642   6.434 -0.2022  0.4951  1.7258
 4009SOL     OW23485   0.992   1.334   2.461 -0.2928  0.0458 -0.3977
 4009SOL    HW123486   0.955   1.388   2.531  2.4338  2.1003 -0.5346
 4009SOL    HW223487   1.078   1.314   2.497 -0.4914 -0.2956 -0.1223
 4010SOL     OW23488   0.064   2.610   9.120  0.5126  0.2703  0.2582
 4010SOL    HW123489   0.152   2.649   9.114  0.2525  0.9421  0.7926
 4010SOL    HW223490   0.014   2.644   9.046 -0.5636  1.3435  1.4564
 4011SOL     OW23491   4.051   4.014   8.245 -0.1310  0.1351  0.0884
 4011SOL    HW123492   4.096   4.040   8.165 -1.3470 -2.6358 -1.5146
 4011SOL    HW223493   4.059   4.099   8.288  3.2742 -0.7059  1.1734
 4012SOL     OW23494   1.542   3.800   7.565 -0.3146  0.0180 -0.0094
 4012SOL    HW123495   1.518   3.707   7.554  3.3635 -0.7535 -1.5713
 4012SOL    HW223496   1.546   3.808   7.660 -0.5754  1.8695 -0.1723
 4013SOL     OW23497   2.348   3.720   4.352  0.0486  0.0513  0.7113
 4013SOL    HW123498   2.330   3.810   4.377  2.7189  1.1250 -1.2754
 4013SOL    HW223499   2.290   3.672   4.412  2.2013 -2.4658  0.8132
 4014SOL     OW23500   3.708   4.010   3.698 -0.4430  0.2018 -0.1210
 4014SOL    HW123501   3.670   4.097   3.690  0.4962  0.6706  0.5625
 4014SOL    HW223502   3.795   4.028   3.734 -0.7157  1.1935  0.0339
 4015SOL     OW23503   2.575   2.245   6.278 -0.6544 -0.7743 -0.7583
 4015SOL    HW123504   2.516   2.316   6.251  0.8281  1.0240  0.7197
 4015SOL    HW223505   2.654   2.290   6.308 -0.0094 -1.7022 -1.0605
 4016SOL     OW23506   1.149   3.885   9.577  0.2437 -0.1417  0.1627
 4016SOL    HW123507   1.217   3.864   9.512 -1.6946 -2.8002 -1.0158
 4016SOL    HW223508   1.076   3.901   9.518 -0.9394 -1.4301  1.2557
 4017SOL     OW23509   4.610   3.931   6.976 -0.2287 -0.2455  0.1835
 4017SOL    HW123510   4.640   3.841   6.981 -1.2794 -0.6625 -1.0060
 4017SOL    HW223511   4.688   3.981   7.003  0.6472 -0.5251 -1.8071
 4018SOL     OW23512   4.066   1.711  13.552 -0.0122 -0.1328 -0.5866
 4018SOL    HW123513   4.068   1.658  13.473 -0.2009 -0.5060 -0.3368
 4018SOL    HW223514   3.973   1.724  13.572 -0.8088 -1.7363 -3.3641
 4019SOL     OW23515   0.713   1.107   3.617 -0.2573 -0.0871  0.3703
 4019SOL    HW123516   0.779   1.165   3.654 -1.1966 -0.2503  2.2901
 4019SOL    HW223517   0.715   1.124   3.523 -0.5858  3.8642  1.0975
 4020SOL     OW23518   2.013   4.421   3.106 -0.3157  0.3078 -0.2735
 4020SOL    HW123519   2.099   4.410   3.148 -0.3953  2.0557  0.3425
 4020SOL    HW223520   2.039   4.446   3.017 -0.0406  0.6760 -0.0889
 4021SOL     OW23521   0.157   0.911   7.519  1.1218  0.0071  0.0374
 4021SOL    HW123522   0.068   0.935   7.495  1.0928 -0.1753 -0.0417
 4021SOL    HW223523   0.210   0.965   7.461 -0.6436  1.6870 -0.0295
 4022SOL     OW23524   3.729   4.440   7.832  0.6173 -0.5590  0.4892
 4022SOL    HW123525   3.683   4.487   7.901  1.0336  0.9650 -0.2565
 4022SOL    HW223526   3.815   4.462   7.867  0.6005 -1.3036  0.9994
 4023SOL     OW23527   0.426   4.494   9.087 -0.0535  0.5896 -0.0340
 4023SOL    HW123528   0.427   4.481   9.182  1.5587  1.9705  0.1356
 4023SOL    HW223529   0.492   4.564   9.084 -1.0702  1.6843  2.7841
 4024SOL     OW23530   1.921   2.672  12.531  0.4720  0.0330 -0.4878
 4024SOL    HW123531   1.907   2.650  12.439 -0.2725  1.0397 -0.6160
 4024SOL    HW223532   1.831   2.672  12.564  0.6254  2.4750 -0.0263
 4025SOL     OW23533   3.645   3.307   8.168  0.1081 -0.0401  0.2564
 4025SOL    HW123534   3.623   3.381   8.112 -0.2940  0.2204  0.7598
 4025SOL    HW223535   3.564   3.287   8.215  0.7558 -0.8140  1.0538
 4026SOL     OW23536   0.267   4.295   3.798  0.0556 -0.6466 -0.5418
 4026SOL    HW123537   0.321   4.264   3.726  0.6399  0.3264 -0.5189
 4026SOL    HW223538   0.265   4.387   3.771  1.6177 -0.0936  1.2342
 4027SOL     OW23539   4.592   3.421   6.529 -0.3119  0.7000  0.4910
 4027SOL    HW123540   4.590   3.332   6.566 -1.2457 -0.7286 -2.9830
 4027SOL    HW223541   4.566   3.403   6.439 -1.2877 -0.2149  0.9494
 4028SOL     OW23542   1.336   2.696   4.086 -0.3254 -0.1785 -0.0513
 4028SOL    HW123543   1.330   2.757   4.159 -1.1887 -0.0343 -0.2491
 4028SOL    HW223544   1.405   2.735   4.032 -0.0534 -0.4727  0.0834
 4029SOL     OW23545   1.413   4.534   6.587  0.1740  0.6355  0.0159
 4029SOL    HW123546   1.440   4.485   6.510  0.1646  2.0409 -0.8766
 4029SOL    HW223547   1.327   4.492   6.589  0.5032 -0.1998 -3.5569
 4030SOL     OW23548   1.911   3.057  15.939 -0.4479  0.0565  0.4061
 4030SOL    HW123549   1.971   3.005  15.993  0.1442  0.8750  0.5409
 4030SOL    HW223550   1.966   3.123  15.896  1.8352 -1.2726  1.2414
 4031SOL     OW23551   0.930   4.308   5.874 -0.4253  0.3175  0.2187
 4031SOL    HW123552   0.867   4.296   5.945 -2.8906  1.4000 -1.7853
 4031SOL    HW223553   0.901   4.394   5.844  2.3054  1.7170  1.5974
 4032SOL     OW23554   4.235   0.288   9.132  0.3257 -0.1621 -0.0333
 4032SOL    HW123555   4.154   0.280   9.082  0.3973  2.2246 -0.5343
 4032SOL    HW223556   4.194   0.310   9.216 -1.5141 -0.7650 -0.7603
 4033SOL     OW23557   1.160   0.694  10.041  0.4542  0.0734 -0.9129
 4033SOL    HW123558   1.071   0.669  10.067  1.2811 -2.2966 -0.2917
 4033SOL    HW223559   1.151   0.783  10.075  0.0082 -0.3355  0.0439
 4034SOL     OW23560   4.655   4.712   0.367 -0.2343 -0.0918  0.0914
 4034SOL    HW123561   4.667   4.658   0.289  1.1795  1.3776 -0.6918
 4034SOL    HW223562   0.004   0.051   0.354  1.5067 -2.1845 -0.2919
 4035SOL     OW23563   0.291   3.163   5.499 -0.3490 -0.4205 -0.3909
 4035SOL    HW123564   0.381   3.195   5.503 -0.0842 -1.0204 -1.3397
 4035SOL    HW223565   0.301   3.095   5.432 -1.8778  0.4799 -1.5333
 4036SOL     OW23566   4.469   0.120   0.526  0.0118 -0.6176  0.1041
 4036SOL    HW123567   4.447   0.067   0.603 -0.7629 -1.1018 -0.4537
 4036SOL    HW223568   4.525   0.062   0.474 -2.7885 -0.8076 -2.6871
 4037SOL     OW23569   3.402   3.419  17.580  0.2770 -0.1056  0.4293
 4037SOL    HW123570   3.415   3.483  17.649  2.4024 -0.4905  0.3773
 4037SOL    HW223571   3.386   3.471  17.502  0.4287  0.1572  0.5755
 4038SOL     OW23572   4.223   0.594   0.446 -0.0932 -0.7486  0.1643
 4038SOL    HW123573   4.314   0.565   0.439  0.4115  1.8440 -3.8198
 4038SOL    HW223574   4.237   0.680   0.485  1.7374 -0.4014 -1.2815
 4039SOL     OW23575   2.230   3.024  15.342 -0.2014  0.1682 -0.0338
 4039SOL    HW123576   2.313   3.025  15.390 -0.5838  0.0131  0.6271
 4039SOL    HW223577   2.177   2.961  15.390  1.3571  0.4455  2.0663
 4040SOL     OW23578   0.287   3.755   4.772  0.5320 -0.3926  0.0129
 4040SOL    HW123579   0.239   3.837   4.780  2.1707  0.3919  1.7948
 4040SOL    HW223580   0.361   3.768   4.831  0.1481 -1.8390  0.8233
 4041SOL     OW23581   3.962   0.110   4.591 -0.2720 -0.1232 -0.3613
 4041SOL    HW123582   3.945   0.167   4.666 -2.3535 -1.0447 -0.1395
 4041SOL    HW223583   3.875   0.089   4.556 -0.4597 -3.1202  1.8952
 4042SOL     OW23584   1.150   2.673  16.647  0.3593  0.5410  0.2673
 4042SOL    HW123585   1.134   2.683  16.553  1.3785  1.8242  0.2300
 4042SOL    HW223586   1.195   2.589  16.648  0.3305  0.5429  1.4145
 4043SOL     OW23587   3.274   1.256   3.534 -0.4355 -0.3603 -0.5195
 4043SOL    HW123588   3.365   1.260   3.504  0.1395 -1.1432  1.0936
 4043SOL    HW223589   3.233   1.200   3.468 -0.4876  1.0239 -1.6497
 4044SOL     OW23590   2.538   4.276   4.904  0.0942  0.3032 -0.4776
 4044SOL    HW123591   2.629   4.250   4.911  0.2245  0.3821 -1.9235
 4044SOL    HW223592   2.501   4.195   4.869  0.5842 -1.0568  2.2260
 4045SOL     OW23593   3.158   2.238   9.323  0.5859  0.5967  0.6817
 4045SOL    HW123594   3.173   2.331   9.311 -2.4009  0.6483 -2.6880
 4045SOL    HW223595   3.207   2.204   9.248  0.4377 -0.1402  0.9101
 4046SOL     OW23596   1.927   1.225  14.974 -0.2635  0.6190 -0.2692
 4046SOL    HW123597   1.992   1.223  15.045 -3.5234  2.3115  2.7426
 4046SOL    HW223598   1.909   1.132  14.964 -0.8162  0.7319 -0.3157
 4047SOL     OW23599   1.591   0.269  14.585 -0.6369  0.4489 -0.2625
 4047SOL    HW123600   1.503   0.300  14.610 -1.4565 -3.2417  1.4053
 4047SOL    HW223601   1.644   0.334  14.630 -0.0429  1.4116 -2.3585
 4048SOL     OW23602   1.569   3.634  13.071  0.0711 -0.4090  0.0378
 4048SOL    HW123603   1.500   3.579  13.109  0.9178 -2.0742 -0.8586
 4048SOL    HW223604   1.544   3.616  12.981  2.6235  0.6373 -0.8909
 4049SOL     OW23605   3.419   1.828   1.366  0.0400 -0.3189 -0.1091
 4049SOL    HW123606   3.357   1.756   1.352  0.8942 -0.4887 -3.0244
 4049SOL    HW223607   3.394   1.898   1.306 -3.6186 -1.2226  0.3659
 4050SOL     OW23608   3.743   1.992   3.051  0.0429  0.3082  0.0448
 4050SOL    HW123609   3.749   2.073   3.001 -2.0357 -0.5284 -1.5377
 4050SOL    HW223610   3.659   1.996   3.096 -1.0221 -1.2308 -1.8395
 4051SOL     OW23611   1.854   4.299   5.814 -0.3369 -0.8022  0.3891
 4051SOL    HW123612   1.846   4.233   5.745 -0.4217 -1.8113  1.3665
 4051SOL    HW223613   1.889   4.244   5.884  1.1762  1.0830  1.1030
 4052SOL     OW23614   2.782   4.602   6.410 -0.1378  0.0856  0.0071
 4052SOL    HW123615   2.718   4.635   6.474 -0.1090  0.5643 -0.2135
 4052SOL    HW223616   2.841   4.676   6.423 -0.2429 -0.0138  1.1221
 4053SOL     OW23617   3.869   1.764  14.790  0.3415  0.0076 -1.1396
 4053SOL    HW123618   3.933   1.832  14.769  1.3962 -0.8562 -0.6787
 4053SOL    HW223619   3.794   1.823  14.785  0.5446  0.4133  0.5297
 4054SOL     OW23620   4.168   0.474  12.199 -0.7425  0.1963 -0.7285
 4054SOL    HW123621   4.193   0.465  12.107 -1.5874  1.0171 -1.0388
 4054SOL    HW223622   4.167   0.383  12.229 -1.7345  0.9664  1.5907
 4055SOL     OW23623   2.423   2.595   7.401 -0.0076  0.3144 -0.7657
 4055SOL    HW123624   2.447   2.507   7.432 -0.5586  0.3807 -0.1395
 4055SOL    HW223625   2.458   2.639   7.479 -1.0058  1.1369 -0.7889
 4056SOL     OW23626   1.146   4.454   6.574  0.0655 -0.1777  0.5099
 4056SOL    HW123627   1.074   4.508   6.607  0.4792  0.4440  0.4071
 4056SOL    HW223628   1.112   4.366   6.588  1.6561 -0.7207  0.9268
 4057SOL     OW23629   1.252   0.334   2.030 -0.5143 -0.0673 -0.1414
 4057SOL    HW123630   1.329   0.303   2.077 -0.5258  0.0993 -0.0105
 4057SOL    HW223631   1.196   0.348   2.107  1.1586  2.0281  0.7061
 4058SOL     OW23632   0.613   0.757   2.308  0.3980 -0.7514 -0.0610
 4058SOL    HW123633   0.627   0.723   2.220  0.9696 -1.0227  0.1375
 4058SOL    HW223634   0.696   0.802   2.321  1.1452 -1.2228 -3.1362
 4059SOL     OW23635   0.173   2.345   3.382  0.1341 -0.2318  0.5613
 4059SOL    HW123636   0.085   2.382   3.389  0.2994  0.3513 -0.5429
 4059SOL    HW223637   0.206   2.411   3.322  0.1181 -2.9968 -2.4770
 4060SOL     OW23638   3.447   0.343  12.617  0.0765 -0.2305  0.1221
 4060SOL    HW123639   3.486   0.401  12.682  1.6285 -0.7296 -0.3858
 4060SOL    HW223640   3.418   0.413  12.560  2.0762  0.5808  0.1116
 4061SOL     OW23641   1.582   2.828   2.830  0.2798  0.2350  0.4515
 4061SOL    HW123642   1.620   2.873   2.755 -2.0946  2.4186  0.5429
 4061SOL    HW223643   1.636   2.749   2.831  0.3332  0.2705  0.2906
 4062SOL     OW23644   2.587   3.307   5.641  0.2189 -0.0112  0.4671
 4062SOL    HW123645   2.506   3.340   5.604  0.4239 -0.9507 -0.8242
 4062SOL    HW223646   2.576   3.332   5.733  0.4014 -0.5921  0.6522
 4063SOL     OW23647   3.178   1.562   5.054  0.0393  0.1023  0.1991
 4063SOL    HW123648   3.222   1.639   5.017  0.7733 -0.2012  0.4397
 4063SOL    HW223649   3.112   1.557   4.985 -1.5662 -2.1259  1.9383
 4064SOL     OW23650   0.100   2.039  14.951  0.0816 -0.0127  0.1588
 4064SOL    HW123651   0.129   2.119  14.994 -0.0974  0.9365 -1.4858
 4064SOL    HW223652   0.030   2.016  15.012 -1.5453  1.1016 -1.2814
 4065SOL     OW23653   4.305   1.400   2.405  0.7300  0.0741  0.2127
 4065SOL    HW123654   4.377   1.377   2.462 -1.3880 -1.5917  2.2154
 4065SOL    HW223655   4.267   1.313   2.391 -0.6018  0.3949  1.8693
 4066SOL     OW23656   1.109   4.381  16.385  0.0300 -0.0237  0.6647
 4066SOL    HW123657   1.075   4.394  16.474 -0.7575  4.9641 -0.3849
 4066SOL    HW223658   1.060   4.304  16.356 -2.3483  0.9459  2.1054
 4067SOL     OW23659   1.439   3.918   0.848 -0.7785 -0.3292 -0.1770
 4067SOL    HW123660   1.469   3.849   0.908  0.9220  1.6620  1.2756
 4067SOL    HW223661   1.442   3.985   0.916  1.4270 -0.1746 -0.4138
 4068SOL     OW23662   0.088   3.780  16.390 -0.1853 -0.2488 -0.2437
 4068SOL    HW123663   0.137   3.748  16.466 -0.1738  0.9187  0.2398
 4068SOL    HW223664   0.068   3.697  16.347 -0.2289 -1.2112  1.6440
 4069SOL     OW23665   2.271   0.318   8.052  0.1204  0.0389  0.5555
 4069SOL    HW123666   2.187   0.288   8.089  0.1709  0.8203  1.3027
 4069SOL    HW223667   2.328   0.287   8.123 -0.6091  0.4367  1.3144
 4070SOL     OW23668   1.958   3.081  15.576 -0.1509 -0.4592  0.6092
 4070SOL    HW123669   1.908   3.112  15.651  0.1509  0.2581  0.5135
 4070SOL    HW223670   2.044   3.120  15.591 -0.2066  0.0237 -0.3409
 4071SOL     OW23671   2.219   3.866  16.841  0.3300  0.2044 -0.3124
 4071SOL    HW123672   2.185   3.777  16.846  0.2614  0.2982  0.8122
 4071SOL    HW223673   2.150   3.901  16.784 -1.1537 -1.1486  0.6709
 4072SOL     OW23674   2.412   4.303   5.279  0.3965  0.3002 -0.2381
 4072SOL    HW123675   2.485   4.244   5.259  0.8658  1.6237 -2.5151
 4072SOL    HW223676   2.361   4.239   5.329  0.8807  2.3655  2.9068
 4073SOL     OW23677   3.941   0.524   5.651  0.1892 -0.1630  0.3490
 4073SOL    HW123678   3.981   0.472   5.581 -0.2766  0.9184 -0.7196
 4073SOL    HW223679   3.963   0.616   5.635 -0.7537 -0.0746 -0.4314
 4074SOL     OW23680   1.893   3.617   0.938  0.1842 -0.2323 -0.3986
 4074SOL    HW123681   1.819   3.557   0.926 -0.1862  0.6058 -2.2786
 4074SOL    HW223682   1.893   3.631   1.033 -0.9245 -0.5366 -0.3501
 4075SOL     OW23683   1.214   0.046  14.711 -0.4505 -0.2133 -0.4825
 4075SOL    HW123684   1.229   4.676  14.722  1.0503  0.1323  0.3548
 4075SOL    HW223685   1.118   0.048  14.711 -0.4756 -1.6982 -2.2527
 4076SOL     OW23686   1.432   1.489  11.426  0.4816 -0.2450  0.6341
 4076SOL    HW123687   1.357   1.537  11.462  0.3381 -0.5810  0.7917
 4076SOL    HW223688   1.423   1.402  11.466  1.5316  0.4579  2.4128
 4077SOL     OW23689   2.975   2.348  10.825 -0.1473 -0.4388  0.0760
 4077SOL    HW123690   2.975   2.311  10.914  0.1646  0.4466  0.4441
 4077SOL    HW223691   2.985   2.440  10.850  3.8443 -1.1859  1.1388
 4078SOL     OW23692   3.350   2.289   7.085  0.0413  0.2263 -0.7949
 4078SOL    HW123693   3.400   2.358   7.128  1.0016 -0.8663 -0.1463
 4078SOL    HW223694   3.363   2.210   7.137  2.1662  0.1954 -1.3531
 4079SOL     OW23695   2.922   1.613   5.800  0.5696 -0.6996 -0.1914
 4079SOL    HW123696   2.897   1.700   5.768 -0.7327 -0.6269  1.0160
 4079SOL    HW223697   3.017   1.621   5.794  0.5308 -0.3921 -0.3979
 4080SOL     OW23698   4.630   1.643   7.256  0.2783  0.3875 -0.2850
 4080SOL    HW123699   4.609   1.643   7.163 -1.8992 -0.1435  0.2227
 4080SOL    HW223700   0.002   1.655   7.251  0.4611 -1.2795 -0.9701
 4081SOL     OW23701   4.259   1.007   0.084 -0.0433 -0.6041  0.7122
 4081SOL    HW123702   4.177   0.998   0.037 -0.9277  2.1676  1.6899
 4081SOL    HW223703   4.292   1.091   0.050 -2.7810  0.0864 -0.1913
 4082SOL     OW23704   2.609   0.202   9.806  0.2166 -0.1912  0.0636
 4082SOL    HW123705   2.675   0.143   9.843 -0.4133 -1.3288 -0.6287
 4082SOL    HW223706   2.615   0.176   9.714  1.2781  1.2507 -0.2820
 4083SOL     OW23707   0.276   0.365   9.542 -0.0403  0.1650 -0.3498
 4083SOL    HW123708   0.206   0.369   9.606 -1.7998  1.8274 -2.3665
 4083SOL    HW223709   0.339   0.427   9.577 -0.8942  0.9645 -0.2478
 4084SOL     OW23710   0.552   1.609  14.623 -0.1979 -0.0331 -0.6117
 4084SOL    HW123711   0.463   1.575  14.611  0.4402 -1.0012 -2.7708
 4084SOL    HW223712   0.530   1.693  14.662 -2.5570  0.2011 -2.4563
 4085SOL     OW23713   3.993   2.015  12.732  0.2657  0.0295  0.0887
 4085SOL    HW123714   4.048   1.958  12.679 -1.4959 -0.5662 -1.0917
 4085SOL    HW223715   4.066   2.065  12.771 -0.0937  0.6657 -0.0468
 4086SOL     OW23716   1.249   1.482   3.923 -0.7208 -0.4025 -0.3450
 4086SOL    HW123717   1.310   1.481   3.997  0.1055 -0.2010 -1.0263
 4086SOL    HW223718   1.221   1.572   3.910  0.9283  0.3682  1.4191
 4087SOL     OW23719   3.001   0.824   3.027  0.0308  0.1403 -0.0189
 4087SOL    HW123720   2.991   0.910   3.068  0.3988  0.3122 -0.2921
 4087SOL    HW223721   3.063   0.845   2.957 -0.4266  0.0649 -0.4560
 4088SOL     OW23722   2.104   0.899  16.674  0.2190 -0.2529  0.2745
 4088SOL    HW123723   2.077   0.936  16.758  1.5578  1.4225 -0.0390
 4088SOL    HW223724   2.028   0.846  16.649 -0.0232  0.3320 -0.2208
 4089SOL     OW23725   0.992   1.076   5.658 -0.6551  0.2270  0.4234
 4089SOL    HW123726   1.041   1.154   5.684  0.0741 -0.7469  1.9900
 4089SOL    HW223727   0.946   1.095   5.577 -1.0413  4.0566  1.5674
 4090SOL     OW23728   0.197   0.307   6.735 -0.6519 -0.4571  0.4928
 4090SOL    HW123729   0.199   0.402   6.725  0.0949 -1.1376 -5.7264
 4090SOL    HW223730   0.171   0.295   6.826 -3.4339  0.6681 -0.1395
 4091SOL     OW23731   2.003   1.333   7.835  0.2072 -0.2165  0.3255
 4091SOL    HW123732   2.016   1.246   7.798 -3.1312  0.3966 -2.2296
 4091SOL    HW223733   1.908   1.343   7.837  0.2665  0.0746  1.9165
 4092SOL     OW23734   4.112   1.153   5.226 -0.0343 -0.2212 -0.2319
 4092SOL    HW123735   4.186   1.186   5.175 -0.4109  0.1640 -0.5301
 4092SOL    HW223736   4.074   1.104   5.154  0.0367  1.2492 -1.2657
 4093SOL     OW23737   3.506   3.523  12.305  0.3706 -0.2447  0.1904
 4093SOL    HW123738   3.436   3.540  12.368  2.2577 -0.4394  2.3375
 4093SOL    HW223739   3.473   3.573  12.230 -0.4382 -0.8611  0.1432
 4094SOL     OW23740   0.383   2.746   2.264 -0.0642 -0.4734  0.3880
 4094SOL    HW123741   0.443   2.754   2.190 -0.0212  0.7297  0.5464
 4094SOL    HW223742   0.333   2.668   2.244 -2.7261  0.6297  2.6763
 4095SOL     OW23743   2.006   0.266   8.786 -0.2051 -0.5621  0.0336
 4095SOL    HW123744   2.013   0.337   8.850  1.3776 -0.7192  0.0321
 4095SOL    HW223745   2.093   0.273   8.746 -0.1642  3.3680  0.7335
 4096SOL     OW23746   4.238   2.249   3.184 -0.1428  0.2829  0.0622
 4096SOL    HW123747   4.147   2.225   3.167 -0.0478  0.9673 -1.4344
 4096SOL    HW223748   4.228   2.314   3.253  1.3934  1.9973 -1.3207
 4097SOL     OW23749   3.482   2.992   9.519  1.1025 -0.6250  0.0858
 4097SOL    HW123750   3.405   2.996   9.576  0.8931  0.8400 -0.3179
 4097SOL    HW223751   3.435   2.940   9.454 -1.8878  1.7337  0.3672
 4098SOL     OW23752   3.833   0.163   7.858 -0.2188 -0.1145  0.1179
 4098SOL    HW123753   3.757   0.167   7.916  0.2055 -0.3585  0.6893
 4098SOL    HW223754   3.886   0.238   7.885 -0.9128  0.2821  0.3861
 4099SOL     OW23755   1.037   3.545  16.867  0.5829  0.1532 -0.1669
 4099SOL    HW123756   1.011   3.571  16.955  0.2342 -0.4487 -0.0908
 4099SOL    HW223757   0.968   3.486  16.836 -1.6816  2.3747  0.6908
 4100SOL     OW23758   2.809   4.195   3.060  0.2019 -0.2855 -0.0364
 4100SOL    HW123759   2.877   4.163   3.119 -0.8644  0.3295  1.5025
 4100SOL    HW223760   2.780   4.265   3.118 -0.4364 -0.8162  0.2900
 4101SOL     OW23761   0.037   0.508   5.763  0.2569  0.3643 -0.2527
 4101SOL    HW123762   0.031   0.601   5.784 -0.3055 -0.2446  2.2879
 4101SOL    HW223763   0.118   0.488   5.811  0.7967 -1.2051 -1.7968
 4102SOL     OW23764   0.142   0.257   3.532 -0.0614  0.5883  0.0388
 4102SOL    HW123765   0.232   0.262   3.498 -0.0058 -2.9513 -0.4033
 4102SOL    HW223766   0.136   0.323   3.601  2.6051 -0.7373  1.5614
 4103SOL     OW23767   4.292   0.398   2.719 -0.2902 -0.1394  0.1934
 4103SOL    HW123768   4.218   0.424   2.663  0.0281 -1.5517 -0.8673
 4103SOL    HW223769   4.305   0.483   2.761  0.6961  0.4851 -1.3422
 4104SOL     OW23770   2.818   0.550   3.608  0.1752 -0.0347 -0.2296
 4104SOL    HW123771   2.809   0.607   3.532 -2.2891 -1.4353 -0.9994
 4104SOL    HW223772   2.887   0.495   3.570  1.4583  1.2649  0.2253
 4105SOL     OW23773   3.720   3.480  14.896 -0.1652 -0.1415  0.1109
 4105SOL    HW123774   3.633   3.440  14.891 -0.0314 -0.4713  0.4416
 4105SOL    HW223775   3.713   3.535  14.817 -0.1183  0.2429  0.3743
 4106SOL     OW23776   2.782   2.932   4.692  0.1772 -0.4656 -0.3703
 4106SOL    HW123777   2.865   2.887   4.706 -0.8273 -2.3650 -0.5498
 4106SOL    HW223778   2.755   2.891   4.610  0.7974  1.2716 -1.4528
 4107SOL     OW23779   4.283   4.338  15.340 -0.2090  0.4708 -0.2309
 4107SOL    HW123780   4.289   4.430  15.365  1.3053  0.3751 -0.2020
 4107SOL    HW223781   4.331   4.286  15.404 -1.5647 -0.4433  0.0336
 4108SOL     OW23782   2.273   2.120   7.572 -0.4033 -0.0309  0.2112
 4108SOL    HW123783   2.298   2.109   7.664  0.5662  1.4840  0.1282
 4108SOL    HW223784   2.326   2.049   7.536 -0.9066 -1.1566  1.7064
 4109SOL     OW23785   1.064   4.076  16.011 -0.0072 -0.0630  0.5533
 4109SOL    HW123786   1.119   4.096  15.936 -1.4524 -1.0322 -0.7688
 4109SOL    HW223787   1.014   4.004  15.973 -0.0763  0.0519  0.4258
 4110SOL     OW23788   1.439   4.320  15.242  0.6905 -0.1073 -0.6367
 4110SOL    HW123789   1.396   4.351  15.162  0.7254 -0.2579 -0.7144
 4110SOL    HW223790   1.433   4.397  15.298  1.6641 -2.0248  2.1269
 4111SOL     OW23791   0.707   0.578   8.882  0.1493  0.2553  0.5040
 4111SOL    HW123792   0.644   0.568   8.953  1.5496  0.4521  1.7875
 4111SOL    HW223793   0.688   0.670   8.866  1.2653  0.1918 -1.1940
 4112SOL     OW23794   1.491   3.043   7.845  1.0256 -0.2245  0.1019
 4112SOL    HW123795   1.569   3.024   7.896  0.3065  0.4716  1.4735
 4112SOL    HW223796   1.526   3.102   7.778 -2.4903  1.5150 -0.1987
 4113SOL     OW23797   0.031   1.526   1.618  0.1500 -0.4701 -0.4023
 4113SOL    HW123798   0.012   1.479   1.699 -0.6546  1.1905  0.3797
 4113SOL    HW223799   0.123   1.504   1.604  0.7909  0.9792  1.4679
 4114SOL     OW23800   2.686   0.774   2.359  0.4823  0.3608 -0.2186
 4114SOL    HW123801   2.736   0.696   2.335 -0.1182 -0.9096  2.6585
 4114SOL    HW223802   2.610   0.771   2.301  1.9889 -0.5001 -2.1379
 4115SOL     OW23803   0.972   3.774  12.534  0.2101  0.6047  0.0293
 4115SOL    HW123804   1.012   3.765  12.448 -0.0426  0.3306 -0.0578
 4115SOL    HW223805   0.884   3.737  12.527  0.5018 -0.2923  1.0619
 4116SOL     OW23806   2.431   3.762   3.559  0.2781  0.1236  0.2495
 4116SOL    HW123807   2.451   3.683   3.610  1.1251  0.7108  0.8309
 4116SOL    HW223808   2.448   3.835   3.618 -2.2159  1.0060 -0.1115
 4117SOL     OW23809   4.536   2.387  16.421 -0.0374 -0.7473 -0.2774
 4117SOL    HW123810   4.570   2.468  16.383 -1.4421  0.2294  0.5771
 4117SOL    HW223811   4.443   2.406  16.430  0.0338 -0.0994 -0.8834
 4118SOL     OW23812   3.743   0.010   4.424  0.4012  0.5595 -0.1708
 4118SOL    HW123813   3.725   4.720   4.331 -0.4167  0.7753 -0.0432
 4118SOL    HW223814   3.722   4.645   4.455 -0.5937  1.2275  1.0473
 4119SOL     OW23815   4.087   2.620   8.834 -0.1962  0.1226  0.4181
 4119SOL    HW123816   4.024   2.562   8.878  0.3581 -0.4098  0.5019
 4119SOL    HW223817   4.134   2.662   8.907  0.1860 -0.4212  0.4784
 4120SOL     OW23818   2.317   2.929   6.327 -0.9464  0.3112  0.1447
 4120SOL    HW123819   2.402   2.909   6.288  0.5455  0.9056  3.0816
 4120SOL    HW223820   2.339   2.917   6.420  0.1140 -1.2052 -0.2948
 4121SOL     OW23821   2.196   2.601   2.265 -0.3434 -0.1179  0.0668
 4121SOL    HW123822   2.272   2.660   2.260  0.7548 -1.3338  2.3875
 4121SOL    HW223823   2.218   2.553   2.345  0.3691 -0.0878 -0.1062
 4122SOL     OW23824   2.903   1.235  10.389  0.3087  0.1218  0.2916
 4122SOL    HW123825   2.895   1.291  10.312  0.5175  0.2285  0.3461
 4122SOL    HW223826   2.993   1.256  10.413  0.0012  1.2358  0.4553
 4123SOL     OW23827   2.132   3.131  17.500  0.4635 -0.8637  0.1304
 4123SOL    HW123828   2.042   3.098  17.495 -0.2656  0.9982  1.0689
 4123SOL    HW223829   2.120   3.225  17.514 -1.5799 -0.8880 -1.5032
 4124SOL     OW23830   0.987   3.313   6.831  0.2160 -0.0306 -0.7424
 4124SOL    HW123831   0.964   3.366   6.907  0.6130 -1.5802  0.4505
 4124SOL    HW223832   0.903   3.313   6.785 -0.2189 -2.8991  0.0409
 4125SOL     OW23833   3.692   3.263  12.868  0.4893  0.5942 -0.3672
 4125SOL    HW123834   3.718   3.337  12.923  0.4583  0.3747 -0.0618
 4125SOL    HW223835   3.612   3.293  12.825  0.6008  0.9647 -0.3179
 4126SOL     OW23836   2.754   3.591   8.510  0.2702  0.4449 -0.1594
 4126SOL    HW123837   2.800   3.640   8.442  0.1005 -0.3708 -0.8614
 4126SOL    HW223838   2.819   3.614   8.577  0.0911  1.3887 -0.3083
 4127SOL     OW23839   0.866   3.558   2.882  0.3204  0.4795 -0.1724
 4127SOL    HW123840   0.772   3.568   2.900  0.1961 -2.2569  0.5520
 4127SOL    HW223841   0.871   3.467   2.853 -1.9632  0.1321  0.4705
 4128SOL     OW23842   3.653   1.651  10.653  0.3278  0.0147  0.0573
 4128SOL    HW123843   3.650   1.656  10.557  4.0759 -1.8561 -0.1669
 4128SOL    HW223844   3.745   1.672  10.668  0.1443  0.7676  0.1567
 4129SOL     OW23845   0.141   4.240  15.211  0.1460 -0.3341  0.0525
 4129SOL    HW123846   0.226   4.228  15.252  0.1269  0.7501  0.3996
 4129SOL    HW223847   0.102   4.157  15.239  1.4459 -0.7114  0.7107
 4130SOL     OW23848   1.917   4.035   6.388 -0.3171 -0.2356 -0.3617
 4130SOL    HW123849   2.011   4.055   6.387 -0.1210 -1.5093 -4.5177
 4130SOL    HW223850   1.889   4.109   6.441  0.9754  1.0537 -1.4722
 4131SOL     OW23851   2.166   3.613   5.962 -0.0833 -0.0491 -0.1932
 4131SOL    HW123852   2.073   3.592   5.957  0.0275 -0.3609 -0.8482
 4131SOL    HW223853   2.163   3.709   5.963  1.1189 -0.0150  0.3305
 4132SOL     OW23854   4.358   2.437   0.311 -0.4236  0.1789 -0.0671
 4132SOL    HW123855   4.322   2.516   0.270 -1.4612  0.1793  0.8371
 4132SOL    HW223856   4.271   2.400   0.328 -0.2890 -0.1204 -0.0351
 4133SOL     OW23857   0.611   4.227   0.094 -0.0845  0.8301 -0.1802
 4133SOL    HW123858   0.619   4.226   0.189 -3.7558 -1.6630  0.0905
 4133SOL    HW223859   0.516   4.224   0.084  0.2715 -0.1437 -3.3128
 4134SOL     OW23860   3.506   1.946   8.596 -0.4705  0.2909  0.1159
 4134SOL    HW123861   3.601   1.953   8.596 -0.5143  0.8600  0.8318
 4134SOL    HW223862   3.476   2.006   8.527 -2.0092  0.3129  0.8030
 4135SOL     OW23863   1.498   2.442   4.146 -0.1676 -0.1665  0.4006
 4135SOL    HW123864   1.507   2.395   4.063  1.7162  0.5740  0.1854
 4135SOL    HW223865   1.428   2.503   4.123  0.2652 -0.7364 -2.4733
 4136SOL     OW23866   0.125   2.795   5.503  0.3281  0.4593 -0.1965
 4136SOL    HW123867   0.038   2.825   5.528  0.4908  1.1249 -0.4094
 4136SOL    HW223868   0.100   2.763   5.416 -0.5274  0.2952  0.1189
 4137SOL     OW23869   2.814   4.700   8.793 -0.4344  0.6119  0.0617
 4137SOL    HW123870   2.903   4.710   8.759 -0.1007 -0.1790  0.6901
 4137SOL    HW223871   2.777   0.055   8.753 -0.0698  0.1215 -1.2171
 4138SOL     OW23872   3.375   3.414  10.837 -0.0862  0.4564  0.6847
 4138SOL    HW123873   3.302   3.372  10.882 -0.3840  0.2600  0.0268
 4138SOL    HW223874   3.412   3.341  10.787  1.0341 -0.2989  2.6122
 4139SOL     OW23875   2.009   0.995  16.922  0.3623  0.4536 -0.1185
 4139SOL    HW123876   1.934   1.054  16.914 -0.8863 -1.6122 -3.5537
 4139SOL    HW223877   1.967   0.910  16.908  3.0074 -0.8667  0.0454
 4140SOL     OW23878   1.955   2.827   1.601 -0.0292 -0.1463  0.5661
 4140SOL    HW123879   1.993   2.894   1.658 -0.2122 -1.0179  1.7250
 4140SOL    HW223880   1.882   2.796   1.655 -0.6568 -0.7030 -0.5916
 4141SOL     OW23881   1.441   4.686   2.834 -0.0657  0.5661 -0.2972
 4141SOL    HW123882   1.503   0.009   2.777  1.5851 -2.0976 -0.6871
 4141SOL    HW223883   1.382   4.633   2.780  2.0459 -0.2930 -1.8011
 4142SOL     OW23884   1.087   2.397   4.991 -0.3657  0.9770  0.0725
 4142SOL    HW123885   1.071   2.489   5.010 -5.0875  0.2092 -0.2386
 4142SOL    HW223886   1.078   2.384   4.897 -0.9470  0.8991  0.1425
 4143SOL     OW23887   3.885   1.295   9.247  0.3281  0.1179 -0.7584
 4143SOL    HW123888   3.920   1.374   9.205  1.5134  0.6041  1.1176
 4143SOL    HW223889   3.796   1.310   9.216  0.2063  0.6503 -0.1445
 4144SOL     OW23890   2.826   1.707   6.954  0.3456  0.3095 -0.2757
 4144SOL    HW123891   2.880   1.713   7.033 -1.9339 -1.0870  1.4001
 4144SOL    HW223892   2.815   1.612   6.950  2.3347  0.1037 -1.3888
 4145SOL     OW23893   0.051   0.088  10.177  0.7433  0.0679 -0.1612
 4145SOL    HW123894   0.028   0.076  10.269  1.2703 -0.7386 -0.1388
 4145SOL    HW223895   0.090   0.175  10.189  1.1879  0.1657 -2.3390
 4146SOL     OW23896   0.570   3.035   5.859  0.0167 -0.9181  0.2421
 4146SOL    HW123897   0.504   3.063   5.922  0.4268 -0.5754  0.5106
 4146SOL    HW223898   0.529   2.960   5.815 -1.0383 -0.1715 -0.0355
 4147SOL     OW23899   1.932   1.980   5.180  0.1691  0.3160 -0.1408
 4147SOL    HW123900   1.920   2.067   5.218  0.1583  0.6715 -0.9505
 4147SOL    HW223901   1.900   1.999   5.092 -1.0255  0.1219  0.2579
 4148SOL     OW23902   4.506   4.281   4.955  0.7914  0.4404  0.0551
 4148SOL    HW123903   4.518   4.204   5.009 -0.6898  1.6262  2.0576
 4148SOL    HW223904   4.476   4.242   4.873  0.8152 -0.1179  0.3164
 4149SOL     OW23905   2.259   0.736   2.015  0.2943 -0.7550  0.1493
 4149SOL    HW123906   2.171   0.717   1.981 -0.1237  0.8418  0.3360
 4149SOL    HW223907   2.260   0.832   2.014 -0.7320 -0.7310  1.2886
 4150SOL     OW23908   0.655   1.564   5.012 -0.1286  0.0658 -0.1546
 4150SOL    HW123909   0.747   1.571   4.985 -0.3507 -1.8661 -1.3801
 4150SOL    HW223910   0.623   1.640   4.962 -3.4273 -1.2107  0.0199
 4151SOL     OW23911   2.726   3.446   4.166 -0.2116 -0.4871 -0.0984
 4151SOL    HW123912   2.640   3.467   4.204  0.3554  0.7949  0.4992
 4151SOL    HW223913   2.750   3.365   4.209  0.8855 -0.3922 -0.5381
 4152SOL     OW23914   0.404   2.984   6.422  0.5281 -0.0293  0.5390
 4152SOL    HW123915   0.431   2.900   6.457 -0.4920  0.5577  2.7105
 4152SOL    HW223916   0.326   2.968   6.369  0.7184  1.2519 -0.1422
 4153SOL     OW23917   1.681   2.145   4.087  0.7905  0.4881 -0.1310
 4153SOL    HW123918   1.608   2.162   4.146 -1.6620 -2.5282 -2.2749
 4153SOL    HW223919   1.750   2.202   4.122 -1.3879  1.6149  2.3391
 4154SOL     OW23920   2.724   2.821   2.785  0.4704  0.3729  0.6424
 4154SOL    HW123921   2.720   2.915   2.801 -0.9444  0.2093  1.2487
 4154SOL    HW223922   2.818   2.810   2.774  0.0566 -1.6386 -0.9561
 4155SOL     OW23923   0.341   1.057   6.513 -0.2963  0.1843 -0.1653
 4155SOL    HW123924   0.272   0.992   6.499  1.5288 -2.0129  1.1004
 4155SOL    HW223925   0.416   1.005   6.485  0.7649  2.1525 -0.9742
 4156SOL     OW23926   3.646   0.653   7.841  0.0146 -0.8339  0.6866
 4156SOL    HW123927   3.646   0.608   7.925  0.4444  1.1939  1.7558
 4156SOL    HW223928   3.551   0.658   7.831  0.1495  0.2418 -0.0147
 4157SOL     OW23929   1.820   2.913  15.031  0.6246  0.3412 -0.1680
 4157SOL    HW123930   1.906   2.955  15.036  0.0912  1.2666  1.2187
 4157SOL    HW223931   1.771   2.953  15.103 -1.7283 -1.2605 -0.8707
 4158SOL     OW23932   4.082   0.524   0.189 -0.1624 -0.3613 -0.1286
 4158SOL    HW123933   4.112   0.551   0.275 -1.2386 -0.3730  0.2540
 4158SOL    HW223934   4.088   0.604   0.136  0.9781 -0.0647  0.4638
 4159SOL     OW23935   2.223   2.786  16.848  0.2901 -0.4712  0.7512
 4159SOL    HW123936   2.210   2.726  16.775  1.4074  0.3641 -0.1340
 4159SOL    HW223937   2.236   2.867  16.799  3.4598 -1.3298  0.1852
 4160SOL     OW23938   1.302   3.216   4.488  0.1739 -0.6786  0.1648
 4160SOL    HW123939   1.263   3.236   4.403  0.1441  2.5519  0.9607
 4160SOL    HW223940   1.365   3.285   4.508  1.3700 -1.9786  0.8920
 4161SOL     OW23941   1.476   3.773  15.260 -0.0226  0.6606  0.0847
 4161SOL    HW123942   1.549   3.721  15.226 -0.2827  0.7464 -0.5967
 4161SOL    HW223943   1.401   3.728  15.220  0.9731 -0.3535 -0.6618
 4162SOL     OW23944   3.055   2.731  14.798 -0.4759 -0.3778  0.8959
 4162SOL    HW123945   3.041   2.642  14.831  3.6642 -0.2182  3.0248
 4162SOL    HW223946   2.964   2.750  14.775  0.4814  0.3467 -2.2859
 4163SOL     OW23947   4.096   1.267   3.860 -0.1671  0.2091  0.8199
 4163SOL    HW123948   4.120   1.338   3.920 -0.8004  0.4027  0.8450
 4163SOL    HW223949   4.115   1.197   3.923 -2.1272 -0.3164  0.8211
 4164SOL     OW23950   3.869   1.419  13.965 -0.2426  0.0316  0.2846
 4164SOL    HW123951   3.897   1.446  14.052  1.6200 -1.5342  0.1678
 4164SOL    HW223952   3.952   1.421  13.918 -0.3600  0.5139  0.0998
 4165SOL     OW23953   1.596   1.231   5.757 -0.4355  0.2640 -0.3195
 4165SOL    HW123954   1.560   1.244   5.669  0.0329  0.5377 -0.4692
 4165SOL    HW223955   1.618   1.323   5.775 -1.3595 -0.2878  3.6349
 4166SOL     OW23956   1.247   2.920   5.933 -0.3930 -0.1320 -0.2739
 4166SOL    HW123957   1.284   2.837   5.962  0.5230  0.6472  0.7824
 4166SOL    HW223958   1.184   2.887   5.869  0.6550  1.2267 -2.0199
 4167SOL     OW23959   4.695   3.706   5.458  0.3329  0.0107 -0.2048
 4167SOL    HW123960   4.709   3.761   5.534  0.6008 -2.0680  1.2502
 4167SOL    HW223961   0.016   3.761   5.394 -0.8278 -0.1203 -1.1244
 4168SOL     OW23962   0.422   3.486   7.275 -0.2636 -0.7381 -0.3678
 4168SOL    HW123963   0.481   3.493   7.199  1.8612 -2.6839  1.1260
 4168SOL    HW223964   0.352   3.430   7.243 -0.8870  1.2471 -2.5029
 4169SOL     OW23965   2.035   0.015   7.793 -0.3202 -0.2993  1.0642
 4169SOL    HW123966   2.008   0.006   7.884  2.0295  0.2924  1.8132
 4169SOL    HW223967   1.953   4.717   7.749 -0.8234 -0.4139  2.0615
 4170SOL     OW23968   3.994   3.798   4.416 -0.5565 -0.1201 -0.4318
 4170SOL    HW123969   4.036   3.767   4.336  1.3862 -1.0009  0.9428
 4170SOL    HW223970   3.991   3.718   4.469  0.5625 -0.7377 -1.3172
 4171SOL     OW23971   3.093   0.797   3.520  0.7392  0.4939  0.7031
 4171SOL    HW123972   3.116   0.762   3.434 -0.4476 -0.6950  0.8581
 4171SOL    HW223973   3.056   0.884   3.502 -1.3226 -0.5496 -0.1541
 4172SOL     OW23974   2.223   4.602  16.108  0.9003  0.3197  0.1548
 4172SOL    HW123975   2.290   4.569  16.047 -0.2924 -0.7193 -0.6125
 4172SOL    HW223976   2.204   4.687  16.069  0.0476 -0.2150 -0.6156
 4173SOL     OW23977   4.661   4.471   7.314 -0.3275 -0.0856 -0.6796
 4173SOL    HW123978   4.690   4.562   7.324 -1.7996  0.4746 -1.5074
 4173SOL    HW223979   4.568   4.475   7.291 -0.1833  0.8960 -1.0855
 4174SOL     OW23980   3.544   2.572   9.872  0.3210 -0.5481 -0.4051
 4174SOL    HW123981   3.547   2.597   9.965  1.1575  0.5534 -0.7265
 4174SOL    HW223982   3.573   2.653   9.830  1.8247 -0.7421  0.2576
 4175SOL     OW23983   4.321   1.594  10.836  0.1065  0.1935 -0.0024
 4175SOL    HW123984   4.408   1.620  10.866 -0.6135  0.4468  1.8916
 4175SOL    HW223985   4.330   1.549  10.752 -1.1399  0.6610 -0.3984
 4176SOL     OW23986   4.663   3.155   0.119  0.6847 -0.3928  0.1536
 4176SOL    HW123987   4.706   3.109   0.047 -1.0363 -1.1462 -0.3732
 4176SOL    HW223988   4.718   3.233   0.113  1.6758 -0.9630  1.6000
 4177SOL     OW23989   1.015   2.401   2.535 -0.2381 -0.3697  0.5329
 4177SOL    HW123990   0.949   2.394   2.467 -0.3047  1.8968  0.3888
 4177SOL    HW223991   1.021   2.315   2.577  1.8957  0.9598  2.9726
 4178SOL     OW23992   0.670   4.118   6.430  0.1120  0.0244 -0.4177
 4178SOL    HW123993   0.724   4.185   6.388  0.7880 -1.4090 -1.8512
 4178SOL    HW223994   0.589   4.108   6.380  0.3049 -0.1758 -0.6919
 4179SOL     OW23995   0.024   3.842  13.427 -0.4031  0.4848 -0.2804
 4179SOL    HW123996   4.703   3.874  13.347 -0.7188 -2.0130 -1.1068
 4179SOL    HW223997   4.685   3.781  13.466  0.4876 -0.6012 -0.5758
 4180SOL     OW23998   3.890   4.036  16.703 -0.2295  0.5857  0.4483
 4180SOL    HW123999   3.937   3.953  16.711 -0.8443  0.2726  0.8527
 4180SOL    HW224000   3.940   4.069  16.629 -1.1245  1.9384  0.4481
 4181SOL     OW24001   1.012   3.097   7.857  0.0609  0.1563 -0.1114
 4181SOL    HW124002   0.946   3.103   7.926 -2.2978  0.0967 -2.3925
 4181SOL    HW224003   1.082   3.150   7.897  0.0238 -0.9125  1.3556
 4182SOL     OW24004   1.300   0.276   4.179  0.2229 -0.0502 -0.3077
 4182SOL    HW124005   1.355   0.313   4.109  1.0987 -1.5973 -0.4169
 4182SOL    HW224006   1.322   0.333   4.253  2.6702  0.3860 -1.3553
 4183SOL     OW24007   0.033   3.693   5.144  0.6796 -0.1366  0.5556
 4183SOL    HW124008   4.679   3.645   5.174  1.0709 -0.5801  0.8558
 4183SOL    HW224009   0.006   3.728   5.059 -3.8327  1.4816  2.6916
 4184SOL     OW24010   0.702   0.529   8.609 -0.0035 -0.0940 -0.1047
 4184SOL    HW124011   0.641   0.456   8.600 -0.6125  0.4397 -0.3269
 4184SOL    HW224012   0.705   0.544   8.704  0.9121  1.5673 -0.4058
 4185SOL     OW24013   2.803   2.408   8.323  0.1533 -0.1135  0.2275
 4185SOL    HW124014   2.775   2.495   8.296 -1.4119 -0.7217 -0.0857
 4185SOL    HW224015   2.864   2.373   8.258  1.7522  1.8762  0.6693
 4186SOL     OW24016   4.654   2.171  13.450 -0.1185  0.1300 -0.0494
 4186SOL    HW124017   4.657   2.261  13.483 -3.1578  0.6640 -1.2705
 4186SOL    HW224018   4.560   2.157  13.445 -0.4383  2.9585 -1.9920
 4187SOL     OW24019   3.685   4.142   7.581  0.1124  0.0743 -0.2621
 4187SOL    HW124020   3.708   4.215   7.524 -0.0889  0.2646 -0.0978
 4187SOL    HW224021   3.631   4.090   7.522  1.2739 -1.2338 -0.1760
 4188SOL     OW24022   4.478   4.601   9.482  0.1685 -0.4463 -0.2166
 4188SOL    HW124023   4.437   4.686   9.498  2.1713  0.8149 -1.7091
 4188SOL    HW224024   4.567   4.636   9.486 -0.4611  1.1763 -0.5399
 4189SOL     OW24025   1.752   0.470  14.673 -0.1178 -0.4607  0.2154
 4189SOL    HW124026   1.838   0.493  14.707 -1.0214  0.9639  1.5741
 4189SOL    HW224027   1.761   0.478  14.578  4.2889 -0.8678  0.6028
 4190SOL     OW24028   1.354   0.382  16.941 -0.0972 -0.5350  0.1904
 4190SOL    HW124029   1.389   0.367  16.854 -1.7852  0.2529 -0.6258
 4190SOL    HW224030   1.426   0.338  16.986  1.7891  0.6708 -1.6709
 4191SOL     OW24031   0.983   2.180   3.286  0.1035  0.8234 -0.1313
 4191SOL    HW124032   0.927   2.123   3.233  0.4367  0.6115 -0.2520
 4191SOL    HW224033   0.938   2.261   3.265  0.9016  0.8910 -1.5451
 4192SOL     OW24034   4.126   2.573  12.185  0.4384 -0.3228  0.2830
 4192SOL    HW124035   4.167   2.611  12.263 -0.0081  2.1824 -0.6812
 4192SOL    HW224036   4.076   2.502  12.225 -1.1413  0.6909  0.1050
 4193SOL     OW24037   1.356   0.169  13.486  0.0097  0.1343  0.5197
 4193SOL    HW124038   1.323   0.095  13.436 -0.8967 -0.4448  1.9829
 4193SOL    HW224039   1.436   0.126  13.517  2.1701  2.0160 -2.3732
 4194SOL     OW24040   0.389   0.602   3.492 -0.1061 -0.0912 -0.0640
 4194SOL    HW124041   0.454   0.540   3.460  0.5751  0.0962  0.9324
 4194SOL    HW224042   0.447   0.674   3.519  1.4127  0.0463 -3.7091
 4195SOL     OW24043   2.255   1.999   6.384  0.1363 -0.4020  0.5220
 4195SOL    HW124044   2.216   1.982   6.298 -0.1477  1.5108  0.2615
 4195SOL    HW224045   2.179   2.034   6.431 -1.7888 -1.3303 -1.8387
 4196SOL     OW24046   3.200   4.655   5.245 -0.2994 -0.6296  0.5194
 4196SOL    HW124047   3.226   4.714   5.315  2.6108 -0.0659 -1.0208
 4196SOL    HW224048   3.281   4.657   5.195  1.0425 -2.8997  2.5990
 4197SOL     OW24049   0.154   0.034   5.197 -0.1742  0.4990 -0.4596
 4197SOL    HW124050   0.219   4.708   5.247  1.3824  2.3511 -0.6895
 4197SOL    HW224051   0.182   0.125   5.205  0.5575  0.0926  1.7359
 4198SOL     OW24052   0.483   0.728  11.441 -0.0632 -0.1465 -0.3137
 4198SOL    HW124053   0.521   0.765  11.361 -1.2797 -2.9008 -2.1509
 4198SOL    HW224054   0.396   0.710  11.406 -0.3806 -1.4836  1.1584
 4199SOL     OW24055   0.040   4.559   5.659  0.3470  0.4113  0.1936
 4199SOL    HW124056   0.007   4.620   5.593 -0.5517  0.1747  0.4329
 4199SOL    HW224057   4.719   4.593   5.738 -0.6732 -0.0360 -0.1928
 4200SOL     OW24058   3.869   2.116   1.559 -0.5248  0.1076 -0.3902
 4200SOL    HW124059   3.798   2.129   1.497  0.4584 -2.0690 -1.9675
 4200SOL    HW224060   3.937   2.097   1.494 -1.2557 -1.5276 -0.6645
 4201SOL     OW24061   2.425   2.084   3.814  0.2287  0.0977  0.1429
 4201SOL    HW124062   2.457   2.009   3.765  2.1615  1.5874 -0.9041
 4201SOL    HW224063   2.468   2.072   3.899 -1.3666  3.9503  1.4868
 4202SOL     OW24064   0.716   1.069   8.666 -0.4619 -0.4523 -0.1501
 4202SOL    HW124065   0.678   1.018   8.595 -2.0610  2.4843 -1.4292
 4202SOL    HW224066   0.710   1.014   8.744  3.1790 -0.2120  0.2556
 4203SOL     OW24067   0.295   1.291   7.094 -0.6236  0.1668  0.2969
 4203SOL    HW124068   0.384   1.271   7.122 -0.3543  0.2443 -0.5030
 4203SOL    HW224069   0.260   1.206   7.068 -0.5640 -0.0503  0.9249
 4204SOL     OW24070   4.338   0.101  15.356 -0.8206  0.2854 -0.1943
 4204SOL    HW124071   4.384   0.025  15.319 -0.1431  0.9383 -0.6831
 4204SOL    HW224072   4.281   0.058  15.420 -0.8594 -0.0603 -0.4625
 4205SOL     OW24073   4.056   2.722  14.733  0.0528 -0.7492  0.0139
 4205SOL    HW124074   4.107   2.798  14.705  0.3359 -0.3163  1.7092
 4205SOL    HW224075   4.125   2.657  14.719  2.3533  2.0829 -1.8796
 4206SOL     OW24076   1.697   0.355  17.620 -0.2940 -0.2317 -0.1090
 4206SOL    HW124077   1.778   0.320  17.656  0.6981 -0.9877 -3.1171
 4206SOL    HW224078   1.631   0.337  17.688  1.5934  0.5548  1.9382
 4207SOL     OW24079   1.120   3.690   1.965 -0.1925  0.2688  0.1261
 4207SOL    HW124080   1.044   3.718   2.015 -0.9388  0.4933 -1.1383
 4207SOL    HW224081   1.143   3.777   1.930  1.5814 -0.5641 -0.7843
 4208SOL     OW24082   1.764   0.092   6.476 -0.7902  0.7496  0.2069
 4208SOL    HW124083   1.751   0.013   6.529 -2.4740  0.6515 -0.3576
 4208SOL    HW224084   1.791   0.157   6.540  2.0788 -0.0823 -0.1449
 4209SOL     OW24085   2.906   2.522   3.350  0.3607 -0.1343 -0.3916
 4209SOL    HW124086   2.979   2.539   3.410  0.5772 -0.0620 -0.6752
 4209SOL    HW224087   2.947   2.487   3.271  0.8011 -1.0138  0.2202
 4210SOL     OW24088   2.605   3.978   2.580  0.2872  0.6259  0.3788
 4210SOL    HW124089   2.606   4.069   2.551  2.7572  0.0679 -1.1989
 4210SOL    HW224090   2.646   3.974   2.667  0.3346 -2.6954  0.1874
 4211SOL     OW24091   3.961   3.554   8.257  0.0017 -0.7195 -0.6369
 4211SOL    HW124092   3.927   3.642   8.273 -0.1295 -1.2915  2.3149
 4211SOL    HW224093   3.911   3.531   8.179  0.5897 -0.9478 -0.9452
 4212SOL     OW24094   2.569   0.164   9.528  0.1389  0.3253  0.5794
 4212SOL    HW124095   2.512   0.201   9.461  0.5395  0.5632  0.3660
 4212SOL    HW224096   2.653   0.172   9.483 -0.4412 -1.2843 -0.7560
 4213SOL     OW24097   1.574   0.456  16.772 -0.0795 -0.4020 -0.5269
 4213SOL    HW124098   1.662   0.425  16.792 -0.5951 -1.5773 -0.0302
 4213SOL    HW224099   1.578   0.549  16.794  0.2293  0.3239 -3.5847
 4214SOL     OW24100   2.059   0.577  13.348  0.1444 -0.1386 -0.1131
 4214SOL    HW124101   1.966   0.555  13.356  0.2575 -0.5926 -0.0641
 4214SOL    HW224102   2.055   0.672  13.337 -2.1898 -0.1338  0.7639
 4215SOL     OW24103   4.356   3.826  14.409 -0.4633  0.2600 -0.3766
 4215SOL    HW124104   4.366   3.874  14.327  1.2349  1.4626  0.5364
 4215SOL    HW224105   4.304   3.753  14.377  3.9233 -1.9334 -2.5681
 4216SOL     OW24106   0.318   0.093   8.180 -1.0724 -0.6337 -0.7566
 4216SOL    HW124107   0.336   0.085   8.274  1.8494  0.3774 -1.2492
 4216SOL    HW224108   0.259   0.169   8.182 -4.3775 -3.1738 -2.8548
 4217SOL     OW24109   2.473   4.572  10.801  0.6288 -0.0915  0.0524
 4217SOL    HW124110   2.459   4.491  10.752  0.7602 -0.2812  0.3245
 4217SOL    HW224111   2.395   4.621  10.778 -0.5879 -1.0081  2.2277
 4218SOL     OW24112   0.828   0.764   8.206  0.1369 -0.9512 -0.5524
 4218SOL    HW124113   0.865   0.847   8.235 -1.1882 -0.4534 -0.3071
 4218SOL    HW224114   0.769   0.747   8.279  0.6506 -2.4921 -0.4887
 4219SOL     OW24115   3.484   0.435  14.932 -0.3832 -0.1490 -0.0897
 4219SOL    HW124116   3.567   0.470  14.964 -0.3963  1.3019 -1.6724
 4219SOL    HW224117   3.488   0.343  14.959 -1.8131 -0.1880 -0.0127
 4220SOL     OW24118   1.644   4.390   8.629  0.3421  0.2236  0.4820
 4220SOL    HW124119   1.621   4.297   8.630 -1.9502  0.7634 -1.4962
 4220SOL    HW224120   1.554   4.424   8.633  1.1579  2.3214  1.0588
 4221SOL     OW24121   4.581   3.217   5.409 -0.1333  0.6772  0.3406
 4221SOL    HW124122   4.580   3.298   5.460  0.2435  0.0781  1.2982
 4221SOL    HW224123   4.618   3.258   5.331 -0.3084 -3.0415 -1.6867
 4222SOL     OW24124   0.392   4.573  17.153  0.3304 -0.0736 -0.4225
 4222SOL    HW124125   0.397   4.479  17.134  0.1093 -0.2732  0.5047
 4222SOL    HW224126   0.303   4.581  17.186  1.0196  0.3362  1.3489
 4223SOL     OW24127   1.116   0.053   4.319 -0.0999  0.5890 -0.0430
 4223SOL    HW124128   1.118   0.034   4.225 -2.1328 -0.1112  0.0402
 4223SOL    HW224129   1.025   0.083   4.328 -0.3650  0.5854 -2.4849
 4224SOL     OW24130   4.258   3.355  16.293  0.2156  0.2412 -0.7441
 4224SOL    HW124131   4.205   3.363  16.214 -2.6601  0.7458  1.2491
 4224SOL    HW224132   4.305   3.273  16.276 -0.4062  0.4190 -3.3186
 4225SOL     OW24133   3.573   1.520   8.155 -0.2384  0.4481  0.1744
 4225SOL    HW124134   3.614   1.475   8.229 -1.9259 -1.5308 -0.0756
 4225SOL    HW224135   3.632   1.480   8.091 -1.2889 -0.9514  0.0731
 4226SOL     OW24136   4.043   3.541   1.893 -0.0877  0.4468  0.3081
 4226SOL    HW124137   4.121   3.555   1.947  1.0005 -1.8053 -0.6546
 4226SOL    HW224138   4.007   3.629   1.879  0.1579  0.5513  0.3233
 4227SOL     OW24139   0.853   0.863   2.299  0.2099 -0.5784  0.1586
 4227SOL    HW124140   0.913   0.900   2.234  1.1223 -0.9639  0.7741
 4227SOL    HW224141   0.840   0.932   2.363 -0.6032  0.0398 -0.6867
 4228SOL     OW24142   3.722   4.388   5.114  0.1752 -0.0073 -0.0304
 4228SOL    HW124143   3.664   4.420   5.183  0.5969 -0.2931  0.4570
 4228SOL    HW224144   3.757   4.468   5.076  2.6966 -1.2782 -0.3998
 4229SOL     OW24145   2.438   3.367   6.693  0.0049 -0.4942 -0.5881
 4229SOL    HW124146   2.520   3.333   6.657  0.0147 -1.2336  0.1298
 4229SOL    HW224147   2.438   3.455   6.655 -0.9668  0.6005  1.9199
 4230SOL     OW24148   0.175   1.696   2.553 -0.2924 -0.5739  0.3531
 4230SOL    HW124149   0.149   1.629   2.616  4.2939  0.3681  3.3097
 4230SOL    HW224150   0.131   1.774   2.587  0.2533 -0.0204 -0.2227
 4231SOL     OW24151   3.783   4.295   3.407 -0.0037  0.1352  0.8506
 4231SOL    HW124152   3.760   4.206   3.379  2.5380  0.4444 -2.2045
 4231SOL    HW224153   3.695   4.332   3.408 -0.1045 -0.1187  1.6195
 4232SOL     OW24154   3.921   3.064   3.655  0.3054  0.6031  0.2745
 4232SOL    HW124155   3.968   2.998   3.605 -0.8134  0.8715 -1.1512
 4232SOL    HW224156   3.981   3.089   3.726  0.5243  0.5080  0.1213
 4233SOL     OW24157   0.102   3.608   2.346 -0.1964  0.3399  0.0569
 4233SOL    HW124158   0.026   3.650   2.306 -1.1041 -1.4196 -0.0223
 4233SOL    HW224159   0.060   3.606   2.432  2.6340 -0.7398  1.4250
 4234SOL     OW24160   0.344   4.306  15.987 -0.4375 -0.4114  0.1310
 4234SOL    HW124161   0.378   4.343  15.906  0.3364 -1.1689  0.1095
 4234SOL    HW224162   0.255   4.289  15.956 -0.3899 -1.2582  0.4471
 4235SOL     OW24163   2.740   1.473  12.671  0.3837  0.2444 -0.2691
 4235SOL    HW124164   2.733   1.489  12.765 -0.4044 -0.7525 -0.1490
 4235SOL    HW224165   2.762   1.380  12.674  3.5004  0.9972 -0.3837
 4236SOL     OW24166   4.354   3.253   4.482 -0.1597  0.0725  0.1293
 4236SOL    HW124167   4.405   3.209   4.550 -1.4502 -0.9909  0.4097
 4236SOL    HW224168   4.359   3.191   4.408  0.5974  0.6055 -0.2726
 4237SOL     OW24169   1.736   3.950   9.780  0.8330 -0.6668  0.3313
 4237SOL    HW124170   1.700   4.012   9.843  0.9404  0.7030 -0.9740
 4237SOL    HW224171   1.742   3.867   9.829 -2.0434 -0.2176  1.4268
 4238SOL     OW24172   0.259   1.695  13.821  0.4375  0.2424  1.1773
 4238SOL    HW124173   0.181   1.702  13.766 -0.0104 -0.3033  1.7325
 4238SOL    HW224174   0.266   1.787  13.845  1.0437  0.1035  1.5147
 4239SOL     OW24175   1.577   3.291   4.251  0.5489  0.7420 -0.6748
 4239SOL    HW124176   1.619   3.256   4.330  2.6880  4.6195 -0.1169
 4239SOL    HW224177   1.644   3.351   4.217 -0.0249  1.4671 -0.5251
 4240SOL     OW24178   2.678   2.381   7.088 -0.5452 -0.5406 -0.5656
 4240SOL    HW124179   2.755   2.342   7.129  1.0024  1.4961 -1.5456
 4240SOL    HW224180   2.703   2.473   7.074 -2.9291 -0.1829 -2.5143
 4241SOL     OW24181   3.620   3.327  11.825 -0.5107 -0.5382 -0.2203
 4241SOL    HW124182   3.699   3.377  11.847 -0.0912 -0.8062 -1.1628
 4241SOL    HW224183   3.565   3.347  11.901 -0.0682  0.8921 -0.2693
 4242SOL     OW24184   2.955   2.569   9.286  0.8217  0.5104  0.3094
 4242SOL    HW124185   2.919   2.486   9.254  0.7879 -0.2057  2.1852
 4242SOL    HW224186   2.872   2.609   9.309  1.1021  0.7702  0.8555
 4243SOL     OW24187   4.491   1.090  11.502 -0.0082 -0.4465  0.2533
 4243SOL    HW124188   4.456   1.131  11.423 -4.6104 -1.7697  1.6485
 4243SOL    HW224189   4.577   1.132  11.499 -0.1992 -0.2400 -2.4150
 4244SOL     OW24190   1.949   4.426   3.433  0.0108 -0.8871  0.5356
 4244SOL    HW124191   1.935   4.371   3.356 -2.9493  0.8758 -0.2295
 4244SOL    HW224192   1.861   4.426   3.473 -0.6029 -0.4866 -0.8048
 4245SOL     OW24193   1.438   3.312   5.400 -0.0275 -0.6977  0.2665
 4245SOL    HW124194   1.361   3.319   5.344  0.5846 -2.1530 -0.7312
 4245SOL    HW224195   1.446   3.218   5.409 -1.9400 -1.0098 -1.2402
 4246SOL     OW24196   2.960   1.773   6.694 -0.4913  0.3088  0.4279
 4246SOL    HW124197   2.912   1.738   6.769  0.2734  1.3751  1.4158
 4246SOL    HW224198   2.902   1.848   6.677  0.6471  1.2014  0.4705
 4247SOL     OW24199   1.841   4.020   7.772 -0.4993  0.8164 -0.7165
 4247SOL    HW124200   1.756   4.057   7.749  0.1782  2.2551 -0.8754
 4247SOL    HW224201   1.879   4.084   7.832 -0.7794 -1.0704  1.4959
 4248SOL     OW24202   1.482   3.245   9.714 -0.3144 -0.4638 -0.3044
 4248SOL    HW124203   1.434   3.168   9.746  0.7720 -0.8795  0.2992
 4248SOL    HW224204   1.519   3.203   9.636  0.6057  1.3577 -0.8413
 4249SOL     OW24205   4.597   3.160   4.050  0.0670  0.4527  0.0256
 4249SOL    HW124206   4.658   3.103   4.003 -1.3364 -0.4905 -0.6428
 4249SOL    HW224207   4.654   3.237   4.060  2.2041 -0.6777 -3.3515
 4250SOL     OW24208   0.319   3.753   7.654  0.2315 -0.0641  0.2545
 4250SOL    HW124209   0.393   3.767   7.713 -2.2320  2.3052  2.7823
 4250SOL    HW224210   0.289   3.666   7.679  2.1834 -0.8732 -0.1724
 4251SOL     OW24211   0.264   2.110   1.087 -0.7604  0.1628  0.1178
 4251SOL    HW124212   0.345   2.146   1.123 -0.6986 -0.5910  0.7517
 4251SOL    HW224213   0.200   2.132   1.154 -0.2641  0.1140  0.6099
 4252SOL     OW24214   3.125   4.646   3.491 -0.0138 -0.0997  0.4673
 4252SOL    HW124215   3.175   4.714   3.446 -1.5154 -0.0496 -1.1323
 4252SOL    HW224216   3.037   4.685   3.490  0.2414  0.5322  3.8089
 4253SOL     OW24217   3.059   1.761   7.753  0.4992 -0.2117  0.0731
 4253SOL    HW124218   3.033   1.842   7.709  3.2742  0.5108 -0.2556
 4253SOL    HW224219   2.976   1.745   7.797  0.5457 -1.3925 -0.2752
 4254SOL     OW24220   3.889   3.579   4.975 -0.2087  0.0084  0.3514
 4254SOL    HW124221   3.915   3.581   5.067 -2.5661 -0.5611  1.0334
 4254SOL    HW224222   3.964   3.525   4.950 -0.4472  0.9905 -2.5662
 4255SOL     OW24223   1.807   4.068   7.172 -0.0702 -0.5394  0.0456
 4255SOL    HW124224   1.713   4.059   7.157 -0.5012  1.4265  1.5350
 4255SOL    HW224225   1.802   4.032   7.261  0.8547 -1.2963 -0.2086
 4256SOL     OW24226   2.525   2.109  16.300 -0.3657  0.1124 -0.1722
 4256SOL    HW124227   2.592   2.105  16.232 -0.1565  0.5038  0.0119
 4256SOL    HW224228   2.453   2.139  16.245 -0.8943 -0.1426  0.3845
 4257SOL     OW24229   2.631   2.559   8.504 -0.7819  0.4513 -0.3608
 4257SOL    HW124230   2.605   2.577   8.594  1.5982 -0.5313  0.5079
 4257SOL    HW224231   2.718   2.597   8.511 -0.0123 -1.2477 -0.7122
 4258SOL     OW24232   3.118   2.247   2.010  0.0275  0.5439  0.3888
 4258SOL    HW124233   3.097   2.334   1.976  0.6109  0.7444  0.5404
 4258SOL    HW224234   3.113   2.265   2.104  0.3484 -0.9913  0.7036
 4259SOL     OW24235   1.294   1.186   4.474  0.0514 -0.3124 -0.4477
 4259SOL    HW124236   1.301   1.147   4.387  1.9723  3.7084 -2.1044
 4259SOL    HW224237   1.199   1.179   4.481  0.0075 -1.4082 -2.0444
 4260SOL     OW24238   0.635   0.524   4.957  0.4004 -0.4908  0.1486
 4260SOL    HW124239   0.610   0.470   4.881  1.9008 -0.3755 -0.4145
 4260SOL    HW224240   0.553   0.554   4.996  1.5530  1.1169  1.3402
 4261SOL     OW24241   4.436   0.036   4.902  0.4327 -0.3419  0.0258
 4261SOL    HW124242   4.521   0.079   4.889  1.1169 -1.4014  0.8779
 4261SOL    HW224243   4.389   0.063   4.824 -0.7301 -0.0040  0.8565
 4262SOL     OW24244   0.635   4.679   3.068  0.3469 -0.0612  0.4441
 4262SOL    HW124245   0.640   0.043   3.107 -1.9846 -0.6636  2.0767
 4262SOL    HW224246   0.542   4.659   3.071 -0.0491  2.0465  2.3353
 4263SOL     OW24247   4.288   0.926   1.014 -0.1572 -0.3972  0.5060
 4263SOL    HW124248   4.201   0.956   1.039 -0.3883  0.4780 -1.3008
 4263SOL    HW224249   4.353   0.966   1.071  1.2271 -0.4103 -1.0523
 4264SOL     OW24250   3.257   1.174  10.197 -0.1299 -0.1359 -0.0159
 4264SOL    HW124251   3.349   1.182  10.173 -0.2679  1.1705 -0.0867
 4264SOL    HW224252   3.213   1.145  10.117 -1.0064  1.4438 -0.1122
 4265SOL     OW24253   2.878   3.594   5.322 -0.2223  0.0547 -0.6301
 4265SOL    HW124254   2.830   3.587   5.239 -1.4687 -1.0397  0.1838
 4265SOL    HW224255   2.851   3.509   5.357  0.5458  0.3767  0.7512
 4266SOL     OW24256   3.045   2.920   3.722 -0.8852  0.1845 -0.0106
 4266SOL    HW124257   3.078   3.010   3.725 -0.5923  0.0163  1.8766
 4266SOL    HW224258   3.076   2.882   3.640  0.8374  0.9143  0.2933
 4267SOL     OW24259   2.065   3.906   6.724 -0.6814  0.1625 -0.2989
 4267SOL    HW124260   2.019   3.931   6.803  0.3297 -0.6509  0.5502
 4267SOL    HW224261   1.999   3.878   6.661 -1.2613  0.0337  0.3760
 4268SOL     OW24262   2.117   2.401   5.660  0.2831  0.1728 -0.7420
 4268SOL    HW124263   2.121   2.497   5.655  1.8231  0.3118  3.5531
 4268SOL    HW224264   2.129   2.387   5.754  0.4849  1.5494 -0.5562
 4269SOL     OW24265   2.529   3.044  17.109 -0.3961  0.3174  0.1232
 4269SOL    HW124266   2.581   3.123  17.098 -1.4380  0.9370 -0.4402
 4269SOL    HW224267   2.502   3.057  17.200 -0.8116 -0.9315  0.1775
 4270SOL     OW24268   1.511   0.811   4.241  0.4947  0.0463  0.3943
 4270SOL    HW124269   1.542   0.790   4.152  0.0602 -0.4620  0.3579
 4270SOL    HW224270   1.522   0.733   4.295 -0.1629  0.7440  1.5391
 4271SOL     OW24271   3.863   2.388   5.274 -0.1651  0.3573  0.0998
 4271SOL    HW124272   3.820   2.431   5.199 -0.7221  1.3000  0.9654
 4271SOL    HW224273   3.839   2.445   5.347 -3.1198 -3.8029  2.3656
 4272SOL     OW24274   0.366   4.441   0.537  0.3449 -0.0690  0.4260
 4272SOL    HW124275   0.372   4.497   0.459 -0.4922 -2.5429 -1.4149
 4272SOL    HW224276   0.417   4.486   0.603  0.3824  0.8962 -0.2587
 4273SOL     OW24277   0.832   3.905   6.811  0.7090 -0.1146 -0.0853
 4273SOL    HW124278   0.868   3.832   6.760  0.1771  1.6635 -3.0093
 4273SOL    HW224279   0.737   3.897   6.802  0.6801  1.6493 -1.3502
 4274SOL     OW24280   2.087   3.784   3.256  0.5126 -0.1384  0.0238
 4274SOL    HW124281   2.006   3.734   3.245  0.3389  0.2993 -0.6425
 4274SOL    HW224282   2.103   3.811   3.166 -0.8120  0.1430 -0.1256
 4275SOL     OW24283   1.995   2.562   5.000 -0.7655 -0.5330  0.1780
 4275SOL    HW124284   1.988   2.581   5.094 -0.0940 -0.5260  0.2252
 4275SOL    HW224285   1.985   2.651   4.966  1.7198 -0.6497 -0.8340
 4276SOL     OW24286   0.894   2.924  17.495  0.7047  0.5081  0.2065
 4276SOL    HW124287   0.977   2.914  17.541  1.1217 -1.7907 -1.0676
 4276SOL    HW224288   0.834   2.871  17.548 -0.7516  1.4036 -0.5542
 4277SOL     OW24289   2.236   3.003  17.076  0.2959 -0.5419 -0.0128
 4277SOL    HW124290   2.305   2.964  17.022 -0.0130 -1.1330  0.0264
 4277SOL    HW224291   2.273   3.050  17.151  1.3192  0.5140 -1.1627
 4278SOL     OW24292   3.550   1.589   1.757 -0.0040  0.7561 -0.2397
 4278SOL    HW124293   3.510   1.522   1.701  0.3041  1.6100 -1.4889
 4278SOL    HW224294   3.598   1.534   1.819 -0.5156 -0.3939 -0.8529
 4279SOL     OW24295   4.190   2.825   6.483 -0.2903 -0.0950 -0.1430
 4279SOL    HW124296   4.221   2.835   6.393  0.0055  0.7280  0.0521
 4279SOL    HW224297   4.146   2.741   6.473 -0.5639  0.4209 -3.2233
 4280SOL     OW24298   1.210   0.361  15.411 -0.2684 -0.1687  0.2043
 4280SOL    HW124299   1.287   0.383  15.463 -0.2936  0.0886  0.1321
 4280SOL    HW224300   1.167   0.445  15.429 -1.5251 -1.1566  1.8139
 4281SOL     OW24301   0.041   3.090   1.925 -0.1655  0.5238 -0.1593
 4281SOL    HW124302   0.079   3.172   1.895 -2.7312  1.8149  0.1398
 4281SOL    HW224303   0.070   3.033   1.854  0.1716  2.0704 -1.2706
 4282SOL     OW24304   2.524   2.085   6.495 -0.1381  0.4070 -0.1644
 4282SOL    HW124305   2.443   2.040   6.471 -0.9946  1.6451  0.3701
 4282SOL    HW224306   2.554   2.126   6.413 -1.7428  1.1104 -0.4147
 4283SOL     OW24307   2.837   1.041   8.589  0.2250 -0.6075  0.2269
 4283SOL    HW124308   2.893   0.977   8.545 -1.6996 -1.2077 -1.3113
 4283SOL    HW224309   2.872   1.038   8.679  1.2057 -1.5928 -0.1805
 4284SOL     OW24310   3.224   2.272  10.389 -0.0433  0.2973  0.4413
 4284SOL    HW124311   3.134   2.265  10.420 -0.2359 -0.3538 -0.2399
 4284SOL    HW224312   3.263   2.314  10.465 -1.1062  1.4026  0.3723
 4285SOL     OW24313   0.860   1.945   2.831  0.1858 -0.2420 -0.5881
 4285SOL    HW124314   0.814   2.029   2.833  1.0941  0.2161  1.0833
 4285SOL    HW224315   0.904   1.948   2.916 -0.6871  0.3172 -0.1539
 4286SOL     OW24316   4.569   4.529   9.134 -0.0807 -0.3605  0.2056
 4286SOL    HW124317   4.524   4.460   9.182  1.1596 -1.3026  0.0260
 4286SOL    HW224318   4.520   4.606   9.161  1.8473  1.0327 -0.3076
 4287SOL     OW24319   3.441   0.956   3.976  0.5019 -0.2935  0.2252
 4287SOL    HW124320   3.373   1.017   3.948  0.1289 -0.2721  1.1846
 4287SOL    HW224321   3.455   0.977   4.068 -0.1685 -1.1094  0.5195
 4288SOL     OW24322   3.169   2.229  12.183 -0.5594 -0.1465 -0.5993
 4288SOL    HW124323   3.100   2.202  12.245  1.7488 -1.6479  1.3303
 4288SOL    HW224324   3.150   2.172  12.108 -0.2294 -0.6708 -0.2856
 4289SOL     OW24325   0.540   2.473   3.616  0.3129  0.0288  0.4208
 4289SOL    HW124326   0.446   2.470   3.633 -0.0062 -0.2566 -1.4640
 4289SOL    HW224327   0.561   2.541   3.680  0.6840 -0.5040  0.8666
 4290SOL     OW24328   2.413   0.031   6.818 -0.2251 -0.0194  0.0927
 4290SOL    HW124329   2.347   4.698   6.860 -1.4137 -0.1106 -1.9115
 4290SOL    HW224330   2.494   4.704   6.830 -0.4934 -0.7304 -1.1203
 4291SOL     OW24331   3.103   1.876   5.866  0.7140 -0.2766 -0.3714
 4291SOL    HW124332   3.045   1.925   5.924  4.2968  0.4165  2.6684
 4291SOL    HW224333   3.182   1.858   5.917 -0.7575 -1.0654  1.6086
 4292SOL     OW24334   2.019   0.348   7.034  0.1178 -0.5650  0.3270
 4292SOL    HW124335   2.081   0.332   7.105  1.3676  0.5719 -0.4969
 4292SOL    HW224336   2.080   0.363   6.961 -0.9956  0.6997 -0.3351
 4293SOL     OW24337   2.428   0.471  12.206  0.1495  0.1166 -0.7405
 4293SOL    HW124338   2.518   0.439  12.199  0.5958  0.5627  3.1739
 4293SOL    HW224339   2.392   0.391  12.244  1.5111 -0.4397 -0.6266
 4294SOL     OW24340   1.154   2.663   8.117  0.4195  0.4801  0.1079
 4294SOL    HW124341   1.139   2.738   8.059 -0.1974  0.7714  0.6444
 4294SOL    HW224342   1.219   2.613   8.068 -1.5026 -2.4649  0.6011
 4295SOL     OW24343   4.238   3.093   2.237 -0.1009 -0.3573  0.2327
 4295SOL    HW124344   4.310   3.031   2.250  0.0281 -0.1185  0.6605
 4295SOL    HW224345   4.242   3.109   2.143  2.7145 -1.9282  0.0845
 4296SOL     OW24346   2.429   4.527  12.647 -0.1954  0.2374 -0.8912
 4296SOL    HW124347   2.418   4.435  12.668 -0.1419  0.1553 -1.2156
 4296SOL    HW224348   2.522   4.543  12.631  0.7440 -1.7740  2.5595
 4297SOL     OW24349   0.988   1.709   2.454 -0.6817 -1.0185 -0.1998
 4297SOL    HW124350   0.915   1.709   2.516 -0.6648 -0.3095 -0.1827
 4297SOL    HW224351   0.951   1.655   2.384 -2.2616 -0.0871 -0.0896
 4298SOL     OW24352   0.252   4.331   4.792  0.0206 -0.3274 -0.0927
 4298SOL    HW124353   0.274   4.422   4.812  0.0174 -0.6553  1.3803
 4298SOL    HW224354   0.229   4.294   4.878 -1.0635 -0.4210 -0.4174
 4299SOL     OW24355   1.065   3.622   7.390 -0.4846  0.1520  0.4129
 4299SOL    HW124356   0.998   3.652   7.452 -0.6794  1.2420 -0.3306
 4299SOL    HW224357   1.100   3.706   7.361 -1.1884  0.6305  0.9605
 4300SOL     OW24358   4.400   3.992  14.177  0.1066  1.2955  0.0770
 4300SOL    HW124359   4.379   3.973  14.086 -1.0739  2.9146  0.0144
 4300SOL    HW224360   4.414   4.086  14.167 -0.5090  1.3023 -0.6659
 4301SOL     OW24361   0.193   2.995   8.061  0.2564  0.0158  0.1147
 4301SOL    HW124362   0.103   3.003   8.091  0.5848 -0.3091  1.1986
 4301SOL    HW224363   0.198   2.902   8.038 -1.1873  0.1426 -0.7295
 4302SOL     OW24364   3.388   2.758   1.500 -0.2471 -0.3137  0.0096
 4302SOL    HW124365   3.483   2.745   1.496  0.1523  2.6568  0.4962
 4302SOL    HW224366   3.371   2.734   1.408 -0.2168  1.9181 -0.5710
 4303SOL     OW24367   4.577   3.839   7.333 -0.0494  0.7321  0.2165
 4303SOL    HW124368   4.579   3.932   7.309 -0.3825  0.4047 -1.1340
 4303SOL    HW224369   4.559   3.832   7.427 -3.0060  0.7751 -0.3223
 4304SOL     OW24370   0.633   0.748   4.384  0.9360 -0.1335 -0.0138
 4304SOL    HW124371   0.561   0.728   4.324  1.6206  1.2699 -1.2918
 4304SOL    HW224372   0.681   0.821   4.346 -0.3193  0.2156 -0.9274
 4305SOL     OW24373   2.106   2.464   7.760 -0.7996 -0.0490 -0.7950
 4305SOL    HW124374   2.063   2.383   7.735  0.2848 -1.2909  1.3232
 4305SOL    HW224375   2.063   2.527   7.703  0.3246  1.8270  0.4188
 4306SOL     OW24376   2.690   2.024   6.890  0.0391  0.0578 -0.0455
 4306SOL    HW124377   2.647   1.939   6.886 -1.8749  1.0226  0.2048
 4306SOL    HW224378   2.783   2.002   6.884 -0.1634 -1.0041  0.8243
 4307SOL     OW24379   3.370   1.971   5.280 -0.0239 -0.0094 -0.4591
 4307SOL    HW124380   3.279   1.988   5.256  0.5917  0.1375 -2.6743
 4307SOL    HW224381   3.390   1.900   5.219  0.1161  0.3273 -0.8050
 4308SOL     OW24382   3.470   0.210   8.784 -0.4380 -0.0983  0.4865
 4308SOL    HW124383   3.399   0.191   8.723  0.8424 -3.9846  0.2174
 4308SOL    HW224384   3.440   0.164   8.862 -1.6823  2.0478  1.2787
 4309SOL     OW24385   3.780   2.207   2.019  0.1180 -0.1989  0.2504
 4309SOL    HW124386   3.845   2.146   1.983 -0.8957 -2.0809  1.6059
 4309SOL    HW224387   3.713   2.193   1.952  1.0051 -0.8388 -0.5138
 4310SOL     OW24388   1.121   0.689  12.325 -0.6053  0.2909 -0.7363
 4310SOL    HW124389   1.161   0.710  12.409 -0.7248  0.1089 -0.6363
 4310SOL    HW224390   1.170   0.753  12.273 -0.3973 -0.4820 -1.4751
 4311SOL     OW24391   1.008   1.041   8.642 -0.3487  0.0736 -0.4633
 4311SOL    HW124392   1.029   1.004   8.728  0.8053  1.6456 -0.0567
 4311SOL    HW224393   0.922   1.081   8.649 -0.7293 -1.0192  0.9669
 4312SOL     OW24394   0.756   1.786   8.630  0.1617  0.2640 -0.0122
 4312SOL    HW124395   0.696   1.813   8.561 -0.2187 -1.0540 -0.2035
 4312SOL    HW224396   0.791   1.868   8.664 -1.4245  0.5864  0.7969
 4313SOL     OW24397   3.865   0.298   3.540  0.4789  0.0226 -0.1197
 4313SOL    HW124398   3.826   0.318   3.455 -1.2483  0.1949  0.7168
 4313SOL    HW224399   3.938   0.248   3.505 -0.2321 -0.0166 -1.5528
 4314SOL     OW24400   3.241   1.097   0.351  0.2246  0.0851 -0.8876
 4314SOL    HW124401   3.157   1.097   0.305 -0.3964 -1.2719  0.2597
 4314SOL    HW224402   3.269   1.176   0.304  1.2256  0.2013 -0.1082
 4315SOL     OW24403   3.422   3.891   6.303  0.0644  0.0598 -0.1336
 4315SOL    HW124404   3.336   3.929   6.289  0.8956  2.1378  0.3199
 4315SOL    HW224405   3.403   3.799   6.319  0.8313 -0.2802 -1.0918
 4316SOL     OW24406   1.569   1.133  14.611 -0.0003  0.0343  0.3323
 4316SOL    HW124407   1.554   1.125  14.517  3.1920  0.8706 -0.2641
 4316SOL    HW224408   1.624   1.058  14.634  0.5761 -0.4120 -2.4492
 4317SOL     OW24409   2.326   2.258   2.852 -0.8894  0.7822 -0.2921
 4317SOL    HW124410   2.339   2.201   2.776 -0.2779  1.0400 -0.3778
 4317SOL    HW224411   2.394   2.325   2.847 -0.8598  0.7668 -0.1069
 4318SOL     OW24412   2.579   1.144   4.581 -0.1711  0.4726 -0.3342
 4318SOL    HW124413   2.492   1.146   4.540  1.1353 -2.8018 -3.2097
 4318SOL    HW224414   2.593   1.050   4.569 -2.0367  0.3336 -1.4564
 4319SOL     OW24415   4.357   2.378  15.721 -0.1350 -0.0013 -0.1284
 4319SOL    HW124416   4.401   2.447  15.772  2.4186 -0.5259 -1.6550
 4319SOL    HW224417   4.431   2.347  15.670  0.3678  0.7941  0.1216
 4320SOL     OW24418   3.791   4.190   2.986  0.8024  0.1491  0.0320
 4320SOL    HW124419   3.726   4.139   3.034  2.2725 -0.0741  1.8219
 4320SOL    HW224420   3.790   4.263   3.048  0.1557  0.3802 -0.2514
 4321SOL     OW24421   4.621   2.268   8.163  0.1633  0.1517  0.1920
 4321SOL    HW124422   4.543   2.324   8.162 -0.4555 -0.7290 -0.5030
 4321SOL    HW224423   4.624   2.255   8.258 -1.2817 -0.6680  0.1236
 4322SOL     OW24424   0.980   2.222   7.941  0.3773  0.5052  0.0299
 4322SOL    HW124425   0.885   2.228   7.955  0.4525 -0.6471  0.9668
 4322SOL    HW224426   0.983   2.132   7.907  1.3269  1.4211 -2.3052
 4323SOL     OW24427   3.804   0.707   4.966 -0.0395 -0.2203  0.1497
 4323SOL    HW124428   3.894   0.686   4.990 -0.5583 -2.9895 -0.3343
 4323SOL    HW224429   3.795   0.796   4.999  1.4929  1.5461 -4.2485
 4324SOL     OW24430   1.598   0.833   2.466  0.3110 -0.4585  0.2938
 4324SOL    HW124431   1.691   0.840   2.447  0.1395 -0.6880 -0.6177
 4324SOL    HW224432   1.554   0.852   2.383 -1.2896 -0.7236  1.0717
 4325SOL     OW24433   1.752   3.520   4.298 -0.0717 -0.0357  0.0746
 4325SOL    HW124434   1.843   3.501   4.275 -0.0263  1.9812 -1.3840
 4325SOL    HW224435   1.745   3.612   4.273 -0.5770  0.4170  1.8863
 4326SOL     OW24436   0.520   1.380   6.173 -0.0715  0.3288  0.1560
 4326SOL    HW124437   0.545   1.459   6.125  2.1792 -0.4391  0.0682
 4326SOL    HW224438   0.457   1.351   6.107  0.7933  0.7044 -0.8346
 4327SOL     OW24439   1.118   0.809  14.103  0.0893 -0.1993 -0.7768
 4327SOL    HW124440   1.123   0.787  14.010 -3.1029 -1.0785 -0.7229
 4327SOL    HW224441   1.103   0.903  14.095  0.7481 -0.1032 -0.9459
 4328SOL     OW24442   0.968   0.198   8.805 -0.3606 -0.2100  0.4695
 4328SOL    HW124443   0.991   0.106   8.813 -0.1336 -0.2435 -0.5487
 4328SOL    HW224444   1.037   0.250   8.845  1.4547 -0.4107 -2.4196
 4329SOL     OW24445   4.308   1.067   0.765  0.0579  0.0504 -0.4110
 4329SOL    HW124446   4.379   1.016   0.726 -0.4020 -0.6632 -0.3273
 4329SOL    HW224447   4.308   1.029   0.853  0.8076 -0.0769 -0.4711
 4330SOL     OW24448   3.380   4.447  13.203 -0.4548 -0.3804  0.2134
 4330SOL    HW124449   3.352   4.413  13.119  2.0929  0.5517 -1.0009
 4330SOL    HW224450   3.302   4.458  13.258 -1.4359 -2.0106 -0.8654
 4331SOL     OW24451   0.673   3.507   2.521  0.2119 -0.4638 -0.0392
 4331SOL    HW124452   0.691   3.440   2.587  2.3342 -0.9681 -1.1463
 4331SOL    HW224453   0.760   3.520   2.484  1.2181  1.9973  3.1546
 4332SOL     OW24454   0.227   0.735   5.375 -0.5927 -0.2926 -0.3054
 4332SOL    HW124455   0.269   0.718   5.290 -0.7242 -0.6838 -0.2914
 4332SOL    HW224456   0.304   0.740   5.432  0.9941 -1.0576 -2.3889
 4333SOL     OW24457   0.092   4.486   7.872 -0.2742 -0.1595  0.1101
 4333SOL    HW124458   0.003   4.459   7.897 -1.7360  1.2704 -3.5503
 4333SOL    HW224459   0.093   4.577   7.900  2.8240 -0.9843  2.7140
 4334SOL     OW24460   0.427   3.841   2.964  0.4962 -0.4172  0.0736
 4334SOL    HW124461   0.453   3.861   2.874  1.9779 -2.6987  0.0038
 4334SOL    HW224462   0.337   3.871   2.976  1.4418  2.8183 -0.7143
 4335SOL     OW24463   0.676   2.768   2.364  0.0568 -0.1310 -0.0693
 4335SOL    HW124464   0.629   2.847   2.338 -1.5041 -1.1748 -0.4174
 4335SOL    HW224465   0.760   2.792   2.325 -0.4946  1.6047 -0.1981
 4336SOL     OW24466   4.528   3.076   9.546 -0.0572 -0.1355  0.2762
 4336SOL    HW124467   4.580   3.156   9.552 -0.3220  0.1063 -0.7622
 4336SOL    HW224468   4.449   3.111   9.588  1.0162  0.4641  1.7954
 4337SOL     OW24469   4.393   1.338   7.950 -0.4707  0.0213 -0.1654
 4337SOL    HW124470   4.473   1.286   7.961 -0.4924  0.2171  0.9162
 4337SOL    HW224471   4.331   1.267   7.967 -0.5972  0.3633  0.7978
 4338SOL     OW24472   1.339   3.803   4.400 -0.1546  0.0675 -0.0199
 4338SOL    HW124473   1.299   3.864   4.339 -0.8341  0.7389  1.0889
 4338SOL    HW224474   1.276   3.815   4.472  1.7826  1.0285  1.5166
 4339SOL     OW24475   1.207   0.486   7.746  0.0337 -0.2398 -0.0607
 4339SOL    HW124476   1.284   0.437   7.716  0.2132  0.6695 -1.0817
 4339SOL    HW224477   1.237   0.528   7.827 -1.1210  0.8778 -0.2192
 4340SOL     OW24478   3.315   0.397   3.328 -0.1355 -0.4087  0.1759
 4340SOL    HW124479   3.259   0.453   3.274 -1.1599 -1.9199 -0.3408
 4340SOL    HW224480   3.371   0.467   3.361  1.0305  0.0261 -2.7416
 4341SOL     OW24481   0.648   4.662   1.912 -0.1169  0.2173 -0.9344
 4341SOL    HW124482   0.613   4.702   1.832  0.9614  0.8911 -1.0535
 4341SOL    HW224483   0.624   4.571   1.891  1.9338 -0.6695  0.6041
 4342SOL     OW24484   3.908   0.295   4.765  0.1556 -0.4512 -0.1381
 4342SOL    HW124485   3.813   0.283   4.760  0.2746 -2.1260  1.4930
 4342SOL    HW224486   3.910   0.321   4.857 -0.5767  2.6247 -1.0093
 4343SOL     OW24487   3.979   3.484   7.015  0.0149  0.1553  0.3363
 4343SOL    HW124488   3.950   3.552   7.076  2.1843  1.3486  0.0334
 4343SOL    HW224489   4.055   3.449   7.060  1.3227  0.7429 -1.4294
 4344SOL     OW24490   0.306   3.965  16.390  0.4256 -1.0812  0.6748
 4344SOL    HW124491   0.283   3.985  16.299 -0.9165 -0.1170  1.2333
 4344SOL    HW224492   0.228   3.912  16.405 -0.7123 -0.3223 -2.4042
 4345SOL     OW24493   1.889   0.763   4.084 -0.9040 -0.0065  0.2645
 4345SOL    HW124494   1.983   0.749   4.099 -0.8056  2.5594  1.9270
 4345SOL    HW224495   1.852   0.690   4.134 -1.1740 -0.5960 -0.7749
 4346SOL     OW24496   3.305   2.678   3.773  0.1551  0.4653 -0.4737
 4346SOL    HW124497   3.261   2.602   3.734 -0.0352  0.0035  0.6493
 4346SOL    HW224498   3.292   2.668   3.867 -2.5686 -3.5228 -1.2530
 4347SOL     OW24499   0.837   0.179  14.067  0.1898  0.3857 -0.5004
 4347SOL    HW124500   0.825   0.262  14.021  0.2064 -0.1256 -1.4320
 4347SOL    HW224501   0.776   0.117  14.025 -1.3333  1.3585  0.2827
 4348SOL     OW24502   2.573   3.304  16.443  0.8127  0.3598  0.1744
 4348SOL    HW124503   2.561   3.304  16.348 -1.7942  2.7252  0.4883
 4348SOL    HW224504   2.587   3.211  16.459 -1.2393  0.0268  0.0370
 4349SOL     OW24505   2.634   0.996   7.404  0.2751  0.0465  0.4273
 4349SOL    HW124506   2.713   1.040   7.372  0.4324 -1.6166 -1.4888
 4349SOL    HW224507   2.655   0.911   7.365  1.3827 -1.3317  4.0543
 4350SOL     OW24508   2.266   3.549  17.414 -0.1863  0.2468 -0.3350
 4350SOL    HW124509   2.313   3.619  17.459 -0.5885  0.6251 -0.4993
 4350SOL    HW224510   2.247   3.487  17.484 -1.5946 -1.7383 -2.4410
 4351SOL     OW24511   3.501   3.555   1.303 -0.1999 -0.2092 -0.3290
 4351SOL    HW124512   3.477   3.558   1.210  0.7966  2.4105 -0.4854
 4351SOL    HW224513   3.485   3.461   1.317  0.0296 -0.3403 -0.9502
 4352SOL     OW24514   0.391   2.179  15.581  0.1979  0.1056 -0.4768
 4352SOL    HW124515   0.405   2.263  15.538  0.0294  1.0693  1.3355
 4352SOL    HW224516   0.473   2.172  15.631  0.5983 -0.4447 -1.2115
 4353SOL     OW24517   4.137   0.868   2.687 -0.6181  0.0097  0.1108
 4353SOL    HW124518   4.123   0.946   2.741  3.1736 -0.8086  2.2801
 4353SOL    HW224519   4.152   0.909   2.602 -1.2805 -3.1360 -1.5473
 4354SOL     OW24520   0.273   4.406   1.585  0.2679  0.2571  0.3889
 4354SOL    HW124521   0.248   4.497   1.599 -0.3546  0.1223  0.1563
 4354SOL    HW224522   0.185   4.367   1.586  0.2302  0.3687  0.9292
 4355SOL     OW24523   3.409   2.695   8.238  0.0838 -0.0638 -0.5373
 4355SOL    HW124524   3.367   2.665   8.319 -1.3608  2.8488 -0.2025
 4355SOL    HW224525   3.339   2.719   8.178 -0.5272 -0.7228 -0.0846
 4356SOL     OW24526   1.202   0.865   7.083  0.0070  0.2893  0.4360
 4356SOL    HW124527   1.210   0.917   7.003  2.1535 -0.6987  0.0239
 4356SOL    HW224528   1.192   0.941   7.140 -3.2528  0.4852 -0.3982
 4357SOL     OW24529   2.719   2.281  13.915 -1.1723  0.0528  0.1070
 4357SOL    HW124530   2.650   2.215  13.916 -2.2567  1.1817  0.0403
 4357SOL    HW224531   2.712   2.307  13.823  1.7271  0.0432 -0.1276
 4358SOL     OW24532   0.910   1.976  12.906  0.3322 -0.3755  0.5703
 4358SOL    HW124533   0.895   2.065  12.875  0.6609 -0.4999  0.0480
 4358SOL    HW224534   0.848   1.929  12.851 -1.1312  1.8057  0.3539
 4359SOL     OW24535   0.903   3.535   8.014 -0.1452  0.1329  0.1958
 4359SOL    HW124536   0.960   3.605   8.044  1.0829 -2.2049  3.4179
 4359SOL    HW224537   0.909   3.480   8.093  2.4730  1.0614  0.6394
 4360SOL     OW24538   1.883   0.920  13.934  0.1675  0.0525  1.3493
 4360SOL    HW124539   1.818   0.974  13.888 -0.6184  0.3481  2.8037
 4360SOL    HW224540   1.923   0.988  13.989  2.1507 -2.1319  2.6026
 4361SOL     OW24541   3.218   3.149   3.407 -0.2681  0.3839 -0.0274
 4361SOL    HW124542   3.151   3.162   3.340  0.0366 -1.6553 -0.7104
 4361SOL    HW224543   3.277   3.222   3.388 -0.3728 -0.0136 -1.8511
 4362SOL     OW24544   0.433   3.770  17.234 -0.3127  0.2701  0.4859
 4362SOL    HW124545   0.458   3.860  17.255 -0.0370 -0.1359  1.9353
 4362SOL    HW224546   0.481   3.727  17.305 -0.7325 -0.9007  0.0686
 4363SOL     OW24547   1.687   0.933   1.066 -0.3615 -0.4482  0.2388
 4363SOL    HW124548   1.634   1.012   1.052  2.2087  1.4120  1.1421
 4363SOL    HW224549   1.627   0.861   1.047 -1.1494  0.1844  0.3268
 4364SOL     OW24550   4.413   3.188   3.829 -0.0926  0.2397 -0.1011
 4364SOL    HW124551   4.471   3.205   3.755 -0.4902  0.6374 -0.3219
 4364SOL    HW224552   4.470   3.210   3.902 -0.4055  0.6542  0.0189
 4365SOL     OW24553   2.647   1.999  11.737  0.3199 -0.3046  0.0346
 4365SOL    HW124554   2.577   1.977  11.799  1.0045  1.1043  1.3003
 4365SOL    HW224555   2.680   1.917  11.700  1.6136 -0.4254  1.4619
 4366SOL     OW24556   0.544   3.828  17.675 -0.3936 -0.6743  0.1413
 4366SOL    HW124557   0.611   3.891   0.010  0.9937 -1.2752 -1.7234
 4366SOL    HW224558   0.478   3.849   0.046 -1.8474  0.3267 -1.6760
 4367SOL     OW24559   0.167   1.910   9.264  0.3806  0.1821 -0.2096
 4367SOL    HW124560   0.164   1.993   9.311  0.5945  0.3913 -0.5654
 4367SOL    HW224561   0.154   1.849   9.336 -1.6089  0.3741 -0.4070
 4368SOL     OW24562   0.514   0.304   5.619 -0.1389 -0.1875 -0.8491
 4368SOL    HW124563   0.421   0.320   5.603  0.2083  1.0156 -1.6084
 4368SOL    HW224564   0.521   0.326   5.712 -2.3548 -0.6340 -0.5829
 4369SOL     OW24565   2.613   0.523  13.143 -0.0726  0.0048 -0.0237
 4369SOL    HW124566   2.690   0.468  13.151  1.0821  1.6753  0.2930
 4369SOL    HW224567   2.567   0.509  13.226 -1.6658  0.0081 -0.9073
 4370SOL     OW24568   0.068   3.915   6.275 -0.6118 -0.0243 -0.2024
 4370SOL    HW124569   0.026   3.974   6.337  1.2684  1.7709 -0.6641
 4370SOL    HW224570   4.713   3.884   6.228  1.0564 -2.3738 -1.4256
 4371SOL     OW24571   4.459   0.718   6.845 -0.0711 -0.5261 -0.5322
 4371SOL    HW124572   4.367   0.701   6.867  0.3089 -1.7450  0.1057
 4371SOL    HW224573   4.453   0.678   6.759  1.0656 -1.4389 -0.1961
 4372SOL     OW24574   1.680   0.448   2.001 -0.1415  0.4274  0.2768
 4372SOL    HW124575   1.727   0.366   2.017 -0.8539  0.1995  1.2073
 4372SOL    HW224576   1.639   0.434   1.915  0.1466  0.7378  0.0903
 4373SOL     OW24577   4.435   3.578   8.952  0.2174  0.0539 -0.4475
 4373SOL    HW124578   4.391   3.662   8.960 -0.6867 -0.5794  1.3312
 4373SOL    HW224579   4.380   3.537   8.885  1.6067 -4.5603  1.2019
 4374SOL     OW24580   3.650   1.888   2.691  0.4962  0.1795 -0.2384
 4374SOL    HW124581   3.645   1.816   2.754 -0.8588  0.3533 -0.1550
 4374SOL    HW224582   3.577   1.942   2.721  1.0295  0.0013  1.3749
 4375SOL     OW24583   1.933   2.074   0.316  0.4935  0.1116 -0.1559
 4375SOL    HW124584   1.945   2.106   0.226  1.2137  1.9884  0.6116
 4375SOL    HW224585   2.024   2.072   0.343 -0.1942  1.4113  2.2343
 4376SOL     OW24586   2.666   3.132   4.378 -0.3668  0.0780  0.4016
 4376SOL    HW124587   2.743   3.138   4.321 -0.8279  0.3834 -0.1832
 4376SOL    HW224588   2.689   3.195   4.446 -0.4058  0.1557  0.3429
 4377SOL     OW24589   4.065   1.757   7.387  0.8253  0.0194  0.0100
 4377SOL    HW124590   4.059   1.752   7.482 -0.2765  0.2614 -0.0493
 4377SOL    HW224591   4.154   1.783   7.363  1.3157 -1.3569  0.3424
 4378SOL     OW24592   4.461   0.048  14.776 -0.2875 -0.4172  0.3937
 4378SOL    HW124593   4.541   0.012  14.736  0.7115  0.1201  1.8891
 4378SOL    HW224594   4.499   0.102  14.845  0.8920 -0.5105 -0.1645
 4379SOL     OW24595   1.666   0.807  16.125  0.2192  0.3768  0.4410
 4379SOL    HW124596   1.697   0.778  16.211 -0.7576  0.3624  0.7935
 4379SOL    HW224597   1.666   0.721  16.083  1.4143  0.3699  0.4567
 4380SOL     OW24598   0.446   1.238   3.653  0.0600  0.1997  0.2617
 4380SOL    HW124599   0.449   1.263   3.561  1.0101 -0.8299  0.0284
 4380SOL    HW224600   0.480   1.149   3.650 -0.5251  0.0911 -2.9251
 4381SOL     OW24601   0.896   4.240   5.282  0.1216 -0.0448  0.0898
 4381SOL    HW124602   0.946   4.226   5.362  1.2883  0.8378 -0.4960
 4381SOL    HW224603   0.826   4.175   5.273  0.0401 -0.0998  1.2199
 4382SOL     OW24604   1.003   2.112   4.566  0.2842  0.1665  0.4693
 4382SOL    HW124605   0.928   2.074   4.612  0.1707  2.1786  1.9272
 4382SOL    HW224606   0.979   2.095   4.474  3.5560 -0.1782 -0.3171
 4383SOL     OW24607   1.562   0.295   9.916 -0.6392  0.1040 -0.9142
 4383SOL    HW124608   1.503   0.367   9.893  0.0832  0.6342 -1.1080
 4383SOL    HW224609   1.499   0.233   9.952  0.8925  0.5250  2.4559
 4384SOL     OW24610   0.909   3.546   5.762 -0.2362 -0.2105  0.3404
 4384SOL    HW124611   0.813   3.547   5.754 -0.4843 -1.8225  2.9073
 4384SOL    HW224612   0.924   3.454   5.784  2.2207 -0.1045 -0.9584
 4385SOL     OW24613   4.162   1.397   7.318  0.0677  0.3229  0.0268
 4385SOL    HW124614   4.243   1.442   7.294 -1.7258  2.0202 -2.8661
 4385SOL    HW224615   4.179   1.377   7.410  1.4161 -2.5705 -0.8602
 4386SOL     OW24616   2.622   4.544   5.924  0.0207 -0.2949 -0.2199
 4386SOL    HW124617   2.605   4.495   5.843 -1.6762 -0.6146  0.3318
 4386SOL    HW224618   2.531   4.571   5.940 -0.1791 -0.8818 -0.3441
 4387SOL     OW24619   0.003   2.540   5.110 -0.2223 -0.3585 -0.9602
 4387SOL    HW124620   0.081   2.526   5.056 -0.1695 -3.3092 -0.1206
 4387SOL    HW224621   4.659   2.497   5.058 -1.4053  0.1737  0.1240
 4388SOL     OW24622   0.074   2.438   3.075  0.0079 -0.1662 -0.7133
 4388SOL    HW124623   0.145   2.455   3.137 -1.1966 -1.0357  0.8928
 4388SOL    HW224624   0.011   2.509   3.084  0.1047 -0.4689  2.0639
 4389SOL     OW24625   0.936   2.742   6.945  0.0546 -0.2352  0.0329
 4389SOL    HW124626   0.949   2.659   6.991  2.6151 -0.6147 -1.3743
 4389SOL    HW224627   1.027   2.773   6.945  1.2439 -3.7871 -2.9461
 4390SOL     OW24628   2.912   1.682   8.390 -0.8160 -0.0286 -0.2403
 4390SOL    HW124629   2.963   1.761   8.409 -0.5518  0.0696 -1.3997
 4390SOL    HW224630   2.989   1.631   8.363  1.2659  2.2301  1.4111
 4391SOL     OW24631   0.246   3.855  11.375  0.4812  0.1347  0.0936
 4391SOL    HW124632   0.186   3.794  11.416 -1.0270  1.8425  0.4020
 4391SOL    HW224633   0.237   3.827  11.284  0.2384  1.3201 -0.2514
 4392SOL     OW24634   2.052   3.274  11.450  0.5211 -0.4940 -0.0612
 4392SOL    HW124635   2.130   3.314  11.411  1.3599 -1.0209  1.0555
 4392SOL    HW224636   1.991   3.346  11.435  0.2984 -0.5504  0.5919
 4393SOL     OW24637   3.281   1.614   7.817  0.3752  0.5412  0.1879
 4393SOL    HW124638   3.214   1.656   7.763  0.8206  0.5254 -0.3676
 4393SOL    HW224639   3.231   1.592   7.896  2.5055 -2.2647  0.7500
 4394SOL     OW24640   4.455   1.594   0.758  0.1299  0.0190  0.2757
 4394SOL    HW124641   4.450   1.595   0.854  1.3988 -0.5345  0.3429
 4394SOL    HW224642   4.514   1.519   0.750 -1.0598 -0.8576 -0.3424
 4395SOL     OW24643   1.262   4.127   4.928  0.0436  0.2246 -0.1374
 4395SOL    HW124644   1.177   4.107   4.888  1.1690 -1.6603 -1.6159
 4395SOL    HW224645   1.248   4.058   4.993 -0.1101  0.1441 -0.2540
 4396SOL     OW24646   1.450   1.017  10.266  0.0636  0.4245  0.7622
 4396SOL    HW124647   1.430   1.088  10.204  0.0612  1.6637  2.1908
 4396SOL    HW224648   1.525   1.054  10.313  2.3224 -3.1028 -0.0588
 4397SOL     OW24649   0.389   3.753   7.383  0.3056 -0.5440  0.4422
 4397SOL    HW124650   0.386   3.667   7.343 -1.9503  0.1204 -0.8546
 4397SOL    HW224651   0.386   3.731   7.476 -2.5041 -1.8660  0.0227
 4398SOL     OW24652   4.410   2.207  17.055 -0.0244  0.4458 -0.1050
 4398SOL    HW124653   4.366   2.217  16.971  0.4110 -2.9925 -0.7453
 4398SOL    HW224654   4.492   2.248  17.029  1.2456  0.1836  3.3976
 4399SOL     OW24655   3.465   4.156   3.874  0.6580 -0.1591 -0.1864
 4399SOL    HW124656   3.460   4.078   3.819  1.4039 -0.1091 -0.3307
 4399SOL    HW224657   3.552   4.186   3.848  0.5132 -0.2684 -0.7878
 4400SOL     OW24658   2.034   1.098  11.893  0.5361 -0.6350  0.4461
 4400SOL    HW124659   1.976   1.050  11.835  0.4952  0.5305 -0.4789
 4400SOL    HW224660   2.031   1.189  11.863 -3.0130 -1.6328 -2.1671
 4401SOL     OW24661   0.224   1.536   4.772  0.1371  0.4925  0.3092
 4401SOL    HW124662   0.214   1.627   4.801 -0.5512  1.2991 -2.3646
 4401SOL    HW224663   0.291   1.517   4.837  1.3343 -0.9853 -1.3614
 4402SOL     OW24664   1.247   0.006   7.989  0.0829  0.0019  0.3545
 4402SOL    HW124665   1.333   0.022   8.027 -0.6552  1.0366  1.5807
 4402SOL    HW224666   1.247   4.635   7.973  2.8232 -0.4624  3.0626
 4403SOL     OW24667   2.175   4.647   7.200 -0.2543 -0.1985  0.0547
 4403SOL    HW124668   2.219   4.644   7.285 -1.5554  2.7570  0.8230
 4403SOL    HW224669   2.095   4.689   7.232 -0.2059  0.1788 -0.3219
 4404SOL     OW24670   2.329   2.125   5.037  0.1358  0.0748 -0.2543
 4404SOL    HW124671   2.329   2.137   5.132  0.7550 -2.7501  0.0862
 4404SOL    HW224672   2.295   2.209   5.006 -0.0940  0.1018  0.0703
 4405SOL     OW24673   1.688   3.231  10.025 -0.4405  0.1993  0.3262
 4405SOL    HW124674   1.734   3.190  10.098  0.4572 -0.5316 -0.6406
 4405SOL    HW224675   1.747   3.204   9.954 -0.6473 -0.8893  0.5675
 4406SOL     OW24676   0.739   1.876   6.047  0.3718  0.5908 -1.0404
 4406SOL    HW124677   0.787   1.838   5.973 -0.7449  0.6683 -1.8044
 4406SOL    HW224678   0.727   1.968   6.021 -2.4771  0.6642  0.5394
 4407SOL     OW24679   1.813   2.048   9.405 -0.1275  0.1884  0.4014
 4407SOL    HW124680   1.775   2.134   9.424 -0.8219 -0.5030  2.2230
 4407SOL    HW224681   1.742   2.010   9.354 -0.9117  0.9812  0.8869
 4408SOL     OW24682   3.598   2.734   5.910 -0.7291 -0.2837  0.6946
 4408SOL    HW124683   3.525   2.673   5.905 -0.3992 -0.6612  0.5156
 4408SOL    HW224684   3.618   2.736   5.817 -0.6808  2.0066  0.7663
 4409SOL     OW24685   0.717   3.806   2.507 -0.2871  0.1238 -0.3466
 4409SOL    HW124686   0.673   3.724   2.526 -1.8669  1.5500  2.3088
 4409SOL    HW224687   0.745   3.823   2.598 -0.8983  2.4396 -0.5811
 4410SOL     OW24688   0.985   3.316  11.948  0.0515  0.3537 -0.1923
 4410SOL    HW124689   0.968   3.232  11.905 -1.3352 -0.2925  1.6360
 4410SOL    HW224690   1.080   3.321  11.947  0.1297 -0.9960  1.5363
 4411SOL     OW24691   0.139   1.549  11.613 -0.1182 -0.3022  0.0114
 4411SOL    HW124692   0.222   1.567  11.570 -0.2434 -0.7006 -0.3873
 4411SOL    HW224693   0.143   1.596  11.697 -1.9423 -0.5107  0.2193
 4412SOL     OW24694   4.305   0.099   3.068 -0.2040  0.5459  0.3782
 4412SOL    HW124695   4.390   0.055   3.063 -0.5020  0.2329 -1.7052
 4412SOL    HW224696   4.328   0.191   3.054  0.4751  0.1065 -1.3483
 4413SOL     OW24697   2.469   4.046  10.336  0.2072  0.7590 -1.0024
 4413SOL    HW124698   2.463   4.133  10.298 -2.8969 -0.2621 -2.7430
 4413SOL    HW224699   2.463   3.996  10.255  2.6867 -1.2960  0.0476
 4414SOL     OW24700   4.568   4.115  14.856 -0.2176 -0.0340  0.2563
 4414SOL    HW124701   4.496   4.089  14.799 -0.0635  1.5971 -0.6972
 4414SOL    HW224702   4.626   4.153  14.790 -0.1148  1.6957  1.3452
 4415SOL     OW24703   2.807   3.460   9.479 -0.4849  0.2528  0.1143
 4415SOL    HW124704   2.887   3.474   9.429  1.5797 -2.0433  2.7228
 4415SOL    HW224705   2.763   3.544   9.466 -0.0187  0.4098 -0.4541
 4416SOL     OW24706   3.779   2.668   7.694 -0.0298  0.5273 -0.1620
 4416SOL    HW124707   3.746   2.737   7.637 -0.4634  0.1986 -0.3098
 4416SOL    HW224708   3.768   2.592   7.637 -0.7906  1.9498 -1.9136
 4417SOL     OW24709   3.276   3.056   4.372 -0.0392  0.1899  0.1504
 4417SOL    HW124710   3.259   3.042   4.465  1.1136 -0.2773  0.2937
 4417SOL    HW224711   3.305   2.972   4.337  0.1846  0.7291 -0.9634
 4418SOL     OW24712   3.931   3.962   6.141  0.1636  0.2179 -0.0280
 4418SOL    HW124713   3.837   3.949   6.138 -0.3203  3.2050  2.2818
 4418SOL    HW224714   3.931   4.056   6.157  1.3806  0.3986 -1.0502
 4419SOL     OW24715   2.139   4.285   2.860 -0.2533  0.3978 -0.0105
 4419SOL    HW124716   2.056   4.239   2.863  0.6526 -1.2104  0.5755
 4419SOL    HW224717   2.138   4.348   2.788  0.3929  0.5635  0.1171
 4420SOL     OW24718   4.349   3.340   5.685 -0.2163  0.2548  0.0952
 4420SOL    HW124719   4.423   3.281   5.670 -2.3266 -3.0526  3.0141
 4420SOL    HW224720   4.357   3.352   5.780 -3.0102 -2.8420  0.7069
 4421SOL     OW24721   2.633   4.437   9.016  0.2046 -0.1895  0.0057
 4421SOL    HW124722   2.635   4.532   9.028 -1.5074  0.1272 -2.1223
 4421SOL    HW224723   2.688   4.419   8.940  1.2824  0.7318  0.5713
 4422SOL     OW24724   1.304   1.914   2.860  0.6107 -0.0051 -0.4798
 4422SOL    HW124725   1.393   1.915   2.824  1.2543 -2.1933  1.0859
 4422SOL    HW224726   1.271   1.992   2.813 -1.4152 -0.3405  0.3850
 4423SOL     OW24727   2.347   0.687   8.483  0.1417 -0.1014  0.0490
 4423SOL    HW124728   2.309   0.689   8.395 -0.2554  0.0116  0.2219
 4423SOL    HW224729   2.273   0.665   8.539 -1.1518  0.3625 -1.4523
 4424SOL     OW24730   1.541   4.059   8.349  0.1189  0.3017  0.2156
 4424SOL    HW124731   1.499   3.998   8.409 -1.8166  0.5119 -0.9123
 4424SOL    HW224732   1.580   4.121   8.411 -0.0240 -2.0160  2.5879
 4425SOL     OW24733   1.030   1.890   4.112 -0.3787 -0.1338  0.0726
 4425SOL    HW124734   0.996   1.817   4.060  0.0354 -0.9709  0.9813
 4425SOL    HW224735   1.027   1.957   4.044  2.2923 -1.1955 -1.0771
 4426SOL     OW24736   0.651   3.855  14.649  0.5176 -0.2432  0.5419
 4426SOL    HW124737   0.727   3.886  14.698  1.1191 -1.0273  0.1113
 4426SOL    HW224738   0.689   3.795  14.585 -0.4179 -1.2131  0.8939
 4427SOL     OW24739   2.759   0.120   3.170 -0.1199 -0.2527  0.2056
 4427SOL    HW124740   2.779   0.029   3.148  0.1917  0.0396 -0.7276
 4427SOL    HW224741   2.671   0.132   3.133 -0.4935 -2.2167  0.4678
 4428SOL     OW24742   1.880   2.294   4.222 -0.3071  0.2915 -0.5441
 4428SOL    HW124743   1.875   2.245   4.304 -0.8310 -1.0847 -1.3919
 4428SOL    HW224744   1.971   2.268   4.205  0.4793  1.5202  1.8049
 4429SOL     OW24745   4.404   4.361   9.287  0.5329 -0.4103 -0.0844
 4429SOL    HW124746   4.413   4.427   9.355 -2.6332  0.2255 -0.2555
 4429SOL    HW224747   4.446   4.288   9.331  0.4131  0.3574  1.2945
 4430SOL     OW24748   0.587   3.765   6.757 -0.2058 -0.3847 -0.3821
 4430SOL    HW124749   0.622   3.725   6.836 -1.2670 -1.2731 -0.3651
 4430SOL    HW224750   0.540   3.694   6.715 -1.2717  1.1569 -1.8075
 4431SOL     OW24751   3.401   0.067   6.400  0.4783 -0.2645  0.6285
 4431SOL    HW124752   3.375   4.716   6.345  0.0791 -0.4213  1.0244
 4431SOL    HW224753   3.322   0.083   6.452  0.3018 -0.1347  0.3161
 4432SOL     OW24754   0.360   1.576   6.690 -0.0043 -0.1172 -0.3016
 4432SOL    HW124755   0.422   1.649   6.695 -1.4868  1.1523 -0.3423
 4432SOL    HW224756   0.311   1.589   6.771  1.5047  0.5288  0.5015
 4433SOL     OW24757   0.786   1.597  17.579 -0.5795 -0.2920  0.3011
 4433SOL    HW124758   0.697   1.563  17.580 -0.3079 -1.0339 -0.5436
 4433SOL    HW224759   0.835   1.543  17.642  1.4092 -1.1753 -1.9936
 4434SOL     OW24760   4.382   2.777   8.212  0.0961  0.0303  0.2806
 4434SOL    HW124761   4.323   2.793   8.139  1.8420  0.3132 -1.0837
 4434SOL    HW224762   4.321   2.798   8.282  1.3637 -2.7176  2.2112
 4435SOL     OW24763   1.126   1.766   8.492  0.0726 -0.3539 -0.7422
 4435SOL    HW124764   1.076   1.828   8.438 -0.2014  0.4262  0.4216
 4435SOL    HW224765   1.212   1.807   8.499 -0.0106 -0.5672  1.3999
 4436SOL     OW24766   0.856   4.691  15.011 -0.3035 -0.6386  0.2259
 4436SOL    HW124767   0.934   0.023  15.004 -0.8614  0.1277  0.0044
 4436SOL    HW224768   0.885   4.618  15.067  2.6773 -1.1836 -2.0665
 4437SOL     OW24769   2.608   0.712   8.587  0.8646  0.0560  0.1077
 4437SOL    HW124770   2.521   0.673   8.575  0.3604  1.2147  0.0708
 4437SOL    HW224771   2.592   0.793   8.634  0.4277 -0.2264  0.4492
 4438SOL     OW24772   0.113   1.257   1.097  0.0663  0.2109  0.4371
 4438SOL    HW124773   0.158   1.239   1.179  2.1578  2.5800 -0.1534
 4438SOL    HW224774   0.115   1.174   1.049  1.2042 -0.4303  1.5842
 4439SOL     OW24775   2.673   4.542  15.491  0.0055 -0.1922 -0.1464
 4439SOL    HW124776   2.663   4.448  15.476 -0.5169 -0.3455  1.0967
 4439SOL    HW224777   2.625   4.544  15.575 -0.1187  1.7252 -0.2581
 4440SOL     OW24778   0.343   3.648   3.161  0.4363  0.0624 -0.1749
 4440SOL    HW124779   0.395   3.709   3.109  3.2115 -2.1342  0.0342
 4440SOL    HW224780   0.371   3.562   3.129  0.2397  0.4040 -1.2876
 4441SOL     OW24781   0.836   1.787   7.776 -0.0089 -0.0442 -0.1750
 4441SOL    HW124782   0.850   1.868   7.726 -2.6039 -1.1308 -2.6504
 4441SOL    HW224783   0.872   1.725   7.713  1.6206 -1.2072  1.9278
 4442SOL     OW24784   2.402   3.810   6.192  0.0360  0.1402 -0.2491
 4442SOL    HW124785   2.365   3.722   6.205 -0.9294  0.5757 -0.0291
 4442SOL    HW224786   2.494   3.792   6.211 -0.0860 -1.1604 -0.8707
 4443SOL     OW24787   2.385   3.782  17.503  0.2545 -0.0400  0.2042
 4443SOL    HW124788   2.451   3.839  17.463  1.1618 -1.5558 -0.4329
 4443SOL    HW224789   2.310   3.842  17.499  1.5581  1.6888  1.4769
 4444SOL     OW24790   2.531   2.507   0.119  0.3664 -0.9238  0.3840
 4444SOL    HW124791   2.486   2.571   0.174 -1.2467 -1.0924 -0.7492
 4444SOL    HW224792   2.601   2.487   0.182  0.2762 -3.7982 -0.4057
 4445SOL     OW24793   0.787   2.037  11.751 -0.7369  0.3921  0.1337
 4445SOL    HW124794   0.811   2.086  11.829  3.4674 -2.0620  0.3918
 4445SOL    HW224795   0.793   1.946  11.781 -0.1000  1.0450  1.9431
 4446SOL     OW24796   4.470   3.362   8.183 -0.4652  0.2309  0.8053
 4446SOL    HW124797   4.453   3.283   8.132  0.6581  0.4680  0.0605
 4446SOL    HW224798   4.450   3.425   8.114  1.6651 -0.9374 -0.8666
 4447SOL     OW24799   2.720   1.454   5.675 -0.1465 -0.3113 -0.3675
 4447SOL    HW124800   2.792   1.454   5.738 -0.1009  1.5277 -0.4210
 4447SOL    HW224801   2.757   1.475   5.589  1.0244 -2.2291 -0.3281
 4448SOL     OW24802   2.410   1.158  10.321  0.0642 -0.7943  0.5083
 4448SOL    HW124803   2.385   1.211  10.396 -1.8023  0.1817 -0.7848
 4448SOL    HW224804   2.414   1.072  10.361  1.4787 -1.9892 -2.2639
 4449SOL     OW24805   4.600   1.407  17.534 -0.0326 -0.2625 -0.0520
 4449SOL    HW124806   4.574   1.460  17.459  0.7017  2.0752  1.3348
 4449SOL    HW224807   4.584   1.322  17.492  2.1995 -0.5890 -0.2308
 4450SOL     OW24808   3.141   0.122   2.666  0.1524  0.5332 -0.0343
 4450SOL    HW124809   3.227   0.150   2.696  0.5692 -0.3823 -0.3706
 4450SOL    HW224810   3.147   0.031   2.695  0.5870  0.7540  0.5667
 4451SOL     OW24811   1.183   2.853   6.958 -0.1020  0.1759  0.8794
 4451SOL    HW124812   1.145   2.939   6.973  0.1306  0.4535 -0.1813
 4451SOL    HW224813   1.242   2.853   7.034  0.3725  0.1512  0.5088
 4452SOL     OW24814   0.485   3.914   4.004 -0.4616 -0.3557 -0.2248
 4452SOL    HW124815   0.549   3.979   4.033 -1.1299  0.8984 -1.5522
 4452SOL    HW224816   0.430   3.903   4.081 -0.3837 -2.2469 -0.4296
 4453SOL     OW24817   2.508   0.188   8.188  0.4011  0.0514 -0.1125
 4453SOL    HW124818   2.538   0.098   8.170  0.0462 -0.1010  0.0628
 4453SOL    HW224819   2.563   0.203   8.265 -0.0633  1.5798 -0.0775
 4454SOL     OW24820   0.729   1.597   3.613 -0.5757  0.4417  0.3101
 4454SOL    HW124821   0.677   1.655   3.669  0.8656  2.3691 -0.3345
 4454SOL    HW224822   0.724   1.655   3.537  0.2590  1.7448  1.2459
 4455SOL     OW24823   2.197   0.745   8.741  0.3341  0.4729 -0.1423
 4455SOL    HW124824   2.146   0.793   8.807 -1.0455 -0.6123 -0.4154
 4455SOL    HW224825   2.155   0.766   8.657 -0.0538  0.6668  0.0987
 4456SOL     OW24826   3.431   2.122  12.207 -0.2229  0.2778  0.1160
 4456SOL    HW124827   3.483   2.156  12.280 -0.8648 -0.2059  0.7949
 4456SOL    HW224828   3.353   2.179  12.208  0.3402  1.0587 -0.6797
 4457SOL     OW24829   3.743   3.143   7.217 -0.0249  0.2938 -0.1039
 4457SOL    HW124830   3.742   3.143   7.313  2.6931  0.1405 -0.0651
 4457SOL    HW224831   3.702   3.058   7.198  1.8645 -0.4846 -0.7292
 4458SOL     OW24832   0.255   1.175  12.373  0.8941 -0.5639 -0.2232
 4458SOL    HW124833   0.327   1.117  12.348  0.7325 -1.0038  0.3108
 4458SOL    HW224834   0.288   1.260  12.347 -0.1013 -0.3099 -0.6692
 4459SOL     OW24835   0.511   2.647   6.174 -0.3014 -0.0202 -0.1704
 4459SOL    HW124836   0.418   2.667   6.161 -0.5721  0.4834  2.4724
 4459SOL    HW224837   0.531   2.616   6.086  0.9270 -1.2067  0.5229
 4460SOL     OW24838   1.041   4.510  16.075 -0.6950 -0.3237 -0.1994
 4460SOL    HW124839   1.075   4.481  16.159  0.5651  0.8655 -0.3136
 4460SOL    HW224840   0.979   4.439  16.055 -1.2090  0.2357 -0.6064
 4461SOL     OW24841   1.790   3.731  13.456  0.2311  0.3788 -0.5717
 4461SOL    HW124842   1.706   3.769  13.479 -0.1900 -2.5893  2.7985
 4461SOL    HW224843   1.795   3.728  13.360  0.2258  1.2835 -0.5984
 4462SOL     OW24844   3.718   1.120   4.625  0.3525  0.5789  0.3588
 4462SOL    HW124845   3.727   1.197   4.568  1.9478  0.4466  0.4417
 4462SOL    HW224846   3.692   1.165   4.705  0.6675  0.8866  0.2922
 4463SOL     OW24847   2.353   0.767  11.695  0.6288  0.4297  0.2112
 4463SOL    HW124848   2.404   0.686  11.689  1.0756  0.8250 -1.3288
 4463SOL    HW224849   2.343   0.783  11.789 -2.0227 -0.1496  0.0257
 4464SOL     OW24850   0.707   2.613   4.959 -0.6116  0.6632 -0.5180
 4464SOL    HW124851   0.685   2.631   5.051 -2.2848 -0.7216 -0.6540
 4464SOL    HW224852   0.782   2.672   4.945 -1.5877  1.6525 -1.5040
 4465SOL     OW24853   2.716   4.037   2.214  0.7688  0.3492 -0.0273
 4465SOL    HW124854   2.667   4.087   2.149 -1.6412  0.9929  2.2888
 4465SOL    HW224855   2.770   4.111   2.241 -1.0059  1.3491  0.7820
 4466SOL     OW24856   4.627   0.430  11.329 -0.3237  0.9755 -0.3263
 4466SOL    HW124857   4.690   0.415  11.400 -0.2060  2.5154 -0.0919
 4466SOL    HW224858   4.579   0.350  11.350 -1.5231  0.9258 -3.3141
 4467SOL     OW24859   0.769   1.319  17.079  0.8478 -0.0326  0.3920
 4467SOL    HW124860   0.842   1.313  17.018 -0.3715  3.7947 -1.4341
 4467SOL    HW224861   0.698   1.325  17.016  1.6842  1.5851 -0.3994
 4468SOL     OW24862   1.038   2.844   6.410  0.2713  0.6073  0.6503
 4468SOL    HW124863   1.090   2.779   6.363 -0.6162  1.2739 -1.2799
 4468SOL    HW224864   1.084   2.840   6.494  0.8460 -0.4870  0.2860
 4469SOL     OW24865   4.501   4.098   9.348 -0.1780  0.0668 -0.2540
 4469SOL    HW124866   4.524   4.100   9.441 -0.7521  0.7145 -0.1242
 4469SOL    HW224867   4.573   4.046   9.313  1.1493  0.6392  1.6668
 4470SOL     OW24868   0.650   4.516   7.126  0.7741  0.2551  0.0327
 4470SOL    HW124869   0.661   4.464   7.047 -1.5402 -0.9977  0.5475
 4470SOL    HW224870   0.631   4.604   7.092 -1.2255  0.3411  1.3744
 4471SOL     OW24871   2.388   1.106   6.444 -0.1695 -0.5002 -0.5893
 4471SOL    HW124872   2.451   1.034   6.435  1.9746  1.1741  1.2244
 4471SOL    HW224873   2.448   1.180   6.436 -1.7811  0.6765 -1.9236
 4472SOL     OW24874   3.454   3.992   7.473 -0.0060  0.0082  0.2280
 4472SOL    HW124875   3.384   4.041   7.430 -0.8955 -0.2947  1.3192
 4472SOL    HW224876   3.413   3.966   7.556  1.0794 -3.0845 -0.2219
 4473SOL     OW24877   4.521   2.833   4.334 -0.2910 -0.4429  0.6059
 4473SOL    HW124878   4.605   2.825   4.378  0.1456  1.2153  0.1035
 4473SOL    HW224879   4.555   2.886   4.262  1.0398 -0.8713  0.9175
 4474SOL     OW24880   1.575   3.805  17.399  0.0150 -0.4161  0.0332
 4474SOL    HW124881   1.582   3.845  17.312  3.2238 -3.3192 -1.0316
 4474SOL    HW224882   1.484   3.822  17.425 -0.3440 -0.8228 -0.9353
 4475SOL     OW24883   3.956   3.108   2.259 -0.4137 -0.0630 -0.0736
 4475SOL    HW124884   4.043   3.069   2.268 -0.4824 -0.1527  0.1935
 4475SOL    HW224885   3.978   3.186   2.207  1.2275  0.2994  1.1532
 4476SOL     OW24886   3.291   3.024  10.809  0.6662  0.0314  0.5374
 4476SOL    HW124887   3.362   3.086  10.792 -0.1231  1.2506  1.6292
 4476SOL    HW224888   3.295   2.952  10.746 -1.3077 -0.3997  0.8917
 4477SOL     OW24889   3.062   0.467   7.480 -0.2501 -0.0941  0.1328
 4477SOL    HW124890   3.000   0.417   7.534 -2.5945 -0.4899 -2.9340
 4477SOL    HW224891   3.018   0.472   7.395 -3.1782  1.7799  1.7671
 4478SOL     OW24892   4.395   1.161  15.680 -0.2419 -0.1132  0.1258
 4478SOL    HW124893   4.305   1.190  15.669  0.5506  1.8109 -1.2036
 4478SOL    HW224894   4.440   1.243  15.658  1.1233 -1.1250 -0.8772
 4479SOL     OW24895   4.322   0.500   3.117 -0.3147  0.0447 -0.3739
 4479SOL    HW124896   4.344   0.582   3.162  1.8574 -1.2245  0.8849
 4479SOL    HW224897   4.318   0.434   3.187 -0.3843 -0.4106 -0.8064
 4480SOL     OW24898   2.714   0.175  14.503  0.1058 -0.2748  0.1423
 4480SOL    HW124899   2.785   0.229  14.537  0.0662 -0.9651  1.2994
 4480SOL    HW224900   2.678   0.230  14.433  0.1459 -0.5816 -0.1164
 4481SOL     OW24901   3.898   3.323   3.900 -0.0630 -0.9656 -0.0679
 4481SOL    HW124902   3.803   3.313   3.914 -0.1514 -1.3464 -1.0090
 4481SOL    HW224903   3.905   3.400   3.843  1.8771 -2.3945 -1.7250
 4482SOL     OW24904   2.676   4.253   7.042  0.0179  0.1199  0.0277
 4482SOL    HW124905   2.730   4.193   7.092 -1.9392 -1.2414  0.5161
 4482SOL    HW224906   2.636   4.197   6.976  1.3410 -2.4445  1.4040
 4483SOL     OW24907   3.322   2.757   1.991  0.2402 -0.4819  0.0232
 4483SOL    HW124908   3.238   2.802   1.982 -0.1607 -0.7953  2.0563
 4483SOL    HW224909   3.355   2.769   1.902  0.7560  1.9540  0.5541
 4484SOL     OW24910   3.773   3.101   6.033 -0.3545 -0.1232 -0.2766
 4484SOL    HW124911   3.738   3.188   6.013 -0.2604 -0.4624 -1.9462
 4484SOL    HW224912   3.690   3.059   6.055 -0.7904  0.3807 -0.9633
 4485SOL     OW24913   1.180   2.452   9.170 -0.9037 -0.2146  0.1258
 4485SOL    HW124914   1.147   2.535   9.137  3.3234  0.9991 -1.0388
 4485SOL    HW224915   1.272   2.480   9.167 -0.6638 -1.0932 -0.7997
 4486SOL     OW24916   4.075   2.392  11.825 -0.1934  0.6990 -0.1301
 4486SOL    HW124917   3.986   2.393  11.791 -0.2609 -1.7775 -0.0476
 4486SOL    HW224918   4.087   2.487  11.825 -1.6564  0.9090  3.2025
 4487SOL     OW24919   0.683   2.258   2.570  0.2470 -0.6216  0.0691
 4487SOL    HW124920   0.734   2.233   2.494  0.1130  1.1306 -0.5997
 4487SOL    HW224921   0.604   2.274   2.518  0.1320  1.6353  0.9477
 4488SOL     OW24922   0.690   0.267  15.135 -0.3571 -0.1324  0.5320
 4488SOL    HW124923   0.731   0.210  15.201  0.5669 -1.2614 -1.0025
 4488SOL    HW224924   0.696   0.354  15.174  0.3994 -0.2257  0.6178
 4489SOL     OW24925   3.370   1.999   2.442  0.5008  0.3543 -0.2537
 4489SOL    HW124926   3.357   1.930   2.507  2.3132  2.2582  2.1079
 4489SOL    HW224927   3.285   2.001   2.398 -0.5640 -0.7436  1.7972
 4490SOL     OW24928   2.824   4.606   3.850 -0.0745 -0.0725 -0.0077
 4490SOL    HW124929   2.897   4.580   3.794 -0.3674 -1.0826  0.0847
 4490SOL    HW224930   2.857   4.561   3.927  0.6396 -1.3867 -1.0762
 4491SOL     OW24931   3.504   0.510   3.668  0.1977 -0.5142  0.2187
 4491SOL    HW124932   3.423   0.460   3.667 -0.6858  0.9124  1.0299
 4491SOL    HW224933   3.468   0.585   3.715  1.2188 -0.5493  1.0473
 4492SOL     OW24934   1.810   4.208   0.647  0.4919 -0.2008  0.3979
 4492SOL    HW124935   1.733   4.166   0.609  0.8342 -1.2994  0.9232
 4492SOL    HW224936   1.863   4.135   0.679  1.7836 -0.4181 -2.1452
 4493SOL     OW24937   3.391   3.869   3.137  0.4008 -0.1581 -0.7885
 4493SOL    HW124938   3.403   3.802   3.070  1.2974  0.1829 -0.9622
 4493SOL    HW224939   3.437   3.827   3.209 -0.9130 -0.9282 -0.3958
 4494SOL     OW24940   2.712   1.652   2.682 -0.3554  0.4463 -0.5303
 4494SOL    HW124941   2.626   1.611   2.672 -0.7187  1.4135 -1.3965
 4494SOL    HW224942   2.747   1.627   2.596  2.6801  2.2158  0.1893
 4495SOL     OW24943   3.198   4.581  16.529 -0.1533  0.7762 -0.5389
 4495SOL    HW124944   3.233   4.526  16.459 -0.6816 -2.5254  1.7896
 4495SOL    HW224945   3.196   4.506  16.589  2.1424  1.2980  0.1860
 4496SOL     OW24946   0.123   2.021  13.322  0.6025  0.1855 -0.6159
 4496SOL    HW124947   0.036   2.054  13.345 -1.0140 -1.6838 -3.9975
 4496SOL    HW224948   0.153   1.996  13.409  0.5362 -0.1935 -0.7005
 4497SOL     OW24949   4.065   2.021   3.914 -0.0425  0.0334 -0.1227
 4497SOL    HW124950   4.105   1.954   3.968  0.6180  0.4046 -0.1476
 4497SOL    HW224951   4.025   1.960   3.853 -0.3798  1.5806 -1.4704
 4498SOL     OW24952   4.600   2.414   7.831 -0.5301  0.5652  1.2905
 4498SOL    HW124953   4.573   2.500   7.799  0.4540 -0.0726 -1.1829
 4498SOL    HW224954   4.659   2.423   7.906  1.9639  0.2262 -0.6614
 4499SOL     OW24955   1.970   0.299  17.660 -0.8588 -0.2744  0.2537
 4499SOL    HW124956   2.024   0.367   0.005  1.0973 -1.7600  0.1495
 4499SOL    HW224957   2.031   0.266  17.594 -0.8872  0.0659  0.0574
 4500SOL     OW24958   3.531   0.554   2.423 -0.0787  0.4235 -0.4688
 4500SOL    HW124959   3.486   0.638   2.417 -0.2664  0.3113 -0.6236
 4500SOL    HW224960   3.503   0.511   2.342 -0.1525  1.6843 -1.1119
 4501SOL     OW24961   0.035   4.218   3.904  0.1695  0.1493 -0.8117
 4501SOL    HW124962   0.071   4.238   3.990 -3.2013 -2.1035  1.1072
 4501SOL    HW224963   0.119   4.229   3.859  0.3819 -0.3471 -0.5380
 4502SOL     OW24964   1.701   3.059   4.449  0.0089  0.5614  0.1500
 4502SOL    HW124965   1.686   2.969   4.476  1.1986  0.3927  0.2283
 4502SOL    HW224966   1.697   3.103   4.534  0.8292 -0.0322  0.4881
 4503SOL     OW24967   1.198   2.145   5.131  0.1657  0.0492  0.8562
 4503SOL    HW124968   1.126   2.106   5.082  0.6520  2.0683 -1.4356
 4503SOL    HW224969   1.158   2.232   5.141  0.3151  0.1589  0.4915
 4504SOL     OW24970   1.002   1.000   4.263  0.2237 -0.6912 -0.0463
 4504SOL    HW124971   0.984   0.995   4.357  1.0175 -1.5818  0.0631
 4504SOL    HW224972   1.096   1.016   4.267 -0.1013  1.1016  0.0368
 4505SOL     OW24973   0.553   2.411   7.830 -0.3624 -0.2477 -0.2973
 4505SOL    HW124974   0.572   2.329   7.876  1.3203  0.6451  0.5993
 4505SOL    HW224975   0.557   2.474   7.902 -1.4438  2.3149 -2.4931
 4506SOL     OW24976   3.445   4.521   1.650 -0.3132  0.0456  0.2598
 4506SOL    HW124977   3.463   4.515   1.744  1.5136  0.6615 -0.0566
 4506SOL    HW224978   3.423   4.434   1.618 -1.0560  0.0183  0.8333
 4507SOL     OW24979   2.101   2.842   3.323  0.2688  0.0788  0.0119
 4507SOL    HW124980   2.027   2.842   3.384 -0.3539  1.4074 -0.7477
 4507SOL    HW224981   2.062   2.878   3.243 -1.7513 -0.3077  0.8110
 4508SOL     OW24982   4.215   1.235   5.805 -0.4732  0.6340  0.0326
 4508SOL    HW124983   4.185   1.195   5.723  0.9668 -0.1438 -0.1138
 4508SOL    HW224984   4.300   1.276   5.786 -0.6616  0.1087 -2.0142
 4509SOL     OW24985   2.128   1.021   7.498 -0.1425 -0.1989  0.3512
 4509SOL    HW124986   2.223   1.011   7.497 -0.4459 -3.1101  1.1368
 4509SOL    HW224987   2.113   1.053   7.409  0.2451  2.3082  1.2028
 4510SOL     OW24988   1.312   0.919   3.104  0.0394 -0.0208  0.0397
 4510SOL    HW124989   1.219   0.923   3.082 -0.3072  1.1004  1.7053
 4510SOL    HW224990   1.330   1.012   3.112 -1.2565  0.2779 -0.5250
 4511SOL     OW24991   3.449   2.139   1.226  0.5069  0.1082 -0.5662
 4511SOL    HW124992   3.399   2.219   1.242 -0.9616 -1.1220  1.0253
 4511SOL    HW224993   3.391   2.085   1.172  2.0406 -0.8435 -1.2701
 4512SOL     OW24994   2.732   2.736   1.734 -0.2038  0.2056  0.0299
 4512SOL    HW124995   2.769   2.713   1.819 -1.2375  0.0185  0.4285
 4512SOL    HW224996   2.661   2.799   1.745  0.8375  1.2556  0.8279
 4513SOL     OW24997   4.472   4.464   7.630 -0.6840 -0.4618  0.1121
 4513SOL    HW124998   4.471   4.531   7.698 -0.5973  1.5434 -1.8723
 4513SOL    HW224999   4.398   4.495   7.577  0.4488  1.7903 -0.1292
 4514SOL     OW25000   2.931   2.068  13.597 -0.4110  0.0837  0.0529
 4514SOL    HW125001   2.889   2.006  13.656 -2.0956  1.1749  0.0043
 4514SOL    HW225002   2.897   2.153  13.625  1.5067  0.5408  1.0004
 4515SOL     OW25003   2.737   3.101   7.047  0.3980  0.1416 -0.5750
 4515SOL    HW125004   2.733   3.158   7.124  2.5090  2.4472 -2.1893
 4515SOL    HW225005   2.756   3.171   6.985  0.5928 -0.9088 -1.6939
 4516SOL     OW25006   0.656   0.894  14.590  0.2726 -0.3405  0.5445
 4516SOL    HW125007   0.722   0.858  14.648  0.8319  0.1154  0.1863
 4516SOL    HW225008   0.670   0.860  14.502 -1.9373  1.4984 -0.5274
 4517SOL     OW25009   3.927   4.302   6.258 -1.0275 -0.3394  0.4585
 4517SOL    HW125010   3.891   4.301   6.347 -0.5959 -0.3892  0.6355
 4517SOL    HW225011   4.018   4.307   6.289 -0.6188 -2.7682 -0.4108
 4518SOL     OW25012   0.655   2.919   1.007 -0.4267 -0.1824  0.1912
 4518SOL    HW125013   0.643   2.993   1.066  3.7659  0.1003  0.6880
 4518SOL    HW225014   0.631   2.955   0.922 -0.8367 -4.0825 -1.3449
 4519SOL     OW25015   1.325   1.137   9.069  0.0148 -0.4165  0.4093
 4519SOL    HW125016   1.387   1.119   9.140 -1.2660 -1.1129  1.3564
 4519SOL    HW225017   1.339   1.232   9.061  1.7683 -0.7565 -0.5253
 4520SOL     OW25018   2.554   4.065   6.858 -0.2486  0.0348  0.1382
 4520SOL    HW125019   2.514   4.113   6.785 -1.2357  1.1559  1.4113
 4520SOL    HW225020   2.639   4.057   6.815 -0.0446 -1.4263  0.8276
 4521SOL     OW25021   4.077   1.902   7.640 -0.3503  0.0637 -0.1009
 4521SOL    HW125022   4.110   1.895   7.729 -3.1340  0.0474  0.9321
 4521SOL    HW225023   4.159   1.899   7.590  0.1048  1.7860  0.5301
 4522SOL     OW25024   4.295   4.433   4.274  0.0390  0.2753  0.7952
 4522SOL    HW125025   4.343   4.368   4.221  1.1749  1.5149  0.3212
 4522SOL    HW225026   4.355   4.504   4.293 -0.8668  0.5230  2.6610
 4523SOL     OW25027   4.253   3.653  16.429 -0.3048  0.0236 -0.4689
 4523SOL    HW125028   4.271   3.585  16.494  1.1523  0.0244 -0.8881
 4523SOL    HW225029   4.226   3.606  16.350 -0.6578  2.0561 -1.5774
 4524SOL     OW25030   1.483   4.297   5.472 -0.0791  0.5339 -0.0589
 4524SOL    HW125031   1.518   4.311   5.560 -1.1263 -0.2358  0.4777
 4524SOL    HW225032   1.539   4.225   5.444 -0.4867  0.2163 -0.0620
 4525SOL     OW25033   0.051   1.917  10.969 -0.7452 -0.0340 -0.0394
 4525SOL    HW125034   0.133   1.867  10.977 -0.8054  0.0186  0.9364
 4525SOL    HW225035   0.075   1.982  10.904 -0.9360  0.5552  0.4795
 4526SOL     OW25036   3.236   2.390  13.161  0.2004 -0.0085 -0.1082
 4526SOL    HW125037   3.327   2.419  13.172 -0.4503  1.6215  0.8515
 4526SOL    HW225038   3.198   2.475  13.138  0.3349 -0.3672 -1.7114
 4527SOL     OW25039   2.866   4.636   6.701  0.4324 -0.6503 -0.0072
 4527SOL    HW125040   2.827   4.565   6.752  0.3745 -0.7803 -0.2317
 4527SOL    HW225041   2.901   4.593   6.623  0.1934 -0.2563 -0.3296
 4528SOL     OW25042   2.414   3.505   6.067  0.6792  0.8092 -0.0065
 4528SOL    HW125043   2.367   3.578   6.025  1.2509 -0.8617 -3.5404
 4528SOL    HW225044   2.337   3.452   6.083  0.8947 -0.1104 -1.9918
 4529SOL     OW25045   2.273   2.546   8.915 -0.0990 -0.5017 -0.4282
 4529SOL    HW125046   2.204   2.537   8.849 -0.7145  1.2928 -0.0437
 4529SOL    HW225047   2.228   2.567   8.997 -0.5783  1.2501 -1.1400
 4530SOL     OW25048   0.464   1.384   4.865 -0.6222  0.3845 -0.0826
 4530SOL    HW125049   0.442   1.349   4.951 -0.2639  0.4563  0.0393
 4530SOL    HW225050   0.549   1.421   4.887 -0.5051 -0.5860  1.1225
 4531SOL     OW25051   0.538   0.116   6.309 -0.3254  0.2455 -0.5862
 4531SOL    HW125052   0.573   0.172   6.239 -2.6486 -0.0015 -1.9412
 4531SOL    HW225053   0.456   0.158   6.333  0.1234 -1.1287  3.2900
 4532SOL     OW25054   1.459   1.464   7.727 -0.2037 -0.5949  0.6986
 4532SOL    HW125055   1.386   1.497   7.781  0.4639  0.7888  0.7695
 4532SOL    HW225056   1.422   1.379   7.706 -0.0161 -0.5427  0.1632
 4533SOL     OW25057   4.291   2.343  12.033  0.7279 -0.0403 -0.1681
 4533SOL    HW125058   4.345   2.422  12.032  0.6834 -0.0059  0.1093
 4533SOL    HW225059   4.216   2.381  11.987 -0.8779 -3.1425 -0.1519
 4534SOL     OW25060   1.767   3.519  10.155  0.7969  0.0298  0.2611
 4534SOL    HW125061   1.677   3.550  10.154  0.7807 -0.0104  0.9489
 4534SOL    HW225062   1.765   3.458  10.081 -2.5589 -1.3887  1.5432
 4535SOL     OW25063   4.331   3.115  13.698  0.0579  0.3255  0.5396
 4535SOL    HW125064   4.386   3.049  13.656 -0.2127  0.3057  0.2213
 4535SOL    HW225065   4.321   3.184  13.632 -0.0842  0.9443  1.2039
 4536SOL     OW25066   2.048   1.524  14.023  0.1959  0.0998 -0.3909
 4536SOL    HW125067   2.019   1.616  14.022  1.0962  0.3935  0.6772
 4536SOL    HW225068   1.981   1.486  14.080  0.1026  2.6056  1.1948
 4537SOL     OW25069   3.370   1.434   7.491 -0.0237 -0.0229 -0.0848
 4537SOL    HW125070   3.431   1.507   7.506  1.7146 -1.8036  1.4507
 4537SOL    HW225071   3.433   1.370   7.460  0.1946  0.0490  0.2179
 4538SOL     OW25072   3.162   2.370   8.327 -0.1098 -0.2664 -0.4035
 4538SOL    HW125073   3.071   2.389   8.305 -0.0383  0.3297 -0.1927
 4538SOL    HW225074   3.181   2.300   8.264 -1.1532 -1.0469  0.1426
 4539SOL     OW25075   0.293   2.018   0.041 -0.7645 -0.3798 -0.8739
 4539SOL    HW125076   0.249   2.099   0.066 -1.3183 -1.0006  0.1407
 4539SOL    HW225077   0.220   1.956   0.042  0.0486 -1.3592 -1.2378
 4540SOL     OW25078   3.159   1.942   1.868  0.6391 -0.6456  0.2493
 4540SOL    HW125079   3.231   1.929   1.930 -0.6256  1.1782  2.1067
 4540SOL    HW225080   3.125   1.853   1.860  0.1184 -0.6092  2.2025
 4541SOL     OW25081   0.825   4.505   8.272  0.7402 -0.2382  0.1128
 4541SOL    HW125082   0.798   4.466   8.189  1.6365 -1.4693  0.4008
 4541SOL    HW225083   0.917   4.520   8.250  1.3376 -2.0218  1.4396
 4542SOL     OW25084   1.514   4.505  13.577 -0.0999 -0.5582  0.2852
 4542SOL    HW125085   1.585   4.449  13.607  2.0410  2.8718  1.6679
 4542SOL    HW225086   1.557   4.587  13.551 -2.6918 -0.4550 -3.6139
 4543SOL     OW25087   3.626   3.239   3.954 -0.6813  0.1787  0.3380
 4543SOL    HW125088   3.542   3.241   3.908 -0.0805  3.6811 -0.6193
 4543SOL    HW225089   3.610   3.245   4.048  0.4277 -1.5896  0.6315
 4544SOL     OW25090   4.173   3.086  14.328  0.4269  0.0943  0.7854
 4544SOL    HW125091   4.126   3.005  14.345 -0.1019  0.0479 -0.8460
 4544SOL    HW225092   4.261   3.053  14.346 -0.6100 -2.0522  1.8311
 4545SOL     OW25093   0.481   4.451   7.588 -0.8297 -0.7808 -0.6547
 4545SOL    HW125094   0.561   4.490   7.554 -0.7362 -0.2147  0.2250
 4545SOL    HW225095   0.456   4.395   7.514  0.8428 -1.1125 -0.9510
 4546SOL     OW25096   1.757   3.536  11.801 -0.1976 -0.0844  0.6330
 4546SOL    HW125097   1.836   3.587  11.782 -0.6877 -0.1570 -1.5423
 4546SOL    HW225098   1.762   3.540  11.897  0.1073  2.1964  0.5410
 4547SOL     OW25099   1.904   2.081   6.944  0.0568 -0.5582 -0.2352
 4547SOL    HW125100   1.860   2.157   6.908  0.3970 -1.1951 -1.9906
 4547SOL    HW225101   1.957   2.049   6.871 -0.4771 -1.0202 -0.4238
 4548SOL     OW25102   4.273   3.378   7.719 -0.6006 -0.4508  0.1484
 4548SOL    HW125103   4.214   3.377   7.644  2.2048  0.7380 -2.0491
 4548SOL    HW225104   4.347   3.425   7.680  0.8198 -1.7750  1.2097
 4549SOL     OW25105   2.815   1.216   1.615  0.3927  0.6087 -0.3319
 4549SOL    HW125106   2.852   1.202   1.703 -0.7340  2.4712  0.4214
 4549SOL    HW225107   2.846   1.131   1.582  1.7025  0.6110  0.8723
 4550SOL     OW25108   0.922   1.480   5.798 -0.3484 -0.5088  0.3004
 4550SOL    HW125109   0.989   1.498   5.732  0.6510 -0.4439  1.3211
 4550SOL    HW225110   0.874   1.407   5.761  1.3506 -1.1803 -0.5759
 4551SOL     OW25111   3.847   2.935   1.274 -1.2279 -0.4555  0.5034
 4551SOL    HW125112   3.901   2.967   1.346 -3.4661  1.0580  1.5092
 4551SOL    HW225113   3.765   2.927   1.323 -1.4214 -2.5581 -0.1697
 4552SOL     OW25114   4.225   1.750   9.839  0.5402 -0.6330 -0.6982
 4552SOL    HW125115   4.147   1.730   9.788  1.9599 -0.7750 -2.8302
 4552SOL    HW225116   4.288   1.790   9.779  0.5690  0.5841  0.1287
 4553SOL     OW25117   3.854   3.064   8.488 -0.4385 -1.0072  0.3330
 4553SOL    HW125118   3.932   3.071   8.544 -1.0976  2.0391  0.8964
 4553SOL    HW225119   3.800   3.131   8.530 -0.3867  0.3564 -1.7633
 4554SOL     OW25120   1.672   0.882  16.754 -0.5895  0.3427 -0.3528
 4554SOL    HW125121   1.686   0.970  16.789  3.0079  0.4964 -2.2032
 4554SOL    HW225122   1.727   0.889  16.676 -0.7944 -3.2772 -0.8022
 4555SOL     OW25123   0.619   2.829   2.999 -0.3649  0.2618  0.1195
 4555SOL    HW125124   0.588   2.747   3.036  2.5870 -0.5219  0.8259
 4555SOL    HW225125   0.554   2.899   3.004 -0.1615  0.3117  1.8102
 4556SOL     OW25126   4.315   2.848   3.733  0.5973 -0.0366 -0.5156
 4556SOL    HW125127   4.281   2.887   3.814  1.1161  2.0221 -1.2899
 4556SOL    HW225128   4.232   2.850   3.686 -0.7632  0.1391  1.8973
 4557SOL     OW25129   2.491   1.712   7.255 -0.0561 -0.1704 -0.1229
 4557SOL    HW125130   2.432   1.640   7.236 -2.9664  2.1898 -0.0657
 4557SOL    HW225131   2.428   1.784   7.255 -1.6247 -1.5627 -1.2123
 4558SOL     OW25132   0.251   3.526   5.768 -0.1553 -0.4536 -0.3824
 4558SOL    HW125133   0.241   3.614   5.804 -1.7116 -1.4254  1.5877
 4558SOL    HW225134   0.267   3.474   5.847  1.7385 -0.2066 -0.5921
 4559SOL     OW25135   1.683   2.304   5.420 -0.4488  0.1928  0.4181
 4559SOL    HW125136   1.735   2.246   5.364 -4.0369 -1.4888 -1.1653
 4559SOL    HW225137   1.746   2.310   5.491  0.0642 -0.9164  0.0735
 4560SOL     OW25138   2.113   1.376   1.833  0.0805  0.3437 -0.0604
 4560SOL    HW125139   2.196   1.406   1.797  0.5311  0.5924  1.1844
 4560SOL    HW225140   2.106   1.427   1.913  1.4768  0.3567  0.0571
 4561SOL     OW25141   1.102   2.627   8.819 -0.2487 -0.2603  0.0589
 4561SOL    HW125142   1.012   2.619   8.849 -0.4206  1.7424  0.0337
 4561SOL    HW225143   1.091   2.701   8.759 -0.6108  1.4029  2.1762
 4562SOL     OW25144   2.492   3.470   4.671  0.0028  0.6199 -0.2400
 4562SOL    HW125145   2.521   3.444   4.584  0.0004  1.6647 -0.5591
 4562SOL    HW225146   2.574   3.505   4.706 -0.2928 -0.9529  2.0539
 4563SOL     OW25147   4.206   1.680   5.743  0.4404 -0.4377 -0.0059
 4563SOL    HW125148   4.141   1.726   5.689  0.6539 -0.0470  0.0663
 4563SOL    HW225149   4.288   1.709   5.702 -0.0232  0.0673 -0.5775
 4564SOL     OW25150   2.957   1.974   7.542 -0.3139 -0.9162 -0.6775
 4564SOL    HW125151   2.957   1.987   7.447  1.0287  0.4944 -0.4900
 4564SOL    HW225152   2.973   2.066   7.562  1.2866 -1.6837  1.5280
 4565SOL     OW25153   1.203   2.576   6.073  0.3242 -0.2361  0.6773
 4565SOL    HW125154   1.277   2.622   6.034  0.1656 -0.4597  0.1075
 4565SOL    HW225155   1.130   2.637   6.070 -0.8500 -1.6674 -0.1359
 4566SOL     OW25156   4.644   0.524   4.804 -0.0647  0.5267 -0.3514
 4566SOL    HW125157   4.685   0.506   4.888  0.0318  1.1847 -0.2639
 4566SOL    HW225158   4.654   0.617   4.786  0.1378  0.6077  0.2106
 4567SOL     OW25159   4.177   3.048   0.146  0.2281 -0.2562  0.1564
 4567SOL    HW125160   4.145   3.137   0.133  0.5072 -0.1817 -0.0198
 4567SOL    HW225161   4.165   3.047   0.241 -1.5612  1.9198 -0.0751
 4568SOL     OW25162   2.570   2.270   3.198  0.0866  0.0076 -0.0471
 4568SOL    HW125163   2.503   2.338   3.189 -2.0423 -1.7511  2.4549
 4568SOL    HW225164   2.609   2.297   3.282 -0.6099  0.6407  0.0754
 4569SOL     OW25165   0.637   0.031  13.476  0.2080  0.2703  0.2878
 4569SOL    HW125166   0.720   0.006  13.436 -0.6700 -1.3857 -0.4831
 4569SOL    HW225167   0.669   0.028  13.567 -1.0430  0.4005  0.7262
 4570SOL     OW25168   1.623   3.506   5.850 -0.5058  0.7430 -0.2644
 4570SOL    HW125169   1.594   3.416   5.861  0.7402  0.6265  2.0211
 4570SOL    HW225170   1.620   3.520   5.755  0.7566 -2.2538 -0.7322
 4571SOL     OW25171   1.933   2.281   4.486 -0.1856  0.0713 -0.4934
 4571SOL    HW125172   1.986   2.350   4.526  0.5931 -1.0846  0.4747
 4571SOL    HW225173   1.979   2.200   4.510  0.3552  0.9744  1.5444
 4572SOL     OW25174   0.602   1.617  15.679 -0.2144  0.1965 -0.0039
 4572SOL    HW125175   0.650   1.682  15.731 -1.2021 -0.2589  1.4867
 4572SOL    HW225176   0.550   1.670  15.619  2.4398  2.4491 -0.3067
 4573SOL     OW25177   2.562   0.570   1.466  0.1712  0.3189 -0.4408
 4573SOL    HW125178   2.627   0.630   1.428 -1.0721  0.0328 -3.0163
 4573SOL    HW225179   2.513   0.638   1.513  0.1859  0.2272 -0.2947
 4574SOL     OW25180   0.038   4.429  12.097  0.9589 -0.1615 -0.3672
 4574SOL    HW125181   0.028   4.417  12.003 -1.5746  0.8453 -0.2255
 4574SOL    HW225182   0.025   4.338  12.126  0.3730  0.0156 -0.0582
 4575SOL     OW25183   2.343   2.468  14.454  0.5138 -0.4820 -0.3279
 4575SOL    HW125184   2.387   2.394  14.411 -1.6423 -0.6311 -2.3102
 4575SOL    HW225185   2.358   2.464  14.548 -0.0529  0.5649 -0.1984
 4576SOL     OW25186   1.186   0.024   1.599 -0.1205 -0.0507  0.3113
 4576SOL    HW125187   1.148   4.701   1.673 -1.4620 -0.1738 -0.4517
 4576SOL    HW225188   1.132   4.715   1.526  1.1688 -2.0350  0.2196
 4577SOL     OW25189   0.945   4.243   6.534  0.1634  0.2184 -0.1824
 4577SOL    HW125190   0.893   4.297   6.475 -0.5667 -0.0806  0.1997
 4577SOL    HW225191   0.875   4.214   6.591 -0.6809  2.4708 -0.0686
 4578SOL     OW25192   4.237   2.234   8.339  0.0049  0.7437 -0.0866
 4578SOL    HW125193   4.317   2.183   8.351 -1.0886 -1.3322 -1.4853
 4578SOL    HW225194   4.260   2.303   8.277  0.1894  0.6363 -0.1364
 4579SOL     OW25195   0.501   3.241   3.285 -0.0652 -0.5657  0.1495
 4579SOL    HW125196   0.518   3.317   3.341 -1.1575 -2.5219  3.1536
 4579SOL    HW225197   0.592   3.217   3.268  0.5852  1.8684  0.2069
 4580SOL     OW25198   2.844   1.859   6.345 -0.3002  0.4285  0.4750
 4580SOL    HW125199   2.873   1.775   6.380 -1.0369 -1.1108 -2.5905
 4580SOL    HW225200   2.750   1.842   6.344 -0.6562  2.5075 -0.6008
 4581SOL     OW25201   1.373   3.708   5.275  0.1782 -0.0933  0.5407
 4581SOL    HW125202   1.329   3.628   5.249  0.9496 -0.8697  1.6215
 4581SOL    HW225203   1.347   3.726   5.365 -0.2834 -0.6199  0.5065
 4582SOL     OW25204   2.399   1.057   8.804 -0.2634  0.0269 -0.3053
 4582SOL    HW125205   2.481   1.006   8.811  0.2720  0.8090 -0.9136
 4582SOL    HW225206   2.342   1.007   8.864 -0.3404 -0.2036 -0.5715
 4583SOL     OW25207   2.867   2.731   2.424  0.6898 -0.4462  0.5533
 4583SOL    HW125208   2.845   2.688   2.341  1.1007 -1.4684  0.9814
 4583SOL    HW225209   2.918   2.801   2.384  2.0081 -1.7446 -0.0237
 4584SOL     OW25210   4.480   4.565   4.517 -0.1062  0.2732  0.1336
 4584SOL    HW125211   4.432   4.647   4.524 -0.3529  0.0788  0.6714
 4584SOL    HW225212   4.408   4.503   4.523  1.7498 -2.0127 -0.9517
 4585SOL     OW25213   2.446   0.053   4.339  0.0380  0.5038  0.1076
 4585SOL    HW125214   2.442   0.130   4.396 -2.9379  0.4787 -0.0273
 4585SOL    HW225215   2.427   0.098   4.257  0.2105  0.7230  0.1906
 4586SOL     OW25216   0.602   1.658   8.217  0.0112 -0.5329 -0.1746
 4586SOL    HW125217   0.533   1.606   8.175  1.7634 -2.5160 -0.6264
 4586SOL    HW225218   0.655   1.590   8.260  0.4169  0.5469  1.0180
 4587SOL     OW25219   1.995   0.452  15.422  0.0162 -0.0208  0.2478
 4587SOL    HW125220   1.951   0.376  15.385  1.1554 -0.8224  0.5729
 4587SOL    HW225221   2.004   0.514  15.349 -0.4423  1.6879  1.6364
 4588SOL     OW25222   0.211   0.493   7.566 -1.1515  0.0623  0.3368
 4588SOL    HW125223   0.151   0.510   7.494 -0.6265 -0.8844 -0.3204
 4588SOL    HW225224   0.297   0.471   7.531 -1.8038 -0.8594 -0.7003
 4589SOL     OW25225   1.931   2.688   4.054 -0.2065 -0.7788  0.5085
 4589SOL    HW125226   1.926   2.620   4.121  0.1748 -0.0755  1.2467
 4589SOL    HW225227   1.857   2.671   3.995 -1.1849 -1.0391  1.8271
 4590SOL     OW25228   3.430   2.374   6.027 -0.4631 -0.0011 -0.3944
 4590SOL    HW125229   3.397   2.403   6.111  0.6341  0.7171 -0.2192
 4590SOL    HW225230   3.484   2.298   6.052 -1.7385 -0.4792  0.9015
 4591SOL     OW25231   1.886   3.985   6.933 -0.0643 -0.1426 -0.4646
 4591SOL    HW125232   1.853   4.061   6.884  0.0723 -0.5557 -1.1841
 4591SOL    HW225233   1.855   4.009   7.021  0.1407  1.1270 -0.7428
 4592SOL     OW25234   0.121   3.123   9.993 -0.0317 -0.5767  0.0695
 4592SOL    HW125235   0.086   3.047  10.040 -0.2810 -0.2690  0.3848
 4592SOL    HW225236   0.181   3.085   9.929 -0.2458  2.0347 -1.6949
 4593SOL     OW25237   4.448   0.448   9.875 -0.6927 -0.3001  0.3698
 4593SOL    HW125238   4.541   0.428   9.883 -0.7071 -1.5936 -2.7436
 4593SOL    HW225239   4.423   0.360   9.848 -0.2941 -0.4703  0.5500
 4594SOL     OW25240   1.760   2.036   2.985  0.1955  0.5024 -0.7141
 4594SOL    HW125241   1.768   2.073   2.897  1.0817  1.9255 -0.0333
 4594SOL    HW225242   1.800   1.950   2.974 -1.1681 -0.0443 -1.4108
 4595SOL     OW25243   1.060   3.993   1.211  0.2650 -0.3049  0.5433
 4595SOL    HW125244   1.074   4.036   1.126  0.2587  0.1061  0.7465
 4595SOL    HW225245   1.141   3.942   1.211  0.4165 -0.0676 -0.1502
 4596SOL     OW25246   2.266   3.352   3.192 -0.3454  0.0856 -0.1421
 4596SOL    HW125247   2.312   3.268   3.187 -1.7131 -0.6169 -0.7367
 4596SOL    HW225248   2.272   3.387   3.103 -1.1802  0.6484  0.0207
 4597SOL     OW25249   2.146   1.615   6.348 -0.1346 -0.4530 -0.0888
 4597SOL    HW125250   2.240   1.601   6.345  0.1092  0.9089  1.3828
 4597SOL    HW225251   2.138   1.705   6.380 -2.1050  0.5703 -3.5227
 4598SOL     OW25252   3.705   1.596   6.403 -0.2297 -0.0686 -0.0078
 4598SOL    HW125253   3.792   1.600   6.363 -0.7331 -2.1634 -1.3011
 4598SOL    HW225254   3.732   1.589   6.495  0.0449 -0.8660 -0.1467
 4599SOL     OW25255   3.557   4.619   7.693 -0.7419  0.1112  0.5394
 4599SOL    HW125256   3.631   4.590   7.746  0.8824  0.6853 -1.4152
 4599SOL    HW225257   3.482   4.620   7.754  0.7055 -1.1073  2.3517
 4600SOL     OW25258   2.650   0.590   4.863  0.0339 -0.3570 -0.0691
 4600SOL    HW125259   2.592   0.553   4.930 -0.7661 -1.7768 -1.5220
 4600SOL    HW225260   2.719   0.625   4.918 -0.5110  0.5851  0.0078
 4601SOL     OW25261   3.212   1.560  14.576  0.3756  0.2289 -0.6559
 4601SOL    HW125262   3.219   1.583  14.483 -1.8826  0.3734 -0.7923
 4601SOL    HW225263   3.156   1.635  14.598  2.3266  0.6636  2.6938
 4602SOL     OW25264   2.588   4.642  15.011 -0.1275  0.7853  0.2794
 4602SOL    HW125265   2.667   4.671  14.966  0.4530  1.7582  1.8931
 4602SOL    HW225266   2.637   4.602  15.083  1.8996  0.1591 -1.4755
 4603SOL     OW25267   0.159   2.063  15.545 -0.1653  1.1243  0.1456
 4603SOL    HW125268   0.243   2.106  15.563 -0.1698  1.1811  0.0303
 4603SOL    HW225269   0.118   2.134  15.496  0.1655  0.0231 -1.6922
 4604SOL     OW25270   4.392   2.122  13.438 -0.4368 -0.1360  0.6183
 4604SOL    HW125271   4.338   2.159  13.368  0.7546 -0.9255 -0.7175
 4604SOL    HW225272   4.346   2.038  13.444 -1.5872  0.3224 -1.6833
 4605SOL     OW25273   0.025   1.727   8.734  0.1925 -0.5422 -0.9115
 4605SOL    HW125274   0.083   1.652   8.748  0.4137 -0.3461 -0.7766
 4605SOL    HW225275   0.049   1.789   8.803  0.4862 -2.3478  0.5957
 4606SOL     OW25276   2.436   1.705   4.045 -0.2922 -0.0250  0.2886
 4606SOL    HW125277   2.481   1.683   4.127 -0.4127 -2.0134 -0.1824
 4606SOL    HW225278   2.374   1.631   4.047  1.7012 -1.7903 -2.4183
 4607SOL     OW25279   3.768   4.314   6.993 -0.0572 -0.5195 -0.4335
 4607SOL    HW125280   3.857   4.330   7.023  0.1481 -1.1187 -0.7141
 4607SOL    HW225281   3.713   4.365   7.052  0.0829 -1.2268  0.3036
 4608SOL     OW25282   2.390   2.951  15.721 -0.2247 -0.3528  0.3619
 4608SOL    HW125283   2.392   2.898  15.800 -1.1461  0.3150  0.8319
 4608SOL    HW225284   2.454   3.018  15.746  0.6196 -0.7957 -0.5953
 4609SOL     OW25285   2.507   3.381   5.253 -0.0581  0.0365  0.0846
 4609SOL    HW125286   2.563   3.419   5.185 -0.1343  0.3563  0.2003
 4609SOL    HW225287   2.465   3.304   5.215 -2.0262  1.0950  0.1397
 4610SOL     OW25288   1.662   3.998   3.641 -0.0007 -0.3626  0.0173
 4610SOL    HW125289   1.686   4.055   3.714  1.3124  1.0006 -1.4920
 4610SOL    HW225290   1.696   4.049   3.568 -1.7475 -2.4240 -2.2288
 4611SOL     OW25291   0.747   3.364   5.322  0.1372  0.6742 -0.4379
 4611SOL    HW125292   0.717   3.455   5.315 -1.5841  0.2227  1.0370
 4611SOL    HW225293   0.843   3.371   5.323  0.0960  1.1729  1.3020
 4612SOL     OW25294   0.275   3.361   3.692  0.6375  0.1001  0.4267
 4612SOL    HW125295   0.293   3.455   3.689 -1.1214  0.4207  0.4228
 4612SOL    HW225296   0.364   3.332   3.712 -0.1727 -1.1453  2.2281
 4613SOL     OW25297   1.523   4.702  15.271 -0.7483  0.1091 -0.4908
 4613SOL    HW125298   1.617   4.685  15.260 -0.3891  1.4304  0.5774
 4613SOL    HW225299   1.491   4.696  15.181  1.3298 -1.3373 -1.1548
 4614SOL     OW25300   2.557   3.020   5.889  0.1604  0.4060  0.3394
 4614SOL    HW125301   2.483   3.080   5.905  0.3316  0.2170  1.8634
 4614SOL    HW225302   2.507   2.940   5.872 -0.0190  0.2253  1.6940
 4615SOL     OW25303   3.881   0.949   4.794 -0.3575  0.2923 -0.3214
 4615SOL    HW125304   3.839   0.957   4.879  0.0887 -0.0083 -0.0715
 4615SOL    HW225305   3.824   0.996   4.734 -2.7704 -2.3610 -0.1183
 4616SOL     OW25306   1.893   0.594  12.087 -0.8016 -0.5227  0.0497
 4616SOL    HW125307   1.910   0.597  12.182 -1.6563  0.7258  0.1574
 4616SOL    HW225308   1.978   0.559  12.060  0.1701  0.7231  1.4900
 4617SOL     OW25309   2.155   3.066   4.704 -0.2582 -0.1149 -0.1781
 4617SOL    HW125310   2.208   3.088   4.627  1.8046 -1.2918  0.8948
 4617SOL    HW225311   2.099   2.997   4.668 -1.5356  1.8342 -1.8823
 4618SOL     OW25312   0.929   3.793   2.134  0.4378 -0.2688 -0.4709
 4618SOL    HW125313   0.834   3.796   2.150  0.6461 -0.5943  0.7643
 4618SOL    HW225314   0.961   3.853   2.201 -1.2744  0.3206 -0.1846
 4619SOL     OW25315   0.364   0.504   2.028  0.3176  0.4253  0.0661
 4619SOL    HW125316   0.372   0.418   2.070  0.9314  1.1645  1.4395
 4619SOL    HW225317   0.443   0.506   1.973 -0.6096  1.8517 -1.2087
 4620SOL     OW25318   2.908   1.427   1.356 -0.5625  0.0896 -0.4849
 4620SOL    HW125319   2.813   1.419   1.357 -0.4266 -1.5720 -0.8985
 4620SOL    HW225320   2.928   1.469   1.440 -1.2554  0.3645 -0.4586
 4621SOL     OW25321   4.347   3.082   6.860 -0.0637  0.7323  0.3147
 4621SOL    HW125322   4.342   2.988   6.841 -0.2325  0.6928  0.5538
 4621SOL    HW225323   4.298   3.116   6.785  0.5509  0.1058 -0.3727
 4622SOL     OW25324   2.745   1.562   1.091  0.0664  1.1851 -0.4199
 4622SOL    HW125325   2.728   1.622   1.018  0.6777 -0.1137 -1.6157
 4622SOL    HW225326   2.668   1.574   1.147 -0.4046 -1.3960 -0.5216
 4623SOL     OW25327   3.669   3.681  15.194 -0.0498  0.0498 -0.0756
 4623SOL    HW125328   3.736   3.715  15.136  2.1746 -0.3161  2.2938
 4623SOL    HW225329   3.594   3.703  15.138  1.2501  3.0820 -0.5943
 4624SOL     OW25330   2.643   2.603   6.466 -0.1508 -0.7321 -0.0950
 4624SOL    HW125331   2.705   2.545   6.421 -0.5530 -0.7213 -0.6526
 4624SOL    HW225332   2.569   2.546   6.485  0.1646 -0.6298  1.4888
 4625SOL     OW25333   4.309   3.151  13.980 -0.1970  0.2676 -0.3731
 4625SOL    HW125334   4.327   3.114  13.894 -0.1390  0.4951 -0.4572
 4625SOL    HW225335   4.334   3.075  14.033 -1.2138 -2.7194 -4.1896
 4626SOL     OW25336   4.038   2.986   1.534 -0.0109 -0.6471  0.2674
 4626SOL    HW125337   4.024   3.047   1.606  1.8974 -0.9169  0.8651
 4626SOL    HW225338   4.113   3.019   1.484 -1.2365  1.9499  0.1517
 4627SOL     OW25339   4.277   2.805   1.964 -0.0779  0.1520  0.3664
 4627SOL    HW125340   4.268   2.900   1.974  0.3101  0.1411  0.7854
 4627SOL    HW225341   4.185   2.784   1.945 -0.4765 -0.0125  2.4769
 4628SOL     OW25342   0.877   4.114   2.994  0.7172  0.3554  0.8694
 4628SOL    HW125343   0.963   4.076   3.011  0.5526 -1.4559 -2.4265
 4628SOL    HW225344   0.810   4.050   3.019  1.7315 -0.0082  2.6326
 4629SOL     OW25345   0.530   4.187   7.053  0.1438 -0.1322 -0.3844
 4629SOL    HW125346   0.436   4.201   7.043 -0.0684  0.0643  1.8357
 4629SOL    HW225347   0.539   4.121   6.985 -2.4683 -0.5963 -0.2760
 4630SOL     OW25348   2.977   1.546   4.806 -0.2122  0.0026 -0.5972
 4630SOL    HW125349   3.065   1.515   4.782  0.1920  2.0753 -1.7482
 4630SOL    HW225350   2.931   1.527   4.724  0.2149 -0.2987 -0.7722
 4631SOL     OW25351   3.998   3.404   9.255 -0.0841 -0.4222  0.4786
 4631SOL    HW125352   3.969   3.414   9.346  0.1414  2.0841  0.2883
 4631SOL    HW225353   3.934   3.339   9.225 -0.5760  0.7216 -1.0320
 4632SOL     OW25354   1.240   0.083   9.094  0.1044  0.5372  0.0660
 4632SOL    HW125355   1.175   0.139   9.051  0.9415  0.8056 -0.8801
 4632SOL    HW225356   1.236   0.120   9.182  0.3401  1.0818 -0.1471
 4633SOL     OW25357   0.837   3.655  13.913 -0.0064 -0.3827  0.4814
 4633SOL    HW125358   0.883   3.625  13.835  1.2231  1.0984  0.6483
 4633SOL    HW225359   0.816   3.572  13.956  0.1809 -1.0433 -0.6996
 4634SOL     OW25360   2.969   3.655  17.020  0.1848 -0.5236  0.6006
 4634SOL    HW125361   2.947   3.652  16.927  1.5075  2.0632  0.2086
 4634SOL    HW225362   2.943   3.745  17.036  2.7827 -0.0642  2.1667
 4635SOL     OW25363   3.203   3.559   4.494  0.5808 -0.1963  0.0859
 4635SOL    HW125364   3.291   3.557   4.531 -0.8174  0.1550  3.3903
 4635SOL    HW225365   3.217   3.480   4.441  0.2953 -0.9028  1.0831
 4636SOL     OW25366   3.427   1.144   6.001 -0.2922  0.1640  0.1706
 4636SOL    HW125367   3.488   1.189   5.943 -1.3738  0.4038 -0.7638
 4636SOL    HW225368   3.480   1.083   6.053 -1.2022  0.7315  1.7462
 4637SOL     OW25369   2.371   0.105   8.511 -0.4015  0.1480  0.1097
 4637SOL    HW125370   2.450   0.152   8.487  0.5852 -1.8622 -0.5815
 4637SOL    HW225371   2.406   0.016   8.522 -0.2941  0.2185  0.3378
 4638SOL     OW25372   1.325   0.281  14.644  0.0475  0.2822 -0.0342
 4638SOL    HW125373   1.343   0.316  14.731  1.1167 -0.0985 -0.0969
 4638SOL    HW225374   1.286   0.197  14.667  0.5448 -0.5466 -2.1835
 4639SOL     OW25375   1.176   4.667   3.657 -0.2619  0.6225 -0.2730
 4639SOL    HW125376   1.218   4.602   3.713  1.8637  3.9414  1.9583
 4639SOL    HW225377   1.101   4.680   3.714  2.4540 -0.0246  3.4392
 4640SOL     OW25378   1.151   1.993   3.412  0.1372  0.5796  0.2019
 4640SOL    HW125379   1.118   2.068   3.363 -0.2716  0.7975  0.8163
 4640SOL    HW225380   1.239   1.976   3.378 -0.2386 -2.5323  0.7668
 4641SOL     OW25381   2.789   2.291  13.635 -0.5311 -0.5973  0.2586
 4641SOL    HW125382   2.846   2.364  13.612 -3.2050  0.7843 -2.0149
 4641SOL    HW225383   2.705   2.306  13.591 -0.7549 -1.3266  0.4339
 4642SOL     OW25384   4.215   0.047   7.455 -0.4397 -0.0950  0.1865
 4642SOL    HW125385   4.180   0.091   7.532 -1.4528  1.7198 -1.3202
 4642SOL    HW225386   4.180   0.112   7.394  0.5937  1.2000  0.9795
 4643SOL     OW25387   1.246   0.191   0.591  0.7010 -0.4230 -0.0241
 4643SOL    HW125388   1.172   0.159   0.642 -0.3522  0.1202 -1.1995
 4643SOL    HW225389   1.311   0.201   0.660 -0.7099 -1.5080  1.4695
 4644SOL     OW25390   4.439   3.466  12.711 -0.2874 -0.4217 -0.1881
 4644SOL    HW125391   4.359   3.438  12.666 -1.3112 -0.3244  1.5691
 4644SOL    HW225392   4.439   3.393  12.773  0.3511 -0.7031 -0.5184
 4645SOL     OW25393   0.779   0.230   2.365  0.1676 -0.2055 -0.4917
 4645SOL    HW125394   0.772   0.168   2.293  0.6545 -1.7874  0.8272
 4645SOL    HW225395   0.794   0.311   2.317  1.7439  0.8244  1.7351
 4646SOL     OW25396   2.295   2.876   1.959 -0.2541  0.4124 -0.0843
 4646SOL    HW125397   2.282   2.789   1.995 -1.4515  0.5779 -0.1164
 4646SOL    HW225398   2.219   2.924   1.993 -0.9186 -0.2553 -0.6367
 4647SOL     OW25399   0.358   3.913  13.462 -0.1565  0.5218 -0.0155
 4647SOL    HW125400   0.297   3.984  13.480 -0.9897 -0.8917  2.7435
 4647SOL    HW225401   0.383   3.874  13.545  0.3376  0.4491 -0.1977
 4648SOL     OW25402   1.994   1.742   5.055  0.2282  0.3203 -0.4587
 4648SOL    HW125403   2.024   1.824   5.017  0.0985  0.3845 -0.4197
 4648SOL    HW225404   1.971   1.780   5.139 -0.2668 -1.3739  0.1783
 4649SOL     OW25405   4.522   1.227   9.833 -0.0180 -0.1397  0.3659
 4649SOL    HW125406   4.504   1.243   9.925  0.4767  1.3760  0.2055
 4649SOL    HW225407   4.502   1.134   9.831  2.5835 -0.6750 -1.0586
 4650SOL     OW25408   4.685   1.844   5.467  0.9457 -0.1427  0.1654
 4650SOL    HW125409   4.594   1.868   5.455  1.0560  0.4621  0.5022
 4650SOL    HW225410   4.678   1.758   5.508 -0.0164  1.7534  4.0166
 4651SOL     OW25411   2.024   2.382  16.614 -0.3405  0.4653 -0.6883
 4651SOL    HW125412   2.084   2.411  16.683 -0.4123 -0.4156 -0.2586
 4651SOL    HW225413   1.932   2.389  16.642  0.2512  1.8269  0.9152
 4652SOL     OW25414   3.971   2.504   2.436 -0.2886  0.1265 -0.0271
 4652SOL    HW125415   3.893   2.556   2.456 -0.8414  0.2142 -2.4436
 4652SOL    HW225416   4.003   2.553   2.360 -0.3481 -1.5121 -1.0911
 4653SOL     OW25417   2.305   0.832   2.376  0.0242  0.1378  0.1619
 4653SOL    HW125418   2.245   0.768   2.337 -0.8547  1.6696 -0.9977
 4653SOL    HW225419   2.261   0.914   2.352 -3.6567 -1.8093  0.2773
 4654SOL     OW25420   1.118   0.824  15.940 -0.7830  0.2846  0.8499
 4654SOL    HW125421   1.120   0.917  15.962 -0.3554  0.5315 -0.2346
 4654SOL    HW225422   1.036   0.791  15.978 -1.0425  0.0401  0.0769
 4655SOL     OW25423   2.411   1.469   0.454 -0.4177 -0.4225 -0.2251
 4655SOL    HW125424   2.417   1.397   0.391  0.2958 -0.0870 -0.5396
 4655SOL    HW225425   2.482   1.448   0.515 -1.1001  0.2984  0.8185
 4656SOL     OW25426   4.496   4.309  16.878 -0.3803 -0.0634 -0.2953
 4656SOL    HW125427   4.528   4.236  16.824  1.7776  0.4186  0.3622
 4656SOL    HW225428   4.424   4.346  16.826 -0.4044 -0.2943 -0.4272
 4657SOL     OW25429   4.477   0.307   4.459 -0.4645  0.3982  0.4200
 4657SOL    HW125430   4.423   0.384   4.471  0.8640  1.3845  0.0946
 4657SOL    HW225431   4.559   0.325   4.506  0.1906 -2.5915  0.4388
 4658SOL     OW25432   4.050   4.527  12.359  0.7837  0.4544  0.2025
 4658SOL    HW125433   4.100   4.459  12.315  1.7843 -0.6704  3.0969
 4658SOL    HW225434   4.019   4.572  12.280  2.3296  0.8117 -0.1947
 4659SOL     OW25435   1.878   2.798  13.090 -0.1235 -0.3739  0.0891
 4659SOL    HW125436   1.868   2.753  13.174  1.5626 -0.3757  0.3004
 4659SOL    HW225437   1.795   2.839  13.067  0.3455 -0.0397 -1.0314
 4660SOL     OW25438   0.266   3.949  16.070 -0.4333 -0.2714  0.0596
 4660SOL    HW125439   0.212   4.027  16.068  2.4535  1.7291  0.1301
 4660SOL    HW225440   0.214   3.887  16.019  1.6963 -0.3056 -2.0936
 4661SOL     OW25441   3.896   2.176   8.709  0.6125 -0.2531 -0.2162
 4661SOL    HW125442   3.940   2.210   8.631  1.3029 -1.4173 -0.3324
 4661SOL    HW225443   3.919   2.242   8.774  1.1482 -0.2883 -0.3738
 4662SOL     OW25444   4.530   4.530  11.957  0.4407  0.1395  0.3465
 4662SOL    HW125445   4.596   4.472  11.918  0.1090  0.3917 -0.6079
 4662SOL    HW225446   4.496   4.479  12.031 -1.6716  0.6757 -0.2294
 4663SOL     OW25447   3.375   3.250   3.826 -0.4355  0.5569  0.1657
 4663SOL    HW125448   3.284   3.281   3.828 -1.2390 -1.8745  1.4777
 4663SOL    HW225449   3.368   3.158   3.803  1.0435  0.6683 -0.6708
 4664SOL     OW25450   1.365   0.642   2.358 -0.5121  0.5799 -0.0720
 4664SOL    HW125451   1.417   0.722   2.366  0.8238 -0.3736  0.9413
 4664SOL    HW225452   1.437   0.584   2.333 -1.2901 -0.1235 -0.6501
 4665SOL     OW25453   4.186   1.123  14.702  0.2388 -0.1850 -0.0906
 4665SOL    HW125454   4.098   1.091  14.686  0.3887 -0.2601 -0.7366
 4665SOL    HW225455   4.196   1.112  14.797  0.5023  1.2848  0.0539
 4666SOL     OW25456   2.112   1.788   3.917 -0.2628  0.0511 -0.7059
 4666SOL    HW125457   2.129   1.855   3.983 -3.0984  0.0020  0.1065
 4666SOL    HW225458   2.169   1.718   3.946 -0.4390 -0.5392 -1.7764
 4667SOL     OW25459   0.455   2.858   8.911 -0.1820 -0.5235 -0.6737
 4667SOL    HW125460   0.371   2.888   8.944  0.4417  0.4725 -0.0033
 4667SOL    HW225461   0.521   2.912   8.954 -1.8882  1.0112  0.0204
 4668SOL     OW25462   0.934   0.633   7.038  0.3538  0.1990 -0.2221
 4668SOL    HW125463   1.003   0.696   7.013  0.4684  0.4665  0.7537
 4668SOL    HW225464   0.947   0.628   7.133 -0.0654 -0.7728 -0.2249
 4669SOL     OW25465   0.107   2.291  15.393 -0.3941  0.6026 -0.1860
 4669SOL    HW125466   0.169   2.322  15.327  2.9495 -1.4301  2.0196
 4669SOL    HW225467   0.139   2.332  15.474 -0.0071 -0.6771  0.3026
 4670SOL     OW25468   2.271   3.356  10.146  0.8051  0.7273 -0.2393
 4670SOL    HW125469   2.360   3.388  10.134  1.5240 -0.9522  0.7219
 4670SOL    HW225470   2.285   3.298  10.220  0.2072  3.6271  2.1386
 4671SOL     OW25471   1.871   3.003   3.824  0.7349 -0.4375 -0.4383
 4671SOL    HW125472   1.966   2.996   3.808  0.4877 -1.0596 -1.5949
 4671SOL    HW225473   1.826   2.943   3.766 -2.1842  1.3522 -0.0074
 4672SOL     OW25474   1.340   0.597   2.809  0.0701  0.1531  0.1099
 4672SOL    HW125475   1.364   0.557   2.892 -0.6437  1.1384  0.7950
 4672SOL    HW225476   1.429   0.607   2.777 -0.9450  1.4371 -2.3824
 4673SOL     OW25477   1.173   1.899   5.879 -0.1170 -0.2204  0.2150
 4673SOL    HW125478   1.241   1.838   5.853  0.0402 -0.4333  1.1112
 4673SOL    HW225479   1.095   1.872   5.831 -0.2447 -1.0430  0.8992
 4674SOL     OW25480   2.915   2.742   5.973  0.0589  0.3249  0.8348
 4674SOL    HW125481   2.979   2.694   6.026  1.5900  0.2808 -1.0646
 4674SOL    HW225482   2.900   2.827   6.013 -0.1276  1.1823 -1.0840
 4675SOL     OW25483   3.074   3.108   3.183 -0.0007 -0.0243 -0.0719
 4675SOL    HW125484   3.044   3.129   3.094 -0.5929 -1.4092 -0.1947
 4675SOL    HW225485   3.139   3.038   3.174 -0.4499 -0.0134 -3.6066
 4676SOL     OW25486   2.475   1.505   8.112  0.5915 -0.1223  0.0810
 4676SOL    HW125487   2.559   1.520   8.155 -0.1963  0.2758  1.4821
 4676SOL    HW225488   2.490   1.420   8.070  3.0136 -0.5338  1.8325
 4677SOL     OW25489   0.954   0.445   2.596  0.0552  0.0010 -0.1775
 4677SOL    HW125490   1.048   0.451   2.609 -0.0687  2.4427 -0.4039
 4677SOL    HW225491   0.935   0.371   2.653  0.1140 -1.6667 -2.3254
 4678SOL     OW25492   1.641   4.398   7.555 -0.1133  0.4206  0.2268
 4678SOL    HW125493   1.563   4.421   7.606  0.3849  3.6051 -0.4710
 4678SOL    HW225494   1.618   4.405   7.462 -1.8824 -0.0838  0.6323
 4679SOL     OW25495   2.551   4.144   1.337  0.2183  0.0017  0.1236
 4679SOL    HW125496   2.616   4.116   1.401  0.7020  0.7327 -0.0422
 4679SOL    HW225497   2.516   4.058   1.315  2.7022 -0.2570 -2.7967
 4680SOL     OW25498   2.515   1.499   6.839 -0.4946 -0.1881  1.0065
 4680SOL    HW125499   2.610   1.492   6.852 -0.3944  0.5565  0.7162
 4680SOL    HW225500   2.488   1.408   6.830  0.1047 -0.5043  2.3426
 4681SOL     OW25501   0.371   4.163  17.688 -0.3790 -0.3504  0.3161
 4681SOL    HW125502   0.324   4.206  17.616  0.9756 -3.0422 -2.1579
 4681SOL    HW225503   0.415   4.093  17.641 -0.7137  0.3585 -1.0695
 4682SOL     OW25504   4.696   2.065   9.785  0.7821 -0.2784 -0.1011
 4682SOL    HW125505   4.708   2.159   9.793  2.3746 -0.3614 -1.4801
 4682SOL    HW225506   4.651   2.026   9.860  0.8970  0.3910  0.3078
 4683SOL     OW25507   3.805   2.130   5.261  0.5819 -0.2647  0.0151
 4683SOL    HW125508   3.721   2.138   5.216  0.3275 -2.4266  0.1279
 4683SOL    HW225509   3.834   2.222   5.266 -1.2792  0.3823 -1.1299
 4684SOL     OW25510   4.018   1.613   5.168 -0.1276 -0.6636  0.2289
 4684SOL    HW125511   3.994   1.649   5.253 -1.3158 -0.7098 -0.0960
 4684SOL    HW225512   4.079   1.543   5.194  1.7266  0.2097 -1.7933
 4685SOL     OW25513   4.002   3.088   4.991  0.4177  0.6398 -0.4460
 4685SOL    HW125514   4.008   3.183   4.989  0.5534  0.6488  0.2831
 4685SOL    HW225515   4.074   3.066   4.932  1.2944 -0.7846  1.1559
 4686SOL     OW25516   0.663   1.081  11.812  0.0564  0.1303 -0.0465
 4686SOL    HW125517   0.716   1.006  11.784 -1.3243 -0.1273 -1.9511
 4686SOL    HW225518   0.716   1.105  11.888  1.2174  2.0370 -1.4714
 4687SOL     OW25519   2.877   4.668   2.682 -0.0776 -0.4748 -0.3405
 4687SOL    HW125520   2.810   4.599   2.678 -0.4434 -0.0835 -0.8996
 4687SOL    HW225521   2.882   4.705   2.594 -0.2381  0.0954 -0.1080
 4688SOL     OW25522   3.254   4.592   2.706 -0.2148 -0.2734  0.2705
 4688SOL    HW125523   3.271   4.506   2.743 -2.7724 -0.9458 -0.0763
 4688SOL    HW225524   3.309   4.644   2.764 -0.1227  0.3456 -0.3749
 4689SOL     OW25525   1.116   1.268  14.959  0.3887  0.3518 -0.3159
 4689SOL    HW125526   1.119   1.173  14.955 -0.7811  0.2515  1.1182
 4689SOL    HW225527   1.208   1.287  14.977  0.7169 -0.1728 -1.4820
 4690SOL     OW25528   2.358   3.840  14.242  0.2068 -0.2014  0.2539
 4690SOL    HW125529   2.360   3.857  14.148  2.6920  0.1880  0.3815
 4690SOL    HW225530   2.405   3.919  14.270  0.7082 -0.3012 -0.3232
 4691SOL     OW25531   2.249   0.758   8.229 -0.2170  0.1775  0.2449
 4691SOL    HW125532   2.223   0.722   8.144 -1.7348  0.7253  0.4747
 4691SOL    HW225533   2.181   0.823   8.248  0.4747  0.4628  1.7339
 4692SOL     OW25534   1.350   2.874   1.119  0.5592  0.7400 -0.2317
 4692SOL    HW125535   1.384   2.805   1.061 -1.5622 -0.9844  0.5990
 4692SOL    HW225536   1.283   2.912   1.063  0.7889  0.5294 -0.6503
 4693SOL     OW25537   3.189   4.258   2.284 -0.7003 -0.2239  0.9245
 4693SOL    HW125538   3.199   4.342   2.240 -0.3346 -1.5485 -1.5023
 4693SOL    HW225539   3.256   4.205   2.240 -1.7856 -0.2936 -0.6415
 4694SOL     OW25540   3.950   3.954  17.457  0.3878 -0.0019  0.0471
 4694SOL    HW125541   3.949   3.878  17.398 -0.8617  0.6713 -0.8049
 4694SOL    HW225542   3.923   3.910  17.538 -1.4456  1.6999  0.3360
 4695SOL     OW25543   1.684   1.466   4.654  0.4893  0.2944  0.2796
 4695SOL    HW125544   1.663   1.528   4.584 -1.4543 -0.7699 -0.0914
 4695SOL    HW225545   1.643   1.390   4.613  2.4171  0.6764 -2.3580
 4696SOL     OW25546   2.643   1.953  10.491  0.1839 -0.3704  0.2655
 4696SOL    HW125547   2.624   2.010  10.566  1.6704 -2.3666  2.1423
 4696SOL    HW225548   2.734   1.975  10.470  0.7436 -2.8180  0.2100
 4697SOL     OW25549   0.961   2.769   3.438  0.2361 -0.2965 -0.7801
 4697SOL    HW125550   0.956   2.856   3.398 -1.4009  0.2497  0.5937
 4697SOL    HW225551   0.878   2.734   3.406 -0.2141 -1.3757  1.5689
 4698SOL     OW25552   1.853   3.912   4.985  0.6585  0.3528  0.5226
 4698SOL    HW125553   1.930   3.890   4.933  0.9145  4.2991 -0.7641
 4698SOL    HW225554   1.896   3.925   5.070  1.7016 -0.1983  0.0745
 4699SOL     OW25555   4.356   3.713   4.511  0.0988 -0.3131 -0.2920
 4699SOL    HW125556   4.282   3.758   4.552 -0.1192 -1.1327  0.2040
 4699SOL    HW225557   4.421   3.722   4.581  2.4646  0.4104 -2.5454
 4700SOL     OW25558   2.895   0.997  11.297 -0.1644 -0.0538  0.3352
 4700SOL    HW125559   2.990   1.012  11.292 -0.1813  0.8890  3.1085
 4700SOL    HW225560   2.879   0.938  11.223 -1.3868 -0.3052  0.7967
 4701SOL     OW25561   2.768   4.020   4.824 -0.7002  0.3397 -0.6342
 4701SOL    HW125562   2.788   4.101   4.870 -1.1542  0.4506 -0.6331
 4701SOL    HW225563   2.680   3.996   4.852 -1.9718  6.7116  0.7275
 4702SOL     OW25564   4.194   4.172   3.349 -0.4619 -0.4030 -0.0097
 4702SOL    HW125565   4.246   4.116   3.408  0.6138  0.3477 -0.2570
 4702SOL    HW225566   4.210   4.136   3.261 -0.3384  0.2244 -0.2406
 4703SOL     OW25567   3.269   2.741   2.868 -0.2665 -0.3950 -0.3163
 4703SOL    HW125568   3.189   2.774   2.907 -0.1367 -0.4976  0.0345
 4703SOL    HW225569   3.304   2.694   2.943 -3.1771  0.9951  1.9079
 4704SOL     OW25570   3.367   0.695   6.241 -0.0617  0.3793  0.4251
 4704SOL    HW125571   3.436   0.670   6.302 -1.3244 -1.6000  1.0531
 4704SOL    HW225572   3.344   0.605   6.217 -0.0660  0.6186 -0.4618
 4705SOL     OW25573   3.019   3.819   1.752 -0.1529  0.3340 -0.5356
 4705SOL    HW125574   3.012   3.752   1.820 -2.6008  0.7945 -0.3440
 4705SOL    HW225575   2.955   3.792   1.687 -0.9494  1.1871 -0.1095
 4706SOL     OW25576   4.683   4.075  13.682  0.3986 -0.0956 -0.4861
 4706SOL    HW125577   0.027   4.084  13.615 -0.3130 -1.0554 -1.3283
 4706SOL    HW225578   4.696   3.984  13.708 -1.0713  0.1223  0.9861
 4707SOL     OW25579   2.605   2.912   3.931 -0.0565 -0.2990  1.0614
 4707SOL    HW125580   2.554   2.962   3.867  0.7767  0.0073  0.6345
 4707SOL    HW225581   2.651   2.982   3.976  0.0507  0.6331 -0.4923
 4708SOL     OW25582   2.612   0.538   6.557 -0.6890  0.1940  0.7528
 4708SOL    HW125583   2.677   0.492   6.504 -1.2049  0.8959 -0.5104
 4708SOL    HW225584   2.665   0.599   6.608  1.1425  1.2661 -2.4224
 4709SOL     OW25585   2.247   2.682   5.283 -0.0114 -0.7841  0.3029
 4709SOL    HW125586   2.170   2.678   5.339  0.4726  0.2489  1.0543
 4709SOL    HW225587   2.311   2.732   5.334  1.0267 -1.1307 -0.6614
 4710SOL     OW25588   0.580   4.088  15.890  0.5976  0.1899 -0.7035
 4710SOL    HW125589   0.652   4.143  15.857  0.5292  1.9981  2.1291
 4710SOL    HW225590   0.567   4.130  15.975 -0.0654  2.2588 -1.8116
 4711SOL     OW25591   4.430   3.855  16.374  0.0205 -0.0352 -0.4214
 4711SOL    HW125592   4.377   3.799  16.431  1.7186 -1.4364 -0.2362
 4711SOL    HW225593   4.357   3.911  16.347 -0.2318 -1.1373 -2.0406
 4712SOL     OW25594   1.835   0.159   2.635  0.0847 -0.1583  0.0524
 4712SOL    HW125595   1.850   0.148   2.729 -0.6208  0.8651  0.2813
 4712SOL    HW225596   1.749   0.118   2.627  0.8199 -1.7233  0.2617
 4713SOL     OW25597   3.607   2.400   3.732 -0.4694 -0.1167  0.0909
 4713SOL    HW125598   3.661   2.345   3.676 -0.3507  0.4968 -0.3918
 4713SOL    HW225599   3.665   2.475   3.722 -1.7695  0.9437  0.5270
 4714SOL     OW25600   0.978   2.126   4.984 -0.1398  0.9209 -0.3453
 4714SOL    HW125601   0.975   2.222   4.981  0.7258  0.8938 -1.9311
 4714SOL    HW225602   0.902   2.096   4.935  0.4903  1.0240 -1.3779
 4715SOL     OW25603   4.561   4.057   3.777  0.7951 -0.0434  0.3556
 4715SOL    HW125604   4.508   4.016   3.845 -2.6542  1.1098 -1.6662
 4715SOL    HW225605   4.624   4.112   3.824  1.1358 -0.5708  0.5274
 4716SOL     OW25606   3.220   2.499   9.293  0.0643 -0.0947  0.1612
 4716SOL    HW125607   3.126   2.516   9.282 -0.0237 -1.2377 -0.8701
 4716SOL    HW225608   3.246   2.553   9.367  0.1394 -0.1655  0.1862
 4717SOL     OW25609   4.540   3.427   5.985 -0.1390  0.2458 -0.4903
 4717SOL    HW125610   4.496   3.353   6.028  2.3042  1.1028  3.4882
 4717SOL    HW225611   4.580   3.377   5.913  1.9230 -0.9150  1.4590
 4718SOL     OW25612   2.361   0.886  13.730  0.4496  0.5252 -0.0313
 4718SOL    HW125613   2.310   0.841  13.798  0.2656 -0.4257 -0.8048
 4718SOL    HW225614   2.307   0.959  13.699  0.5245 -0.6426 -2.9112
 4719SOL     OW25615   1.479   1.940   8.198 -0.4905  0.0457  0.2259
 4719SOL    HW125616   1.556   1.998   8.193 -0.3058 -0.2709 -0.5117
 4719SOL    HW225617   1.412   2.007   8.212 -0.0266  0.4673  0.4209
 4720SOL     OW25618   2.065   1.897   5.410  0.0703 -0.2464  0.5734
 4720SOL    HW125619   2.062   1.945   5.327 -1.0128 -0.0918  0.7070
 4720SOL    HW225620   2.045   1.807   5.384  0.5323  0.4513 -2.1685
 4721SOL     OW25621   4.167   0.630  17.176  0.7139 -0.1639 -0.2422
 4721SOL    HW125622   4.108   0.677  17.235 -0.7367 -0.4955 -1.4421
 4721SOL    HW225623   4.246   0.685  17.182 -0.1465  1.4893 -4.3640
 4722SOL     OW25624   2.813   2.073   0.602 -0.0539  0.2691 -0.2376
 4722SOL    HW125625   2.880   2.055   0.667 -0.0624 -0.6723 -0.4983
 4722SOL    HW225626   2.766   1.991   0.618 -1.3308  1.0975  0.3197
 4723SOL     OW25627   2.263   2.064  12.183 -0.4927 -0.4360 -0.2043
 4723SOL    HW125628   2.323   2.072  12.257  2.1068 -1.5382 -2.1696
 4723SOL    HW225629   2.192   2.128  12.189  0.2950  0.4293 -0.1500
 4724SOL     OW25630   3.299   4.661   4.505 -0.0194  0.2755  0.3150
 4724SOL    HW125631   3.263   0.017   4.545 -1.4063 -0.0344 -0.3496
 4724SOL    HW225632   3.286   4.592   4.570 -2.5266 -0.5902 -1.0973
 4725SOL     OW25633   1.376   3.200   3.712  0.1314  0.3373  0.2154
 4725SOL    HW125634   1.463   3.201   3.751 -0.2251  1.6034  0.9996
 4725SOL    HW225635   1.382   3.266   3.643 -1.5172  2.1155  1.7468
 4726SOL     OW25636   1.565   4.607  16.481 -0.0365 -0.3871 -0.1992
 4726SOL    HW125637   1.514   4.541  16.434  1.1449  0.3657 -2.5130
 4726SOL    HW225638   1.639   4.552  16.506  0.5288  0.3659 -0.2274
 4727SOL     OW25639   0.567   2.149   4.209 -0.5085  0.0023 -0.1746
 4727SOL    HW125640   0.577   2.242   4.228 -4.1299  0.9023 -2.9437
 4727SOL    HW225641   0.622   2.142   4.131 -1.6622 -3.2625 -0.6718
 4728SOL     OW25642   1.799   2.539   6.810 -0.7046 -0.0985 -0.6218
 4728SOL    HW125643   1.708   2.559   6.790 -1.3497 -2.7035 -0.1724
 4728SOL    HW225644   1.841   2.624   6.824 -0.6935 -0.2294  0.1395
 4729SOL     OW25645   2.949   1.684  15.485 -0.2742  0.0209 -0.1779
 4729SOL    HW125646   2.946   1.626  15.561 -0.1079 -1.5786 -1.3978
 4729SOL    HW225647   2.878   1.642  15.436 -0.2881 -0.5151  0.2992
 4730SOL     OW25648   1.771   4.588   6.887  0.8669  0.7431  0.1250
 4730SOL    HW125649   1.687   4.634   6.889  0.1906 -0.5552  1.9684
 4730SOL    HW225650   1.770   4.541   6.970  0.2991 -0.7520 -0.7112
 4731SOL     OW25651   0.580   4.147   8.094 -0.1961  0.3868 -0.1108
 4731SOL    HW125652   0.487   4.135   8.075  0.0856 -1.1656 -0.4588
 4731SOL    HW225653   0.599   4.214   8.028  0.3864  1.2309  0.9135
 4732SOL     OW25654   2.492   4.192   5.759  0.1348 -0.0930  0.1454
 4732SOL    HW125655   2.414   4.237   5.726  3.6068  2.8022 -4.2902
 4732SOL    HW225656   2.543   4.200   5.678  1.3752 -0.4674  0.8919
 4733SOL     OW25657   2.827   4.712  14.924  0.0892 -0.5629 -0.2298
 4733SOL    HW125658   2.860   4.713  14.834  0.5470  0.2477 -0.0555
 4733SOL    HW225659   2.902   4.682  14.975 -1.2584 -1.1671  1.3999
 4734SOL     OW25660   2.328   0.136   4.809 -0.0343  0.1073 -0.3256
 4734SOL    HW125661   2.333   0.181   4.725  1.1028 -0.1224 -0.3876
 4734SOL    HW225662   2.287   0.050   4.793 -1.3074  0.5187  0.7083
 4735SOL     OW25663   3.644   2.137   7.975 -0.2268  0.4712 -0.4212
 4735SOL    HW125664   3.738   2.139   7.957 -0.0792 -3.3414  0.0539
 4735SOL    HW225665   3.624   2.044   7.969  0.7824  0.1016  1.9370
 4736SOL     OW25666   1.781   4.360   4.123 -0.1735 -0.1732 -0.3844
 4736SOL    HW125667   1.818   4.441   4.088  0.4518 -0.7185 -0.9855
 4736SOL    HW225668   1.717   4.395   4.184 -2.0122 -1.3748 -1.6251
 4737SOL     OW25669   3.826   3.902   9.529  0.0757  0.0653  0.2743
 4737SOL    HW125670   3.904   3.955   9.546 -0.8028  0.9004  1.6489
 4737SOL    HW225671   3.809   3.939   9.442  1.3877  0.7416  0.3010
 4738SOL     OW25672   0.069   4.228  17.536  0.0127 -0.2615  0.1390
 4738SOL    HW125673   0.048   4.191  17.622 -0.6466  1.9133  0.9033
 4738SOL    HW225674   0.009   4.303  17.540  1.3314  0.8589 -0.9734
 4739SOL     OW25675   2.109   0.522   0.052  0.4877  0.1408 -0.0551
 4739SOL    HW125676   2.175   0.568   0.000  0.8952  0.4753  0.7774
 4739SOL    HW225677   2.103   0.574   0.132 -0.9556  1.6815 -1.1582
 4740SOL     OW25678   3.990   2.357   4.481  0.0313 -0.7259  0.2060
 4740SOL    HW125679   3.983   2.289   4.414 -0.9096  0.1478 -0.5751
 4740SOL    HW225680   4.011   2.293   4.549  1.2535  0.5653  1.0372
 4741SOL     OW25681   3.195   4.543   6.487 -0.2536  0.3595  0.1552
 4741SOL    HW125682   3.280   4.521   6.524  0.2094 -1.4593 -2.0012
 4741SOL    HW225683   3.141   4.465   6.496  1.8888 -0.9909  1.2445
 4742SOL     OW25684   4.518   0.869  14.777  0.1780  0.1193 -0.0259
 4742SOL    HW125685   4.507   0.954  14.735  1.1479  1.4011  2.3577
 4742SOL    HW225686   4.466   0.893  14.854 -0.4902  1.4607 -0.9123
 4743SOL     OW25687   4.453   4.644   3.786  0.4241 -0.1522 -0.2090
 4743SOL    HW125688   4.491   4.567   3.828  0.4417 -0.9930 -1.7652
 4743SOL    HW225689   4.438   4.691   3.868  0.9063  1.4696 -1.0448
 4744SOL     OW25690   1.281   4.591  10.660  0.6568 -0.7006 -0.2840
 4744SOL    HW125691   1.235   4.645  10.596 -0.9856 -1.4283  0.2759
 4744SOL    HW225692   1.334   4.663  10.695 -0.7843  0.2368 -0.0476
 4745SOL     OW25693   2.391   1.158   9.365  0.3571  0.4917  0.3100
 4745SOL    HW125694   2.327   1.202   9.309  1.4973  1.7509  0.0225
 4745SOL    HW225695   2.440   1.228   9.408  0.2457  0.3252  0.7176
 4746SOL     OW25696   0.887   3.995   9.396 -1.3558  0.8329 -0.3839
 4746SOL    HW125697   0.863   4.013   9.487  1.5167 -1.0109  0.6979
 4746SOL    HW225698   0.878   4.079   9.350  1.3411  0.9108 -0.7291
 4747SOL     OW25699   0.305   3.871   8.741  0.1261  0.2168 -0.3905
 4747SOL    HW125700   0.270   3.896   8.656 -0.7703  1.7689  0.4324
 4747SOL    HW225701   0.283   3.779   8.755 -1.0637  0.9388  2.4135
 4748SOL     OW25702   2.352   4.718   3.984  0.0620 -0.8241 -0.1492
 4748SOL    HW125703   2.280   0.032   3.934 -0.2358  1.1632  1.7348
 4748SOL    HW225704   2.356   0.064   4.049 -1.9175  0.5482 -1.4822
 4749SOL     OW25705   2.633   2.739   0.850  0.2908 -0.1444  0.0832
 4749SOL    HW125706   2.617   2.677   0.921  3.9606  0.3724  1.4143
 4749SOL    HW225707   2.625   2.678   0.778 -1.3892 -0.0145  0.1540
 4750SOL     OW25708   0.426   4.401   3.233 -0.2387 -0.2720  0.0773
 4750SOL    HW125709   0.396   4.491   3.221  0.3125  0.1983  2.1968
 4750SOL    HW225710   0.393   4.364   3.151 -0.3252 -0.1151  0.0413
 4751SOL     OW25711   0.284   0.901   5.621 -0.7699  0.0672 -0.4405
 4751SOL    HW125712   0.285   0.842   5.696  1.3816  1.8131  0.9274
 4751SOL    HW225713   0.191   0.916   5.606 -0.8726 -0.7801 -0.6558
 4752SOL     OW25714   3.869   4.460  15.231  0.2012  0.6189  0.5770
 4752SOL    HW125715   3.956   4.442  15.197 -0.4996 -0.4230 -0.6733
 4752SOL    HW225716   3.852   4.552  15.214  3.4747  1.3735  1.5679
 4753SOL     OW25717   0.928   2.077   0.881  0.2825  0.7621  0.3732
 4753SOL    HW125718   0.988   2.029   0.939 -0.7021  0.4018  1.0978
 4753SOL    HW225719   0.839   2.066   0.913  0.3631  1.9595  1.0059
 4754SOL     OW25720   2.400   4.693   5.878  0.2022 -0.0563  0.0171
 4754SOL    HW125721   2.306   4.713   5.884  0.5849  1.1292  1.9037
 4754SOL    HW225722   2.436   0.055   5.902  1.2835 -1.0241  1.8696
 4755SOL     OW25723   0.178   1.383   3.340 -0.8134 -0.2560  0.3866
 4755SOL    HW125724   0.181   1.430   3.423 -2.0784  0.4632  0.0336
 4755SOL    HW225725   0.108   1.434   3.297  1.1409  1.2324 -1.0613
 4756SOL     OW25726   1.382   4.440  16.347  0.5159 -0.3436  0.0468
 4756SOL    HW125727   1.294   4.427  16.382  0.2283  0.9448 -0.2043
 4756SOL    HW225728   1.374   4.505  16.278 -0.3796  0.0190  0.4889
 4757SOL     OW25729   3.200   1.982  15.252  0.3291  0.0750 -0.1047
 4757SOL    HW125730   3.179   2.065  15.296  0.1480 -0.4505  0.8111
 4757SOL    HW225731   3.229   2.020  15.169 -2.7681  0.8745 -0.8234
 4758SOL     OW25732   1.458   3.017   5.432 -0.0469  0.1678  0.3726
 4758SOL    HW125733   1.477   2.963   5.509  1.9072  0.9233  0.4377
 4758SOL    HW225734   1.500   2.951   5.378  0.4655  0.8783 -0.1019
 4759SOL     OW25735   2.981   2.059   7.836  0.2417  0.1543 -0.1309
 4759SOL    HW125736   2.928   2.125   7.879 -0.6761  1.2512 -2.9329
 4759SOL    HW225737   2.935   1.978   7.855 -0.8556  1.0828  1.1488
 4760SOL     OW25738   0.112   4.566  17.062 -0.0051 -0.3929 -0.5743
 4760SOL    HW125739   0.032   4.601  17.024  0.0694 -0.6566 -0.9775
 4760SOL    HW225740   0.110   4.481  17.017 -1.1154  0.0632 -1.3745
 4761SOL     OW25741   1.002   1.104  17.228  0.0869  0.1366 -0.1958
 4761SOL    HW125742   0.980   1.189  17.192 -1.5599 -1.4471 -2.9059
 4761SOL    HW225743   1.076   1.132  17.281 -0.6002  0.9138  0.3441
 4762SOL     OW25744   4.306   0.377   5.989 -0.0097 -0.6002 -0.1268
 4762SOL    HW125745   4.250   0.449   5.958  0.2817 -0.4291 -0.2538
 4762SOL    HW225746   4.255   0.344   6.063 -0.4743 -1.6766 -0.9326
 4763SOL     OW25747   0.762   2.721   3.971  0.2470  0.2982 -0.0536
 4763SOL    HW125748   0.675   2.687   3.955 -0.0134  0.0202  2.0192
 4763SOL    HW225749   0.745   2.799   4.024 -1.6737  0.3859 -0.8235
 4764SOL     OW25750   1.459   1.827   4.034  0.0828 -0.8160  0.0938
 4764SOL    HW125751   1.374   1.846   3.994  0.3143  2.3428  1.0697
 4764SOL    HW225752   1.434   1.762   4.100 -0.2987 -1.3490 -0.5813
 4765SOL     OW25753   2.694   4.389  11.342  0.3204  0.3394 -0.0816
 4765SOL    HW125754   2.629   4.350  11.400 -0.9406  1.2514 -0.8839
 4765SOL    HW225755   2.759   4.403  11.410  1.1962 -1.7340 -0.5121
 4766SOL     OW25756   1.925   1.295   7.091 -0.6106  0.7942  0.3737
 4766SOL    HW125757   1.923   1.389   7.112  2.1177  1.1612 -0.8986
 4766SOL    HW225758   1.982   1.293   7.014 -0.8220 -2.5693  0.3148
 4767SOL     OW25759   1.688   0.172  14.372  0.2065  0.0334 -0.0383
 4767SOL    HW125760   1.636   0.197  14.448  0.4026 -0.3602  0.2228
 4767SOL    HW225761   1.689   0.077  14.373 -0.5016  0.0198 -0.6214
 4768SOL     OW25762   1.875   2.003   7.804 -0.9893 -0.7079  0.3684
 4768SOL    HW125763   1.945   1.997   7.868 -0.7798 -1.0909  0.1036
 4768SOL    HW225764   1.932   2.000   7.728  1.5577 -1.2439  2.3101
 4769SOL     OW25765   0.006   0.289   6.133 -0.5532  0.0862 -0.1593
 4769SOL    HW125766   4.720   0.232   6.209 -0.0861  0.2507  0.0238
 4769SOL    HW225767   4.655   0.348   6.151 -0.6117 -0.1506  0.3707
 4770SOL     OW25768   4.342   1.474   8.752  0.4528 -0.6990  0.3373
 4770SOL    HW125769   4.350   1.415   8.677  1.4396  0.2453 -0.3034
 4770SOL    HW225770   4.383   1.547   8.706  0.0297 -1.2631 -0.9325
 4771SOL     OW25771   3.018   3.611   3.511  0.5438 -0.0595 -1.0706
 4771SOL    HW125772   2.963   3.534   3.521 -1.5421  1.2375 -2.3718
 4771SOL    HW225773   2.954   3.681   3.527  1.3523  0.6719 -1.0291
 4772SOL     OW25774   4.244   3.487   2.139  0.1734 -0.3443 -0.0380
 4772SOL    HW125775   4.305   3.443   2.079 -1.3203 -1.1571 -0.9662
 4772SOL    HW225776   4.268   3.580   2.135 -0.1271 -0.3343 -1.7430
 4773SOL     OW25777   0.813   1.060   7.165 -0.3498  0.6540 -0.1295
 4773SOL    HW125778   0.893   1.041   7.214 -0.9648  1.5676  1.2238
 4773SOL    HW225779   0.830   1.149   7.133  2.3808 -0.4241 -1.6839
 4774SOL     OW25780   2.404   2.314  14.190 -0.1569 -0.0524 -0.4008
 4774SOL    HW125781   2.335   2.332  14.126 -1.0145  0.7782  0.7606
 4774SOL    HW225782   2.473   2.372  14.159  1.5314 -1.4791  0.7009
 4775SOL     OW25783   0.051   1.031   1.858  0.7579 -0.2262  0.6177
 4775SOL    HW125784   0.073   1.097   1.924  1.3891  1.6318 -1.4295
 4775SOL    HW225785   0.009   0.965   1.912 -1.7575  1.1243  0.3234
 4776SOL     OW25786   3.408   1.352  13.768 -0.3707 -0.4103  0.1814
 4776SOL    HW125787   3.504   1.350  13.765 -0.4576 -3.9121  0.8619
 4776SOL    HW225788   3.392   1.440  13.733 -0.2401 -0.5185 -0.1541
 4777SOL     OW25789   4.663   2.053   8.634  0.1929 -0.3982  0.4343
 4777SOL    HW125790   4.630   1.985   8.575 -1.8740 -0.5874  1.7951
 4777SOL    HW225791   0.025   2.076   8.597 -1.8899  1.8445 -2.9042
 4778SOL     OW25792   2.430   1.986  17.136  0.5312 -0.0157 -0.0178
 4778SOL    HW125793   2.396   1.899  17.155 -2.0459  1.2638  1.2937
 4778SOL    HW225794   2.492   1.966  17.066 -0.5606 -2.1620 -0.3694
 4779SOL     OW25795   0.220   3.908   2.201 -0.7075 -0.7719  0.0320
 4779SOL    HW125796   0.176   3.823   2.191 -2.1021  0.0961 -1.1833
 4779SOL    HW225797   0.195   3.948   2.117  0.3351 -1.2830 -0.5258
 4780SOL     OW25798   3.851   3.558   8.670 -0.0861 -0.0466  0.1276
 4780SOL    HW125799   3.928   3.586   8.719  0.2137 -2.5269  1.0827
 4780SOL    HW225800   3.888   3.485   8.619  0.0773 -0.6265  1.0761
 4781SOL     OW25801   1.491   1.346   3.184 -0.6155 -0.0820 -0.1035
 4781SOL    HW125802   1.487   1.413   3.116 -0.5968 -1.3211 -1.3202
 4781SOL    HW225803   1.537   1.394   3.253  1.2506  0.0375 -1.4432
 4782SOL     OW25804   2.408   3.170   3.997 -0.0552  0.0336 -0.1145
 4782SOL    HW125805   2.364   3.255   3.990  1.6441  0.9945  0.5972
 4782SOL    HW225806   2.340   3.107   3.975  0.6045  0.2166 -2.6923
 4783SOL     OW25807   2.543   1.272  12.766 -0.6562  0.2275  0.5376
 4783SOL    HW125808   2.610   1.235  12.709 -1.1259 -0.0904  0.1878
 4783SOL    HW225809   2.494   1.305  12.691 -1.3868  0.0938  0.9535
 4784SOL     OW25810   1.198   4.421  10.306 -1.1489  0.0592  0.2241
 4784SOL    HW125811   1.278   4.415  10.358 -0.4724  1.2562 -0.6806
 4784SOL    HW225812   1.226   4.385  10.222 -1.5329  0.6638 -0.1610
 4785SOL     OW25813   3.365   2.027   7.658  0.6617 -0.5060  0.0252
 4785SOL    HW125814   3.317   2.089   7.714  1.2474 -0.3683  0.3712
 4785SOL    HW225815   3.295   1.976   7.618  1.0841 -0.6694 -0.4993
 4786SOL     OW25816   3.489   3.588  10.661 -0.5452  0.7428  0.6695
 4786SOL    HW125817   3.442   3.525  10.716  0.4244  0.3230  1.0227
 4786SOL    HW225818   3.428   3.662  10.654 -2.3859 -1.5303 -6.6403
 4787SOL     OW25819   0.400   3.608  12.488 -0.2067 -0.5986 -0.1949
 4787SOL    HW125820   0.413   3.667  12.414 -0.3869  1.1085  1.1344
 4787SOL    HW225821   0.397   3.523  12.444 -0.4324 -0.4326 -0.5054
 4788SOL     OW25822   0.970   0.497   6.748 -0.3341  0.0266 -0.2464
 4788SOL    HW125823   0.999   0.570   6.803  0.4794  0.7357 -1.6303
 4788SOL    HW225824   0.875   0.503   6.759 -0.2077  2.0881 -0.2338
 4789SOL     OW25825   1.820   3.278   2.399  0.3151  0.6962 -0.5016
 4789SOL    HW125826   1.729   3.267   2.368 -0.2502  2.6749  0.4633
 4789SOL    HW225827   1.800   3.301   2.490 -0.2025 -2.5062  0.2188
 4790SOL     OW25828   3.244   2.895   3.461 -0.1061 -0.1375  0.4170
 4790SOL    HW125829   3.335   2.881   3.489  0.0201  0.6630  0.4044
 4790SOL    HW225830   3.249   2.991   3.464 -1.1691 -0.0458 -0.9240
 4791SOL     OW25831   4.173   0.214  13.705 -0.0511  0.4401  0.3050
 4791SOL    HW125832   4.106   0.216  13.773  1.7547 -0.9261  2.1339
 4791SOL    HW225833   4.250   0.186  13.754  2.2979  3.6709 -1.5566
 4792SOL     OW25834   0.826   0.330  12.928  0.2818  0.1284  0.2016
 4792SOL    HW125835   0.843   0.271  13.002 -1.2273  0.8709  1.1317
 4792SOL    HW225836   0.791   0.267  12.866  2.7834 -1.0511 -0.0189
 4793SOL     OW25837   0.240   0.290   0.392 -0.2817  0.6593  0.0168
 4793SOL    HW125838   0.301   0.232   0.439 -1.2777  0.5988  1.2566
 4793SOL    HW225839   0.195   0.227   0.336  0.8169 -0.5585  0.4897
 4794SOL     OW25840   1.152   4.611   8.700  0.3539  0.4639  0.1163
 4794SOL    HW125841   1.095   4.627   8.625  0.3296 -0.0810  0.0168
 4794SOL    HW225842   1.101   4.633   8.778 -0.5607 -0.9073 -0.1138
 4795SOL     OW25843   3.641   0.991   2.961 -0.2360  0.3078 -0.0591
 4795SOL    HW125844   3.632   0.954   3.048  2.1108  2.1136  0.9459
 4795SOL    HW225845   3.733   0.974   2.944  0.0817  0.5135  1.4904
 4796SOL     OW25846   2.116   2.603   7.225  0.1598  0.1810 -0.0289
 4796SOL    HW125847   2.208   2.584   7.207 -0.2392  0.4250 -2.2980
 4796SOL    HW225848   2.120   2.699   7.232  0.4562 -0.0125  2.4408
 4797SOL     OW25849   2.296   4.580   2.759  0.5755 -0.1202 -0.1920
 4797SOL    HW125850   2.300   4.519   2.686  0.1147  0.7707 -0.9527
 4797SOL    HW225851   2.386   4.610   2.773  0.8594 -0.9574 -0.1872
 4798SOL     OW25852   3.808   2.937   7.912 -0.4135  0.0723 -0.9308
 4798SOL    HW125853   3.838   3.023   7.943  0.5920  0.2556 -2.4243
 4798SOL    HW225854   3.716   2.954   7.894 -0.5954 -1.1241 -1.1095
 4799SOL     OW25855   0.702   3.068   7.627  0.5243 -0.2085 -0.2524
 4799SOL    HW125856   0.658   3.105   7.551 -1.1986 -1.7609 -0.0144
 4799SOL    HW225857   0.654   3.114   7.696 -1.1597 -3.1270  0.5452
 4800SOL     OW25858   0.834   0.108  11.584 -0.1558  0.3256  0.1848
 4800SOL    HW125859   0.929   0.113  11.588 -0.1782  1.4869 -0.6773
 4800SOL    HW225860   0.815   0.021  11.619 -0.5602  0.0724 -0.6533
 4801SOL     OW25861   1.730   3.347   5.232 -0.5309 -0.5953  0.5214
 4801SOL    HW125862   1.638   3.335   5.258 -1.0452 -1.8489 -1.8896
 4801SOL    HW225863   1.769   3.380   5.313 -0.2229  1.3654 -0.4472
 4802SOL     OW25864   0.519   2.668   6.971  0.3479 -0.4889  0.1906
 4802SOL    HW125865   0.554   2.580   6.966 -0.2648 -0.6773 -0.7661
 4802SOL    HW225866   0.537   2.699   6.882  0.6139 -2.3891 -0.4133
 4803SOL     OW25867   2.771   0.755   3.377 -0.5335 -0.4038  0.2310
 4803SOL    HW125868   2.795   0.836   3.333 -0.1440  1.1201  3.1989
 4803SOL    HW225869   2.796   0.688   3.313 -2.0274 -0.6419 -0.1074
 4804SOL     OW25870   0.236   2.313   4.150 -0.6321  0.0712 -0.3844
 4804SOL    HW125871   0.246   2.373   4.076 -1.9174  1.5555  0.6329
 4804SOL    HW225872   0.251   2.231   4.104 -0.1123  0.6119 -1.1861
 4805SOL     OW25873   3.696   1.237  11.711  0.3395  0.1701 -0.1672
 4805SOL    HW125874   3.601   1.246  11.697  0.7958  1.6469 -2.2868
 4805SOL    HW225875   3.724   1.317  11.667  1.8155 -1.8393 -2.8934
 4806SOL     OW25876   0.258   0.153  11.517 -0.1463 -0.1373  0.2001
 4806SOL    HW125877   0.325   0.106  11.567  1.4704  1.0569 -0.8227
 4806SOL    HW225878   0.239   0.220  11.583  2.4815 -1.7842  2.6237
 4807SOL     OW25879   1.151   1.887   7.111 -0.2722  0.3048  0.4005
 4807SOL    HW125880   1.176   1.936   7.190 -1.1974 -2.2364  2.2589
 4807SOL    HW225881   1.234   1.853   7.077 -0.6919 -0.7957  0.4810
 4808SOL     OW25882   4.120   0.117   2.805 -0.1229  0.0831 -0.1586
 4808SOL    HW125883   4.161   0.195   2.767  0.9068 -0.3012  0.1524
 4808SOL    HW225884   4.176   0.097   2.881 -1.0043  0.5601  0.6200
 4809SOL     OW25885   3.959   2.290   6.427  0.3596  0.1878  0.1805
 4809SOL    HW125886   3.917   2.359   6.479  0.7903  0.6487 -0.0826
 4809SOL    HW225887   4.013   2.350   6.376 -0.3711  1.8289  1.3492
 4810SOL     OW25888   1.385   1.841   1.804 -0.0971  0.4942  0.1380
 4810SOL    HW125889   1.405   1.798   1.721  0.9169  1.0857  0.0735
 4810SOL    HW225890   1.325   1.906   1.767  0.4431  1.7206  1.3799
 4811SOL     OW25891   3.269   2.928   4.634  0.5411  0.3504  0.3382
 4811SOL    HW125892   3.362   2.905   4.640  0.0175 -1.8397  0.0006
 4811SOL    HW225893   3.251   2.941   4.727  0.8180  0.9029  0.3193
 4812SOL     OW25894   4.423   2.416   5.289 -0.0412  0.4701  0.6052
 4812SOL    HW125895   4.449   2.508   5.293 -1.5430  0.9364 -0.4277
 4812SOL    HW225896   4.330   2.433   5.278 -0.2690 -1.7663 -1.0379
 4813SOL     OW25897   1.684   2.630   3.952  0.5009 -0.0079 -0.3968
 4813SOL    HW125898   1.637   2.554   3.918  1.4695 -0.6574 -0.2858
 4813SOL    HW225899   1.621   2.702   3.958 -0.1489 -0.6193  0.1484
 4814SOL     OW25900   4.453   1.433   2.909  0.1621 -0.0542  0.5467
 4814SOL    HW125901   4.499   1.517   2.916 -0.4271  0.2187  1.1472
 4814SOL    HW225902   4.467   1.389   2.993  0.4387  1.3254  1.2199
 4815SOL     OW25903   0.210   1.239   6.364  0.1573  0.4745 -0.4376
 4815SOL    HW125904   0.146   1.193   6.308  0.4201 -0.8841  0.3690
 4815SOL    HW225905   0.232   1.162   6.416  0.3871  1.6723  1.2025
 4816SOL     OW25906   0.014   0.978   1.298  0.3288 -0.0746 -0.1097
 4816SOL    HW125907   0.010   0.934   1.383  1.2112  2.6645  1.3636
 4816SOL    HW225908   0.009   1.070   1.324 -2.7255 -0.1573 -0.2906
 4817SOL     OW25909   1.942   3.823  15.872 -0.4353 -0.7396 -0.7881
 4817SOL    HW125910   1.862   3.874  15.884 -0.2534 -0.1924 -1.9116
 4817SOL    HW225911   1.982   3.849  15.789  1.9987  1.9461  1.2609
 4818SOL     OW25912   3.015   0.406   3.483 -0.0463  0.0896  0.2684
 4818SOL    HW125913   3.024   0.440   3.394 -0.2274 -1.2431 -0.2610
 4818SOL    HW225914   2.954   0.334   3.464 -0.9159  0.6343  0.9779
 4819SOL     OW25915   3.640   1.892   2.271  0.5013  1.1483 -0.2532
 4819SOL    HW125916   3.572   1.904   2.337 -1.3350  0.7692 -2.0683
 4819SOL    HW225917   3.707   1.954   2.301  1.4832  0.8415 -1.7872
 4820SOL     OW25918   4.473   2.167   4.659 -0.3201 -0.1078  0.4319
 4820SOL    HW125919   4.556   2.184   4.615 -0.7040 -0.2199 -0.3392
 4820SOL    HW225920   4.415   2.187   4.585  0.3556 -1.7180 -0.5449
 4821SOL     OW25921   1.630   1.469   8.403  0.0260 -0.1022 -0.0425
 4821SOL    HW125922   1.550   1.421   8.382  0.3917 -1.1099  0.8703
 4821SOL    HW225923   1.659   1.426   8.483 -0.7531  0.0833  0.3432
 4822SOL     OW25924   0.449   2.314   0.263  0.4055 -0.0906 -0.0385
 4822SOL    HW125925   0.414   2.250   0.325  1.6339 -1.7928 -1.0923
 4822SOL    HW225926   0.538   2.280   0.249 -0.6668 -4.0025  2.6374
 4823SOL     OW25927   1.786   1.682   3.501  0.1731  0.0947  0.2288
 4823SOL    HW125928   1.750   1.729   3.577 -0.6474 -1.4352  0.7703
 4823SOL    HW225929   1.877   1.694   3.530  0.3323  0.7832 -0.5461
 4824SOL     OW25930   4.076   1.421   8.075  0.1491 -0.0297  0.2485
 4824SOL    HW125931   4.139   1.366   8.029 -1.6514  0.3215 -2.6537
 4824SOL    HW225932   4.105   1.504   8.039  2.1798  0.0056  1.9434
 4825SOL     OW25933   1.974   4.377   5.363  0.3428  0.8526 -0.2831
 4825SOL    HW125934   1.967   4.292   5.321  2.4224  0.3289  0.4400
 4825SOL    HW225935   2.037   4.354   5.431  0.7900 -1.7879 -1.5919
 4826SOL     OW25936   3.298   3.333   5.940 -0.6072  0.3076  0.6179
 4826SOL    HW125937   3.308   3.396   6.011 -1.3249 -0.4742  1.4212
 4826SOL    HW225938   3.264   3.255   5.983  0.2709  0.0599  0.8559
 4827SOL     OW25939   4.135   0.520   7.574  0.2656 -0.1704 -0.4610
 4827SOL    HW125940   4.047   0.542   7.542 -0.2693 -1.3008  0.2376
 4827SOL    HW225941   4.193   0.563   7.510 -0.9885  0.2027 -1.3656
 4828SOL     OW25942   2.637   0.916   0.557 -0.2382  0.5384  0.4742
 4828SOL    HW125943   2.722   0.879   0.536 -1.1773 -0.6554 -1.2990
 4828SOL    HW225944   2.595   0.852   0.615 -2.1608 -0.1045 -1.6226
 4829SOL     OW25945   4.529   2.948  13.596  0.3091 -0.3949  0.2223
 4829SOL    HW125946   4.607   3.000  13.616  0.5345 -0.2322 -1.0848
 4829SOL    HW225947   4.568   2.862  13.613 -0.1598 -0.8917 -1.2256
 4830SOL     OW25948   1.007   3.045   4.854  0.0382  0.2693  0.4390
 4830SOL    HW125949   0.984   3.001   4.772  0.2893  2.9477 -1.0815
 4830SOL    HW225950   1.053   3.124   4.827 -0.9835  1.0342  0.9631
 4831SOL     OW25951   1.737   0.085  15.863  0.2880  0.1026 -0.3377
 4831SOL    HW125952   1.695   0.063  15.780 -0.0883 -2.9732  0.6477
 4831SOL    HW225953   1.831   0.077  15.845  0.2269  2.4084 -1.7073
 4832SOL     OW25954   4.546   4.353   0.330 -0.2193 -0.5363  0.2577
 4832SOL    HW125955   4.451   4.367   0.331 -0.3085 -1.0092 -2.4355
 4832SOL    HW225956   4.568   4.420   0.265 -0.5852 -0.0939  0.5876
 4833SOL     OW25957   1.730   2.055  17.352 -0.2933  0.5300 -0.5960
 4833SOL    HW125958   1.702   2.063  17.261 -2.2558 -1.8518 -0.2039
 4833SOL    HW225959   1.820   2.087  17.344 -0.0872  0.3202  0.9213
 4834SOL     OW25960   4.560   2.903   3.636 -0.4503  0.3646  0.1514
 4834SOL    HW125961   4.467   2.888   3.653  0.3415 -2.4259  1.9657
 4834SOL    HW225962   4.555   2.993   3.602  0.7032 -0.1580 -1.3504
 4835SOL     OW25963   1.510   1.908   9.569  0.2062  0.1879 -0.2000
 4835SOL    HW125964   1.488   1.985   9.517 -1.0150 -0.8575 -1.2387
 4835SOL    HW225965   1.553   1.949   9.644 -2.5823  0.1784  1.4086
 4836SOL     OW25966   4.027   2.121   7.466  0.1914 -0.4013  0.5525
 4836SOL    HW125967   4.014   2.059   7.395  0.9119 -0.7418  0.7222
 4836SOL    HW225968   4.018   2.060   7.539  1.6248  0.4907  1.4787
 4837SOL     OW25969   1.423   2.639   2.152  0.0164  0.2663 -0.2331
 4837SOL    HW125970   1.507   2.679   2.130 -0.2136  0.1454 -1.3260
 4837SOL    HW225971   1.437   2.645   2.247 -2.5716  0.4113  0.1388
 4838SOL     OW25972   2.501   3.044   3.706  0.2154 -0.5807  0.3621
 4838SOL    HW125973   2.520   3.100   3.631  2.1061 -0.5390  0.8751
 4838SOL    HW225974   2.406   3.039   3.711  0.1662  0.9243  0.7748
 4839SOL     OW25975   0.700   1.243   5.261  0.8173 -0.6257  0.8332
 4839SOL    HW125976   0.723   1.158   5.299  0.6008 -1.3553 -0.6546
 4839SOL    HW225977   0.714   1.307   5.332 -0.0351  0.3776  0.0986
 4840SOL     OW25978   1.442   2.437  12.286  0.2987 -0.7108 -0.1093
 4840SOL    HW125979   1.360   2.465  12.245  0.4510  2.1252  1.5058
 4840SOL    HW225980   1.463   2.355  12.243 -0.7096 -1.1785  0.2782
 4841SOL     OW25981   2.243   0.397   1.007 -0.1284 -0.1730 -0.7956
 4841SOL    HW125982   2.225   0.316   1.055  3.7172  0.6416  2.0311
 4841SOL    HW225983   2.319   0.428   1.056 -2.0080  2.1074  0.6242
 4842SOL     OW25984   2.536   1.645  12.688  0.2725 -0.3629 -0.0762
 4842SOL    HW125985   2.483   1.566  12.697  0.1513 -0.3311 -0.4859
 4842SOL    HW225986   2.615   1.605  12.653  1.2800  0.2650  1.4602
 4843SOL     OW25987   0.471   4.561   6.835 -0.5149 -0.0070  0.0953
 4843SOL    HW125988   0.554   4.597   6.866  0.0404 -0.5459 -0.7863
 4843SOL    HW225989   0.416   4.633   6.867  0.5647  0.6580  0.4372
 4844SOL     OW25990   2.138   3.451   1.016  0.1414  0.0357 -0.2482
 4844SOL    HW125991   2.090   3.383   0.968 -0.8806  1.2998 -1.0150
 4844SOL    HW225992   2.069   3.499   1.063  0.6345  0.9660 -0.4931
 4845SOL     OW25993   2.058   1.234   5.709 -0.0688  0.0705  0.7343
 4845SOL    HW125994   2.059   1.225   5.804  1.2930  4.4896  1.1444
 4845SOL    HW225995   2.131   1.293   5.692 -0.2842  0.3894  0.9166
 4846SOL     OW25996   3.061   3.226   3.629  0.1936  0.4264  0.0961
 4846SOL    HW125997   2.983   3.257   3.584 -0.5741 -2.4768 -0.5655
 4846SOL    HW225998   3.129   3.217   3.563  0.1373 -0.6684  0.1723
 4847SOL     OW25999   2.755   2.598   4.075  0.2221 -0.2083  0.6174
 4847SOL    HW126000   2.774   2.619   4.166  1.2827 -0.6164  0.4896
 4847SOL    HW226001   2.804   2.667   4.029 -1.1903  0.2304 -0.2225
 4848SOL     OW26002   4.191   3.471   7.214 -0.0176 -1.2129  0.4200
 4848SOL    HW126003   4.274   3.517   7.199 -0.7806 -0.4342 -1.2734
 4848SOL    HW226004   4.219   3.381   7.197  1.5959 -0.1344 -2.6957
 4849SOL     OW26005   1.874   1.417   4.910  0.6295  0.1891  0.0287
 4849SOL    HW126006   1.956   1.419   4.958  1.3769  0.5933 -1.2802
 4849SOL    HW226007   1.853   1.324   4.906  3.5079 -0.4449  0.4217
 4850SOL     OW26008   2.163   0.700   4.114  0.0493  0.2174  0.3821
 4850SOL    HW126009   2.180   0.647   4.193  1.9187  0.4446  0.1449
 4850SOL    HW226010   2.219   0.774   4.138  0.7510 -0.7410  1.7318
 4851SOL     OW26011   4.497   1.670  14.436 -0.5601 -0.0007 -0.6324
 4851SOL    HW126012   4.422   1.618  14.465  0.6475 -0.5995  1.4006
 4851SOL    HW226013   4.487   1.674  14.341 -0.3055  0.8398 -0.6222
 4852SOL     OW26014   0.969   2.262   4.144 -0.1370 -0.1101  0.1404
 4852SOL    HW126015   0.928   2.209   4.077  0.2854  1.3947 -1.3126
 4852SOL    HW226016   1.002   2.341   4.100 -0.4607 -0.9618 -1.6232
 4853SOL     OW26017   3.479   2.586   8.869  0.4581 -0.0473  0.1496
 4853SOL    HW126018   3.503   2.658   8.927 -1.0532 -0.1765  0.9348
 4853SOL    HW226019   3.454   2.528   8.940  1.7604  1.4248  1.8031
 4854SOL     OW26020   2.810   2.844   4.236  0.0831  0.1469 -0.0197
 4854SOL    HW126021   2.805   2.851   4.332 -0.9601  1.4732 -0.1641
 4854SOL    HW226022   2.728   2.887   4.210 -1.5833 -2.4432  0.9634
 4855SOL     OW26023   2.096   3.197   5.693 -0.2103  0.7365 -0.1592
 4855SOL    HW126024   2.056   3.210   5.607 -0.4475  1.3075  0.0438
 4855SOL    HW226025   2.024   3.200   5.756 -0.7992 -1.7703 -0.6905
 4856SOL     OW26026   1.401   0.277  16.338 -0.0991 -0.0154 -0.5301
 4856SOL    HW126027   1.478   0.233  16.372  0.8441  2.8654  1.0390
 4856SOL    HW226028   1.328   0.283  16.400 -0.1327  1.9545 -0.7679
 4857SOL     OW26029   1.833   2.480   4.739 -0.5601 -0.1059  0.1318
 4857SOL    HW126030   1.789   2.414   4.685  1.8015  0.3982 -2.4175
 4857SOL    HW226031   1.926   2.459   4.733 -0.3742  0.2239  1.7661
 4858SOL     OW26032   1.891   3.102   1.127  0.1859  0.5566  0.5932
 4858SOL    HW126033   1.899   3.070   1.037 -0.2230 -0.6209  0.9771
 4858SOL    HW226034   1.807   3.147   1.118  0.0834  0.3592  0.5595
 4859SOL     OW26035   3.596   2.860   3.648  0.0098  0.3340  0.1341
 4859SOL    HW126036   3.626   2.891   3.563 -0.2790 -1.3016 -0.5640
 4859SOL    HW226037   3.634   2.772   3.657  0.2626  0.3430 -0.9242
 4860SOL     OW26038   3.168   3.577   5.622 -0.1254  0.3480  0.1294
 4860SOL    HW126039   3.182   3.504   5.562 -2.1263  1.0595 -1.1883
 4860SOL    HW226040   3.138   3.642   5.559 -0.5182  0.1277  0.0915
 4861SOL     OW26041   0.226   0.995   0.381  0.3379  0.7279  0.4141
 4861SOL    HW126042   0.203   1.067   0.440 -1.7574  0.5407 -0.1755
 4861SOL    HW226043   0.308   0.958   0.416 -0.2234 -0.0886  0.8724
 4862SOL     OW26044   1.627   0.192   7.334 -0.0937 -0.4840  0.4686
 4862SOL    HW126045   1.635   0.190   7.239 -1.2349  0.3395  0.3671
 4862SOL    HW226046   1.564   0.264   7.342  0.1328 -0.3054  0.6512
 4863SOL     OW26047   4.288   1.755   1.017 -0.6774  0.1882 -0.3188
 4863SOL    HW126048   4.296   1.800   1.101 -0.8230  1.8606 -1.1772
 4863SOL    HW226049   4.359   1.692   1.028 -0.0658  1.1223  1.0762
 4864SOL     OW26050   2.203   0.789  11.459 -0.3446  0.0438 -0.3427
 4864SOL    HW126051   2.241   0.714  11.413  4.4317  3.1450 -1.4176
 4864SOL    HW226052   2.252   0.787  11.541  0.2523 -0.1671 -0.7061
 4865SOL     OW26053   4.486   3.723   0.630 -0.0512  0.1124  0.0233
 4865SOL    HW126054   4.431   3.775   0.571 -0.5827  0.7929  1.1118
 4865SOL    HW226055   4.504   3.792   0.693 -0.1911 -0.3450  0.5570
 4866SOL     OW26056   4.181   4.654   3.817 -0.0785 -0.0483  0.1183
 4866SOL    HW126057   4.150   4.585   3.758 -0.2977 -0.6784  0.9650
 4866SOL    HW226058   4.268   4.675   3.783  0.0040  0.5309  0.6783
 4867SOL     OW26059   3.702   3.665   2.946  0.2738 -0.1915  0.2897
 4867SOL    HW126060   3.672   3.653   3.036  0.8603  1.4685  0.6958
 4867SOL    HW226061   3.727   3.574   2.927  0.9596 -0.0661  0.5893
 4868SOL     OW26062   4.582   0.579   1.095  0.9039 -0.4638 -0.1460
 4868SOL    HW126063   4.585   0.633   1.174  2.7946  2.0203 -1.9204
 4868SOL    HW226064   4.552   0.496   1.131  1.0001  0.1495  1.3588
 4869SOL     OW26065   1.215   4.080  10.302  0.0906 -0.4035 -0.2455
 4869SOL    HW126066   1.251   4.002  10.345  2.1563  0.9228  0.4558
 4869SOL    HW226067   1.123   4.093  10.324  0.7555  0.5981  2.0313
 4870SOL     OW26068   0.350   1.490   7.385  0.0839  0.5930  0.3172
 4870SOL    HW126069   0.350   1.399   7.414  0.0022  0.6423  0.4724
 4870SOL    HW226070   0.402   1.518   7.461 -1.3337 -1.6156  2.0881
 4871SOL     OW26071   3.839   1.897   1.363 -0.5105  0.0071  0.5034
 4871SOL    HW126072   3.824   1.805   1.343 -0.4688 -0.2980  1.8294
 4871SOL    HW226073   3.766   1.918   1.422 -0.0529  0.4834  0.8891
 4872SOL     OW26074   4.426   0.355   0.328  0.3783  0.2214  0.1472
 4872SOL    HW126075   4.491   0.421   0.303  2.0965 -1.5948 -0.2552
 4872SOL    HW226076   4.485   0.298   0.377 -2.5244 -1.5937  1.5207
 4873SOL     OW26077   0.187   2.433   0.559 -0.1378 -0.4672  0.2570
 4873SOL    HW126078   0.187   2.391   0.473 -0.5195 -1.2759  0.6490
 4873SOL    HW226079   0.101   2.411   0.595  0.1725 -0.0560  1.2709
 4874SOL     OW26080   2.118   4.531   0.782 -0.4311 -0.0182  0.7229
 4874SOL    HW126081   2.088   4.465   0.719 -1.0418 -0.8655  1.9076
 4874SOL    HW226082   2.131   4.600   0.717  0.3088 -1.5342 -0.7499
 4875SOL     OW26083   4.454   1.376   5.789  0.1105 -0.2620  0.5730
 4875SOL    HW126084   4.547   1.367   5.768  0.0975 -0.4384  0.5923
 4875SOL    HW226085   4.459   1.444   5.855 -0.9244  0.2133  0.1599
 4876SOL     OW26086   1.813   3.584   2.942  0.1353  0.0557 -0.5468
 4876SOL    HW126087   1.887   3.619   2.892 -1.0926 -0.1401 -2.4815
 4876SOL    HW226088   1.816   3.489   2.929  1.3138  0.6088 -4.2650
 4877SOL     OW26089   4.547   3.977   2.102 -0.7194  0.0735  0.6848
 4877SOL    HW126090   4.600   4.057   2.107  0.2642 -0.4949 -0.6257
 4877SOL    HW226091   4.464   4.016   2.074 -0.7996 -0.5783  0.0061
 4878SOL     OW26092   2.175   4.151   8.722  0.7732 -0.2973  0.4238
 4878SOL    HW126093   2.258   4.103   8.721  0.2914 -1.2129  4.2516
 4878SOL    HW226094   2.138   4.115   8.803 -1.1752  0.0935 -0.2855
 4879SOL     OW26095   0.718   0.785   9.112 -0.1996 -0.0757  0.3327
 4879SOL    HW126096   0.786   0.743   9.165 -0.0678 -1.3906 -0.8862
 4879SOL    HW226097   0.771   0.851   9.067  1.1338  1.1166  3.6325
 4880SOL     OW26098   4.207   0.248  13.337  0.0723  0.0394  0.6870
 4880SOL    HW126099   4.244   0.275  13.253 -0.7352 -0.2664  0.2275
 4880SOL    HW226100   4.235   0.157  13.342 -1.5795 -0.4096  1.7667
 4881SOL     OW26101   3.141   2.576   5.613 -0.7691  0.4904  0.7272
 4881SOL    HW126102   3.112   2.495   5.654 -0.8540  1.0207  1.6946
 4881SOL    HW226103   3.082   2.647   5.635 -2.9528 -1.1106 -0.0051
 4882SOL     OW26104   1.044   3.218   5.538 -0.2207  0.2149  0.1072
 4882SOL    HW126105   1.122   3.165   5.549  1.1357  1.7348 -2.0484
 4882SOL    HW226106   0.971   3.166   5.570  1.6632 -1.1805  2.0827
 4883SOL     OW26107   2.686   1.480  12.942 -0.1338 -0.0926 -0.0393
 4883SOL    HW126108   2.646   1.565  12.958  1.7620  0.6815  0.5738
 4883SOL    HW226109   2.612   1.435  12.901  1.3635  1.3003 -4.2533
 4884SOL     OW26110   3.381   1.033   1.299  0.4841 -0.0542  0.0444
 4884SOL    HW126111   3.340   1.036   1.386 -2.3734  0.9051 -1.3265
 4884SOL    HW226112   3.331   0.965   1.253 -2.3479  0.8141  1.8129
 4885SOL     OW26113   0.976   2.130   8.430 -0.3278  0.5159  0.3999
 4885SOL    HW126114   0.998   2.213   8.387 -0.8445 -0.3944 -1.6314
 4885SOL    HW226115   0.952   2.081   8.351 -3.5629  0.7492  1.2575
 4886SOL     OW26116   4.471   2.437   1.880  0.1540 -0.2253  0.4720
 4886SOL    HW126117   4.544   2.424   1.820 -0.6097 -0.8304 -0.3260
 4886SOL    HW226118   4.393   2.427   1.825  1.9409 -1.9822 -1.7190
 4887SOL     OW26119   4.096   1.828   0.537 -0.0050  0.4478  0.1650
 4887SOL    HW126120   4.026   1.770   0.508  2.5517 -1.6471 -1.8931
 4887SOL    HW226121   4.121   1.795   0.624  1.3029  2.4939  0.5801
 4888SOL     OW26122   3.303   3.133   8.161 -0.2819 -0.2891 -0.6696
 4888SOL    HW126123   3.224   3.082   8.179 -1.1567  0.9323 -1.0615
 4888SOL    HW226124   3.319   3.156   8.253  1.1334 -1.0765 -0.7240
 4889SOL     OW26125   0.340   0.870  10.504 -0.2141 -0.3870  0.5913
 4889SOL    HW126126   0.245   0.873  10.491 -0.0822 -1.2029 -0.6106
 4889SOL    HW226127   0.360   0.885  10.412 -4.2966  0.4222 -0.1894
 4890SOL     OW26128   4.120   3.506  15.737 -0.4123  0.6473  0.2483
 4890SOL    HW126129   4.169   3.535  15.659 -1.7063 -0.0001 -0.8155
 4890SOL    HW226130   4.035   3.524  15.697  0.0261 -0.1235 -1.0482
 4891SOL     OW26131   0.028   1.101  16.980  0.1784  0.2657 -0.0170
 4891SOL    HW126132   0.095   1.107  16.912  2.3466  1.7917  2.3011
 4891SOL    HW226133   0.064   1.036  17.040  1.2284  0.5649 -0.3241
 4892SOL     OW26134   3.964   4.214   3.585 -0.4189  0.4023  0.0313
 4892SOL    HW126135   4.034   4.192   3.524 -1.7388  0.0709 -1.3936
 4892SOL    HW226136   3.892   4.240   3.527  0.5196  1.8664 -0.4603
 4893SOL     OW26137   2.929   1.996   1.119  0.0004 -0.4502 -0.6094
 4893SOL    HW126138   3.004   2.056   1.126 -2.2022  2.0852  1.2097
 4893SOL    HW226139   2.882   2.018   1.200  0.9009  0.0520 -0.2218
 4894SOL     OW26140   1.363   2.916   8.987 -0.5272  0.4276 -0.0526
 4894SOL    HW126141   1.428   2.853   8.955 -2.4387 -1.4944 -0.1586
 4894SOL    HW226142   1.370   2.902   9.081 -1.2937 -1.1620 -0.2334
 4895SOL     OW26143   3.869   0.269   8.511 -0.9313  0.1563 -0.6643
 4895SOL    HW126144   3.833   0.324   8.580 -0.8498 -2.7234  1.6614
 4895SOL    HW226145   3.789   0.219   8.494 -0.7154 -0.1684 -0.7320
 4896SOL     OW26146   2.831   2.020   2.594  0.3477 -0.2050 -0.3450
 4896SOL    HW126147   2.825   1.943   2.538 -3.5361  2.0138 -3.0685
 4896SOL    HW226148   2.922   2.048   2.588  0.1965  0.4455  0.5062
 4897SOL     OW26149   3.485   3.253   6.870 -0.0523 -0.4846  0.0482
 4897SOL    HW126150   3.559   3.292   6.918 -1.1931 -1.0842  2.2670
 4897SOL    HW226151   3.514   3.274   6.781 -0.5243 -1.9492 -0.4456
 4898SOL     OW26152   2.276   2.237   1.468 -0.5921  0.1130 -0.3310
 4898SOL    HW126153   2.271   2.240   1.563  1.9775 -3.0431 -0.1221
 4898SOL    HW226154   2.302   2.327   1.449  1.0654 -0.0017  1.4840
 4899SOL     OW26155   3.464   4.060   8.192  0.0447  0.3041  0.2632
 4899SOL    HW126156   3.425   4.091   8.273 -2.1839  0.1995 -0.7852
 4899SOL    HW226157   3.429   3.971   8.199  0.0665  0.1571 -1.5072
 4900SOL     OW26158   2.579   3.219   7.842 -0.0857  0.3893 -0.0148
 4900SOL    HW126159   2.498   3.213   7.892 -0.3573  0.5287 -0.4337
 4900SOL    HW226160   2.567   3.304   7.800  0.6742  0.1601 -0.6912
 4901SOL     OW26161   0.765   0.077   4.015  0.3085 -0.1269  0.2519
 4901SOL    HW126162   0.835   0.025   3.975 -1.2941 -0.0130 -2.7090
 4901SOL    HW226163   0.746   0.147   3.951 -0.2298  0.4570  1.0516
 4902SOL     OW26164   0.913   2.869   2.258  0.2646 -0.5666 -0.1876
 4902SOL    HW126165   0.966   2.841   2.333 -0.1054  0.0752  0.3180
 4902SOL    HW226166   0.983   2.840   2.199  0.3211 -2.0743  0.6423
 4903SOL     OW26167   2.054   0.950   6.182  0.6791  0.0386  0.2174
 4903SOL    HW126168   2.026   0.859   6.191  1.9018 -0.3917 -0.3894
 4903SOL    HW226169   2.063   0.968   6.276  0.0531 -0.8828  0.4507
 4904SOL     OW26170   1.855   0.601  15.776 -0.1210 -0.2240 -0.2768
 4904SOL    HW126171   1.777   0.546  15.768  0.4347 -0.4987 -3.5854
 4904SOL    HW226172   1.819   0.689  15.791  1.7628  0.3552  0.8404
 4905SOL     OW26173   0.711   4.035   8.604  0.8239  0.3059  0.4527
 4905SOL    HW126174   0.637   4.004   8.551  1.5225 -0.8493  0.1645
 4905SOL    HW226175   0.771   4.059   8.533  0.4264 -0.3716 -0.1096
 4906SOL     OW26176   1.203   0.944  12.192  0.0469  0.8665 -0.2399
 4906SOL    HW126177   1.131   1.004  12.174 -0.7887 -0.6989 -2.1255
 4906SOL    HW226178   1.234   0.923  12.103 -0.7379  1.3220 -0.6160
 4907SOL     OW26179   3.853   3.812   8.259 -0.4690 -0.7958 -0.4180
 4907SOL    HW126180   3.801   3.868   8.201  0.2947 -0.4550 -0.7623
 4907SOL    HW226181   3.922   3.875   8.276 -0.1579 -1.7167  1.8189
 4908SOL     OW26182   4.455   4.458  13.637  0.0921  0.2119 -0.5457
 4908SOL    HW126183   4.540   4.500  13.623  0.7781 -0.9003  0.3258
 4908SOL    HW226184   4.434   4.424  13.550  0.2390  0.6394 -0.7461
 4909SOL     OW26185   3.567   2.217   2.196 -0.1989  0.2421 -0.0382
 4909SOL    HW126186   3.504   2.198   2.126 -0.4633  1.7852 -0.2057
 4909SOL    HW226187   3.645   2.219   2.140 -1.0623  1.7963 -1.1972
 4910SOL     OW26188   2.857   2.689   3.576 -0.2990 -0.0618  0.1754
 4910SOL    HW126189   2.857   2.785   3.569 -3.9337  0.0073  1.5167
 4910SOL    HW226190   2.874   2.663   3.485 -0.1516  0.7388 -0.0314
 4911SOL     OW26191   0.708   2.389  16.967  0.1288  0.0862 -0.3782
 4911SOL    HW126192   0.783   2.443  16.990 -0.1407  0.3626 -0.1572
 4911SOL    HW226193   0.657   2.452  16.917  2.1549 -0.5378 -3.2324
 4912SOL     OW26194   3.030   4.480   6.193  0.0615  0.9017  0.6435
 4912SOL    HW126195   2.987   4.417   6.134  0.2531  2.2675 -0.9626
 4912SOL    HW226196   3.015   4.444   6.280  1.5623 -0.9174  0.1361
 4913SOL     OW26197   1.664   1.352  15.005  0.5984 -0.2864 -0.8477
 4913SOL    HW126198   1.655   1.364  14.911 -2.1901 -2.0799 -0.8100
 4913SOL    HW226199   1.758   1.335  15.008  0.6246  0.4735  3.2997
 4914SOL     OW26200   4.155   3.144   3.879 -0.1778 -0.1815 -0.3624
 4914SOL    HW126201   4.111   3.226   3.903  0.5417 -0.5717  2.2484
 4914SOL    HW226202   4.244   3.178   3.868 -1.3297  3.0283  0.1340
 4915SOL     OW26203   3.094   4.135   8.677 -0.1584  0.3040 -0.2869
 4915SOL    HW126204   3.172   4.148   8.624 -0.2304 -1.3342 -0.7704
 4915SOL    HW226205   3.120   4.149   8.768 -2.1356 -1.3602  0.5426
 4916SOL     OW26206   0.027   3.146   2.207  0.8925 -0.3458  0.2779
 4916SOL    HW126207   0.076   3.228   2.216 -0.9153  0.6338  1.0892
 4916SOL    HW226208   0.027   3.118   2.116 -0.4022  0.2369  0.0993
 4917SOL     OW26209   4.040   4.340   6.675  0.2825  0.3472 -0.1765
 4917SOL    HW126210   4.011   4.384   6.755  0.7971  0.4073 -0.0252
 4917SOL    HW226211   4.101   4.273   6.707  0.9331 -0.2072 -2.5923
 4918SOL     OW26212   0.183   1.981   6.850 -0.2653  0.0702  0.2233
 4918SOL    HW126213   0.088   1.974   6.864 -0.1937  2.8024  2.0843
 4918SOL    HW226214   0.203   1.894   6.886  1.4113  1.0297  1.5903
 4919SOL     OW26215   0.430   0.219   2.384 -0.3991  0.0340  0.6290
 4919SOL    HW126216   0.518   0.185   2.402  0.2366  0.2597 -2.0337
 4919SOL    HW226217   0.441   0.227   2.289  0.2343 -1.3647  0.5722
 4920SOL     OW26218   1.814   0.239   7.540  0.3638  0.4378  0.3727
 4920SOL    HW126219   1.849   0.324   7.515 -0.2098  0.7523  0.6449
 4920SOL    HW226220   1.747   0.215   7.477  0.2950 -0.0807  0.6362
 4921SOL     OW26221   2.247   3.000   6.048  0.0103 -0.7075 -0.1309
 4921SOL    HW126222   2.318   2.977   5.987 -0.1959 -0.3448 -0.5063
 4921SOL    HW226223   2.266   2.964   6.135 -1.7870 -2.0242 -0.2874
 4922SOL     OW26224   2.706   3.804  12.185  0.0452 -0.1121  0.8639
 4922SOL    HW126225   2.710   3.734  12.120 -0.3760  0.3735  0.3209
 4922SOL    HW226226   2.697   3.885  12.134 -0.4516 -0.1973  0.8180
 4923SOL     OW26227   4.194   3.217   5.254  0.3265  0.5960  0.1344
 4923SOL    HW126228   4.138   3.166   5.195 -2.3287  1.8182  1.6056
 4923SOL    HW226229   4.189   3.159   5.330  0.6885  0.0669 -0.2468
 4924SOL     OW26230   3.171   4.666  10.527  0.3451  0.2790 -0.7419
 4924SOL    HW126231   3.187   4.577  10.558 -0.1602  0.1582 -0.8262
 4924SOL    HW226232   3.209   4.722  10.595 -3.2110  1.4142  0.3056
 4925SOL     OW26233   0.074   4.245   2.827 -0.9215  0.3052 -0.0797
 4925SOL    HW126234   0.057   4.151   2.831 -0.1519  0.1615 -0.3349
 4925SOL    HW226235   0.010   4.273   2.893  1.3420  1.9053  1.4436
 4926SOL     OW26236   2.367   0.352   5.375  0.2124  0.2855 -0.6334
 4926SOL    HW126237   2.284   0.342   5.423  0.1982  0.7478 -0.5607
 4926SOL    HW226238   2.325   0.381   5.294 -0.7678  0.4204 -0.0736
 4927SOL     OW26239   0.870   1.759   4.869 -0.5297 -0.3193 -0.1005
 4927SOL    HW126240   0.824   1.837   4.902  1.3297  1.3631 -1.4466
 4927SOL    HW226241   0.954   1.777   4.913 -1.4429  1.5465  0.8813
 4928SOL     OW26242   3.670   1.658   5.458  0.0409 -0.2983  0.0644
 4928SOL    HW126243   3.616   1.712   5.516  0.7927  1.9638 -1.3077
 4928SOL    HW226244   3.606   1.624   5.396  0.7298 -0.4963 -0.5353
 4929SOL     OW26245   4.400   1.041  14.966 -1.0674 -0.2556 -0.5649
 4929SOL    HW126246   4.348   1.117  14.993 -2.2313 -0.7115 -1.5198
 4929SOL    HW226247   4.395   0.989  15.046  0.5998 -0.3242 -0.5050
 4930SOL     OW26248   2.581   2.858   3.184  0.1396  0.0025 -0.6163
 4930SOL    HW126249   2.616   2.774   3.216  0.4558  1.2121  2.1121
 4930SOL    HW226250   2.560   2.838   3.092 -1.2242  0.2803 -0.3589
 4931SOL     OW26251   1.217   1.222   9.344  0.3689  0.1373 -0.5587
 4931SOL    HW126252   1.269   1.239   9.266  1.0582 -1.5142 -0.4600
 4931SOL    HW226253   1.136   1.193   9.303  0.1657 -3.1377  2.1514
 4932SOL     OW26254   2.584   4.710   5.345 -0.1556  0.0944 -0.1170
 4932SOL    HW126255   2.612   0.075   5.366  2.5446 -1.1126  1.3631
 4932SOL    HW226256   2.500   4.705   5.392  0.0247 -0.3890  0.1597
 4933SOL     OW26257   3.486   4.272   4.375 -0.4513 -0.1993 -0.0277
 4933SOL    HW126258   3.458   4.182   4.385  0.7193 -0.6117 -0.4004
 4933SOL    HW226259   3.408   4.299   4.326  1.2766 -0.5843 -3.0000
 4934SOL     OW26260   3.564   4.615  14.077 -0.6136  0.0314  0.4152
 4934SOL    HW126261   3.550   4.569  14.159  0.4669 -1.3147 -0.1464
 4934SOL    HW226262   3.475   4.642  14.055 -0.4827  0.6320  0.6360
 4935SOL     OW26263   3.617   1.964  15.929  0.5004  0.0940  0.5503
 4935SOL    HW126264   3.626   2.059  15.915  0.2660 -0.1159 -1.0889
 4935SOL    HW226265   3.707   1.944  15.956  0.9927  0.1728 -1.0337
 4936SOL     OW26266   0.873   2.446   5.357  0.1901 -0.3122 -0.4117
 4936SOL    HW126267   0.964   2.446   5.325  0.4076 -1.6938  0.1930
 4936SOL    HW226268   0.860   2.530   5.400  1.0133  0.8864 -2.4823
 4937SOL     OW26269   2.583   4.685  11.031 -0.4452  0.0871  0.2234
 4937SOL    HW126270   2.550   4.636  10.955  1.0802 -0.6028  0.0110
 4937SOL    HW226271   2.508   0.014  11.058 -0.7723 -0.6507  0.7336
 4938SOL     OW26272   2.976   0.429   7.226 -0.2026  0.5429  0.1026
 4938SOL    HW126273   2.964   0.465   7.138 -3.2238  0.8794  0.6268
 4938SOL    HW226274   2.910   0.359   7.221 -0.5947  0.6728  3.4435
 4939SOL     OW26275   0.038   3.702   0.842 -0.0274  0.2719  0.2976
 4939SOL    HW126276   4.679   3.720   0.795 -0.2008 -1.4277 -0.0593
 4939SOL    HW226277   0.098   3.732   0.774 -1.2348 -2.1834 -1.8639
 4940SOL     OW26278   4.253   4.259  12.904 -0.4096 -0.1185  0.2394
 4940SOL    HW126279   4.320   4.212  12.954  0.2351  0.6607  0.1005
 4940SOL    HW226280   4.200   4.191  12.862 -1.0425  1.5273 -1.6542
 4941SOL     OW26281   1.652   3.859  14.498  0.0876  0.1400 -0.2083
 4941SOL    HW126282   1.565   3.855  14.457 -0.7286  2.1826  1.3294
 4941SOL    HW226283   1.677   3.767  14.497  0.0706  0.0943  2.1443
 4942SOL     OW26284   3.642   3.680  12.817  0.3652 -0.2530  0.0719
 4942SOL    HW126285   3.711   3.689  12.751  0.6177  0.0128  0.3712
 4942SOL    HW226286   3.618   3.772  12.820  2.4976  0.3063  0.0602
 4943SOL     OW26287   4.698   3.017  12.304  0.4835  0.2776 -0.4038
 4943SOL    HW126288   0.031   3.076  12.254  1.3140  0.7070  1.0459
 4943SOL    HW226289   4.615   3.029  12.257 -0.9943 -0.9030  1.8589
 4944SOL     OW26290   4.401   2.068  15.969 -0.1502  0.2222 -0.2876
 4944SOL    HW126291   4.491   2.036  15.965 -0.2292  0.0830 -0.9352
 4944SOL    HW226292   4.354   2.007  15.913  0.3249 -0.6556  0.2672
 4945SOL     OW26293   0.112   1.106   6.996 -0.2891  0.5837  0.3840
 4945SOL    HW126294   0.105   1.020   6.956 -1.2294  2.1369 -2.7854
 4945SOL    HW226295   0.108   1.164   6.920 -2.3080  0.3371  0.3275
 4946SOL     OW26296   0.633   1.462   6.827  0.3182 -0.6670  0.3540
 4946SOL    HW126297   0.544   1.473   6.860  0.2856  1.0706 -0.3180
 4946SOL    HW226298   0.690   1.473   6.903 -0.0920  0.8273  0.4468
 4947SOL     OW26299   3.177   2.127   6.061  0.5448 -0.4430  0.0899
 4947SOL    HW126300   3.240   2.070   6.018  1.1631 -0.3124  0.8169
 4947SOL    HW226301   3.213   2.205   6.019 -0.3815  0.5052  1.0557
 4948SOL     OW26302   0.328   2.984  17.098  0.0747  0.4360  0.1542
 4948SOL    HW126303   0.324   3.065  17.150 -4.0935 -0.4590  1.1982
 4948SOL    HW226304   0.358   2.918  17.160  2.2808 -0.3157 -1.7105
 4949SOL     OW26305   0.856   2.094   5.679 -0.2127 -0.0090  0.6443
 4949SOL    HW126306   0.831   2.137   5.761 -0.9381  0.7274  0.0441
 4949SOL    HW226307   0.951   2.097   5.687 -0.1707  0.5148 -0.0946
 4950SOL     OW26308   1.507   2.922  16.067 -0.0144  0.5381  0.2218
 4950SOL    HW126309   1.584   2.865  16.068 -0.0970  0.3867 -2.4296
 4950SOL    HW226310   1.559   3.003  16.070 -0.6357  0.9942 -1.3316
 4951SOL     OW26311   4.133   1.474   4.182  0.3560 -0.5036 -0.2830
 4951SOL    HW126312   4.212   1.489   4.234  1.0330 -0.2435 -1.3846
 4951SOL    HW226313   4.143   1.541   4.114 -1.6981  0.3960  0.3061
 4952SOL     OW26314   1.099   0.147   4.051 -0.2580  0.4412  0.3016
 4952SOL    HW126315   1.180   0.176   4.093  1.0642 -0.9885 -1.2250
 4952SOL    HW226316   1.082   0.235   4.017  1.3525  0.0355 -1.5686
 4953SOL     OW26317   4.028   2.075   3.577  0.0854 -0.3356  0.6922
 4953SOL    HW126318   4.001   1.991   3.615 -0.8565  0.7158  2.3474
 4953SOL    HW226319   4.038   2.052   3.485  2.0640 -0.7517  1.0063
 4954SOL     OW26320   2.291   3.951  11.324  0.4069 -0.4014 -0.2475
 4954SOL    HW126321   2.369   3.987  11.283  0.6609 -0.0014  0.5753
 4954SOL    HW226322   2.329   3.870  11.357 -0.0405 -1.4609 -2.3505
 4955SOL     OW26323   0.864   1.797   7.189  0.3607  0.1331 -0.0358
 4955SOL    HW126324   0.955   1.824   7.192  0.4325 -0.2258  1.1521
 4955SOL    HW226325   0.831   1.853   7.259 -0.0013  0.1491 -0.2179
 4956SOL     OW26326   2.900   3.768   3.889 -0.6680 -0.1227  0.0873
 4956SOL    HW126327   2.866   3.790   3.802  0.1207  1.4855  0.1849
 4956SOL    HW226328   2.840   3.697   3.910  0.9286 -0.8831  2.0628
 4957SOL     OW26329   3.847   3.653  11.898 -0.0591 -0.2464  0.3176
 4957SOL    HW126330   3.937   3.670  11.870  0.3514 -2.4745  0.2961
 4957SOL    HW226331   3.859   3.660  11.993  1.0222 -0.4859  0.1923
 4958SOL     OW26332   2.376   2.900   2.862  0.3919  0.2802 -0.3572
 4958SOL    HW126333   2.333   2.858   2.788 -2.1424 -0.0814  1.3113
 4958SOL    HW226334   2.352   2.847   2.938  0.1990  0.3079 -0.3995
 4959SOL     OW26335   0.719   0.697  14.821 -0.9016  0.0510  0.4376
 4959SOL    HW126336   0.743   0.778  14.866 -1.4107 -1.0387  2.6190
 4959SOL    HW226337   0.668   0.647  14.885 -0.3186 -0.6363  0.3643
 4960SOL     OW26338   2.542   2.874   9.930  0.5727  0.1835 -0.5672
 4960SOL    HW126339   2.531   2.795   9.984 -0.3849  0.6344 -0.0973
 4960SOL    HW226340   2.465   2.926   9.955 -0.5029 -1.3515 -0.6548
 4961SOL     OW26341   0.535   3.796   4.884 -0.5074  0.4508 -0.0436
 4961SOL    HW126342   0.592   3.783   4.960 -0.1555 -0.7051 -0.5165
 4961SOL    HW226343   0.602   3.830   4.826 -0.7570 -0.0428 -0.6126
 4962SOL     OW26344   3.221   4.337  14.440  0.4360  0.6227  0.1857
 4962SOL    HW126345   3.228   4.332  14.344 -1.8613  0.6388  0.0059
 4962SOL    HW226346   3.182   4.425  14.443 -1.8209 -0.4192  1.7400
 4963SOL     OW26347   3.292   3.825  11.124  0.3582 -0.4237 -0.0227
 4963SOL    HW126348   3.272   3.841  11.031  0.8695 -0.0542 -0.0740
 4963SOL    HW226349   3.237   3.885  11.175 -0.9944 -1.9268  0.2950
 4964SOL     OW26350   0.951   4.246   5.597  0.3837 -0.2471  0.3128
 4964SOL    HW126351   1.043   4.255   5.571  0.1167  3.0341  0.4936
 4964SOL    HW226352   0.945   4.278   5.687 -4.8766  0.1659 -0.1663
 4965SOL     OW26353   4.602   0.553   0.255 -0.1052  0.3502 -0.5415
 4965SOL    HW126354   4.687   0.532   0.216 -0.5783 -0.4587 -1.1241
 4965SOL    HW226355   4.559   0.609   0.190  2.1647 -0.2702 -2.5588
 4966SOL     OW26356   1.413   2.937   6.472  0.0367 -0.3162  0.1375
 4966SOL    HW126357   1.355   2.938   6.548  2.1126 -0.6806  1.7374
 4966SOL    HW226358   1.483   2.994   6.505 -0.1218 -0.3072  0.4564
 4967SOL     OW26359   1.499   2.450   5.592  0.9895 -0.2934 -0.9042
 4967SOL    HW126360   1.492   2.374   5.650 -0.0020  1.0487  0.7474
 4967SOL    HW226361   1.545   2.424   5.512 -0.9016 -0.0874 -2.0667
 4968SOL     OW26362   1.221   4.655  13.377  0.5782 -0.0961  0.5316
 4968SOL    HW126363   1.132   4.625  13.395 -0.2803  2.5155  0.7574
 4968SOL    HW226364   1.229   4.649  13.282  2.5814  0.6601  0.6473
 4969SOL     OW26365   4.068   4.055   3.058  0.3747 -0.3098  0.2453
 4969SOL    HW126366   3.992   4.041   3.002  1.0397  2.6486 -1.4058
 4969SOL    HW226367   4.088   4.147   3.040  0.4315 -0.5928 -1.1706
 4970SOL     OW26368   3.825   3.219   7.951  0.1481 -0.3393 -0.2654
 4970SOL    HW126369   3.731   3.238   7.951  0.1976 -0.1287  2.7504
 4970SOL    HW226370   3.849   3.311   7.958 -3.8684  0.6009  1.0093
 4971SOL     OW26371   2.421   1.240   8.253  0.1466 -0.4135 -0.3427
 4971SOL    HW126372   2.447   1.331   8.270 -0.0914 -0.3288 -0.4214
 4971SOL    HW226373   2.436   1.187   8.331  0.0612 -0.9553 -0.6938
 4972SOL     OW26374   1.720   2.294   6.182 -0.0413 -0.9503 -1.0292
 4972SOL    HW126375   1.662   2.302   6.258  0.3231 -0.8710 -0.7549
 4972SOL    HW226376   1.784   2.363   6.198  0.8076 -1.3834 -2.5489
 4973SOL     OW26377   2.474   2.643   8.711 -0.3595  0.1171  0.2614
 4973SOL    HW126378   2.434   2.642   8.798  2.3236 -2.5924  1.4685
 4973SOL    HW226379   2.416   2.585   8.661 -2.1398  2.7897 -0.7571
 4974SOL     OW26380   0.246   2.890   1.261 -0.5603 -1.2114  0.4018
 4974SOL    HW126381   0.294   2.937   1.329  0.2049  2.1895 -2.4586
 4974SOL    HW226382   0.316   2.831   1.233  0.3540  0.8621 -1.6774
 4975SOL     OW26383   0.741   0.213   0.472  0.0218  0.0512  0.0395
 4975SOL    HW126384   0.760   0.129   0.431  1.1702  0.6285 -0.5977
 4975SOL    HW226385   0.797   0.271   0.421  1.3368  0.8922  2.4429
 4976SOL     OW26386   4.100   0.401   8.413  0.0013 -1.0906  0.3576
 4976SOL    HW126387   4.010   0.369   8.413 -0.4268  0.1333 -0.1304
 4976SOL    HW226388   4.091   0.478   8.469  1.8044 -0.3943 -0.3100
 4977SOL     OW26389   3.324   0.822   0.413  0.7952 -0.1762  0.2079
 4977SOL    HW126390   3.269   0.900   0.417  1.4560  0.2853  0.2529
 4977SOL    HW226391   3.259   0.752   0.423 -1.8450  1.7340 -3.6373
 4978SOL     OW26392   4.693   3.534  12.574  0.6630 -0.2156  0.3187
 4978SOL    HW126393   4.716   3.607  12.631 -0.1166  0.0973  0.2390
 4978SOL    HW226394   4.621   3.502  12.629  0.2388 -1.3293 -0.8771
 4979SOL     OW26395   3.635   2.223   1.433 -0.1567  0.4499 -0.0431
 4979SOL    HW126396   3.565   2.206   1.370  1.4727  0.4046 -1.8446
 4979SOL    HW226397   3.623   2.140   1.480 -1.2729  1.2563  1.0908
 4980SOL     OW26398   1.810   4.153   2.815 -0.3793 -0.3075  0.3537
 4980SOL    HW126399   1.854   4.160   2.899  0.6314 -1.4266 -0.0868
 4980SOL    HW226400   1.748   4.225   2.809  0.4482  0.1955 -2.2636
 4981SOL     OW26401   0.435   0.127   9.205  0.4088 -0.0828 -0.3879
 4981SOL    HW126402   0.467   0.194   9.145  2.2119 -0.9879 -0.4183
 4981SOL    HW226403   0.501   0.059   9.193 -1.0715 -1.5685 -0.2290
 4982SOL     OW26404   0.430   0.038   4.705  0.3395  0.1674  0.7376
 4982SOL    HW126405   0.457   0.077   4.787  3.1246  2.1111 -1.1048
 4982SOL    HW226406   0.497   4.693   4.701 -0.1798 -0.4513  2.5528
 4983SOL     OW26407   3.559   1.999   7.448  0.2239  1.1608 -0.6061
 4983SOL    HW126408   3.534   1.986   7.540 -2.4525 -0.3526 -1.5501
 4983SOL    HW226409   3.651   2.024   7.463  0.2022  1.4492 -0.9737
 4984SOL     OW26410   0.572   3.757  15.869 -0.0712  0.3982  0.3518
 4984SOL    HW126411   0.649   3.744  15.813 -1.4428  0.2177 -1.4739
 4984SOL    HW226412   0.575   3.852  15.884  0.8416  0.2577  1.0622
 4985SOL     OW26413   4.201   0.796   6.919 -0.5810 -0.1859 -0.1771
 4985SOL    HW126414   4.117   0.809   6.875 -0.7719 -0.0425  0.2246
 4985SOL    HW226415   4.193   0.848   7.000  1.3400  0.5077 -0.4497
 4986SOL     OW26416   3.363   1.740   8.453 -0.5973 -0.1294  0.0629
 4986SOL    HW126417   3.382   1.814   8.396  0.5460  0.0199  0.6388
 4986SOL    HW226418   3.396   1.791   8.527 -1.8042  0.9374 -0.1341
 4987SOL     OW26419   1.369   1.499   7.119 -0.6445 -0.0412  0.2073
 4987SOL    HW126420   1.403   1.446   7.047  0.6864  0.1301  0.7161
 4987SOL    HW226421   1.295   1.540   7.075 -0.6139  0.6145  0.7712
 4988SOL     OW26422   4.114   2.678   4.658 -0.0071  0.0938  0.0755
 4988SOL    HW126423   4.076   2.697   4.743 -0.9075 -1.6231  0.0625
 4988SOL    HW226424   4.200   2.716   4.673 -0.4033  0.9455  0.1807
 4989SOL     OW26425   2.457   1.866   2.265 -0.0358  0.4156  0.3765
 4989SOL    HW126426   2.427   1.813   2.191  1.6700  0.4209 -0.3238
 4989SOL    HW226427   2.518   1.923   2.218  0.9950 -0.2329  0.9282
 4990SOL     OW26428   1.086   1.568   6.228 -0.1588 -0.1127  0.5770
 4990SOL    HW126429   1.094   1.507   6.301  0.1799 -1.4095 -0.5479
 4990SOL    HW226430   1.178   1.589   6.211 -0.0773 -0.6135  0.4005
 4991SOL     OW26431   4.601   3.326   5.143 -0.6322 -0.3282  0.1866
 4991SOL    HW126432   4.520   3.315   5.092 -0.7579  0.2029  0.2753
 4991SOL    HW226433   4.595   3.416   5.173  0.4065  0.5314 -2.1652
 4992SOL     OW26434   0.038   1.377   8.802  0.0957  0.8542 -0.0090
 4992SOL    HW126435   0.083   1.457   8.776  0.1823  0.4426 -1.1491
 4992SOL    HW226436   0.075   1.371   8.890 -0.8293 -0.4332  0.2858
 4993SOL     OW26437   0.660   0.620   3.654 -0.2762  0.3473 -0.3613
 4993SOL    HW126438   0.652   0.666   3.737 -1.1957  0.2872 -0.4103
 4993SOL    HW226439   0.698   0.695   3.607  1.3331  1.2401  2.4107
 4994SOL     OW26440   2.790   3.574   3.089 -0.0083  0.9411  0.3784
 4994SOL    HW126441   2.728   3.552   3.159  0.1345 -2.7962 -0.6721
 4994SOL    HW226442   2.816   3.661   3.118  1.7358 -0.0922  1.9087
 4995SOL     OW26443   4.683   4.210   2.121  0.1315 -0.0262 -0.2274
 4995SOL    HW126444   4.627   4.279   2.087 -1.6239 -0.9090  0.8636
 4995SOL    HW226445   0.008   4.181   2.044  1.7036 -2.6898  1.7589
 4996SOL     OW26446   1.245   3.744  15.730 -0.2950 -0.2528  0.0107
 4996SOL    HW126447   1.296   3.822  15.710 -0.1225 -0.8682 -2.0038
 4996SOL    HW226448   1.281   3.676  15.673 -2.1452 -1.2667  0.0600
 4997SOL     OW26449   4.563   3.915   0.807  0.3768  0.1935  0.0033
 4997SOL    HW126450   4.498   3.957   0.862  1.1448 -0.0536  1.0898
 4997SOL    HW226451   4.640   3.971   0.811 -1.2432  2.2927  1.5724
 4998SOL     OW26452   2.571   1.301   4.100  0.2730 -0.1176 -0.2795
 4998SOL    HW126453   2.528   1.338   4.177 -0.8005  0.1096 -0.9935
 4998SOL    HW226454   2.501   1.300   4.034  1.8980 -0.7982 -2.0047
 4999SOL     OW26455   4.154   2.197   2.697 -0.1166 -0.5119  0.0343
 4999SOL    HW126456   4.068   2.174   2.662  0.3610  0.0661 -1.5602
 4999SOL    HW226457   4.185   2.261   2.632 -0.7246 -2.5775 -2.2924
 5000SOL     OW26458   3.335   2.886   7.293  0.1252 -0.0179 -0.3516
 5000SOL    HW126459   3.254   2.837   7.277 -0.1647  0.4857 -0.4416
 5000SOL    HW226460   3.321   2.916   7.383  1.2158  1.4862 -0.6797
 5001SOL     OW26461   3.496   4.646  10.931  0.6175 -0.1623 -0.1268
 5001SOL    HW126462   3.586   4.648  10.962 -0.1897 -1.1704  2.2791
 5001SOL    HW226463   3.458   4.590  10.999  0.9402 -1.5705 -1.1086
 5002SOL     OW26464   2.254   1.149   1.777 -0.3378 -0.6108 -0.8038
 5002SOL    HW126465   2.297   1.228   1.743  0.8497 -0.4815  1.0262
 5002SOL    HW226466   2.184   1.188   1.829 -0.3264 -1.0300 -0.4721
 5003SOL     OW26467   3.425   3.697   1.976  0.3606 -0.7443 -0.3631
 5003SOL    HW126468   3.471   3.651   2.046  0.0908 -1.2213 -0.4995
 5003SOL    HW226469   3.421   3.782   2.021  0.3290 -0.2335 -1.3326
 5004SOL     OW26470   0.008   1.678  14.960  0.3665 -0.0290  0.3736
 5004SOL    HW126471   0.102   1.672  14.942  0.0979  1.2542 -1.4467
 5004SOL    HW226472   4.704   1.682  14.868 -1.7837 -0.8474  0.9883
 5005SOL     OW26473   3.800   1.316   4.449 -0.8150 -0.1232  0.0109
 5005SOL    HW126474   3.834   1.406   4.448 -0.0507 -0.4142 -0.4938
 5005SOL    HW226475   3.842   1.285   4.369  2.7599 -0.0479  1.8878
 5006SOL     OW26476   1.695   2.291   2.095 -0.1738  0.1125 -0.3675
 5006SOL    HW126477   1.648   2.283   2.012  1.6683 -0.0181 -1.3892
 5006SOL    HW226478   1.742   2.208   2.101  1.9422  1.2173 -1.5040
 5007SOL     OW26479   3.313   2.767   5.138  0.4093 -0.2905 -0.3170
 5007SOL    HW126480   3.403   2.736   5.143  0.6694  0.5768  0.3623
 5007SOL    HW226481   3.265   2.686   5.120  0.0150 -0.3003  0.7775
 5008SOL     OW26482   2.385   1.144   4.296  0.9868  0.0653  0.0962
 5008SOL    HW126483   2.296   1.168   4.270  1.3387 -0.5974 -1.7334
 5008SOL    HW226484   2.418   1.229   4.322  1.6400  0.3840 -1.7979
 5009SOL     OW26485   2.776   2.581   7.688 -0.6405  0.2646 -0.2336
 5009SOL    HW126486   2.689   2.603   7.653 -1.4102 -0.7908  1.0087
 5009SOL    HW226487   2.793   2.508   7.628 -0.3957 -0.5553  0.8210
 5010SOL     OW26488   2.191   2.873   0.405  0.2565 -0.2329 -0.0280
 5010SOL    HW126489   2.127   2.804   0.423 -1.7425  1.1552 -1.7762
 5010SOL    HW226490   2.244   2.872   0.484 -2.4068 -1.6031  1.7600
 5011SOL     OW26491   3.958   3.976   1.409 -0.1521 -0.0204 -0.4696
 5011SOL    HW126492   3.924   3.921   1.480  0.4818 -1.0639 -0.9784
 5011SOL    HW226493   3.887   4.029   1.372 -0.7482  0.4233  1.2952
 5012SOL     OW26494   2.506   3.810   3.273  0.1551 -0.9091  0.3626
 5012SOL    HW126495   2.466   3.755   3.341  1.0559 -2.0061 -0.0026
 5012SOL    HW226496   2.511   3.755   3.195  2.8244 -0.9221  0.5377
 5013SOL     OW26497   2.904   1.868   5.206  0.3249  0.0686  0.3139
 5013SOL    HW126498   2.913   1.816   5.286 -1.2971  1.2501  1.2688
 5013SOL    HW226499   2.909   1.802   5.136 -0.3037 -0.5254  0.8308
 5014SOL     OW26500   0.965   0.004   8.472  1.1376 -0.4196  0.2330
 5014SOL    HW126501   0.887   0.044   8.510  0.1240 -0.7777 -1.4932
 5014SOL    HW226502   0.929   4.694   8.390  1.1673 -0.7512  0.3501
 5015SOL     OW26503   0.573   4.168   1.135 -0.1617  0.4701  0.9103
 5015SOL    HW126504   0.542   4.110   1.204 -1.0220  2.5451  2.2805
 5015SOL    HW226505   0.660   4.130   1.122 -0.0508  1.1651 -0.3861
 5016SOL     OW26506   0.001   2.188   4.259  0.2989 -0.3073 -0.8068
 5016SOL    HW126507   4.639   2.204   4.216 -0.2236  0.9539  0.7096
 5016SOL    HW226508   0.059   2.255   4.221 -1.0100  1.3745  0.1571
 5017SOL     OW26509   2.186   1.979   8.838 -0.1668  0.1090 -0.1174
 5017SOL    HW126510   2.129   1.972   8.762 -2.3346 -2.4375  1.6992
 5017SOL    HW226511   2.214   2.070   8.831 -0.2282 -0.0031 -1.6339
 5018SOL     OW26512   4.633   3.926  16.201  0.0427  0.3126  0.3338
 5018SOL    HW126513   4.714   3.878  16.221  0.6313  0.8140 -0.8369
 5018SOL    HW226514   4.580   3.910  16.279  0.4073  4.7199  1.4987
 5019SOL     OW26515   2.521   1.595   7.827 -0.4994  0.2870  0.1475
 5019SOL    HW126516   2.426   1.585   7.818 -0.2280 -0.9401 -1.1625
 5019SOL    HW226517   2.526   1.544   7.908  2.3306 -1.3138 -1.0416
 5020SOL     OW26518   0.436   3.364   4.253 -0.2116 -0.4603 -0.0990
 5020SOL    HW126519   0.498   3.358   4.180  0.0275  2.9465 -0.1426
 5020SOL    HW226520   0.493   3.422   4.303 -1.2929 -1.4828  2.3188
 5021SOL     OW26521   0.563   0.301   0.668 -0.8158  0.5579 -0.4926
 5021SOL    HW126522   0.629   0.283   0.600  0.9198  2.6863  0.6630
 5021SOL    HW226523   0.502   0.232   0.641 -1.0667  0.6750 -0.2219
 5022SOL     OW26524   3.451   1.723   7.468 -0.0108 -0.1009  0.1741
 5022SOL    HW126525   3.357   1.739   7.456  0.3574  1.3135 -0.7560
 5022SOL    HW226526   3.495   1.796   7.426 -2.8818  2.1087  0.9476
 5023SOL     OW26527   3.252   2.897   4.916 -0.3879  0.0732  0.2932
 5023SOL    HW126528   3.274   2.856   4.999 -1.5383  1.2132  1.1562
 5023SOL    HW226529   3.257   2.989   4.940 -0.9363  0.8857 -2.6824
 5024SOL     OW26530   4.174   0.952   7.160 -0.4983  0.7314 -0.0174
 5024SOL    HW126531   4.142   0.937   7.249  0.0427  2.5167  0.4857
 5024SOL    HW226532   4.240   1.020   7.175  0.0282  0.3913 -0.8229
 5025SOL     OW26533   1.064   4.283   6.162  0.5017 -0.1738 -0.5502
 5025SOL    HW126534   1.105   4.352   6.215 -1.6496  2.0957 -1.8241
 5025SOL    HW226535   0.981   4.319   6.131 -0.8889 -2.4896  0.5446
 5026SOL     OW26536   2.878   2.896   3.367  0.1120 -0.7930 -0.2037
 5026SOL    HW126537   2.922   2.978   3.343 -0.8988  0.2341  1.4528
 5026SOL    HW226538   2.880   2.843   3.287 -1.7495 -0.9359 -0.1642
 5027SOL     OW26539   1.125   3.483   5.562 -0.4447 -0.1491 -0.3435
 5027SOL    HW126540   1.098   3.393   5.544  0.5298 -0.4594 -0.2338
 5027SOL    HW226541   1.062   3.516   5.626  0.3084 -1.5297  1.0952
 5028SOL     OW26542   2.672   1.142  12.564 -0.0909 -0.1817  0.0312
 5028SOL    HW126543   2.733   1.147  12.490 -0.1938 -0.6776 -0.0858
 5028SOL    HW226544   2.653   1.048  12.570 -1.0182 -0.0265 -0.5982
 5029SOL     OW26545   3.270   3.888   7.701  0.2377 -0.0870  0.2952
 5029SOL    HW126546   3.239   3.963   7.752  2.2684  2.4682 -2.2580
 5029SOL    HW226547   3.326   3.844   7.765 -0.2524 -0.3618  0.5330
 5030SOL     OW26548   2.912   2.410   5.118 -0.0789 -0.0613 -0.3443
 5030SOL    HW126549   2.854   2.335   5.105 -1.0910  0.8042 -0.7928
 5030SOL    HW226550   2.885   2.460   5.041  0.4700 -1.1349 -1.2408
 5031SOL     OW26551   3.112   1.760  12.504  0.6618 -0.6192 -0.0751
 5031SOL    HW126552   3.130   1.683  12.557  0.2169 -1.7056 -1.5058
 5031SOL    HW226553   3.177   1.822  12.538 -1.8932  1.3442  1.2067
 5032SOL     OW26554   4.229   1.574   4.730 -0.1685 -0.0413  0.3794
 5032SOL    HW126555   4.267   1.532   4.807 -0.3345  1.1832  1.1217
 5032SOL    HW226556   4.294   1.547   4.666 -0.0157  0.4965  0.3148
 5033SOL     OW26557   0.389   2.353   6.061 -0.4285 -0.0075 -0.1660
 5033SOL    HW126558   0.401   2.264   6.026  0.1765  0.1663 -0.4167
 5033SOL    HW226559   0.459   2.403   6.018 -0.9917  1.2698  0.4213
 5034SOL     OW26560   2.145   0.807   7.704 -0.2429 -0.0859  0.0856
 5034SOL    HW126561   2.173   0.858   7.628 -0.3847  0.0792  0.1430
 5034SOL    HW226562   2.131   0.716   7.677  0.3116  0.4696 -2.0470
 5035SOL     OW26563   3.567   0.890   8.106  0.4695 -0.5019 -0.3182
 5035SOL    HW126564   3.485   0.848   8.081  0.0776  1.5089 -2.4500
 5035SOL    HW226565   3.581   0.832   8.181  0.2473  1.9664  1.6538
 5036SOL     OW26566   2.132   0.982   6.454 -0.2437 -0.1829 -0.2566
 5036SOL    HW126567   2.209   1.037   6.443  0.6349 -1.2590  0.4743
 5036SOL    HW226568   2.121   0.979   6.549 -4.0385 -0.5661 -0.6778
 5037SOL     OW26569   3.181   0.177   6.601  0.3448  0.2191 -0.3717
 5037SOL    HW126570   3.180   0.258   6.550 -2.2720  0.4867  0.0771
 5037SOL    HW226571   3.131   0.115   6.547  0.6779  0.2533 -0.7177
 5038SOL     OW26572   1.557   2.720  11.062 -0.1000  0.5969  0.5086
 5038SOL    HW126573   1.558   2.725  10.967 -0.6311 -0.2633  0.4594
 5038SOL    HW226574   1.466   2.746  11.077  0.2344  0.1821  3.3051
 5039SOL     OW26575   4.107   2.009  16.013 -0.6760 -0.5839 -0.0442
 5039SOL    HW126576   4.132   1.997  16.104 -0.4518 -3.2655 -0.4627
 5039SOL    HW226577   4.173   1.953  15.971 -0.0585 -0.2611  0.5072
 5040SOL     OW26578   0.353   4.398   6.204  0.6548 -0.3214 -0.1375
 5040SOL    HW126579   0.284   4.444   6.253  0.1555 -2.2775  1.0060
 5040SOL    HW226580   0.434   4.441   6.231  0.4670  0.5358 -0.9007
 5041SOL     OW26581   4.219   3.846   1.877  0.3917 -0.5864 -0.1951
 5041SOL    HW126582   4.124   3.853   1.876  0.3072 -1.0037  4.2845
 5041SOL    HW226583   4.225   3.877   1.967  0.0516 -0.5369 -0.1888
 5042SOL     OW26584   1.822   0.846   5.378 -0.3574 -0.4695  0.3561
 5042SOL    HW126585   1.864   0.929   5.354 -0.4894 -0.3652  0.4800
 5042SOL    HW226586   1.742   0.857   5.327 -0.8643  2.2215  1.7076
 5043SOL     OW26587   0.727   1.331   2.142 -0.8278 -0.3334 -0.2071
 5043SOL    HW126588   0.719   1.401   2.077 -0.8603  3.0432  3.5228
 5043SOL    HW226589   0.644   1.346   2.187 -0.1449  0.4317  0.7749
 5044SOL     OW26590   4.118   1.320   7.052 -0.1900  0.0328 -0.4019
 5044SOL    HW126591   4.098   1.353   7.139 -1.9792 -0.9558 -0.4473
 5044SOL    HW226592   4.159   1.235   7.067  0.2630  0.1698 -0.8420
 5045SOL     OW26593   4.173   4.105   7.917 -0.0632 -0.3472 -0.2247
 5045SOL    HW126594   4.157   4.189   7.874  2.5857 -0.5995 -1.7212
 5045SOL    HW226595   4.103   4.051   7.880 -0.0184  0.0704 -0.9220
 5046SOL     OW26596   1.352   4.127   2.473 -0.0696  1.0407  0.1850
 5046SOL    HW126597   1.406   4.201   2.444 -0.1984  0.1955 -2.2089
 5046SOL    HW226598   1.277   4.137   2.415 -0.7315 -1.8774  0.5482
 5047SOL     OW26599   3.521   1.643   7.123 -0.0458 -0.1205 -0.4060
 5047SOL    HW126600   3.574   1.658   7.045 -1.9379  0.9756 -1.4842
 5047SOL    HW226601   3.540   1.555   7.156  0.4408  0.1485  0.0217
 5048SOL     OW26602   3.849   0.383  15.105 -0.1767  0.2491 -0.3640
 5048SOL    HW126603   3.930   0.343  15.137  0.6853  1.4521 -1.0356
 5048SOL    HW226604   3.873   0.448  15.038  1.1879  1.0608  0.9038
 5049SOL     OW26605   2.366   2.858   5.836 -0.3725 -0.8042  0.7550
 5049SOL    HW126606   2.391   2.769   5.812  2.2147 -0.3807  1.9263
 5049SOL    HW226607   2.306   2.884   5.766  2.4274  1.5649 -0.7406
 5050SOL     OW26608   0.856   3.994   1.368 -0.1628  0.2929  0.3995
 5050SOL    HW126609   0.911   3.980   1.445  1.1156  1.0780 -0.3910
 5050SOL    HW226610   0.919   3.997   1.297 -1.3822 -0.3174 -0.7148
 5051SOL     OW26611   1.222   1.284   2.609  0.4019  0.4203  0.0042
 5051SOL    HW126612   1.269   1.362   2.579  1.2341 -0.2549 -0.4658
 5051SOL    HW226613   1.281   1.210   2.590  2.5869  1.9965  0.6199
 5052SOL     OW26614   1.439   2.549   9.174  0.9159  0.5517 -0.1031
 5052SOL    HW126615   1.429   2.644   9.167  1.7189  0.6232 -0.2617
 5052SOL    HW226616   1.460   2.544   9.267  0.4196 -2.3031 -0.1664
 5053SOL     OW26617   4.636   1.518  11.453 -0.1511 -0.3323  0.2058
 5053SOL    HW126618   4.697   1.543  11.523 -0.2361  0.0598  0.1379
 5053SOL    HW226619   4.685   1.525  11.371 -1.3672 -1.6873 -0.6379
 5054SOL     OW26620   4.696   4.513   4.679 -0.2747  0.1619  0.1742
 5054SOL    HW126621   4.611   4.530   4.639 -0.9730 -1.2059  1.0721
 5054SOL    HW226622   4.668   4.460   4.754 -1.0174  0.5603  0.1685
 5055SOL     OW26623   2.196   4.551   1.039 -0.1375  0.1482 -0.8793
 5055SOL    HW126624   2.281   4.513   1.019 -0.1097 -1.2460  1.9466
 5055SOL    HW226625   2.146   4.548   0.957  1.4253  0.0105 -1.8315
 5056SOL     OW26626   2.720   3.572  13.997 -0.6088 -0.0820  0.5127
 5056SOL    HW126627   2.708   3.648  14.054  0.9199 -0.3864  1.2485
 5056SOL    HW226628   2.718   3.503  14.063  1.4637  0.1875  0.8675
 5057SOL     OW26629   2.819   2.613   0.611 -0.0048  0.1289 -0.5464
 5057SOL    HW126630   2.833   2.523   0.582  0.7973 -0.1919  0.8383
 5057SOL    HW226631   2.885   2.624   0.679  0.0026 -0.0084 -0.5300
 5058SOL     OW26632   3.996   3.380   4.182 -0.5937 -0.1689 -0.1643
 5058SOL    HW126633   3.967   3.399   4.093 -0.6248  0.8644  0.0674
 5058SOL    HW226634   4.091   3.373   4.182 -0.6139 -0.4672  0.3122
 5059SOL     OW26635   3.048   0.012   6.118 -0.6376 -0.4810  0.2531
 5059SOL    HW126636   2.955   0.027   6.107 -0.5032 -0.4054 -0.7717
 5059SOL    HW226637   3.050   4.644   6.147  0.7034 -0.7415 -0.6729
 5060SOL     OW26638   2.293   3.832   1.550  0.0506 -0.0095 -0.3089
 5060SOL    HW126639   2.372   3.872   1.513  1.9895 -1.1514  2.5868
 5060SOL    HW226640   2.239   3.854   1.474  0.6414  1.6038 -0.2709
 5061SOL     OW26641   0.090   2.513   6.308  0.4613 -0.4128  0.0930
 5061SOL    HW126642   0.056   2.432   6.271  1.8530 -0.5666 -0.8197
 5061SOL    HW226643   0.164   2.483   6.361  0.1541 -0.1334  0.6802
 5062SOL     OW26644   4.223   3.037  10.323 -0.0354  0.0314 -0.5161
 5062SOL    HW126645   4.213   3.075  10.411  0.7803  0.1028 -0.4536
 5062SOL    HW226646   4.315   3.018  10.311  0.1772  0.9833 -0.4339
 5063SOL     OW26647   0.764   3.798  13.434 -0.1211  0.2136  0.5467
 5063SOL    HW126648   0.799   3.830  13.351 -0.7447  0.3544  0.3391
 5063SOL    HW226649   0.818   3.839  13.501  0.9366 -1.5242  0.7639
 5064SOL     OW26650   3.074   1.221  11.496  0.2295 -0.5554  0.0856
 5064SOL    HW126651   3.075   1.149  11.433 -0.3816  0.2637 -0.8632
 5064SOL    HW226652   2.984   1.249  11.482  0.4721  0.1595 -0.0924
 5065SOL     OW26653   4.275   3.046  16.462  0.2823  0.1847  0.2506
 5065SOL    HW126654   4.303   3.081  16.378 -1.4352  1.1831  0.0909
 5065SOL    HW226655   4.220   3.120  16.488  2.1201  1.1334  1.4748
 5066SOL     OW26656   0.177   2.942   8.921 -0.0109  0.3399  0.1617
 5066SOL    HW126657   0.094   2.894   8.913  0.1910  0.1233 -0.5645
 5066SOL    HW226658   0.194   2.964   8.830 -1.5920 -0.4968 -0.3457
 5067SOL     OW26659   3.407   1.485   5.911  0.4506  0.0553 -0.3157
 5067SOL    HW126660   3.482   1.522   5.957  2.2870 -0.9714 -2.4852
 5067SOL    HW226661   3.444   1.423   5.847  2.7369  1.1606 -0.0620
 5068SOL     OW26662   3.434   1.780   4.239  0.2510 -0.3721 -0.1948
 5068SOL    HW126663   3.499   1.719   4.273  0.5673 -1.6566 -3.0754
 5068SOL    HW226664   3.482   1.857   4.208 -0.8848  1.0781  1.5876
 5069SOL     OW26665   0.216   0.314   8.306 -0.4643  0.0698  0.5460
 5069SOL    HW126666   0.225   0.407   8.323 -1.7757  0.4837 -1.0861
 5069SOL    HW226667   0.126   0.310   8.273 -0.3814 -0.4387  0.3720
 5070SOL     OW26668   0.787   2.489   2.729 -0.3823  0.1987 -0.3122
 5070SOL    HW126669   0.771   2.417   2.668  0.0856  1.5116 -1.9830
 5070SOL    HW226670   0.744   2.558   2.679  1.5545  0.4443 -1.6406
 5071SOL     OW26671   2.897   4.273   6.034  0.5691 -0.1865  0.6225
 5071SOL    HW126672   2.867   4.306   5.949  0.4427  1.1392  1.1825
 5071SOL    HW226673   2.813   4.243   6.071  1.5418 -1.6859  1.6222
 5072SOL     OW26674   1.235   2.019   1.657  0.0883  0.1529 -0.1080
 5072SOL    HW126675   1.257   2.079   1.585  1.8046 -0.8217 -0.4003
 5072SOL    HW226676   1.174   2.082   1.696 -2.0203 -0.6091 -2.1642
 5073SOL     OW26677   3.483   2.219  17.215  0.0844  0.5130  0.8563
 5073SOL    HW126678   3.478   2.160  17.290  2.2244  0.0595  0.6445
 5073SOL    HW226679   3.571   2.255  17.228  0.0380 -0.1805  2.9685
 5074SOL     OW26680   4.463   0.424   7.018 -0.1302 -0.1460 -0.4736
 5074SOL    HW126681   4.447   0.496   7.078 -1.5429 -0.9643  0.1309
 5074SOL    HW226682   4.500   0.364   7.083 -3.8346 -1.7394  0.1684
 5075SOL     OW26683   2.559   2.466   6.862  0.5321  0.3962  0.4385
 5075SOL    HW126684   2.583   2.424   6.944  1.0378 -1.1912 -0.5212
 5075SOL    HW226685   2.584   2.389   6.811 -0.5864  1.7091 -2.1224
 5076SOL     OW26686   2.295   3.749   8.231  0.0325  0.4733 -1.0897
 5076SOL    HW126687   2.338   3.756   8.316 -0.3974  0.7528 -0.8945
 5076SOL    HW226688   2.290   3.840   8.200 -1.0211  1.1856  1.1444
 5077SOL     OW26689   0.795   3.300   5.035 -0.1621 -0.4347 -0.2159
 5077SOL    HW126690   0.857   3.311   5.106 -0.3585 -0.1880 -0.0845
 5077SOL    HW226691   0.711   3.287   5.080 -0.1944  4.1284  1.0218
 5078SOL     OW26692   4.563   1.174   6.600  0.0904  0.3776 -0.9356
 5078SOL    HW126693   4.545   1.215   6.685 -0.5181  1.4059 -1.5495
 5078SOL    HW226694   4.585   1.084   6.623 -0.7342 -0.1489 -2.1812
 5079SOL     OW26695   3.894   0.876   8.066  0.7182 -0.3014  0.0923
 5079SOL    HW126696   3.912   0.786   8.092  0.5187  0.0500  1.4107
 5079SOL    HW226697   3.800   0.885   8.077  1.1271  4.4714 -0.2809
 5080SOL     OW26698   0.167   4.475   8.638  0.0876  0.1598  0.1686
 5080SOL    HW126699   0.163   4.380   8.642  0.4229  0.2686  3.0990
 5080SOL    HW226700   0.073   4.492   8.643 -0.1139 -0.7909 -0.4927
 5081SOL     OW26701   0.736   3.947   4.152  0.5727 -0.0256  0.1142
 5081SOL    HW126702   0.699   3.867   4.113 -1.7017  0.7092  0.7722
 5081SOL    HW226703   0.831   3.943   4.143  0.7530 -0.6730  2.3252
 5082SOL     OW26704   3.297   0.234   7.728  0.8530 -0.4047 -0.2085
 5082SOL    HW126705   3.283   0.156   7.674 -2.1241  0.1553 -0.2329
 5082SOL    HW226706   3.340   0.294   7.666  0.2174  1.8183  1.4956
 5083SOL     OW26707   0.027   3.895   2.525  0.1094 -0.2803  0.2794
 5083SOL    HW126708   0.034   3.958   2.453 -0.1345 -1.2444 -0.5721
 5083SOL    HW226709   0.012   3.962   2.593  2.2347 -1.1068  1.5556
 5084SOL     OW26710   1.400   1.084   2.548  0.5355 -0.1112  0.0466
 5084SOL    HW126711   1.432   1.007   2.594  0.1265 -1.5444 -2.0213
 5084SOL    HW226712   1.350   1.026   2.490  1.9125 -0.6111 -0.6441
 5085SOL     OW26713   3.837   3.265   5.678 -0.1358  0.4216 -0.3503
 5085SOL    HW126714   3.910   3.321   5.701 -0.0519 -0.0813  0.5982
 5085SOL    HW226715   3.764   3.325   5.663 -0.2472  0.0849 -1.1960
 5086SOL     OW26716   0.380   3.639   3.696 -0.0061 -0.6765 -0.2873
 5086SOL    HW126717   0.425   3.723   3.690  0.7701 -0.8638  3.1460
 5086SOL    HW226718   0.293   3.679   3.705  0.1200 -0.3709 -0.4636
 5087SOL     OW26719   2.011   0.492  14.809  0.8249 -0.2694 -0.5277
 5087SOL    HW126720   2.014   0.397  14.805  0.8673 -0.3327  1.1170
 5087SOL    HW226721   2.065   0.521  14.736  1.5900 -1.8118 -0.5533
 5088SOL     OW26722   0.992   3.578  12.074 -1.3108 -0.7016 -0.3214
 5088SOL    HW126723   1.064   3.614  12.022  0.5111  0.4037  2.9777
 5088SOL    HW226724   0.989   3.487  12.045  0.5655 -0.7104 -0.5249
 5089SOL     OW26725   4.329   4.451   1.385  0.1863 -0.4021 -0.2824
 5089SOL    HW126726   4.316   4.412   1.299  0.5530  1.9388 -1.4064
 5089SOL    HW226727   4.304   4.542   1.370 -1.6073 -0.5325  1.8534
 5090SOL     OW26728   1.200   1.074  15.990 -0.0336 -0.4621  0.0397
 5090SOL    HW126729   1.202   1.158  16.037  0.1759 -1.2802  1.4824
 5090SOL    HW226730   1.268   1.021  16.032  1.9744  0.2672 -2.3311
 5091SOL     OW26731   0.939   2.511   3.938 -0.1214 -0.3270 -0.1674
 5091SOL    HW126732   0.896   2.589   3.972  0.9674  0.4430 -0.5403
 5091SOL    HW226733   0.980   2.544   3.858  2.7517 -0.5693  1.1917
 5092SOL     OW26734   3.318   0.413   7.498 -0.4561 -0.6980  0.0090
 5092SOL    HW126735   3.239   0.465   7.515  0.8847  1.2629  0.2301
 5092SOL    HW226736   3.279   0.363   7.426 -0.0661  0.6219 -1.1352
 5093SOL     OW26737   2.604   0.479   9.793  0.1796 -0.3502  0.1474
 5093SOL    HW126738   2.587   0.386   9.782  2.3156 -0.7405  0.1463
 5093SOL    HW226739   2.584   0.510   9.704  1.6661  1.9663  0.5960
 5094SOL     OW26740   2.162   1.503   0.335 -0.4929  0.1864  0.1767
 5094SOL    HW126741   2.112   1.583   0.348 -1.4552 -0.5267  0.8943
 5094SOL    HW226742   2.239   1.519   0.391 -0.8984 -0.8399  1.0243
 5095SOL     OW26743   1.110   2.358   3.007  0.1011 -0.3322 -0.1766
 5095SOL    HW126744   1.197   2.386   2.977 -0.1990  1.6960  0.7841
 5095SOL    HW226745   1.123   2.269   3.038 -2.1086  0.1491  2.1760
 5096SOL     OW26746   2.221   3.346   1.281  0.0213 -0.2417  0.6501
 5096SOL    HW126747   2.175   3.390   1.210 -0.7741 -2.2193 -0.0509
 5096SOL    HW226748   2.259   3.278   1.225  2.2021  0.3239  1.4587
 5097SOL     OW26749   1.087   4.666  17.302  0.0633  0.0752  1.0348
 5097SOL    HW126750   1.083   4.615  17.383  1.4144  0.2116  1.1911
 5097SOL    HW226751   1.024   0.013  17.319 -1.6310 -1.3485  0.6047
 5098SOL     OW26752   1.507   2.376   2.690 -0.1701  0.2256 -0.6138
 5098SOL    HW126753   1.543   2.353   2.605 -0.0353  1.8085 -0.9898
 5098SOL    HW226754   1.429   2.420   2.657 -0.6853 -1.6945 -1.9308
 5099SOL     OW26755   1.776   3.270   6.660  0.3589 -0.3907  0.3859
 5099SOL    HW126756   1.739   3.353   6.630  0.3052  0.9128  4.1461
 5099SOL    HW226757   1.830   3.310   6.728 -1.3597  0.8841  0.9904
 5100SOL     OW26758   3.926   2.702   7.925 -0.0603  0.7743 -0.0816
 5100SOL    HW126759   3.878   2.783   7.942 -0.1165  0.1433  2.7953
 5100SOL    HW226760   3.871   2.658   7.860  0.5254  1.1074 -0.7967
 5101SOL     OW26761   4.704   0.304   4.170  0.4236  0.0417 -0.3579
 5101SOL    HW126762   0.062   0.253   4.176  0.6111  0.0843 -2.5117
 5101SOL    HW226763   4.639   0.241   4.203 -1.9434  2.2835 -0.7410
 5102SOL     OW26764   2.880   3.092   7.533  0.0091  0.4555 -0.4450
 5102SOL    HW126765   2.792   3.060   7.552  0.2476  0.3291  0.4518
 5102SOL    HW226766   2.910   3.124   7.619 -0.8728 -0.4542  0.2034
 5103SOL     OW26767   1.157   2.389   3.659 -0.0937  0.0783 -0.0506
 5103SOL    HW126768   1.089   2.329   3.691 -0.7065  1.2143  0.7862
 5103SOL    HW226769   1.228   2.326   3.647  0.6304  0.7791  0.5276
 5104SOL     OW26770   1.575   0.138  16.496 -0.4618  0.3492 -0.7550
 5104SOL    HW126771   1.654   0.156  16.547 -0.7655 -2.1240  0.5495
 5104SOL    HW226772   1.578   0.045  16.477  0.7758 -0.2736  2.3282
 5105SOL     OW26773   3.047   0.975  11.663  0.0386  0.0387  0.4136
 5105SOL    HW126774   3.009   1.013  11.743 -0.1976  4.0562 -1.6144
 5105SOL    HW226775   3.095   1.055  11.640  1.3460 -0.8774 -0.0663
 5106SOL     OW26776   4.474   3.414   9.226  0.2334 -0.9716  0.2267
 5106SOL    HW126777   4.520   3.350   9.171 -0.0000 -1.4046  0.5323
 5106SOL    HW226778   4.381   3.400   9.210 -0.0114 -0.9708  1.6423
 5107SOL     OW26779   0.406   2.610   8.999  0.1491 -0.0209  0.7840
 5107SOL    HW126780   0.417   2.547   8.928 -0.7838  1.7999 -0.9639
 5107SOL    HW226781   0.438   2.695   8.970  0.3181 -0.1087  0.7090
 5108SOL     OW26782   0.756   4.483   2.943  0.2197 -0.3040  0.3435
 5108SOL    HW126783   0.713   4.413   2.993 -3.3686  0.6803 -1.3193
 5108SOL    HW226784   0.697   4.555   2.965  2.5082  1.6040  0.2260
 5109SOL     OW26785   0.612   4.415  15.456 -0.3241 -0.0397  0.4153
 5109SOL    HW126786   0.550   4.363  15.405  0.3340 -1.7775  1.4231
 5109SOL    HW226787   0.665   4.345  15.493  1.9704  1.0765 -0.7482
 5110SOL     OW26788   4.210   1.096  16.794  0.3218 -0.6847  0.2233
 5110SOL    HW126789   4.239   1.185  16.814  1.6454 -0.7620 -1.3279
 5110SOL    HW226790   4.126   1.119  16.755 -0.1196 -1.8892  0.4459
 5111SOL     OW26791   4.707   0.913   5.345  0.0130  0.4019  1.1057
 5111SOL    HW126792   4.721   0.941   5.436  3.4669  1.7668  0.1454
 5111SOL    HW226793   0.057   0.852   5.337 -1.7844 -1.3880 -1.9588
 5112SOL     OW26794   2.685   3.590  12.053 -0.5901  0.7209  0.2388
 5112SOL    HW126795   2.731   3.557  11.976 -1.6491 -0.5297  0.1489
 5112SOL    HW226796   2.619   3.522  12.060 -0.0985  0.2097 -0.0527
 5113SOL     OW26797   2.675   3.823   6.283 -0.7174 -0.0715  0.3375
 5113SOL    HW126798   2.714   3.893   6.231 -0.3273  0.6831  1.6405
 5113SOL    HW226799   2.694   3.745   6.231  0.7020 -0.6804  1.7795
 5114SOL     OW26800   2.727   0.993  17.070 -0.4581 -0.0691  0.5101
 5114SOL    HW126801   2.765   0.905  17.077  0.4542  0.2851 -0.0668
 5114SOL    HW226802   2.769   1.027  17.150  1.8409 -3.0010  0.5636
 5115SOL     OW26803   3.967   4.675   8.263 -0.5136 -0.0053  0.1036
 5115SOL    HW126804   3.933   4.609   8.324  0.4504  0.8596  1.5618
 5115SOL    HW226805   4.017   0.007   8.323  2.0760 -0.7528 -1.3258
 5116SOL     OW26806   2.531   3.660   9.350 -0.2816 -0.2250 -0.0028
 5116SOL    HW126807   2.615   3.700   9.373 -0.4411 -1.5749  2.8465
 5116SOL    HW226808   2.482   3.696   9.423  0.0536 -1.2450  0.7299
 5117SOL     OW26809   0.889   1.183   4.833 -0.2746  0.1852 -0.3938
 5117SOL    HW126810   0.867   1.244   4.763 -0.1884  0.0428 -0.5450
 5117SOL    HW226811   0.880   1.234   4.913 -2.4129 -0.0999 -0.4527
 5118SOL     OW26812   1.902   3.563   3.612 -0.0289  0.3483  0.0375
 5118SOL    HW126813   1.978   3.611   3.580  1.6558 -2.2824  0.0290
 5118SOL    HW226814   1.942   3.482   3.643 -0.0327 -0.2244 -1.4154
 5119SOL     OW26815   0.318   0.646   0.834  0.0951  0.2895  0.0072
 5119SOL    HW126816   0.244   0.628   0.893  0.7255 -0.5212  0.5513
 5119SOL    HW226817   0.294   0.582   0.767  3.4982  2.6408 -3.3883
 5120SOL     OW26818   2.990   1.445  17.183 -0.7262 -0.0281  0.1158
 5120SOL    HW126819   2.972   1.506  17.111 -0.8088  0.4172  0.5145
 5120SOL    HW226820   2.990   1.359  17.141  0.3641 -0.6839  1.4435
 5121SOL     OW26821   1.916   2.238   9.188 -0.6641 -0.5162  0.0127
 5121SOL    HW126822   1.999   2.236   9.141 -0.6365  3.8057 -0.0906
 5121SOL    HW226823   1.938   2.171   9.253  1.2680  0.8469  0.7667
 5122SOL     OW26824   0.832   1.113   2.439 -0.3450 -0.1452  0.1343
 5122SOL    HW126825   0.907   1.171   2.449  0.5950 -1.2906 -0.3590
 5122SOL    HW226826   0.765   1.178   2.462 -0.7507  0.3821 -2.4262
 5123SOL     OW26827   1.457   2.080   4.245  0.6029  0.0665 -0.2574
 5123SOL    HW126828   1.419   2.023   4.178  0.7107  1.6599 -1.6690
 5123SOL    HW226829   1.390   2.149   4.249 -0.0813 -0.5284 -1.4266
 5124SOL     OW26830   0.074   1.960   4.668 -0.1400 -0.2198 -0.7998
 5124SOL    HW126831   0.052   2.045   4.631  0.5071  1.0828  1.8274
 5124SOL    HW226832   0.008   1.905   4.625  1.1075 -1.0338 -1.6851
 5125SOL     OW26833   3.618   3.925  11.487 -0.1014  0.2435 -0.0584
 5125SOL    HW126834   3.684   3.954  11.550 -1.1882 -0.1456  1.2523
 5125SOL    HW226835   3.555   3.996  11.492  1.5912  1.8509 -1.2710
 5126SOL     OW26836   0.100   0.414   3.765  0.1406  0.0262  0.7014
 5126SOL    HW126837   0.041   0.404   3.840 -1.9152 -1.9419 -1.1743
 5126SOL    HW226838   0.183   0.391   3.805  0.8262  1.4664  0.1118
 5127SOL     OW26839   0.029   0.833   8.536 -0.8993 -0.7059  0.3999
 5127SOL    HW126840   4.679   0.894   8.543  0.4191  0.8171  0.9709
 5127SOL    HW226841   4.720   0.754   8.578 -0.0783 -0.9714  0.5272
 5128SOL     OW26842   4.667   3.467   8.890 -0.7054 -0.1286  0.3739
 5128SOL    HW126843   4.594   3.512   8.931  0.4016  0.3510  1.8300
 5128SOL    HW226844   0.018   3.520   8.919 -1.7239  1.5015 -0.0474
 5129SOL     OW26845   1.676   0.668  16.375 -0.4252  0.8249 -0.3806
 5129SOL    HW126846   1.609   0.655  16.442 -0.3058 -1.2711 -0.6658
 5129SOL    HW226847   1.655   0.601  16.309 -2.3108  0.9085  0.1386
 5130SOL     OW26848   3.941   3.032  16.358 -0.2695  0.5211  0.3804
 5130SOL    HW126849   3.863   3.012  16.307  1.5186  1.1710 -2.5937
 5130SOL    HW226850   3.970   3.111  16.312 -0.2411  0.2063 -0.1355
 5131SOL     OW26851   4.092   4.338   8.717 -0.1501  0.3812 -0.2872
 5131SOL    HW126852   4.085   4.243   8.718 -0.4734  0.3582 -4.3785
 5131SOL    HW226853   4.008   4.358   8.674 -0.8069 -0.5329  0.5669
 5132SOL     OW26854   2.413   3.256   2.728  0.1775 -0.2351  0.6509
 5132SOL    HW126855   2.340   3.200   2.703  0.6648 -0.4791 -0.1929
 5132SOL    HW226856   2.474   3.246   2.655 -0.2185  0.3151  0.2400
 5133SOL     OW26857   2.277   4.335   7.559  0.4794 -0.6763  0.0076
 5133SOL    HW126858   2.202   4.366   7.608  0.0669 -0.9130 -0.4756
 5133SOL    HW226859   2.241   4.307   7.475  0.9367  1.6270 -0.9570
 5134SOL     OW26860   0.753   2.723  17.615  0.0655 -0.0144  0.0593
 5134SOL    HW126861   0.663   2.690  17.616  0.1735 -0.2973  0.4586
 5134SOL    HW226862   0.802   2.649  17.579  0.5282  0.1965  0.2550
 5135SOL     OW26863   0.795   2.882   6.130  1.2000  0.2095 -0.2228
 5135SOL    HW126864   0.782   2.841   6.216 -0.7511 -1.1104 -1.1660
 5135SOL    HW226865   0.708   2.919   6.116 -0.1098 -2.1812  1.6499
 5136SOL     OW26866   1.535   0.423   3.393 -0.3568  0.3333  0.3097
 5136SOL    HW126867   1.559   0.403   3.483 -0.2708  1.0784  0.4488
 5136SOL    HW226868   1.445   0.390   3.387  0.4248 -1.7808  0.0536
 5137SOL     OW26869   2.663   3.471  12.325 -0.2207  0.3946 -0.0604
 5137SOL    HW126870   2.613   3.487  12.245 -0.6583  1.2709  0.3993
 5137SOL    HW226871   2.748   3.505  12.296 -0.7518 -0.5931 -2.7316
 5138SOL     OW26872   3.615   2.423   5.834  0.5969 -0.1174 -0.6777
 5138SOL    HW126873   3.558   2.462   5.768  0.8615  0.3616 -0.6300
 5138SOL    HW226874   3.553   2.423   5.907  1.1695 -1.4300 -0.1969
 5139SOL     OW26875   0.136   0.894   4.389  0.6350  0.7291 -0.1337
 5139SOL    HW126876   0.072   0.824   4.377 -0.5575  1.9231 -0.7423
 5139SOL    HW226877   0.204   0.849   4.439 -0.8574 -1.9377 -0.5056
 5140SOL     OW26878   3.952   4.693   2.035  0.2753  0.0669 -0.1931
 5140SOL    HW126879   3.995   4.676   2.118 -2.2085 -0.4649  0.9746
 5140SOL    HW226880   4.036   4.704   1.990  0.2566  1.7732  0.2198
 5141SOL     OW26881   1.723   2.783  16.060  0.5307  0.1492 -0.2279
 5141SOL    HW126882   1.785   2.741  16.000 -0.3450 -0.0762 -0.9667
 5141SOL    HW226883   1.768   2.766  16.143 -1.7293 -1.8281  0.5863
 5142SOL     OW26884   4.376   2.910   0.329 -0.1094  0.6685  0.2449
 5142SOL    HW126885   4.285   2.923   0.356 -0.3289  0.1351 -0.2193
 5142SOL    HW226886   4.410   2.992   0.294  0.0638  0.2756 -0.5168
 5143SOL     OW26887   4.640   0.667   8.241 -0.1441  0.2162 -0.0021
 5143SOL    HW126888   4.582   0.720   8.295 -2.5661 -0.2893 -2.1455
 5143SOL    HW226889   4.653   0.716   8.160  1.8227  1.1047  0.8431
 5144SOL     OW26890   0.423   1.412  17.220  0.5166  0.3698  0.3244
 5144SOL    HW126891   0.410   1.423  17.126 -1.8969  1.7228  0.8298
 5144SOL    HW226892   0.419   1.317  17.226 -0.9339  0.2241 -2.8752
 5145SOL     OW26893   0.330   1.590  16.008 -0.3274  0.2010 -1.0916
 5145SOL    HW126894   0.364   1.522  15.949  0.2932  1.2404 -1.9231
 5145SOL    HW226895   0.272   1.539  16.064  1.4428 -1.2080 -0.5255
 5146SOL     OW26896   3.291   1.584   4.131  0.4264  0.5513 -0.2069
 5146SOL    HW126897   3.340   1.656   4.170  0.1257  0.0451  1.1181
 5146SOL    HW226898   3.334   1.514   4.180  0.0069  0.9842  0.7699
 5147SOL     OW26899   2.021   0.059  15.759  0.1558  0.0056 -0.4047
 5147SOL    HW126900   2.074   0.100  15.829 -0.6056 -0.1002  0.2288
 5147SOL    HW226901   2.052   4.692  15.753 -3.3828 -1.1170 -1.1265
 5148SOL     OW26902   3.386   3.612   2.982 -0.3678 -0.4661  0.0680
 5148SOL    HW126903   3.345   3.600   2.896 -1.3149  3.6901 -0.0988
 5148SOL    HW226904   3.337   3.555   3.041 -0.3289 -0.9052 -0.3217
 5149SOL     OW26905   2.877   0.599   2.583 -0.0161  0.6061 -0.2353
 5149SOL    HW126906   2.788   0.622   2.612  0.4920 -0.1966  1.9206
 5149SOL    HW226907   2.868   0.513   2.542 -1.9862  0.0717  1.3023
 5150SOL     OW26908   4.232   1.151   8.682 -0.2177 -0.0582  0.2701
 5150SOL    HW126909   4.301   1.210   8.651  2.3951 -1.5649  3.1458
 5150SOL    HW226910   4.263   1.137   8.772  0.0324  3.1799  0.6954
 5151SOL     OW26911   0.339   0.081   4.006  0.2973 -0.3988 -0.0959
 5151SOL    HW126912   0.254   0.039   4.017  0.7266 -1.1096  0.5160
 5151SOL    HW226913   0.327   0.168   4.043  0.6951 -0.2272 -0.3609
 5152SOL     OW26914   2.105   2.711   6.128  0.1064  0.8032  0.3850
 5152SOL    HW126915   2.199   2.726   6.134  0.2830 -0.1433 -0.0674
 5152SOL    HW226916   2.075   2.740   6.214  1.0013  0.6086  0.7662
 5153SOL     OW26917   0.804   0.171   7.821 -0.0814  0.0649  0.8337
 5153SOL    HW126918   0.800   0.076   7.831  1.2364  0.0539  1.2036
 5153SOL    HW226919   0.889   0.193   7.859  0.5157  0.1288 -0.5426
 5154SOL     OW26920   3.785   2.411   7.574  0.0672 -0.4090 -0.7032
 5154SOL    HW126921   3.752   2.408   7.484  2.5366  0.8800 -1.6329
 5154SOL    HW226922   3.703   2.392   7.620 -0.6216  1.1509 -1.2643
 5155SOL     OW26923   0.941   1.187   6.487 -0.2851  0.0888  0.2036
 5155SOL    HW126924   0.872   1.147   6.539  1.8071 -0.8842  2.2309
 5155SOL    HW226925   0.891   1.260   6.449  2.4486  0.8195 -2.0237
 5156SOL     OW26926   3.679   0.519   6.792  0.2627  0.3607  0.0802
 5156SOL    HW126927   3.620   0.521   6.718 -1.4933  0.6301  1.4939
 5156SOL    HW226928   3.682   0.425   6.812 -0.4550  0.8541  2.5053
 5157SOL     OW26929   2.690   2.339  11.170  0.0064 -0.0901 -0.3993
 5157SOL    HW126930   2.748   2.278  11.215  1.8794  2.4337  0.6468
 5157SOL    HW226931   2.612   2.320  11.222 -0.4632  1.0254 -0.6920
 5158SOL     OW26932   3.624   4.014  16.696  0.3418  0.1890  0.6022
 5158SOL    HW126933   3.715   4.044  16.701  0.4648 -0.0054 -0.4066
 5158SOL    HW226934   3.637   3.924  16.724  1.0082 -0.6231 -2.3311
 5159SOL     OW26935   3.921   2.064   4.831 -0.8387  0.6466 -0.1757
 5159SOL    HW126936   3.951   2.154   4.842 -0.4230  0.5430 -0.4684
 5159SOL    HW226937   3.976   2.033   4.904  0.9889  2.3816 -0.7955
 5160SOL     OW26938   3.165   2.440   5.971  0.0967  0.7050  0.4509
 5160SOL    HW126939   3.260   2.426   5.970  0.1765  1.4384 -1.2180
 5160SOL    HW226940   3.146   2.401   5.886  0.4741 -0.2517  0.8004
 5161SOL     OW26941   2.700   1.938   2.141 -0.2918 -0.2633 -0.1912
 5161SOL    HW126942   2.648   1.907   2.067 -1.2980 -0.6263  0.6617
 5161SOL    HW226943   2.780   1.976   2.105  1.0412 -1.4075  1.5194
 5162SOL     OW26944   0.453   1.479   8.954 -0.4073 -0.0957  0.2694
 5162SOL    HW126945   0.477   1.386   8.959  0.7183  0.2486  1.3305
 5162SOL    HW226946   0.527   1.507   8.901 -1.6991  1.9605 -0.4161
 5163SOL     OW26947   2.686   1.961   4.917  0.3618 -0.6954  0.1539
 5163SOL    HW126948   2.737   1.890   4.955  0.0293 -1.5991 -1.1033
 5163SOL    HW226949   2.594   1.935   4.930 -0.6485  2.6199 -0.2650
 5164SOL     OW26950   3.782   0.624   9.209  0.3268 -0.0534 -0.2809
 5164SOL    HW126951   3.858   0.600   9.263 -0.2166 -0.3956  0.3224
 5164SOL    HW226952   3.726   0.648   9.283 -0.5518 -1.6007 -0.4529
 5165SOL     OW26953   3.732   2.060   9.017 -0.2731  0.1300  0.0358
 5165SOL    HW126954   3.703   2.010   9.092 -1.8669 -3.1326 -2.7819
 5165SOL    HW226955   3.720   2.151   9.044  1.6218  0.3588  0.1319
 5166SOL     OW26956   4.451   1.297   0.206  0.0688  0.2852  0.6213
 5166SOL    HW126957   4.524   1.354   0.182 -0.1647  0.6389  0.7399
 5166SOL    HW226958   4.390   1.323   0.137  2.6691 -1.0024 -2.1372
 5167SOL     OW26959   1.820   0.640   2.159  0.6463  0.0329  0.3042
 5167SOL    HW126960   1.776   0.610   2.080  1.7642 -1.1825  0.1491
 5167SOL    HW226961   1.774   0.724   2.163  0.7814  0.1247 -0.0852
 5168SOL     OW26962   2.710   4.554  17.255 -0.0889  0.1728 -0.0312
 5168SOL    HW126963   2.800   4.531  17.230 -0.3186  1.7208 -2.2591
 5168SOL    HW226964   2.708   4.520  17.345 -1.7332  1.9591  0.6132
 5169SOL     OW26965   2.088   0.436   3.287 -0.4761  0.9133  0.3083
 5169SOL    HW126966   2.038   0.517   3.279 -1.9919 -0.0124  0.5557
 5169SOL    HW226967   2.062   0.422   3.378  0.5176  1.2527  0.6471
 5170SOL     OW26968   3.429   3.131  17.098  0.4640 -0.2409 -0.4922
 5170SOL    HW126969   3.431   3.192  17.172  0.0038  0.9393 -1.4351
 5170SOL    HW226970   3.391   3.054  17.138  0.4564  0.0137 -0.0089
 5171SOL     OW26971   3.816   0.313   2.589  0.9487  0.3444 -0.6358
 5171SOL    HW126972   3.744   0.316   2.652  1.3141  1.9778 -0.2952
 5171SOL    HW226973   3.795   0.390   2.535  0.3078 -0.4333 -1.4948
 5172SOL     OW26974   3.097   0.545   9.291 -0.2896  0.1292  0.1209
 5172SOL    HW126975   3.037   0.613   9.260  0.6820  1.0355  0.2223
 5172SOL    HW226976   3.179   0.595   9.286  0.6141 -1.1519  2.0264
 5173SOL     OW26977   3.754   1.865   1.990 -0.2053 -0.1405 -0.2691
 5173SOL    HW126978   3.692   1.894   2.057 -2.2709  0.9649 -2.6347
 5173SOL    HW226979   3.811   1.821   2.052 -2.4557 -1.8583  0.5920
 5174SOL     OW26980   1.625   2.069   9.730 -0.4958 -0.5444  0.6966
 5174SOL    HW126981   1.639   2.071   9.825 -0.0020 -1.3300  0.6417
 5174SOL    HW226982   1.610   2.160   9.703 -0.2225 -0.6937  0.0422
 5175SOL     OW26983   1.751   2.583   0.123 -0.2021  0.1098  0.2275
 5175SOL    HW126984   1.820   2.601   0.059 -0.3563  1.0998  0.3295
 5175SOL    HW226985   1.683   2.584   0.056 -1.1166 -0.5285  1.1536
 5176SOL     OW26986   4.444   4.344   3.626 -0.1928 -0.4247  0.1904
 5176SOL    HW126987   4.442   4.375   3.717  0.7597  0.1317  0.0263
 5176SOL    HW226988   4.512   4.396   3.583  0.4133 -0.0642  1.5819
 5177SOL     OW26989   2.408   0.497  15.677  0.3023  0.1672 -0.1206
 5177SOL    HW126990   2.317   0.528  15.681  0.2651  0.2763 -1.8318
 5177SOL    HW226991   2.409   0.476  15.583  1.1477 -2.4792  0.4600
 5178SOL     OW26992   2.478   0.194   7.830  0.2918 -0.0686 -0.6705
 5178SOL    HW126993   2.498   0.124   7.892 -0.7133  0.7913  0.6249
 5178SOL    HW226994   2.417   0.253   7.874 -0.9278 -1.6108 -0.2745
 5179SOL     OW26995   4.219   0.002   6.870  0.5068 -0.4160  0.0929
 5179SOL    HW126996   4.213   4.721   6.774  1.5014 -3.2293  0.1379
 5179SOL    HW226997   4.221   4.630   6.883 -0.0369 -0.0470  2.9018
 5180SOL     OW26998   3.411   3.632  10.160  0.1528  0.1130  0.0753
 5180SOL    HW126999   3.465   3.595  10.229  0.4371 -0.0393 -0.2293
 5180SOL    HW227000   3.393   3.719  10.197 -0.1634  1.0055 -2.1182
 5181SOL     OW27001   1.238   0.074  17.534 -0.0891  0.2231  0.2505
 5181SOL    HW127002   1.264   0.071  17.442 -1.3019 -0.1939 -0.0807
 5181SOL    HW227003   1.324   0.052  17.569 -1.1557 -1.3924  1.8329
 5182SOL     OW27004   2.485   4.381   8.282 -0.0922 -0.4223  0.1706
 5182SOL    HW127005   2.394   4.393   8.253  0.2736 -1.9517 -1.6104
 5182SOL    HW227006   2.482   4.375   8.378  1.0852 -2.0845  0.1051
 5183SOL     OW27007   4.192   4.609   1.657  0.0330 -0.2631  0.2281
 5183SOL    HW127008   4.119   4.613   1.718  0.5349  0.1299  0.8013
 5183SOL    HW227009   4.211   4.516   1.652 -0.2548 -0.2289 -1.4741
 5184SOL     OW27010   2.586   0.178  14.181 -0.4157  0.2933  0.1503
 5184SOL    HW127011   2.530   0.125  14.123 -1.5106  0.9170  0.6269
 5184SOL    HW227012   2.664   0.188  14.127  0.6529 -2.0629  1.2496
 5185SOL     OW27013   2.984   4.249   4.149  0.6759 -0.3991 -0.0994
 5185SOL    HW127014   2.912   4.229   4.209 -0.1177  0.1353 -0.8694
 5185SOL    HW227015   2.962   4.337   4.118  0.4920 -0.7687 -1.0265
 5186SOL     OW27016   0.250   4.577  17.524  0.2285 -0.3078  0.1543
 5186SOL    HW127017   0.180   4.513  17.512 -0.7145  0.9823 -1.2891
 5186SOL    HW227018   0.224   4.652  17.471 -0.8670 -0.3452  0.6474
 5187SOL     OW27019   2.662   0.868   4.558  0.3920 -0.7517 -0.0860
 5187SOL    HW127020   2.638   0.828   4.474  0.0564 -1.2822  0.2640
 5187SOL    HW227021   2.756   0.870   4.538  0.0637  1.2515 -1.4123
 5188SOL     OW27022   3.040   0.077  16.533 -0.1080 -0.4408  0.2317
 5188SOL    HW127023   3.083   4.715  16.524  0.0159 -0.0438 -3.1358
 5188SOL    HW227024   3.067   0.134  16.461 -0.4411 -1.1044 -0.4280
 5189SOL     OW27025   1.050   2.767  16.916 -0.3076  0.0340 -0.1651
 5189SOL    HW127026   0.967   2.779  16.962  0.7028 -1.6254  2.1043
 5189SOL    HW227027   1.037   2.680  16.879  2.0100 -1.0261  1.4826
 5190SOL     OW27028   4.301   2.240   7.621 -0.3020 -0.0697 -0.4590
 5190SOL    HW127029   4.215   2.266   7.652  0.7453  1.8724  0.8004
 5190SOL    HW227030   4.337   2.236   7.710  0.2326 -1.6809 -0.7442
 5191SOL     OW27031   4.582   3.468   4.303  0.2021  0.1095 -0.2959
 5191SOL    HW127032   4.626   3.529   4.361  2.5791 -1.2366 -0.6652
 5191SOL    HW227033   4.494   3.506   4.294  0.1634 -0.3791 -2.1526
 5192SOL     OW27034   0.588   4.527   4.698  0.0438 -0.0087 -0.5031
 5192SOL    HW127035   0.675   4.526   4.659  0.9842  1.4441  1.5534
 5192SOL    HW227036   0.597   4.439   4.736 -2.1381 -0.9996 -2.2463
 5193SOL     OW27037   2.984   2.969   7.907 -0.0745 -0.2330  0.3753
 5193SOL    HW127038   2.893   2.959   7.879  0.6243 -1.6644 -1.4459
 5193SOL    HW227039   2.979   3.049   7.958  0.6830 -1.8393  2.9751
 5194SOL     OW27040   0.948   2.148  11.965  0.1077  0.5098  0.4433
 5194SOL    HW127041   1.034   2.137  11.924  0.2126  0.9053  0.5584
 5194SOL    HW227042   0.938   2.066  12.012 -0.3640  0.1876 -0.2180
 5195SOL     OW27043   2.544   1.243   5.985 -0.5568  0.1408 -0.6210
 5195SOL    HW127044   2.630   1.235   5.943 -1.1254 -1.2859 -1.5206
 5195SOL    HW227045   2.551   1.182   6.059  2.5755  0.7910 -0.3524
 5196SOL     OW27046   2.314   1.820  16.683 -0.6076 -0.1983 -0.0519
 5196SOL    HW127047   2.378   1.891  16.679 -1.8428  1.0611  2.5791
 5196SOL    HW227048   2.363   1.752  16.637 -1.8332  1.2320 -3.4397
 5197SOL     OW27049   0.194   3.770   6.841 -0.7530  0.0162 -0.1685
 5197SOL    HW127050   0.145   3.701   6.886  0.0465  0.4041  1.2852
 5197SOL    HW227051   0.257   3.727   6.783 -1.9442  1.0313 -2.1995
 5198SOL     OW27052   1.701   2.737   2.046 -0.0629 -0.6466  0.0115
 5198SOL    HW127053   1.719   2.723   1.953 -1.5327 -1.7963 -0.0886
 5198SOL    HW227054   1.785   2.764   2.084 -0.4326  1.7891 -0.9074
 5199SOL     OW27055   2.837   0.751   4.976 -0.6092  0.0321  0.3245
 5199SOL    HW127056   2.845   0.845   4.993 -0.8722 -0.0073  0.6666
 5199SOL    HW227057   2.881   0.755   4.891 -0.0707 -0.4538  0.5852
 5200SOL     OW27058   2.157   1.079   3.539  0.3819 -0.2229 -0.4562
 5200SOL    HW127059   2.248   1.061   3.563  0.1421 -0.1139  0.5045
 5200SOL    HW227060   2.158   1.164   3.495  0.7568 -0.0663 -0.1435
 5201SOL     OW27061   3.382   1.583  10.611  0.8669 -0.0344 -0.1963
 5201SOL    HW127062   3.379   1.601  10.517 -0.8405  1.3433  0.1190
 5201SOL    HW227063   3.461   1.633  10.632 -0.3744  0.9744  2.0637
 5202SOL     OW27064   1.575   2.553   5.252 -0.2570  0.2261  0.0705
 5202SOL    HW127065   1.559   2.473   5.302 -0.1412  1.0636  1.4480
 5202SOL    HW227066   1.513   2.543   5.180  0.2094  0.5605 -0.3727
 5203SOL     OW27067   0.535   1.034   1.196 -0.0755  0.2494 -0.1321
 5203SOL    HW127068   0.615   1.003   1.238 -0.7501 -0.5055  0.6026
 5203SOL    HW227069   0.490   0.950   1.185 -0.0238  0.0909  0.8827
 5204SOL     OW27070   4.525   2.229   7.209 -0.0451  0.0220  0.3255
 5204SOL    HW127071   4.439   2.238   7.248 -0.1414 -0.8631  0.3135
 5204SOL    HW227072   4.512   2.160   7.143  1.5542 -0.0590  0.0812
 5205SOL     OW27073   1.384   2.721   4.420  0.1505  0.4679  0.1396
 5205SOL    HW127074   1.327   2.785   4.461  0.7568  0.6767  0.6560
 5205SOL    HW227075   1.346   2.637   4.446 -0.2377  0.6903  0.2882
 5206SOL     OW27076   3.888   3.433  13.762  0.2407 -0.2720 -0.5195
 5206SOL    HW127077   3.965   3.376  13.768 -0.5000 -1.3358 -1.1521
 5206SOL    HW227078   3.927   3.488  13.694  2.5561  0.4235  1.3751
 5207SOL     OW27079   3.432   3.178   2.503 -0.2242  0.0584 -0.2272
 5207SOL    HW127080   3.346   3.207   2.471 -0.1313 -0.1377 -0.6515
 5207SOL    HW227081   3.407   3.086   2.512  1.7562 -0.2457  2.2558
 5208SOL     OW27082   1.729   0.843  13.709 -0.0700 -1.1495 -0.2651
 5208SOL    HW127083   1.823   0.857  13.725  0.4555 -1.7741 -2.8846
 5208SOL    HW227084   1.734   0.765  13.655 -3.0224 -1.1994 -0.4703
 5209SOL     OW27085   2.456   1.273   8.645  0.2878  0.6761 -0.6237
 5209SOL    HW127086   2.510   1.307   8.716  0.0753 -1.1966  0.4045
 5209SOL    HW227087   2.412   1.204   8.693  0.0612  1.2508  0.0030
 5210SOL     OW27088   1.221   4.206   5.539  0.5214 -0.0822 -0.3058
 5210SOL    HW127089   1.310   4.214   5.505  0.6896 -0.5571  0.0292
 5210SOL    HW227090   1.230   4.148   5.615 -1.0383 -1.1455 -0.9171
 5211SOL     OW27091   2.952   4.462   2.499 -0.4246  0.1249 -0.1981
 5211SOL    HW127092   2.921   4.471   2.590  0.4401 -1.4568  0.2498
 5211SOL    HW227093   2.979   4.553   2.485 -0.8118  0.1535 -0.7663
 5212SOL     OW27094   2.682   0.661   0.659  0.1373 -0.3652 -0.4867
 5212SOL    HW127095   2.658   0.573   0.690 -1.1949  1.0215  2.3823
 5212SOL    HW227096   2.700   0.644   0.566  0.8617  2.7633 -0.9079
 5213SOL     OW27097   1.859   2.810   9.624 -0.1005  0.1346 -0.2958
 5213SOL    HW127098   1.954   2.819   9.617 -0.0271 -0.1807  0.3044
 5213SOL    HW227099   1.845   2.800   9.718  1.2578  0.6691 -0.0388
 5214SOL     OW27100   3.423   2.710  12.732  0.1793  0.0157 -0.3509
 5214SOL    HW127101   3.455   2.646  12.668 -2.4303 -0.2728 -1.4081
 5214SOL    HW227102   3.480   2.785  12.716  1.0487 -1.0507 -2.2723
 5215SOL     OW27103   1.888   0.324  17.347  0.1771 -0.5370 -0.5270
 5215SOL    HW127104   1.899   0.362  17.434  2.1671  0.0743 -1.0420
 5215SOL    HW227105   1.955   0.256  17.339  0.3963 -0.0814 -2.5178
 5216SOL     OW27106   3.569   4.260   0.746  0.6707 -0.1303 -0.1572
 5216SOL    HW127107   3.558   4.288   0.837  1.6115  3.2357 -1.0809
 5216SOL    HW227108   3.626   4.330   0.715 -0.9335  1.0534 -0.4422
 5217SOL     OW27109   3.699   1.891   6.688 -0.3002  0.1956  0.4110
 5217SOL    HW127110   3.638   1.863   6.620  1.5699  1.9479 -1.9757
 5217SOL    HW227111   3.772   1.921   6.634 -0.5507  1.5072  0.8088
 5218SOL     OW27112   2.303   3.631   5.594  0.3690 -0.2226 -0.2368
 5218SOL    HW127113   2.326   3.540   5.576 -3.7147 -1.1051 -1.0745
 5218SOL    HW227114   2.207   3.632   5.587  0.3086  1.1750  0.7347
 5219SOL     OW27115   2.973   4.521  15.768 -0.8497  0.4627 -0.1479
 5219SOL    HW127116   2.981   4.451  15.704  1.2366 -0.5318  1.2064
 5219SOL    HW227117   2.879   4.531  15.782 -1.0670  0.8377 -1.7852
 5220SOL     OW27118   4.207   0.123   4.719 -0.3483  0.0614 -0.1931
 5220SOL    HW127119   4.129   0.132   4.665  0.1979 -1.1350 -1.2056
 5220SOL    HW227120   4.178   0.063   4.787 -0.7696  0.3657 -0.1062
 5221SOL     OW27121   2.276   3.447   2.926 -0.1494  0.0251 -0.0061
 5221SOL    HW127122   2.290   3.510   2.857  0.6654 -0.6059 -0.4200
 5221SOL    HW227123   2.302   3.367   2.880  0.0734  0.9981 -1.5616
 5222SOL     OW27124   2.223   1.387  11.732  0.4286 -0.5050 -0.3192
 5222SOL    HW127125   2.231   1.481  11.753  0.5021 -0.1425 -1.9724
 5222SOL    HW227126   2.133   1.368  11.759  0.4204 -1.1042 -0.7847
 5223SOL     OW27127   1.052   1.176   5.259  0.2994 -0.1291  0.4608
 5223SOL    HW127128   0.986   1.123   5.304  0.5401 -1.2093 -0.4588
 5223SOL    HW227129   1.094   1.236   5.321  1.0774 -0.5636  0.3495
 5224SOL     OW27130   2.972   3.197   7.307  0.3761 -0.1235  0.0455
 5224SOL    HW127131   2.929   3.178   7.390  0.7842 -0.5877  0.1503
 5224SOL    HW227132   2.896   3.226   7.256 -0.2253  2.6903  2.5135
 5225SOL     OW27133   3.385   0.805   2.392  0.4464 -0.4356 -0.2874
 5225SOL    HW127134   3.337   0.847   2.320 -0.7876 -1.0984  0.1462
 5225SOL    HW227135   3.317   0.815   2.458  1.0731  2.4247 -0.0818
 5226SOL     OW27136   0.916   4.637  12.705  0.0341 -0.0997 -0.0400
 5226SOL    HW127137   0.857   4.605  12.637  0.0046 -0.3770  0.1188
 5226SOL    HW227138   0.880   0.001  12.721 -1.4532 -0.7157 -0.0389
 5227SOL     OW27139   2.471   2.136   7.799 -1.1522 -0.0631  0.3279
 5227SOL    HW127140   2.543   2.190   7.766 -0.7165  0.4739  2.1530
 5227SOL    HW227141   2.516   2.054   7.821  0.3064  1.0540  1.5513
 5228SOL     OW27142   3.644   4.417   6.335 -0.2361  0.0349 -0.1170
 5228SOL    HW127143   3.580   4.389   6.399  1.2385 -0.7998  1.0033
 5228SOL    HW227144   3.697   4.483   6.380  3.1350 -1.9489 -1.1310
 5229SOL     OW27145   3.570   0.678   8.585 -0.0120 -0.3556 -0.6275
 5229SOL    HW127146   3.547   0.737   8.657  1.4216  3.8993 -3.6260
 5229SOL    HW227147   3.620   0.603   8.618  0.5738 -0.8488 -2.6527
 5230SOL     OW27148   1.155   4.029   7.731  0.0090  0.3728  0.2731
 5230SOL    HW127149   1.181   3.982   7.651 -0.0166 -0.3352  0.6836
 5230SOL    HW227150   1.091   4.090   7.693  0.3808  0.6698  0.1258
 5231SOL     OW27151   2.816   2.891  10.673  0.0253  0.4100  0.0407
 5231SOL    HW127152   2.834   2.977  10.634 -1.1898  0.9087  0.5793
 5231SOL    HW227153   2.803   2.911  10.765 -0.1804  0.9931 -0.1131
 5232SOL     OW27154   2.777   0.549   5.444  0.0159  0.8391  0.0292
 5232SOL    HW127155   2.846   0.545   5.510  0.2069  2.8599 -0.0431
 5232SOL    HW227156   2.829   0.538   5.364 -2.0635 -0.6345 -1.1184
 5233SOL     OW27157   2.540   2.493  10.999  0.1788 -0.3774 -0.1104
 5233SOL    HW127158   2.570   2.414  11.045  2.3787 -0.2578 -1.3385
 5233SOL    HW227159   2.609   2.555  11.024  1.4351 -1.2711 -1.3765
 5234SOL     OW27160   2.758   1.570   7.318  0.2194 -0.7576 -0.6101
 5234SOL    HW127161   2.738   1.549   7.410  2.2721  1.0864  0.2476
 5234SOL    HW227162   2.764   1.665   7.324 -2.6597 -0.5896  0.0504
 5235SOL     OW27163   2.703   1.126   2.641  0.0492 -0.1731  0.1735
 5235SOL    HW127164   2.641   1.059   2.612 -0.2627  1.1401 -2.1272
 5235SOL    HW227165   2.765   1.129   2.569 -1.0780  1.1622 -0.7290
 5236SOL     OW27166   2.279   4.005   5.133  0.2876 -0.0577  0.6048
 5236SOL    HW127167   2.272   4.086   5.082 -0.9335 -0.1600  0.6177
 5236SOL    HW227168   2.273   3.941   5.062  0.2932  0.8732 -0.2364
 5237SOL     OW27169   3.924   4.684   8.681 -0.0196 -0.0834  0.4233
 5237SOL    HW127170   3.977   4.652   8.753  1.5401  0.6593 -0.4006
 5237SOL    HW227171   3.852   0.008   8.723 -0.5800  0.3330 -1.0011
 5238SOL     OW27172   1.510   2.345  11.346 -0.0004 -0.4857 -0.1128
 5238SOL    HW127173   1.507   2.432  11.385  2.3491  0.9645 -3.0697
 5238SOL    HW227174   1.543   2.370  11.259  0.9342 -0.9456  0.1076
 5239SOL     OW27175   2.712   2.854  11.811  0.1734  0.0277 -0.0410
 5239SOL    HW127176   2.734   2.933  11.860 -2.4877 -0.6900  2.3333
 5239SOL    HW227177   2.735   2.786  11.874 -2.7672  1.0776  2.1708
 5240SOL     OW27178   0.556   4.444   2.263  0.3878  0.1718 -0.3174
 5240SOL    HW127179   0.488   4.415   2.203  0.1981  2.1757 -1.0760
 5240SOL    HW227180   0.516   4.507   2.324 -0.8535 -0.8537 -0.0825
 5241SOL     OW27181   4.672   0.775  11.219  0.3230 -0.1290  0.6087
 5241SOL    HW127182   0.005   0.847  11.247  0.6148  0.7711 -2.3162
 5241SOL    HW227183   4.721   0.727  11.152 -1.4937 -1.1600  0.0134
 5242SOL     OW27184   0.906   3.184  13.919  0.4643  0.6292  0.2026
 5242SOL    HW127185   0.906   3.094  13.885  2.0754  0.5290  0.4287
 5242SOL    HW227186   0.846   3.226  13.857 -0.5491  0.1179  0.8382
 5243SOL     OW27187   1.382   0.740  17.364  0.2401  0.3238 -0.4384
 5243SOL    HW127188   1.325   0.758  17.439 -1.4267  0.2876 -1.7050
 5243SOL    HW227189   1.451   0.686  17.402 -1.4263 -1.3152  0.2530
 5244SOL     OW27190   0.936   1.097   3.118 -0.7539  0.0515  0.1996
 5244SOL    HW127191   1.032   1.102   3.117 -0.6116 -2.6622 -0.0798
 5244SOL    HW227192   0.928   1.065   3.028  0.6736 -0.3506  0.2163
 5245SOL     OW27193   2.208   0.582  13.752 -0.2910  0.4552  0.1695
 5245SOL    HW127194   2.212   0.663  13.803  1.3699  0.5029 -0.0356
 5245SOL    HW227195   2.210   0.515  13.821  1.2021 -0.3702 -0.6717
 5246SOL     OW27196   3.972   2.104   1.263  0.0230  0.5773  0.1562
 5246SOL    HW127197   3.902   2.116   1.198  1.1936  0.5748 -1.1156
 5246SOL    HW227198   3.935   2.021   1.295  1.2381  0.2880  0.8029
 5247SOL     OW27199   1.281   4.688  11.678  0.0404 -0.2780 -0.1779
 5247SOL    HW127200   1.285   4.659  11.769  0.9344  1.2717  0.2627
 5247SOL    HW227201   1.257   4.599  11.649  1.0486 -0.4231 -0.5807
 5248SOL     OW27202   2.785   2.947  10.931 -0.0045 -0.2753  0.2928
 5248SOL    HW127203   2.755   3.039  10.926 -0.0646 -0.2599  0.9630
 5248SOL    HW227204   2.859   2.970  10.986  0.5887 -3.7088  0.8588
 5249SOL     OW27205   2.526   3.642  14.302  0.9095 -0.3874 -0.4359
 5249SOL    HW127206   2.601   3.690  14.266  0.1228  1.5503  0.5186
 5249SOL    HW227207   2.452   3.698  14.278  0.8282 -1.5338 -2.8706
 5250SOL     OW27208   3.149   3.538   5.307 -0.0700 -0.3067  0.6200
 5250SOL    HW127209   3.056   3.557   5.297  0.3860  0.4999 -2.0634
 5250SOL    HW227210   3.187   3.613   5.261  0.7866 -0.4949  1.0198
 5251SOL     OW27211   0.541   0.926   5.822  0.0166 -0.2299 -0.2161
 5251SOL    HW127212   0.488   0.849   5.845  0.4850  0.2089  2.3416
 5251SOL    HW227213   0.618   0.882   5.784  0.1568 -0.4963  0.3822
 5252SOL     OW27214   1.265   1.048   8.214  0.2146 -0.2251  0.4924
 5252SOL    HW127215   1.273   0.956   8.191 -0.3658  0.5406 -2.8570
 5252SOL    HW227216   1.181   1.048   8.259 -0.8032  1.3822 -1.4324
 5253SOL     OW27217   0.646   1.228   7.511 -0.6645 -0.0511  0.4643
 5253SOL    HW127218   0.731   1.267   7.529 -0.6072 -0.2074  0.5323
 5253SOL    HW227219   0.656   1.147   7.562  0.2266 -1.1106 -1.3829
 5254SOL     OW27220   2.959   1.146   4.528 -0.3235 -0.1736 -0.0362
 5254SOL    HW127221   2.878   1.145   4.477  0.0723  1.9171 -0.7339
 5254SOL    HW227222   2.976   1.053   4.540 -2.8019 -0.8201 -1.6057
 5255SOL     OW27223   2.043   3.048   1.782  0.1787 -0.1366 -0.1856
 5255SOL    HW127224   2.103   3.117   1.755  2.5877 -2.4591 -0.7448
 5255SOL    HW227225   2.081   3.023   1.866 -0.6114 -0.2120  0.1495
 5256SOL     OW27226   0.248   3.849   0.961  0.1443  0.2022  0.2000
 5256SOL    HW127227   0.276   3.813   0.876  1.9394  1.4872  0.2427
 5256SOL    HW227228   0.162   3.807   0.961  0.4981 -0.4989  2.0351
 5257SOL     OW27229   4.495   4.046  12.977  0.2719  0.1755  0.3657
 5257SOL    HW127230   4.517   3.963  13.019  2.6508 -0.1071 -1.4739
 5257SOL    HW227231   4.531   4.033  12.889 -1.7371 -0.3408 -0.3805
 5258SOL     OW27232   0.900   4.235   2.751 -0.6128 -0.4374 -0.3934
 5258SOL    HW127233   0.888   4.200   2.839  1.5764  0.1195  0.1299
 5258SOL    HW227234   0.976   4.292   2.764  0.8454 -1.8463 -2.7080
 5259SOL     OW27235   3.161   4.538   2.997 -0.7726 -0.1263 -0.5390
 5259SOL    HW127236   3.146   4.463   2.938  1.3028 -1.7377  0.9651
 5259SOL    HW227237   3.087   4.584   2.957 -0.5702  1.0077  0.3894
 5260SOL     OW27238   4.604   1.725  15.195  0.0514  0.2004  0.0541
 5260SOL    HW127239   4.629   1.683  15.113 -0.1464  0.3882 -0.1039
 5260SOL    HW227240   4.659   1.803  15.203  0.7774 -0.6052  3.2597
 5261SOL     OW27241   3.972   3.965   7.517 -0.4560 -0.3238 -0.3120
 5261SOL    HW127242   3.908   4.009   7.460 -0.2838  0.9823  0.4934
 5261SOL    HW227243   4.005   3.892   7.464 -0.5232 -1.1077  0.7430
 5262SOL     OW27244   2.295   1.997   1.332  0.3693 -0.0336  0.2066
 5262SOL    HW127245   2.275   2.089   1.345  1.1833 -0.0388  1.5241
 5262SOL    HW227246   2.312   1.964   1.420  1.7575  1.7400  0.5983
 5263SOL     OW27247   1.416   3.174   4.787  0.3938  0.0683 -0.0032
 5263SOL    HW127248   1.333   3.210   4.755  0.6246 -1.5061 -2.3692
 5263SOL    HW227249   1.378   3.087   4.797  1.0373 -0.1304  0.7232
 5264SOL     OW27250   3.070   0.152   5.112 -0.4347 -0.2694  0.1259
 5264SOL    HW127251   3.045   0.091   5.181  1.7282  1.0790  2.1173
 5264SOL    HW227252   3.149   0.116   5.073 -0.2683  0.9714 -0.6993
 5265SOL     OW27253   1.620   4.144   6.607 -0.5202 -0.0186  0.2231
 5265SOL    HW127254   1.592   4.139   6.515  0.0722  0.8976 -0.0109
 5265SOL    HW227255   1.712   4.161   6.586 -0.2683 -0.8567  0.6601
 5266SOL     OW27256   3.360   0.647   7.777 -0.2221 -0.0953  0.3168
 5266SOL    HW127257   3.270   0.653   7.745  0.2907 -0.1548 -1.1267
 5266SOL    HW227258   3.350   0.703   7.854  0.2697 -0.0239  0.3324
 5267SOL     OW27259   2.098   2.684   4.495 -0.2738 -0.0938  0.0609
 5267SOL    HW127260   2.122   2.735   4.572  2.1971  0.2251 -0.9336
 5267SOL    HW227261   2.050   2.750   4.445  2.7180  1.6068 -0.5185
 5268SOL     OW27262   4.643   0.110   4.732 -0.0968  0.4530 -0.2171
 5268SOL    HW127263   4.704   0.165   4.684 -1.1108  2.1381  0.4277
 5268SOL    HW227264   4.677   0.023   4.712  0.0981  0.5416 -0.2655
 5269SOL     OW27265   3.899   3.444   6.489 -0.3110  0.4710  0.4905
 5269SOL    HW127266   3.932   3.428   6.578 -0.0437 -0.2712  0.2583
 5269SOL    HW227267   3.964   3.503   6.450 -0.9960  0.1540 -1.1069
 5270SOL     OW27268   4.254   4.306   0.386  0.0106 -0.2728  0.5249
 5270SOL    HW127269   4.249   4.292   0.480  1.2589  1.3115  0.8297
 5270SOL    HW227270   4.160   4.305   0.368  0.2560  0.5567 -0.8570
 5271SOL     OW27271   1.572   0.187   4.314  0.1706  0.3351  0.2520
 5271SOL    HW127272   1.556   0.265   4.261  0.0818 -0.6880 -1.2422
 5271SOL    HW227273   1.620   0.140   4.246 -0.1178 -2.7962  2.2027
 5272SOL     OW27274   3.777   0.534   6.181 -0.3315 -0.0358 -0.0418
 5272SOL    HW127275   3.768   0.576   6.095  1.9260  0.0648 -0.2215
 5272SOL    HW227276   3.863   0.568   6.204 -0.2175 -0.3849  0.0475
 5273SOL     OW27277   3.675   1.380  13.763 -0.4112  0.1615  0.6825
 5273SOL    HW127278   3.734   1.338  13.701  1.2311 -0.8461  2.9459
 5273SOL    HW227279   3.738   1.405  13.831  0.1294 -0.5253  0.4238
 5274SOL     OW27280   0.244   4.616  11.774  0.5412  0.3229 -0.7022
 5274SOL    HW127281   0.171   4.613  11.712  0.1738  0.8557 -0.2936
 5274SOL    HW227282   0.304   4.667  11.719 -0.9906  2.7966 -0.0632
 5275SOL     OW27283   4.557   0.653   9.569  0.1493  0.2205 -0.3618
 5275SOL    HW127284   4.522   0.666   9.658 -0.3014  1.0469 -0.6569
 5275SOL    HW227285   4.650   0.664   9.588  0.2776  2.2386 -2.1971
 5276SOL     OW27286   4.014   3.941   4.020  0.3013  0.1160 -0.7115
 5276SOL    HW127287   4.020   4.004   3.948 -3.2236  1.5371  0.2274
 5276SOL    HW227288   3.945   3.985   4.068  1.5258 -0.4308  1.5596
 5277SOL     OW27289   2.147   1.189  10.632 -0.0815 -0.4009 -0.3996
 5277SOL    HW127290   2.121   1.194  10.540  0.1129 -2.4678 -0.5684
 5277SOL    HW227291   2.143   1.096  10.653 -2.6640 -0.8238 -2.7989
 5278SOL     OW27292   3.791   2.254  14.623  0.1799  0.0697 -0.2944
 5278SOL    HW127293   3.795   2.332  14.567 -1.0212  0.4946  0.2066
 5278SOL    HW227294   3.833   2.190  14.566  0.9617  0.5000 -0.2102
 5279SOL     OW27295   0.356   1.391  12.232 -0.7833  0.5612  0.4116
 5279SOL    HW127296   0.393   1.403  12.145 -0.4630  0.5283  0.5411
 5279SOL    HW227297   0.266   1.422  12.226 -0.9738 -0.2713 -1.0131
 5280SOL     OW27298   0.183   2.120   8.223 -0.0359 -0.3802  0.8835
 5280SOL    HW127299   0.193   2.140   8.316 -0.3859 -0.9333  1.0379
 5280SOL    HW227300   0.112   2.182   8.201 -0.8786 -1.6381  0.0505
 5281SOL     OW27301   1.942   2.824   5.008  0.0652 -0.1082  0.4772
 5281SOL    HW127302   1.868   2.843   5.066 -0.0471  0.2541  0.2176
 5281SOL    HW227303   1.929   2.882   4.933  0.1517 -0.4199  0.2250
 5282SOL     OW27304   0.507   0.754   1.142  0.3147  0.0978 -0.3513
 5282SOL    HW127305   0.510   0.726   1.051  1.4460  1.4834 -0.7407
 5282SOL    HW227306   0.484   0.673   1.188  0.9098 -0.5213 -1.1598
 5283SOL     OW27307   0.158   2.938   7.290  0.2831  0.1259 -0.5895
 5283SOL    HW127308   0.091   2.871   7.305  0.1923  0.4018  0.2481
 5283SOL    HW227309   0.219   2.888   7.237 -0.1320 -0.4146 -0.5561
 5284SOL     OW27310   1.494   0.308  12.891 -0.4529 -0.0774 -0.0612
 5284SOL    HW127311   1.572   0.254  12.878 -0.6302 -0.1634 -0.8017
 5284SOL    HW227312   1.522   0.381  12.947  0.3028 -0.1170 -0.3798
 5285SOL     OW27313   1.290   1.965   5.330 -0.5164 -0.0193 -0.1523
 5285SOL    HW127314   1.243   2.035   5.285 -0.8620 -0.4628 -0.4866
 5285SOL    HW227315   1.378   1.958   5.293 -0.0544 -0.4238  1.0020
 5286SOL     OW27316   3.597   1.149   1.552  0.3614  0.1523  0.4944
 5286SOL    HW127317   3.562   1.072   1.597  0.8994 -0.1737  0.3685
 5286SOL    HW227318   3.638   1.102   1.478  0.5653  2.4702 -0.8544
 5287SOL     OW27319   2.768   0.690   8.383 -0.7533  0.0472 -0.5952
 5287SOL    HW127320   2.703   0.734   8.328 -0.3967  1.5890  0.1967
 5287SOL    HW227321   2.706   0.685   8.456 -2.6469  1.8656 -2.0733
 5288SOL     OW27322   4.369   2.474  16.818 -0.5457 -0.0270 -0.3343
 5288SOL    HW127323   4.335   2.502  16.903 -0.9395  0.7405 -0.7455
 5288SOL    HW227324   4.313   2.404  16.784 -1.6632  0.1024  1.2363
 5289SOL     OW27325   0.322   2.052   8.742 -0.5122  0.0708 -0.5166
 5289SOL    HW127326   0.398   2.051   8.684 -0.3605 -0.5187 -0.3130
 5289SOL    HW227327   0.344   1.972   8.791 -1.5882  1.2587  1.9361
 5290SOL     OW27328   0.202   1.187  10.548 -0.0933  0.1628 -0.4502
 5290SOL    HW127329   0.140   1.227  10.487 -0.2245 -0.5797 -0.8109
 5290SOL    HW227330   0.159   1.103  10.564 -1.0822  0.6409 -0.5581
 5291SOL     OW27331   2.579   4.495   6.700 -0.3077 -0.5310  0.4190
 5291SOL    HW127332   2.649   4.453   6.750  0.2057  0.1184  0.2558
 5291SOL    HW227333   2.498   4.470   6.743  0.7583 -1.6326  1.7751
 5292SOL     OW27334   1.077   1.458  14.176 -0.1721  0.0688  0.2310
 5292SOL    HW127335   1.144   1.523  14.154 -0.0834 -0.0192  0.2435
 5292SOL    HW227336   1.121   1.374  14.166  0.1739  0.3714 -0.8077
 5293SOL     OW27337   3.131   3.561  10.125 -0.3517 -0.8363  0.3304
 5293SOL    HW127338   3.221   3.563  10.158 -0.3626 -0.1718  0.3119
 5293SOL    HW227339   3.131   3.642  10.074 -0.0662 -0.6634  0.6055
 5294SOL     OW27340   2.579   3.826  12.416  0.6404 -0.4199 -0.1425
 5294SOL    HW127341   2.615   3.899  12.465 -0.3175  0.5724 -0.9035
 5294SOL    HW227342   2.647   3.811  12.350  0.2124  0.5956 -0.8085
 5295SOL     OW27343   2.910   3.760   7.530  0.2984  0.0264  0.1260
 5295SOL    HW127344   3.005   3.761   7.529  0.3084 -0.3047  0.6729
 5295SOL    HW227345   2.881   3.720   7.447 -3.1509 -0.8959  1.7518
 5296SOL     OW27346   0.668   3.138   6.725 -0.2233  0.2743  0.6568
 5296SOL    HW127347   0.654   3.187   6.644 -1.7280  1.5964  1.7238
 5296SOL    HW227348   0.728   3.071   6.692 -0.6371 -0.2649  1.0090
 5297SOL     OW27349   0.631   2.649   5.282 -0.6841 -0.0628 -0.1026
 5297SOL    HW127350   0.549   2.655   5.330 -0.8253 -0.4311 -0.2942
 5297SOL    HW227351   0.699   2.641   5.349 -0.7385 -1.3576 -0.1979
 5298SOL     OW27352   3.995   2.705   2.902 -0.3199  0.3897 -0.5730
 5298SOL    HW127353   3.965   2.740   2.818 -2.5814 -0.5318 -0.1510
 5298SOL    HW227354   4.033   2.622   2.873  0.6280 -0.0311  1.8832
 5299SOL     OW27355   3.617   2.013   6.948  0.0717  0.1156  0.3548
 5299SOL    HW127356   3.674   2.067   7.002  1.6254 -0.6773 -0.5208
 5299SOL    HW227357   3.667   1.969   6.879  0.9095  0.3373  0.8258
 5300SOL     OW27358   1.868   1.852  14.758 -0.1322  0.1488  0.2562
 5300SOL    HW127359   1.907   1.887  14.678  1.3561 -0.0562  0.8718
 5300SOL    HW227360   1.855   1.761  14.731  2.4965 -0.3577  0.6761
 5301SOL     OW27361   3.737   4.042   7.018  0.4341 -0.3479  0.2315
 5301SOL    HW127362   3.728   4.136   7.004 -0.6117 -0.8600 -2.4510
 5301SOL    HW227363   3.820   4.020   6.975 -0.7727 -2.9222 -0.7968
 5302SOL     OW27364   4.295   0.965   4.424 -0.7319 -0.1125  0.0575
 5302SOL    HW127365   4.308   0.922   4.339  2.1192 -0.2423  0.5590
 5302SOL    HW227366   4.311   1.056   4.400 -1.5228 -0.7207 -2.7992
 5303SOL     OW27367   1.452   2.691   6.028  0.3349 -0.6406  0.4823
 5303SOL    HW127368   1.506   2.638   5.970 -1.1228 -1.5054 -0.0858
 5303SOL    HW227369   1.518   2.738   6.079  0.5119  0.7874 -1.0711
 5304SOL     OW27370   4.182   2.090   4.454  0.0039 -0.1060 -0.0039
 5304SOL    HW127371   4.237   2.038   4.396 -0.5429 -1.9431  1.1350
 5304SOL    HW227372   4.104   2.100   4.399 -0.5270 -1.6471  0.4877
 5305SOL     OW27373   1.864   3.397  15.785 -0.1719 -0.3500  0.4243
 5305SOL    HW127374   1.899   3.406  15.873  0.6199 -1.0912  0.1827
 5305SOL    HW227375   1.782   3.446  15.794 -0.7782 -0.9904 -1.6708
 5306SOL     OW27376   3.869   0.597   7.508 -0.5665 -0.5996  0.3726
 5306SOL    HW127377   3.798   0.615   7.570 -0.9497 -0.4834 -0.1003
 5306SOL    HW227378   3.855   0.510   7.472  0.6743 -1.9811  3.2212
 5307SOL     OW27379   4.332   1.261  16.027 -0.3504  0.7333  0.3204
 5307SOL    HW127380   4.388   1.336  16.009 -0.7720  1.1187  0.5942
 5307SOL    HW227381   4.249   1.296  16.060  0.0361  1.3281  0.6491
 5308SOL     OW27382   2.482   4.109   8.451  0.0343  0.0560  0.0156
 5308SOL    HW127383   2.565   4.133   8.410 -0.3107 -1.2968 -1.5080
 5308SOL    HW227384   2.466   4.175   8.518 -1.1533 -0.1663 -0.0423
 5309SOL     OW27385   2.160   1.749   7.397 -0.2106 -0.4649  0.1117
 5309SOL    HW127386   2.201   1.693   7.463 -0.2503 -0.2821  0.2913
 5309SOL    HW227387   2.226   1.818   7.389 -0.0651 -0.5067  0.9508
 5310SOL     OW27388   0.560   2.017  11.611 -0.2667 -0.2089  0.3157
 5310SOL    HW127389   0.643   2.032  11.657 -0.0726 -0.4926  0.0532
 5310SOL    HW227390   0.511   1.968  11.677 -1.6823  0.4334 -0.2731
 5311SOL     OW27391   2.336   0.343   6.437 -0.0380  0.4852 -0.2463
 5311SOL    HW127392   2.379   0.329   6.521 -0.1333 -0.0784 -0.2865
 5311SOL    HW227393   2.311   0.434   6.449 -0.5685  0.4553 -1.1619
 5312SOL     OW27394   0.417   2.630  10.229  0.2954  0.1128  0.2115
 5312SOL    HW127395   0.389   2.702  10.173 -0.5933  0.3252  0.9420
 5312SOL    HW227396   0.496   2.666  10.270  0.0203 -1.2715  1.9327
 5313SOL     OW27397   4.359   4.514   1.087 -0.0852 -0.3313 -0.0180
 5313SOL    HW127398   4.274   4.553   1.068  0.7733  0.8582 -1.3470
 5313SOL    HW227399   4.421   4.584   1.067  0.6174 -0.1179  2.8724
 5314SOL     OW27400   2.134   4.345   6.574  0.1729  0.0737 -0.1755
 5314SOL    HW127401   2.150   4.254   6.598 -1.3887 -0.6463 -1.8628
 5314SOL    HW227402   2.210   4.390   6.611  0.7757  0.2737 -1.6480
 5315SOL     OW27403   3.270   3.369   7.105 -0.5045 -0.1686 -0.3940
 5315SOL    HW127404   3.247   3.281   7.134  1.0887  0.1572  1.8476
 5315SOL    HW227405   3.305   3.346   7.019 -1.1136  0.2813 -0.7669
 5316SOL     OW27406   3.060   1.228   1.189  0.5281  0.1036 -0.3298
 5316SOL    HW127407   3.048   1.204   1.281 -0.8850  1.5436 -0.1344
 5316SOL    HW227408   3.152   1.252   1.184 -0.1923  2.9746  0.3955
 5317SOL     OW27409   1.161   1.746   4.707  0.1230  0.5121 -0.7453
 5317SOL    HW127410   1.093   1.678   4.711  0.5046  0.2249  1.1344
 5317SOL    HW227411   1.228   1.713   4.647  1.0343  0.6403  0.1986
 5318SOL     OW27412   1.059   1.616   7.368  0.0187 -0.0158 -0.0195
 5318SOL    HW127413   1.022   1.528   7.355 -1.1048  0.7193 -1.7570
 5318SOL    HW227414   1.011   1.664   7.301 -0.8049 -1.9162 -0.8168
 5319SOL     OW27415   1.072   1.687  14.391  0.2144  0.3020 -0.2631
 5319SOL    HW127416   1.120   1.703  14.472 -1.3503  3.2811  0.0670
 5319SOL    HW227417   1.146   1.642  14.349  0.7358 -0.4495  1.4681
 5320SOL     OW27418   3.789   4.680  12.155 -0.3379 -0.1711  0.6546
 5320SOL    HW127419   3.741   4.680  12.237 -1.1894  0.3241  0.1543
 5320SOL    HW227420   3.789   4.587  12.133 -1.5622 -0.3366  1.3646
 5321SOL     OW27421   0.371   3.540  17.082 -0.1494 -0.0894  0.0117
 5321SOL    HW127422   0.287   3.505  17.112 -1.1292  1.0682 -1.3476
 5321SOL    HW227423   0.380   3.610  17.146  0.8873  0.7633 -1.0691
 5322SOL     OW27424   1.928   1.937   9.851 -0.3692 -0.3887 -0.1926
 5322SOL    HW127425   1.900   1.907   9.765  1.1444  0.5039 -0.9786
 5322SOL    HW227426   1.840   1.975   9.863 -1.1991 -1.6818 -2.1968
 5323SOL     OW27427   2.756   1.250   7.822  0.5461 -0.2460 -0.4500
 5323SOL    HW127428   2.787   1.280   7.737  0.7251 -0.1632 -0.3535
 5323SOL    HW227429   2.820   1.282   7.885 -0.4225 -0.2630  0.5548
 5324SOL     OW27430   2.619   1.204  15.104  0.3810  0.1377  0.0975
 5324SOL    HW127431   2.566   1.237  15.031 -0.1895  0.0367  0.4673
 5324SOL    HW227432   2.696   1.256  15.082  1.5261 -0.8870  1.7941
 5325SOL     OW27433   2.471   0.372  10.382 -0.1226  0.6292  0.4783
 5325SOL    HW127434   2.383   0.346  10.410  0.3235 -0.3413  0.9862
 5325SOL    HW227435   2.494   0.284  10.350  2.3081  1.6609 -0.6172
 5326SOL     OW27436   2.274   2.214   7.041  0.2188  0.3270  0.1602
 5326SOL    HW127437   2.214   2.284   7.014  0.1286  0.2149  0.0722
 5326SOL    HW227438   2.318   2.280   7.094  0.3372  0.0276  0.4370
 5327SOL     OW27439   3.836   3.740  12.635  0.0498  0.2422  0.1931
 5327SOL    HW127440   3.893   3.799  12.685  0.2344 -1.2540  1.7629
 5327SOL    HW227441   3.894   3.664  12.637 -1.0533 -0.5774  0.9932
 5328SOL     OW27442   3.973   2.440   9.000 -0.0172  0.3119  0.1314
 5328SOL    HW127443   3.908   2.373   9.021 -0.8021  0.6507 -1.1885
 5328SOL    HW227444   4.043   2.424   9.063  0.7608 -1.6390 -1.2444
 5329SOL     OW27445   4.470   1.067   6.048  0.3356  0.5463  0.3191
 5329SOL    HW127446   4.390   1.105   6.084 -0.2233  0.9900 -1.3675
 5329SOL    HW227447   4.513   1.153   6.050 -1.4894  1.4412  1.7650
 5330SOL     OW27448   2.815   2.374   8.896  0.8654  0.4286 -0.0440
 5330SOL    HW127449   2.873   2.323   8.953  1.3450 -0.4939 -1.3381
 5330SOL    HW227450   2.842   2.462   8.922  1.9529  0.2556 -0.5616
 5331SOL     OW27451   2.054   3.206   3.325  0.1090 -0.4130 -0.7131
 5331SOL    HW127452   2.124   3.237   3.268  0.1765  0.7343 -0.0015
 5331SOL    HW227453   2.069   3.112   3.311 -1.4165 -0.9374  1.1315
 5332SOL     OW27454   0.049   3.830   3.352  0.2757  0.0049 -0.6257
 5332SOL    HW127455   0.126   3.808   3.405 -1.0770 -1.8062  0.6170
 5332SOL    HW227456   0.004   3.891   3.410  1.2161  1.0879 -1.0395
 5333SOL     OW27457   1.028   1.325   8.921 -0.5185 -0.2029  0.4574
 5333SOL    HW127458   1.060   1.236   8.932  0.0634 -0.0249  0.2497
 5333SOL    HW227459   0.945   1.303   8.880  0.8126 -0.2213 -2.2291
 5334SOL     OW27460   3.452   2.344   5.026  0.0514 -0.0875 -0.3210
 5334SOL    HW127461   3.457   2.302   4.940  0.1816  1.0557 -0.8629
 5334SOL    HW227462   3.361   2.320   5.042 -0.1656  0.1216 -1.2492
 5335SOL     OW27463   2.412   2.657  12.961  0.0936 -0.0156 -0.3780
 5335SOL    HW127464   2.361   2.684  12.884 -1.0160 -0.4194  0.2182
 5335SOL    HW227465   2.428   2.564  12.944 -0.8923 -0.3522  0.5188
 5336SOL     OW27466   3.292   1.172   0.621 -0.1213 -0.3487 -0.7358
 5336SOL    HW127467   3.228   1.242   0.636  1.6207  1.0238  0.2411
 5336SOL    HW227468   3.263   1.151   0.532 -0.7709  1.4047 -0.9472
 5337SOL     OW27469   0.544   3.864   9.618 -0.4147 -0.3340 -0.0989
 5337SOL    HW127470   0.588   3.940   9.655 -2.5174  1.6425 -1.6974
 5337SOL    HW227471   0.498   3.834   9.696 -0.0744  0.3827  0.3754
 5338SOL     OW27472   1.654   3.102   7.147 -0.3320  0.0356 -0.5056
 5338SOL    HW127473   1.710   3.097   7.069  1.1153  1.9445  0.4100
 5338SOL    HW227474   1.711   3.122   7.222 -0.3358  1.6264 -0.9180
 5339SOL     OW27475   1.039   3.134   8.268  0.2883  0.2392  0.2954
 5339SOL    HW127476   1.133   3.120   8.267 -0.1347 -2.7943  0.2226
 5339SOL    HW227477   1.012   3.062   8.211  0.6596  0.8884 -0.6864
 5340SOL     OW27478   0.729   2.197   2.842  0.5044  0.0608  0.0186
 5340SOL    HW127479   0.722   2.220   2.749  0.8907 -2.0343 -0.5294
 5340SOL    HW227480   0.713   2.284   2.880 -0.6682 -0.7536  1.3849
 5341SOL     OW27481   0.501   4.168   0.857 -0.7150 -0.1792 -0.6794
 5341SOL    HW127482   0.527   4.165   0.949 -0.7695 -0.0539 -0.6594
 5341SOL    HW227483   0.502   4.075   0.832  0.0833 -0.5094  0.5925
 5342SOL     OW27484   3.271   4.109   0.741 -0.5122 -0.0035  0.4347
 5342SOL    HW127485   3.202   4.141   0.799  1.5792  1.0952  2.3358
 5342SOL    HW227486   3.308   4.033   0.785 -1.1594 -1.8203 -2.1522
 5343SOL     OW27487   2.195   2.691  17.667  0.0890 -0.1330  0.1838
 5343SOL    HW127488   2.231   2.735  17.591  0.2032 -0.6727 -0.0689
 5343SOL    HW227489   2.258   2.712   0.042  2.7247  0.7862 -2.5504
 5344SOL     OW27490   3.387   4.552   8.180 -0.1101  0.2383 -0.2066
 5344SOL    HW127491   3.346   4.639   8.174  0.0807  0.3392 -0.0403
 5344SOL    HW227492   3.326   4.499   8.128 -0.3808 -0.1075  0.4674
 5345SOL     OW27493   0.039   0.860   0.247 -0.5838  0.3801 -0.0153
 5345SOL    HW127494   4.718   0.945   0.257  1.3129  1.4290 -0.5984
 5345SOL    HW227495   0.127   0.887   0.271 -0.5056 -0.1523  0.2934
 5346SOL     OW27496   4.540   2.296   2.376  0.1173  0.2101 -0.2410
 5346SOL    HW127497   4.504   2.293   2.287 -1.6724 -1.7947  0.5600
 5346SOL    HW227498   4.520   2.389   2.389  1.0040  0.6879 -2.3049
 5347SOL     OW27499   4.174   1.560   3.620 -0.7760  0.7496  0.5186
 5347SOL    HW127500   4.126   1.585   3.541 -0.2427 -1.4180 -0.4878
 5347SOL    HW227501   4.108   1.499   3.653  1.7031 -2.6332 -0.8098
 5348SOL     OW27502   1.601   1.376  11.691 -0.3662 -0.2659  0.2058
 5348SOL    HW127503   1.543   1.305  11.664 -1.3292  0.1297  1.2216
 5348SOL    HW227504   1.541   1.436  11.735 -0.4379 -1.1581  1.3172
 5349SOL     OW27505   0.041   2.307   9.110  0.3228 -0.1754 -0.4505
 5349SOL    HW127506   0.099   2.285   9.037 -2.7622 -0.5745 -2.7777
 5349SOL    HW227507   0.046   2.402   9.105  1.9439 -0.2690 -0.6154
 5350SOL     OW27508   0.125   4.031   4.764 -0.2928  0.6301 -0.1891
 5350SOL    HW127509   0.159   4.008   4.850  0.3196 -0.4781 -0.7301
 5350SOL    HW227510   0.161   4.119   4.749 -0.6602  0.7579 -0.3127
 5351SOL     OW27511   1.837   1.686   8.430 -0.4364 -0.2610 -0.0141
 5351SOL    HW127512   1.765   1.642   8.387  0.3455 -0.5938 -0.9689
 5351SOL    HW227513   1.892   1.614   8.460 -0.2583 -0.5220 -0.9730
 5352SOL     OW27514   3.190   2.742   8.059 -0.0386  0.2973 -0.3454
 5352SOL    HW127515   3.134   2.778   8.128 -1.1974 -0.6003 -0.8253
 5352SOL    HW227516   3.136   2.664   8.045 -0.0108  0.1586  0.3063
 5353SOL     OW27517   1.272   4.044   8.181 -0.3861 -0.2626  0.2044
 5353SOL    HW127518   1.259   3.949   8.176 -0.8782 -0.0525 -2.3404
 5353SOL    HW227519   1.205   4.059   8.248 -0.4490  0.4937 -0.0304
 5354SOL     OW27520   3.019   2.735   4.797  0.2880  0.1103 -0.1534
 5354SOL    HW127521   3.060   2.731   4.711  2.9800 -0.5136  1.1351
 5354SOL    HW227522   3.069   2.805   4.840 -1.0979  1.0240 -0.0221
 5355SOL     OW27523   3.263   2.277   2.510 -0.3469  0.3059 -0.1883
 5355SOL    HW127524   3.266   2.333   2.588  2.2333 -1.2724  0.8520
 5355SOL    HW227525   3.341   2.223   2.523 -0.5444 -0.0268 -0.3986
 5356SOL     OW27526   3.080   2.030   2.293  0.8788 -0.0310  0.0062
 5356SOL    HW127527   3.078   2.117   2.334  0.9553  0.4902 -1.1008
 5356SOL    HW227528   3.064   2.046   2.200 -0.5497 -1.6844 -0.0165
 5357SOL     OW27529   3.381   4.347   7.380  0.2191 -0.2062  0.0459
 5357SOL    HW127530   3.313   4.280   7.379 -2.3229  2.3856 -0.8177
 5357SOL    HW227531   3.398   4.362   7.473  0.1962  1.0076 -0.1463
 5358SOL     OW27532   1.026   1.299   6.803  0.0228 -0.4039  0.3475
 5358SOL    HW127533   0.967   1.229   6.829 -1.2951  0.4689 -0.3090
 5358SOL    HW227534   1.111   1.258   6.788  0.4386  0.4875  0.2700
 5359SOL     OW27535   1.127   3.066   6.151  0.0517 -0.0453 -0.2576
 5359SOL    HW127536   1.209   3.092   6.193 -0.9882  3.1219 -0.1970
 5359SOL    HW227537   1.170   3.033   6.072 -0.5079  0.1867 -0.6608
 5360SOL     OW27538   4.357   0.418   3.391 -0.3054 -0.2705  0.2280
 5360SOL    HW127539   4.289   0.423   3.458 -0.1243  0.2889  0.3663
 5360SOL    HW227540   4.427   0.370   3.434 -0.5701 -1.7368 -0.9805
 5361SOL     OW27541   2.857   3.861   8.930  0.1342  0.3357 -0.6164
 5361SOL    HW127542   2.837   3.772   8.958  1.1727  0.3828  0.2860
 5361SOL    HW227543   2.928   3.839   8.869  0.6013  2.2787 -0.7539
 5362SOL     OW27544   0.000   1.147   3.274  0.2481 -0.0479 -0.9412
 5362SOL    HW127545   0.022   1.167   3.366 -3.5221 -1.6566  0.2962
 5362SOL    HW227546   4.645   1.093   3.284 -0.5366  1.0023 -1.3338
 5363SOL     OW27547   2.995   2.024   4.838 -0.0006 -0.3297  0.3317
 5363SOL    HW127548   3.000   1.932   4.813 -0.4008  0.1538 -1.5269
 5363SOL    HW227549   2.901   2.026   4.856  0.3297  0.6781  1.9224
 5364SOL     OW27550   1.683   2.854   9.440  0.2069  0.3584 -0.3764
 5364SOL    HW127551   1.737   2.821   9.512 -1.9677 -0.8396  0.7202
 5364SOL    HW227552   1.710   2.790   9.374 -1.4455  2.9269 -3.5771
 5365SOL     OW27553   0.892   3.772   3.407  0.4832  0.1238 -0.3453
 5365SOL    HW127554   0.813   3.802   3.361  1.5649  0.6832 -1.8292
 5365SOL    HW227555   0.881   3.678   3.401  2.0911  0.1094 -3.0797
 5366SOL     OW27556   4.632   1.327   4.491 -0.4065 -0.6537  0.2907
 5366SOL    HW127557   4.706   1.366   4.537  0.2544 -4.2421  2.2900
 5366SOL    HW227558   4.652   1.234   4.500 -0.5849 -0.6427  0.7692
 5367SOL     OW27559   1.040   1.520   3.411  0.6925  0.2470  0.9980
 5367SOL    HW127560   0.988   1.600   3.407 -0.4915 -0.5463  0.7099
 5367SOL    HW227561   1.130   1.541   3.386  1.0252 -0.2802  1.7691
 5368SOL     OW27562   3.507   3.370  17.265  0.5012  0.1388  0.0765
 5368SOL    HW127563   3.488   3.405  17.178 -0.2099  3.2037  1.4508
 5368SOL    HW227564   3.421   3.383  17.303  0.9513 -2.9096  2.0668
 5369SOL     OW27565   3.928   0.852   8.857  0.2186  0.3845 -0.0742
 5369SOL    HW127566   4.014   0.869   8.897 -0.0519 -1.5930  1.3913
 5369SOL    HW227567   3.887   0.938   8.861  0.3962  0.5228 -1.5074
 5370SOL     OW27568   3.985   1.903   5.034  0.2368  0.5226  0.1450
 5370SOL    HW127569   3.924   1.839   4.997  0.4622  1.0636 -1.1356
 5370SOL    HW227570   3.958   1.902   5.126 -1.8099  1.8077 -0.4519
 5371SOL     OW27571   0.692   2.093  12.182  0.0924  0.1393 -0.3485
 5371SOL    HW127572   0.650   2.170  12.144  1.6519  0.0582 -2.2313
 5371SOL    HW227573   0.629   2.028  12.151 -2.9428  1.3417  3.3242
 5372SOL     OW27574   1.328   2.675  12.849 -0.1070 -0.1316  0.0721
 5372SOL    HW127575   1.415   2.652  12.816 -1.0022  1.0772 -3.0965
 5372SOL    HW227576   1.278   2.716  12.779  1.0179 -1.2731 -1.3882
 5373SOL     OW27577   2.537   2.808  14.502 -0.0982  0.4151 -0.1217
 5373SOL    HW127578   2.611   2.860  14.469 -0.2184  1.6234  1.5291
 5373SOL    HW227579   2.506   2.770  14.420  0.3182 -0.5034  0.1418
 5374SOL     OW27580   1.791   4.451   8.868  0.3585  0.2617  0.3448
 5374SOL    HW127581   1.754   4.455   8.779  0.9620  1.1591  0.1292
 5374SOL    HW227582   1.881   4.441   8.836  0.4534  0.1915  0.6334
 5375SOL     OW27583   0.182   1.614   3.499 -0.1809 -0.1878  0.4656
 5375SOL    HW127584   0.270   1.626   3.464 -0.6328  2.2325  0.1643
 5375SOL    HW227585   0.136   1.696   3.479  0.3069 -0.6362 -2.4172
 5376SOL     OW27586   0.167   1.328   7.809  0.5163 -0.0952  0.3993
 5376SOL    HW127587   0.229   1.266   7.771 -1.3156 -2.0495  0.6196
 5376SOL    HW227588   0.140   1.376   7.731  0.8412  0.3093  0.5360
 5377SOL     OW27589   2.584   3.840   4.496  0.0115  0.4755 -0.0164
 5377SOL    HW127590   2.588   3.753   4.455  2.3249 -0.0753  1.3705
 5377SOL    HW227591   2.647   3.849   4.567  1.3223 -0.2110 -1.0952
 5378SOL     OW27592   3.219   2.172   3.458  0.3939  0.2600 -0.5149
 5378SOL    HW127593   3.124   2.167   3.443  0.0853 -0.0314  1.4653
 5378SOL    HW227594   3.228   2.241   3.524 -0.1489 -1.4234  1.3485
 5379SOL     OW27595   1.572   4.154   6.147 -0.5084  0.1868 -0.5158
 5379SOL    HW127596   1.478   4.138   6.160 -0.7678  2.3786  0.2931
 5379SOL    HW227597   1.598   4.068   6.181  0.3023  1.0643  1.0713
 5380SOL     OW27598   3.088   2.389   7.725  0.5422 -0.1880 -0.1255
 5380SOL    HW127599   3.111   2.316   7.667 -2.0718 -0.9790 -0.1589
 5380SOL    HW227600   3.056   2.452   7.661  0.1209 -1.3153 -1.0226
 5381SOL     OW27601   0.141   2.808  12.476  1.0558 -0.4533  0.2333
 5381SOL    HW127602   0.211   2.813  12.542 -1.3076 -1.5158  2.7848
 5381SOL    HW227603   0.167   2.857  12.398 -1.6133  0.7125  0.0853
 5382SOL     OW27604   3.048   4.515  17.612  0.0989 -0.4974 -0.9105
 5382SOL    HW127605   3.141   4.513  17.633  0.2357  0.3869 -1.4451
 5382SOL    HW227606   3.031   4.579  17.681  0.7974 -0.3720 -0.8517
 5383SOL     OW27607   1.161   1.279  16.155 -0.0428 -0.2009  0.3586
 5383SOL    HW127608   1.180   1.370  16.134 -1.7439  0.2173  0.7114
 5383SOL    HW227609   1.143   1.280  16.249 -1.8334  1.6889 -0.0191
 5384SOL     OW27610   4.482   1.955   0.937  0.1628  0.3259 -0.1152
 5384SOL    HW127611   4.488   2.021   1.006  0.4792  1.5055 -1.2808
 5384SOL    HW227612   4.399   1.915   0.965  0.4152 -0.7732 -0.9133
 5385SOL     OW27613   0.191   2.835   4.669 -0.1498  0.1188 -1.2602
 5385SOL    HW127614   0.266   2.852   4.726 -1.2720 -0.7539  0.4751
 5385SOL    HW227615   0.228   2.772   4.608 -0.8996 -0.9645 -0.5873
 5386SOL     OW27616   4.389   1.458   4.534 -0.2393 -0.1465 -0.4824
 5386SOL    HW127617   4.451   1.392   4.564 -0.3163 -0.1994 -0.4418
 5386SOL    HW227618   4.425   1.463   4.445  0.8928 -0.1306 -0.0121
 5387SOL     OW27619   3.780   1.122   8.552  0.2888 -0.0053  0.0570
 5387SOL    HW127620   3.751   1.035   8.523 -0.4824  0.7928 -1.5839
 5387SOL    HW227621   3.697   1.166   8.572 -0.2123 -1.3170  0.8228
 5388SOL     OW27622   1.288   2.163  14.653  0.3655  0.5912  0.4442
 5388SOL    HW127623   1.215   2.111  14.620  1.6497 -0.5003 -0.6854
 5388SOL    HW227624   1.288   2.127  14.742 -0.4053  0.7322  0.5046
 5389SOL     OW27625   2.414   4.357   7.791 -0.2126 -0.1607  0.4054
 5389SOL    HW127626   2.378   4.345   7.703  0.0149  1.7109  0.0619
 5389SOL    HW227627   2.463   4.275   7.801  1.4866  0.5967 -1.7411
 5390SOL     OW27628   0.149   0.853   6.846  0.0747  0.2053 -0.0844
 5390SOL    HW127629   0.197   0.820   6.770  0.8741  1.9794 -0.3544
 5390SOL    HW227630   0.208   0.821   6.915  0.0577  1.3411  0.4536
 5391SOL     OW27631   2.644   0.921   8.808  0.0055 -0.5306 -0.2404
 5391SOL    HW127632   2.738   0.939   8.808 -0.5141  2.1890  1.4286
 5391SOL    HW227633   2.643   0.864   8.884  0.3737  1.3379  1.1605
 5392SOL     OW27634   4.142   2.392   2.894  0.0517  0.2010  0.4372
 5392SOL    HW127635   4.133   2.322   2.830  1.4193  1.2591 -0.9155
 5392SOL    HW227636   4.209   2.360   2.955  0.0818  3.3420  2.0881
 5393SOL     OW27637   3.872   2.204  15.401  0.3026 -0.0636 -0.2527
 5393SOL    HW127638   3.783   2.184  15.429  0.1033  0.0528 -0.7991
 5393SOL    HW227639   3.871   2.294  15.368  2.1506  0.7451  1.8485
 5394SOL     OW27640   0.293   2.386   1.267  0.6146  0.0641  0.0175
 5394SOL    HW127641   0.376   2.415   1.229  1.1254 -2.3703 -0.7059
 5394SOL    HW227642   0.232   2.455   1.242 -0.5752 -0.6139  1.0768
 5395SOL     OW27643   2.234   3.997   6.063  0.0933 -0.2715  0.2687
 5395SOL    HW127644   2.307   3.950   6.103 -1.6886  0.5561  4.5208
 5395SOL    HW227645   2.212   4.059   6.133  1.6329 -1.1970  1.5732
 5396SOL     OW27646   3.244   1.401   1.473 -0.1200  0.6425  0.7918
 5396SOL    HW127647   3.217   1.470   1.534  0.0991 -0.4176  2.0967
 5396SOL    HW227648   3.192   1.332   1.515 -0.3331  0.4451  0.2081
 5397SOL     OW27649   2.996   1.112   6.203  0.2508 -0.3211  0.1134
 5397SOL    HW127650   3.055   1.038   6.209  0.6508 -0.1599 -1.7172
 5397SOL    HW227651   3.049   1.188   6.177  2.4647 -0.7287  3.4696
 5398SOL     OW27652   4.247   0.145  10.283 -0.1885 -0.0542  0.6289
 5398SOL    HW127653   4.215   0.222  10.329  1.9323  1.8134 -1.0642
 5398SOL    HW227654   4.268   0.182  10.198 -1.0119  1.0043  0.8999
 5399SOL     OW27655   1.028   0.455  14.592 -0.5850 -0.1527  0.1819
 5399SOL    HW127656   1.101   0.471  14.532 -0.2271 -0.4709  0.5356
 5399SOL    HW227657   1.073   0.409  14.663  0.7140  0.2984 -0.3526
 5400SOL     OW27658   0.447   0.663   7.172 -0.3695 -0.2305  0.2076
 5400SOL    HW127659   0.498   0.742   7.149 -2.8179  1.5704  0.9614
 5400SOL    HW227660   0.394   0.650   7.093  0.7570 -1.0204 -0.4242
 5401SOL     OW27661   3.030   0.618  15.280 -0.2945  0.0940 -0.5904
 5401SOL    HW127662   3.009   0.690  15.340  0.5491 -0.7835  0.7646
 5401SOL    HW227663   3.038   0.660  15.195  2.4730  0.9977  0.0888
 5402SOL     OW27664   4.011   1.594  12.112  0.3152 -0.0033  0.3170
 5402SOL    HW127665   4.051   1.635  12.035  3.2505 -2.0850  0.7165
 5402SOL    HW227666   3.958   1.669  12.136 -0.5982 -0.6368  0.2765
 5403SOL     OW27667   1.221   3.547   6.057  0.2841 -0.1249  0.1420
 5403SOL    HW127668   1.228   3.517   5.967  0.8759  0.4551 -0.0009
 5403SOL    HW227669   1.271   3.477   6.100  0.2287  0.2236  0.7739
 5404SOL     OW27670   4.559   1.689   9.069 -0.3694 -0.1513  0.5522
 5404SOL    HW127671   4.633   1.676   9.129 -0.2050 -1.9150 -0.0367
 5404SOL    HW227672   4.592   1.766   9.024 -0.2851  1.0970  2.7457
 5405SOL     OW27673   3.697   3.511  12.527  0.5223 -0.1246  0.0951
 5405SOL    HW127674   3.642   3.518  12.449 -0.9423  0.4147  1.1844
 5405SOL    HW227675   3.677   3.593  12.571  0.2830 -0.1376  0.0136
 5406SOL     OW27676   2.511   1.788   6.857 -0.9846 -0.1238  0.4643
 5406SOL    HW127677   2.456   1.844   6.802  2.5354  2.0965 -0.8173
 5406SOL    HW227678   2.455   1.713   6.875 -1.4873  0.1239 -0.0727
 5407SOL     OW27679   2.555   3.201   8.202  0.0667  0.1151  0.5508
 5407SOL    HW127680   2.482   3.181   8.143  1.0117  0.8139 -0.8370
 5407SOL    HW227681   2.577   3.109   8.218 -0.6060 -0.3046 -0.8961
 5408SOL     OW27682   2.477   3.048   6.949 -0.4842 -0.5053 -0.3477
 5408SOL    HW127683   2.504   3.025   6.860 -1.3808 -1.8278 -0.2832
 5408SOL    HW227684   2.559   3.049   6.998 -0.0107 -1.9668 -1.1139
 5409SOL     OW27685   1.398   0.645  15.985  0.5964  0.2846  0.0888
 5409SOL    HW127686   1.362   0.658  16.073 -1.4620 -0.0872 -0.7031
 5409SOL    HW227687   1.492   0.636  16.003  0.6287  0.8366  0.1873
 5410SOL     OW27688   2.060   3.174   7.174 -0.1589  0.3412  0.3713
 5410SOL    HW127689   1.991   3.162   7.109 -0.7036  1.4943  0.7428
 5410SOL    HW227690   2.122   3.233   7.132  0.4646 -0.6295 -0.0820
 5411SOL     OW27691   2.717   3.523   5.103  0.1581 -0.4712  0.4517
 5411SOL    HW127692   2.782   3.482   5.046 -0.6540 -1.6082  0.3471
 5411SOL    HW227693   2.660   3.574   5.045  1.0823  0.9245  0.7492
 5412SOL     OW27694   3.307   4.212   4.631  0.2395  0.0487 -0.0394
 5412SOL    HW127695   3.324   4.306   4.637  1.4858 -0.0205 -2.5516
 5412SOL    HW227696   3.222   4.203   4.674 -0.4376 -0.3501 -1.4638
 5413SOL     OW27697   0.482   4.449  10.933 -0.1102 -0.8740 -0.6376
 5413SOL    HW127698   0.506   4.541  10.934  0.9995 -1.1834  1.8917
 5413SOL    HW227699   0.565   4.416  10.966 -0.2928  1.7217  2.3959
 5414SOL     OW27700   4.208   4.321   0.658  0.6640  0.1986 -0.2849
 5414SOL    HW127701   4.236   4.319   0.749  0.0796 -2.8281 -0.1901
 5414SOL    HW227702   4.270   4.388   0.629  1.1048 -0.5895 -1.1746
 5415SOL     OW27703   4.488   2.168   1.161 -0.1892  0.0903 -0.0207
 5415SOL    HW127704   4.515   2.178   1.253 -1.3171 -0.4583  0.3781
 5415SOL    HW227705   4.556   2.221   1.121 -0.5094  0.8054  0.3657
 5416SOL     OW27706   0.553   2.695   3.773  0.0641  0.0526  0.5994
 5416SOL    HW127707   0.612   2.757   3.732 -0.5262 -0.5937 -1.2437
 5416SOL    HW227708   0.473   2.741   3.799 -0.8701  0.0396 -2.2654
 5417SOL     OW27709   0.344   1.657   2.338 -0.4643 -0.4281  0.5025
 5417SOL    HW127710   0.274   1.662   2.403 -0.4935  0.5777  0.3981
 5417SOL    HW227711   0.355   1.750   2.319  0.6535 -0.6562 -0.0014
 5418SOL     OW27712   0.668   0.934   4.613 -0.1499 -0.1779 -0.2454
 5418SOL    HW127713   0.613   1.007   4.584  0.9478  0.3865 -0.9241
 5418SOL    HW227714   0.656   0.869   4.544 -1.9417 -0.6899  0.5540
 5419SOL     OW27715   1.286   1.133   2.122 -0.0672  0.2170  0.3630
 5419SOL    HW127716   1.308   1.216   2.163 -2.2754  0.0554  1.8925
 5419SOL    HW227717   1.348   1.069   2.159 -2.6142 -2.9742 -0.8473
 5420SOL     OW27718   3.667   1.218   4.870  0.2773  0.3818  0.4997
 5420SOL    HW127719   3.646   1.310   4.884  2.8057  1.3163 -1.9262
 5420SOL    HW227720   3.670   1.188   4.961  0.3773 -1.0324  0.0377
 5421SOL     OW27721   0.796   3.099   8.013  0.4087 -0.3534  0.0685
 5421SOL    HW127722   0.715   3.048   8.006 -0.3588  1.0355 -1.0903
 5421SOL    HW227723   0.754   3.166   8.067  1.7833 -1.3467  2.3620
 5422SOL     OW27724   2.841   4.065   5.303 -0.1200 -0.0762  0.0449
 5422SOL    HW127725   2.895   3.998   5.261  3.3979  2.2896  0.8018
 5422SOL    HW227726   2.886   4.057   5.387  0.0769  2.4404  0.1734
 5423SOL     OW27727   2.054   0.285   4.387 -0.4253  0.4116  0.3645
 5423SOL    HW127728   2.055   0.200   4.343 -0.3647  0.0755  1.0217
 5423SOL    HW227729   1.964   0.295   4.419 -0.3267  0.4052  0.6432
 5424SOL     OW27730   2.301   3.693  17.191 -0.1010  0.5042 -0.2111
 5424SOL    HW127731   2.213   3.722  17.166  0.4039  0.8617 -1.5705
 5424SOL    HW227732   2.287   3.630  17.262  0.3434 -0.9937 -1.4424
 5425SOL     OW27733   2.562   0.501  10.077 -0.8339 -0.0359 -0.5058
 5425SOL    HW127734   2.586   0.507   9.985  0.6101 -0.0754 -0.1353
 5425SOL    HW227735   2.491   0.437  10.080 -2.2254  1.5503  0.9625
 5426SOL     OW27736   3.355   0.766  11.995 -0.1668  0.3497  0.1794
 5426SOL    HW127737   3.327   0.772  12.086  3.6577  0.2487  1.3256
 5426SOL    HW227738   3.412   0.689  11.996 -0.7823 -0.1243 -0.4433
 5427SOL     OW27739   3.563   4.193   6.209 -0.2434  0.1411 -0.3245
 5427SOL    HW127740   3.606   4.272   6.243 -1.6488  1.0270 -0.5920
 5427SOL    HW227741   3.502   4.183   6.282  2.9784  0.3599  2.4000
 5428SOL     OW27742   4.119   0.379   6.421  0.4145 -0.3535  0.1583
 5428SOL    HW127743   4.184   0.323   6.378  0.1471 -2.3094  2.3135
 5428SOL    HW227744   4.047   0.320   6.443 -0.3836  0.4292 -0.3839
 5429SOL     OW27745   0.856   1.315  14.992  0.7937  0.4811 -0.4860
 5429SOL    HW127746   0.839   1.243  14.932  1.9952 -0.4185  0.2717
 5429SOL    HW227747   0.951   1.310  15.002  0.6601  0.0312  0.6066
 5430SOL     OW27748   2.463   2.604   2.681  0.1603  0.1478  0.5229
 5430SOL    HW127749   2.508   2.532   2.725 -0.7828 -0.6515  0.1999
 5430SOL    HW227750   2.531   2.636   2.622 -0.7020 -0.6490 -0.8881
 5431SOL     OW27751   1.068   3.692   0.955 -0.7364 -0.4288 -0.2691
 5431SOL    HW127752   1.132   3.735   1.012 -0.4153 -0.5233 -0.5586
 5431SOL    HW227753   1.005   3.659   1.019  1.8198 -1.4260  1.7395
 5432SOL     OW27754   0.587   3.499   3.388  0.8522  0.5291  0.6743
 5432SOL    HW127755   0.674   3.513   3.426  1.1831 -1.1596  0.4993
 5432SOL    HW227756   0.581   3.576   3.331 -0.9995 -0.6298 -0.7174
 5433SOL     OW27757   2.176   2.330  14.022  0.0253  0.5727  0.0288
 5433SOL    HW127758   2.180   2.423  13.999  0.4087  0.8199  1.0993
 5433SOL    HW227759   2.121   2.306  13.948  0.2558 -0.2352  0.1161
 5434SOL     OW27760   2.585   2.278  16.504 -0.1289 -0.1151  0.3913
 5434SOL    HW127761   2.668   2.242  16.534  0.4383  0.5822 -0.3302
 5434SOL    HW227762   2.572   2.223  16.426 -1.2894  0.0146  0.4861
 5435SOL     OW27763   0.140   4.205   8.579 -0.3662 -0.0422  0.6637
 5435SOL    HW127764   0.068   4.188   8.518  1.1137  2.4456 -1.8127
 5435SOL    HW227765   0.212   4.212   8.516  0.9248 -2.1102  1.9296
 5436SOL     OW27766   0.667   1.371  15.586  0.0536 -0.1819 -0.2544
 5436SOL    HW127767   0.644   1.463  15.601 -0.3683 -0.0441 -1.7461
 5436SOL    HW227768   0.652   1.341  15.676  1.0613 -0.9838 -0.3511
 5437SOL     OW27769   0.270   2.647   9.893 -0.2995 -0.2857 -0.0196
 5437SOL    HW127770   0.197   2.708   9.881 -0.4721 -0.9952 -2.6978
 5437SOL    HW227771   0.244   2.584   9.825 -2.0947  0.2273  0.2068
 5438SOL     OW27772   1.117   3.743   6.214  0.4699  0.4330 -0.3275
 5438SOL    HW127773   1.122   3.826   6.167  2.1725  0.4542 -0.0824
 5438SOL    HW227774   1.160   3.686   6.150  2.0395  1.1930  0.0778
 5439SOL     OW27775   3.856   3.130   0.386  0.6503  0.1046  0.4334
 5439SOL    HW127776   3.833   3.171   0.469 -0.5116  2.1075 -0.8693
 5439SOL    HW227777   3.933   3.182   0.361 -0.3077 -0.3897 -3.6672
 5440SOL     OW27778   0.113   4.498   9.166 -0.3352  0.5147  0.0289
 5440SOL    HW127779   0.018   4.497   9.152 -0.4685  0.3079  0.9519
 5440SOL    HW227780   0.136   4.550   9.090 -0.3125 -2.7478 -2.2006
 5441SOL     OW27781   1.781   1.998   2.111 -0.7742  0.2246  0.1806
 5441SOL    HW127782   1.704   1.965   2.065 -1.0249  1.2196 -0.1154
 5441SOL    HW227783   1.766   1.967   2.200 -1.7622 -2.5186 -0.9598
 5442SOL     OW27784   2.617   1.160   6.870  0.0648 -0.8633 -0.5967
 5442SOL    HW127785   2.673   1.187   6.798  0.0657  0.7692  0.0337
 5442SOL    HW227786   2.655   1.079   6.904 -0.9941 -0.9911  0.3052
 5443SOL     OW27787   3.192   3.224  17.576 -0.1370 -0.4601 -0.1234
 5443SOL    HW127788   3.195   3.264  17.663  0.3163  0.5510 -0.6142
 5443SOL    HW227789   3.232   3.288  17.518  0.1084 -0.8377 -0.3734
 5444SOL     OW27790   0.115   1.170   8.610 -0.0296 -0.2080  0.0286
 5444SOL    HW127791   0.129   1.228   8.685 -0.5950 -1.0754  0.8191
 5444SOL    HW227792   0.201   1.172   8.569 -0.4517 -0.3136 -0.8708
 5445SOL     OW27793   1.296   1.452   4.416 -0.5903  0.7212  0.3819
 5445SOL    HW127794   1.201   1.454   4.403 -0.4511  0.2227 -0.7518
 5445SOL    HW227795   1.318   1.360   4.429 -0.7067  0.7538  0.8055
 5446SOL     OW27796   2.665   1.392   0.578  0.0293 -0.1743  0.5324
 5446SOL    HW127797   2.742   1.365   0.527 -0.4275 -1.8345  0.7387
 5446SOL    HW227798   2.619   1.309   0.570  0.8859 -0.4765 -1.1491
 5447SOL     OW27799   0.111   1.279   2.490  0.2667 -0.7122  0.0299
 5447SOL    HW127800   0.060   1.341   2.437  1.7993  0.3130 -0.2587
 5447SOL    HW227801   0.078   1.277   2.580 -0.4350 -0.0992 -0.2190
 5448SOL     OW27802   0.080   4.143  10.999 -0.0575  0.1789 -0.9093
 5448SOL    HW127803   0.152   4.201  11.025 -1.7521  1.3802  1.1050
 5448SOL    HW227804   0.026   4.145  11.078  1.8346 -1.8586  0.4422
 5449SOL     OW27805   3.416   2.452  11.304  0.4837  0.0223 -0.6927
 5449SOL    HW127806   3.327   2.487  11.313  0.5735  0.1349 -0.2234
 5449SOL    HW227807   3.389   2.385  11.241  1.6889 -0.6582 -0.4822
 5450SOL     OW27808   4.085   0.071   0.874  0.0890 -0.5703  0.5288
 5450SOL    HW127809   4.108   0.143   0.815 -0.7389 -1.2560 -0.6185
 5450SOL    HW227810   4.016   0.027   0.824  0.1208  0.1692 -0.1577
 5451SOL     OW27811   3.004   0.178   4.370  0.3462  0.0129 -0.2919
 5451SOL    HW127812   2.991   0.087   4.396  1.2003 -0.1206 -0.3314
 5451SOL    HW227813   2.930   0.215   4.417 -0.4684 -2.2529  0.2099
 5452SOL     OW27814   1.003   3.742   8.134  0.2451 -0.5133 -0.0203
 5452SOL    HW127815   0.966   3.744   8.222  0.8851 -0.1024  0.2419
 5452SOL    HW227816   0.937   3.788   8.083 -1.2647  0.8712  3.1892
 5453SOL     OW27817   1.537   3.983   4.899  0.4086 -0.0197 -0.0870
 5453SOL    HW127818   1.581   4.037   4.833  0.3282 -0.2316 -0.3149
 5453SOL    HW227819   1.500   4.051   4.956 -0.9596 -1.8901  1.2594
 5454SOL     OW27820   0.172   4.045   1.959 -0.2725 -0.5159  0.2242
 5454SOL    HW127821   0.112   4.028   1.887  0.3879  2.6355 -1.0924
 5454SOL    HW227822   0.247   4.076   1.908 -2.2506  1.7932 -1.3065
 5455SOL     OW27823   1.311   0.053   3.052 -0.0368 -0.1721 -0.3802
 5455SOL    HW127824   1.356   0.009   2.981  1.0339  2.9244 -1.6147
 5455SOL    HW227825   1.255   4.705   3.084 -0.3577  1.0455  1.7992
 5456SOL     OW27826   1.098   3.713  12.319  0.2684  0.3338  0.7023
 5456SOL    HW127827   1.091   3.641  12.256 -0.5603 -0.0894  1.2742
 5456SOL    HW227828   1.179   3.680  12.358  0.5272  0.5666  0.3596
 5457SOL     OW27829   3.306   1.363   7.179  0.3462 -0.2640  0.2265
 5457SOL    HW127830   3.391   1.320   7.171  0.0425 -1.1850  2.1231
 5457SOL    HW227831   3.298   1.427   7.108  0.4546 -0.7365 -0.2093
 5458SOL     OW27832   1.388   0.783   5.802 -0.1315  0.1675  0.4775
 5458SOL    HW127833   1.414   0.796   5.711 -0.9911 -0.8399  0.0857
 5458SOL    HW227834   1.412   0.690   5.802  0.9438  0.4394  1.1806
 5459SOL     OW27835   3.853   1.270  17.631  0.5387  0.5846 -0.0671
 5459SOL    HW127836   3.862   1.241   0.028  0.6867  1.0726  0.0701
 5459SOL    HW227837   3.941   1.306  17.627 -0.1948  2.2709 -0.7518
 5460SOL     OW27838   4.311   4.341   7.806 -0.2604 -0.0318 -0.6718
 5460SOL    HW127839   4.331   4.383   7.722 -2.5140  2.5732  0.1109
 5460SOL    HW227840   4.346   4.253   7.793  1.0471  0.3448  0.2396
 5461SOL     OW27841   2.666   1.875   0.675  0.0557 -0.0432 -0.1792
 5461SOL    HW127842   2.622   1.924   0.744  1.8490  1.8468 -0.3743
 5461SOL    HW227843   2.641   1.786   0.698  0.7463 -0.5960 -1.5800
 5462SOL     OW27844   3.577   0.446   7.512 -0.1218 -0.5448  0.0444
 5462SOL    HW127845   3.489   0.434   7.476  0.0426  1.3141 -0.9458
 5462SOL    HW227846   3.580   0.372   7.573 -1.0674  0.1218  0.8875
 5463SOL     OW27847   0.859   3.841   9.834 -0.6149  0.0112 -1.0710
 5463SOL    HW127848   0.771   3.804   9.841 -0.1232 -0.9492  0.1466
 5463SOL    HW227849   0.905   3.757   9.822 -0.1863  0.0776  0.0217
 5464SOL     OW27850   3.621   2.611  10.164  0.0868  0.4049 -0.4645
 5464SOL    HW127851   3.707   2.576  10.189  0.0741 -0.0672 -1.0835
 5464SOL    HW227852   3.574   2.533  10.195 -0.8602  0.8876 -0.6890
 5465SOL     OW27853   2.228   3.186   3.605 -0.8815  0.2221 -0.0100
 5465SOL    HW127854   2.309   3.188   3.554  0.6975 -0.9460  2.4624
 5465SOL    HW227855   2.207   3.276   3.633 -1.5440  0.0999 -0.0978
 5466SOL     OW27856   4.241   1.127   8.979 -0.0582 -0.1241 -0.3120
 5466SOL    HW127857   4.171   1.180   8.942 -0.4947  1.6031  2.9812
 5466SOL    HW227858   4.242   1.144   9.073 -0.3358 -1.3247 -0.0902
 5467SOL     OW27859   1.502   1.113   8.102 -0.2375  0.0053  0.0311
 5467SOL    HW127860   1.416   1.121   8.143 -0.0830  2.2563 -0.0791
 5467SOL    HW227861   1.567   1.119   8.172 -0.4943  2.3553  0.0654
 5468SOL     OW27862   3.388   2.143   9.160 -0.0646 -0.3263  0.5165
 5468SOL    HW127863   3.423   2.229   9.140  2.3441 -1.3219  0.4085
 5468SOL    HW227864   3.419   2.131   9.250 -0.8922  0.5103  0.9034
 5469SOL     OW27865   2.989   0.919   9.813  0.1243  0.0389 -0.0261
 5469SOL    HW127866   2.950   0.848   9.864  0.5953 -0.1025  0.1388
 5469SOL    HW227867   2.915   0.951   9.761  0.2665  0.9368  0.3206
 5470SOL     OW27868   2.841   0.125  12.971  0.5226  0.4381 -0.7044
 5470SOL    HW127869   2.833   0.210  13.015  1.4887 -0.3623  1.0251
 5470SOL    HW227870   2.900   0.138  12.897 -0.7263  1.5977 -1.5029
 5471SOL     OW27871   2.953   0.191   4.097 -0.1886 -0.0572 -0.4260
 5471SOL    HW127872   2.998   0.112   4.069  2.2073  1.6511 -1.4500
 5471SOL    HW227873   2.972   0.188   4.190  0.2188 -0.1565 -0.5151
 5472SOL     OW27874   3.753   1.403   8.837  0.6502  0.5296  0.2133
 5472SOL    HW127875   3.760   1.397   8.932 -0.1027 -1.2224  0.1553
 5472SOL    HW227876   3.766   1.498   8.827  3.0903  0.3196  1.3465
 5473SOL     OW27877   2.237   2.831   6.992  0.2807  0.4641 -0.0317
 5473SOL    HW127878   2.305   2.849   7.057  0.1889  2.3687 -0.4629
 5473SOL    HW227879   2.238   2.909   6.936 -2.8650  0.1699 -0.4972
 5474SOL     OW27880   3.268   3.380   1.054 -0.4412 -0.6946  0.3069
 5474SOL    HW127881   3.314   3.354   1.134 -0.4859  0.3228  0.6645
 5474SOL    HW227882   3.202   3.313   1.038 -0.3921 -0.3668 -1.3021
 5475SOL     OW27883   1.857   3.439  15.249  0.1809 -0.3900 -0.3076
 5475SOL    HW127884   1.913   3.511  15.220  1.7963 -0.9560  1.4055
 5475SOL    HW227885   1.891   3.434  15.338 -1.2553  1.9307  0.3785
 5476SOL     OW27886   3.527   2.742   4.778  0.4755 -0.6305 -0.0088
 5476SOL    HW127887   3.445   2.693   4.775  0.6360 -0.8006 -1.4007
 5476SOL    HW227888   3.502   2.789   4.858 -1.7195  0.7102 -1.5018
 5477SOL     OW27889   4.141   1.712   0.777  0.1312 -0.5485  0.1115
 5477SOL    HW127890   4.113   1.623   0.795 -2.4385  0.2142 -0.1224
 5477SOL    HW227891   4.209   1.720   0.844  1.0845  0.8263 -0.9913
 5478SOL     OW27892   2.457   2.218   2.589  0.5413  0.1970  0.1087
 5478SOL    HW127893   2.521   2.196   2.657 -0.1954 -0.8690  0.4651
 5478SOL    HW227894   2.516   2.266   2.530 -1.5555  2.0903 -0.4230
 5479SOL     OW27895   0.513   0.728  17.658 -0.4603 -0.6002 -0.3723
 5479SOL    HW127896   0.607   0.738  17.648 -0.4164 -1.2064 -0.5618
 5479SOL    HW227897   0.502   0.642  17.617  1.3489 -0.9826 -0.0413
 5480SOL     OW27898   2.957   1.380   0.891  1.0228  0.0200 -0.5582
 5480SOL    HW127899   2.943   1.466   0.851 -0.4809  1.2051  2.4883
 5480SOL    HW227900   3.021   1.351   0.826  2.2758  3.7693 -1.0342
 5481SOL     OW27901   2.948   1.339   8.005  0.0389 -0.0709  0.5862
 5481SOL    HW127902   2.988   1.426   8.013  0.3419 -0.0943 -0.6418
 5481SOL    HW227903   2.956   1.315   8.097  1.2239 -1.3006  0.1507
 5482SOL     OW27904   1.391   0.932  15.805 -0.0149 -0.0414  0.2643
 5482SOL    HW127905   1.468   0.986  15.826  0.6080 -0.2185 -1.5026
 5482SOL    HW227906   1.327   1.002  15.820  0.0272  0.7992 -3.4783
 5483SOL     OW27907   4.709   4.141   8.036  0.4630 -0.2157 -0.3687
 5483SOL    HW127908   4.665   4.225   8.017  1.7541  0.4165 -0.5638
 5483SOL    HW227909   4.651   4.115   8.108  1.4705 -1.3254  0.0342
 5484SOL     OW27910   3.764   1.107   6.522 -0.4410 -0.1724  0.4334
 5484SOL    HW127911   3.720   1.176   6.471 -2.6668 -2.6546 -0.9925
 5484SOL    HW227912   3.845   1.083   6.476  1.0901  1.6116  2.2210
 5485SOL     OW27913   0.278   2.934   2.424 -0.3300  0.0128  0.6988
 5485SOL    HW127914   0.323   2.881   2.358 -2.1503 -0.4981 -0.1161
 5485SOL    HW227915   0.320   3.019   2.416  0.8888 -0.4471  2.0973
 5486SOL     OW27916   4.171   2.110   6.362 -0.2579  0.2253 -0.3237
 5486SOL    HW127917   4.199   2.170   6.431  0.1379 -0.2190 -0.0934
 5486SOL    HW227918   4.177   2.169   6.287  1.1842  0.8527  0.2713
 5487SOL     OW27919   1.652   2.736   7.872  0.3490 -0.6431  0.4240
 5487SOL    HW127920   1.601   2.666   7.833 -1.8752  1.8980 -1.1609
 5487SOL    HW227921   1.689   2.685   7.945 -0.7890 -1.9037  0.1037
 5488SOL     OW27922   2.801   2.002   6.626 -0.4600  0.0302 -0.3432
 5488SOL    HW127923   2.706   2.010   6.615 -0.6190 -1.1050  0.2293
 5488SOL    HW227924   2.834   2.042   6.546 -1.1652 -3.1435 -2.2163
 5489SOL     OW27925   2.570   4.239   4.478  0.5285  0.5720  0.2030
 5489SOL    HW127926   2.542   4.330   4.478  0.1839  0.4806 -2.8558
 5489SOL    HW227927   2.488   4.194   4.499 -0.9373  2.4204 -1.6349
 5490SOL     OW27928   4.708   3.120   4.687  0.5583 -0.2584 -0.6097
 5490SOL    HW127929   0.061   3.165   4.723 -0.5111  1.5963 -0.6693
 5490SOL    HW227930   4.705   3.163   4.602 -2.6876  0.0670 -0.3595
 5491SOL     OW27931   3.412   3.291   1.277 -0.3081  0.1917  0.4949
 5491SOL    HW127932   3.414   3.195   1.284  0.7685  0.1929  0.1611
 5491SOL    HW227933   3.364   3.319   1.355  0.6629  0.4735  0.9868
 5492SOL     OW27934   4.268   1.161   6.289  0.4444  0.6816 -0.4594
 5492SOL    HW127935   4.222   1.207   6.359  1.7451  0.7867  0.3279
 5492SOL    HW227936   4.244   1.204   6.207  1.3410 -1.4500 -1.8597
 5493SOL     OW27937   0.031   1.382  13.735 -0.4436 -0.2532 -0.2205
 5493SOL    HW127938   0.070   1.420  13.814  1.0736  0.9144 -1.5260
 5493SOL    HW227939   0.064   1.445  13.671 -1.9776 -0.5917 -1.3364
 5494SOL     OW27940   4.010   1.493   9.105  0.0709  0.4563 -0.1770
 5494SOL    HW127941   4.036   1.475   9.014  0.5215  0.3925 -0.0324
 5494SOL    HW227942   4.050   1.580   9.116  1.1929 -0.2016  0.8725
 5495SOL     OW27943   1.965   3.061   8.147  0.2590 -0.1140  0.0838
 5495SOL    HW127944   1.978   3.149   8.112  0.1690  0.2760  1.0310
 5495SOL    HW227945   1.892   3.075   8.207 -0.2433  1.5622 -0.9150
 5496SOL     OW27946   2.521   2.631   3.519  0.0911 -0.1666  0.0158
 5496SOL    HW127947   2.440   2.630   3.470 -0.1223  0.1433  0.3576
 5496SOL    HW227948   2.502   2.677   3.601 -2.3311  0.7540 -1.0758
 5497SOL     OW27949   2.708   3.161   5.318 -0.1491  0.1107  0.4688
 5497SOL    HW127950   2.705   3.256   5.312  0.4210  0.0862 -0.2320
 5497SOL    HW227951   2.794   3.155   5.360 -0.9480 -0.8671  1.9170
 5498SOL     OW27952   0.253   1.552   4.210 -0.0541  0.4174  0.3786
 5498SOL    HW127953   0.239   1.631   4.262  1.4804  2.6363 -2.5774
 5498SOL    HW227954   0.262   1.601   4.128  4.5293 -1.7885 -0.4384
 5499SOL     OW27955   2.422   0.912   6.729  0.4165 -0.6176  0.3370
 5499SOL    HW127956   2.476   0.932   6.653 -0.1279 -0.7554 -0.0861
 5499SOL    HW227957   2.491   0.910   6.795  0.3925 -1.5702  0.3352
 5500SOL     OW27958   1.961   2.642   7.605 -0.6140 -0.6656 -0.5612
 5500SOL    HW127959   1.893   2.706   7.581  0.7582  0.2658 -1.9504
 5500SOL    HW227960   1.947   2.573   7.540  0.9604 -0.1405 -1.4626
 5501SOL     OW27961   0.953   0.177  17.272  0.1802  0.1124  0.3262
 5501SOL    HW127962   1.017   0.249  17.279 -1.5779  1.4815  2.3231
 5501SOL    HW227963   0.917   0.187  17.360 -0.2707 -1.4941  0.3241
 5502SOL     OW27964   0.586   0.293   8.198  0.5811 -0.2360 -0.4204
 5502SOL    HW127965   0.535   0.303   8.118 -0.6444  1.9741  0.6419
 5502SOL    HW227966   0.535   0.231   8.250  0.6610 -1.9811 -2.4216
 5503SOL     OW27967   1.138   1.735   4.318  0.2040  0.0433  0.0711
 5503SOL    HW127968   1.119   1.798   4.249 -1.9307 -0.1283  0.5056
 5503SOL    HW227969   1.073   1.665   4.312  0.8222 -0.5092 -0.1828
 5504SOL     OW27970   0.129   2.795   0.935  0.0471 -0.4641 -0.4168
 5504SOL    HW127971   0.170   2.755   0.858 -1.2961 -0.6924 -1.0043
 5504SOL    HW227972   0.101   2.721   0.989 -2.9348  0.2702 -0.9779
 5505SOL     OW27973   2.167   2.273   4.219 -0.1020  0.4315  0.0966
 5505SOL    HW127974   2.205   2.353   4.255  0.8232  0.1204 -0.1960
 5505SOL    HW227975   2.200   2.215   4.288  1.0372  0.2360 -0.6171
 5506SOL     OW27976   2.897   2.269   3.600  0.2373 -0.3758  0.5507
 5506SOL    HW127977   2.816   2.308   3.568  1.2461  1.1354 -0.1243
 5506SOL    HW227978   2.915   2.212   3.525 -0.1552 -1.7083  1.4543
 5507SOL     OW27979   3.341   1.889   8.829 -0.1231  0.3314  0.4077
 5507SOL    HW127980   3.395   1.894   8.750 -0.1906 -0.9557  0.2874
 5507SOL    HW227981   3.409   1.884   8.896 -1.3330 -2.2895  1.4100
 5508SOL     OW27982   3.569   3.266  16.893 -0.1277  0.1148 -0.1242
 5508SOL    HW127983   3.508   3.214  16.946  0.5052  0.6303  1.1173
 5508SOL    HW227984   3.573   3.346  16.947  0.2516  1.0446 -1.5278
 5509SOL     OW27985   0.164   4.171   7.579 -0.0339 -0.0396 -0.0013
 5509SOL    HW127986   0.193   4.124   7.501 -0.6576  0.4722 -0.5301
 5509SOL    HW227987   0.083   4.215   7.553  0.3472  1.1169  0.7847
 5510SOL     OW27988   1.159   3.033  16.564  0.4993 -0.1058 -0.3748
 5510SOL    HW127989   1.095   3.061  16.499  0.6716 -0.1563 -0.5658
 5510SOL    HW227990   1.242   3.075  16.539  0.6459 -1.6745 -2.5517
 5511SOL     OW27991   4.034   0.474   0.589 -0.0777  0.0186  0.6167
 5511SOL    HW127992   4.104   0.520   0.543 -1.5813  2.4386  0.7576
 5511SOL    HW227993   4.018   0.539   0.657  0.1507  2.5328 -1.7662
 5512SOL     OW27994   0.297   1.833   0.381  0.1830 -0.2458 -0.3881
 5512SOL    HW127995   0.380   1.873   0.359  0.8479 -2.2866 -1.5755
 5512SOL    HW227996   0.273   1.883   0.459 -0.9378 -2.4854  0.7055
 5513SOL     OW27997   1.876   4.680   5.679  0.0657  0.4365 -0.2502
 5513SOL    HW127998   1.814   4.634   5.623  1.0420  0.3256 -1.2338
 5513SOL    HW227999   1.858   4.629   5.759 -2.6943  1.1487 -0.4154
 5514SOL     OW28000   1.947   2.994  16.319  0.2417 -0.0567 -0.3774
 5514SOL    HW128001   2.016   2.971  16.381 -0.5147  0.5658  0.7114
 5514SOL    HW228002   1.871   2.980  16.376 -0.4053 -1.5475 -1.6190
 5515SOL     OW28003   3.831   1.151   7.339 -0.3096  0.8584 -0.0284
 5515SOL    HW128004   3.784   1.068   7.339 -1.6544  1.6172  1.5999
 5515SOL    HW228005   3.858   1.161   7.248  1.5627 -0.1438  0.4087
 5516SOL     OW28006   0.610   4.419  11.562  0.1044  0.1342  0.0870
 5516SOL    HW128007   0.541   4.429  11.496  0.0661  0.7096  0.2091
 5516SOL    HW228008   0.573   4.349  11.615  2.7782 -2.5099 -1.5216
 5517SOL     OW28009   0.294   0.738   0.198 -0.5891 -0.3282 -0.1286
 5517SOL    HW128010   0.323   0.770   0.113  1.4235 -1.5522  0.0923
 5517SOL    HW228011   0.367   0.765   0.254 -0.6428  2.4161 -1.4190
 5518SOL     OW28012   3.244   3.576  13.486  0.2296 -0.3215 -0.5835
 5518SOL    HW128013   3.273   3.524  13.561  0.8628  1.3639  0.3305
 5518SOL    HW228014   3.161   3.603  13.525  1.4433  0.8526  1.1390
 5519SOL     OW28015   2.240   3.422   0.295 -0.0970 -0.3469  0.0365
 5519SOL    HW128016   2.322   3.387   0.260 -0.3047  0.0183 -0.8218
 5519SOL    HW228017   2.218   3.351   0.355 -1.4173  1.6476  1.9327
 5520SOL     OW28018   0.342   4.285   1.319  0.2752 -0.4287 -0.4369
 5520SOL    HW128019   0.430   4.315   1.342  0.0058 -0.7036  0.9933
 5520SOL    HW228020   0.292   4.309   1.397  1.1999  0.6940 -0.1988
 5521SOL     OW28021   2.579   3.378   8.472  0.1326  0.1568 -0.3404
 5521SOL    HW128022   2.626   3.305   8.432  0.7377  0.0716  0.5290
 5521SOL    HW228023   2.650   3.439   8.493 -0.8953  1.1949  0.0890
 5522SOL     OW28024   2.652   1.228   5.517  0.2183 -0.4731 -0.2583
 5522SOL    HW128025   2.686   1.176   5.590  0.1349  0.7094  0.6246
 5522SOL    HW228026   2.668   1.313   5.558 -1.9449  0.1365 -0.7306
 5523SOL     OW28027   2.646   1.522   4.940 -0.0272  0.2350 -0.4548
 5523SOL    HW128028   2.574   1.539   4.879 -0.4081  0.0182 -0.0680
 5523SOL    HW228029   2.676   1.441   4.898  0.3179  1.7329 -3.0341
 5524SOL     OW28030   1.801   1.397   2.799 -0.0859 -0.7615  0.1822
 5524SOL    HW128031   1.817   1.305   2.780 -1.5529 -1.0365  0.2996
 5524SOL    HW228032   1.774   1.396   2.891  1.4540 -2.0749  0.6074
 5525SOL     OW28033   2.436   1.802   8.129  0.0852 -0.0516  0.0559
 5525SOL    HW128034   2.470   1.718   8.100 -0.8094  0.1163 -1.4907
 5525SOL    HW228035   2.349   1.778   8.163 -0.4010  0.0161 -1.1539
 5526SOL     OW28036   0.482   0.875   0.361 -0.0962 -0.3119 -0.2175
 5526SOL    HW128037   0.557   0.923   0.327 -0.6746 -0.1290 -1.2275
 5526SOL    HW228038   0.521   0.837   0.440  1.3617  0.5739 -0.5159
 5527SOL     OW28039   0.441   1.091   2.005  0.6101 -0.4985 -0.1867
 5527SOL    HW128040   0.368   1.087   2.068 -0.6787  0.2548 -1.6073
 5527SOL    HW228041   0.438   1.185   1.985  1.9238 -0.4470 -0.1350
 5528SOL     OW28042   3.476   3.262   2.929 -0.0851 -0.6004  0.1878
 5528SOL    HW128043   3.431   3.259   2.845 -2.3455 -1.7929  1.4386
 5528SOL    HW228044   3.398   3.278   2.981 -1.2947 -1.4772 -1.3603
 5529SOL     OW28045   3.195   3.740   7.481  0.4631  0.2650  0.2321
 5529SOL    HW128046   3.249   3.780   7.549  2.7024 -0.8119 -0.9309
 5529SOL    HW228047   3.255   3.705   7.416  0.0823  0.2207 -0.0968
 5530SOL     OW28048   2.948   0.935   7.605 -0.2470 -0.4748  0.3188
 5530SOL    HW128049   2.991   0.878   7.541  1.1714  1.1883 -0.1884
 5530SOL    HW228050   2.936   1.020   7.564 -3.7361 -0.9069  0.4254
 5531SOL     OW28051   4.521   0.731   6.466  0.2415 -0.0727  0.5219
 5531SOL    HW128052   4.472   0.807   6.434  2.7323  0.8223 -1.1406
 5531SOL    HW228053   4.451   0.684   6.511  0.0637  0.0942  0.4220
 5532SOL     OW28054   0.998   0.404   3.526  0.3474  0.5624  0.3104
 5532SOL    HW128055   1.076   0.349   3.528  1.4409  2.0821  0.2794
 5532SOL    HW228056   1.013   0.476   3.587  0.3078 -1.7814  3.0630
 5533SOL     OW28057   3.373   3.722   7.051 -0.4305 -0.2311  0.1279
 5533SOL    HW128058   3.403   3.688   6.967 -0.5013 -1.4068  0.5683
 5533SOL    HW228059   3.326   3.798   7.018  0.8608 -0.0856 -1.3456
 5534SOL     OW28060   2.845   1.754   5.498 -0.0539 -0.0450 -0.2958
 5534SOL    HW128061   2.754   1.734   5.518 -0.3013 -0.8551 -2.2117
 5534SOL    HW228062   2.865   1.845   5.518 -1.6453  0.4358 -0.9180
 5535SOL     OW28063   3.151   4.404   8.355  0.1609  0.4107 -0.2954
 5535SOL    HW128064   3.122   4.431   8.442  0.3372  0.5636 -0.2827
 5535SOL    HW228065   3.136   4.480   8.299  2.1196  1.7829  1.0472
 5536SOL     OW28066   0.379   3.490   6.868  0.8738 -0.2325 -0.0965
 5536SOL    HW128067   0.462   3.492   6.915  0.6278 -1.9351  0.4107
 5536SOL    HW228068   0.306   3.494   6.929  2.4005  0.3539  1.6913
 5537SOL     OW28069   0.648   2.225   7.368  0.0126  0.4606  0.1476
 5537SOL    HW128070   0.617   2.136   7.348 -0.6960  0.9134 -0.7665
 5537SOL    HW228071   0.611   2.218   7.456  0.4871 -1.1111  0.2272
 5538SOL     OW28072   4.179   3.583   2.540 -0.0782 -0.2120 -0.4820
 5538SOL    HW128073   4.111   3.551   2.479  0.9720 -4.7864  0.7700
 5538SOL    HW228074   4.120   3.629   2.599  1.9987  3.4116 -1.2750
 5539SOL     OW28075   2.994   0.958  12.647 -0.8465  0.4676 -0.7448
 5539SOL    HW128076   2.938   0.896  12.693 -0.4113  1.5926  1.3363
 5539SOL    HW228077   2.968   1.026  12.709  1.5235  1.0353 -0.3675
 5540SOL     OW28078   2.063   2.617   0.943 -0.0675  0.4313  0.3167
 5540SOL    HW128079   2.020   2.693   0.983 -0.9630  0.5111 -0.8071
 5540SOL    HW228080   1.988   2.577   0.900  0.2664 -1.4325  1.5059
 5541SOL     OW28081   0.301   1.780   6.993  0.2791  0.0359 -0.0672
 5541SOL    HW128082   0.282   1.799   7.085  2.0430 -2.3780  0.8119
 5541SOL    HW228083   0.265   1.693   6.977 -0.0719  0.2954 -0.6864
 5542SOL     OW28084   4.506   3.828   2.880 -0.5081  0.3457 -0.0285
 5542SOL    HW128085   4.520   3.840   2.974 -1.8318  0.6964  0.1274
 5542SOL    HW228086   4.411   3.815   2.871 -0.3325 -0.9498  0.0131
 5543SOL     OW28087   2.852   2.006   5.885  0.2499 -0.2445  0.6510
 5543SOL    HW128088   2.779   1.987   5.944 -1.5737  0.5512 -1.3288
 5543SOL    HW228089   2.825   2.091   5.850  2.6214  0.4616  0.5548
 5544SOL     OW28090   3.317   1.325   5.081 -0.3756  0.3771  0.2225
 5544SOL    HW128091   3.311   1.341   4.987  1.6400 -0.6732 -0.0806
 5544SOL    HW228092   3.245   1.385   5.101  1.7907  2.9181  0.3569
 5545SOL     OW28093   1.795   2.572  14.491 -0.0872  0.1343 -0.1267
 5545SOL    HW128094   1.789   2.635  14.420 -0.7802 -1.5130 -1.5339
 5545SOL    HW228095   1.808   2.493  14.438 -1.2239 -0.6680  0.7666
 5546SOL     OW28096   2.889   0.662  15.562 -0.0983 -0.7855 -0.1266
 5546SOL    HW128097   2.849   0.575  15.567 -1.3851 -0.3032 -2.3901
 5546SOL    HW228098   2.847   0.706  15.637  0.3344 -1.8535  0.7433
 5547SOL     OW28099   1.698   3.623   8.196 -0.5754  0.1126  0.0644
 5547SOL    HW128100   1.790   3.598   8.193 -0.7116 -0.3461 -0.4183
 5547SOL    HW228101   1.693   3.664   8.282  0.5133 -2.4062  1.3362
 5548SOL     OW28102   1.793   0.268   4.867  0.0977  0.0235 -0.0744
 5548SOL    HW128103   1.778   0.175   4.885  0.1076 -0.0495 -0.4305
 5548SOL    HW228104   1.881   0.269   4.830  0.4939  1.9686  0.9280
 5549SOL     OW28105   4.333   3.934   8.826 -0.0057 -0.4521  0.5018
 5549SOL    HW128106   4.276   3.990   8.879 -0.7495 -0.4648 -0.2937
 5549SOL    HW228107   4.271   3.887   8.771 -1.4863  0.2549  1.5691
 5550SOL     OW28108   3.072   3.814  17.263 -0.0537  0.2349 -0.1170
 5550SOL    HW128109   3.032   3.845  17.181  1.2962  1.4640 -0.3103
 5550SOL    HW228110   2.990   3.796  17.309 -1.0175 -1.8388 -2.6780
 5551SOL     OW28111   1.606   4.554   3.037 -0.1788  0.3151  0.1970
 5551SOL    HW128112   1.550   4.602   2.975 -0.5861  1.0830  1.1614
 5551SOL    HW228113   1.626   4.481   2.978  1.5774 -0.1780  1.4270
 5552SOL     OW28114   3.933   1.976   8.295 -0.3623  0.6088  0.5648
 5552SOL    HW128115   4.010   1.927   8.321 -0.0173 -0.4961 -2.4943
 5552SOL    HW228116   3.863   1.913   8.312 -0.4844  0.9563  1.3326
 5553SOL     OW28117   0.328   1.696  16.758 -0.3818  0.0518  0.2853
 5553SOL    HW128118   0.330   1.642  16.837  0.9108  0.3809  0.4830
 5553SOL    HW228119   0.351   1.636  16.687 -0.1172  0.8399 -0.2972
 5554SOL     OW28120   3.308   1.338   8.889  0.2793 -0.3921  0.2926
 5554SOL    HW128121   3.309   1.408   8.955 -1.8357 -0.7483  0.7000
 5554SOL    HW228122   3.373   1.370   8.826 -0.5166 -1.3089 -0.9963
 5555SOL     OW28123   0.817   0.417   8.259 -0.4016  0.1688 -0.4707
 5555SOL    HW128124   0.786   0.506   8.245  0.0434  0.5332  0.8766
 5555SOL    HW228125   0.736   0.370   8.279 -0.3982  0.8621  1.2083
 5556SOL     OW28126   2.355   3.623   1.297  0.6185  0.1123 -0.3110
 5556SOL    HW128127   2.383   3.561   1.229 -1.2725  1.2561 -2.1319
 5556SOL    HW228128   2.296   3.681   1.250  1.3354 -0.3402 -1.7750
 5557SOL     OW28129   2.474   3.026  16.347  0.0889  0.0273  0.3461
 5557SOL    HW128130   2.395   3.065  16.384 -0.8618 -1.5194 -0.0307
 5557SOL    HW228131   2.482   3.074  16.265  0.7466 -0.3131  0.2101
 5558SOL     OW28132   1.863   4.223   6.569  0.3528 -0.1988  0.2946
 5558SOL    HW128133   1.913   4.295   6.529  0.2681 -0.3107 -0.0096
 5558SOL    HW228134   1.873   4.248   6.661  1.5837  1.4511 -0.2719
 5559SOL     OW28135   3.914   1.523   2.872 -0.2428  0.4092  0.1526
 5559SOL    HW128136   3.947   1.579   2.801  1.9341 -3.0084 -1.5617
 5559SOL    HW228137   3.998   1.489   2.901 -1.3846  0.6147  3.6193
 5560SOL     OW28138   0.476   0.498  17.356 -0.0232 -0.3055  0.6756
 5560SOL    HW128139   0.555   0.445  17.366 -0.2762 -0.7571  0.2191
 5560SOL    HW228140   0.518   0.571  17.311 -1.8969 -0.9154 -1.9943
 5561SOL     OW28141   2.981   1.671   3.097  0.0737  0.5435  0.1706
 5561SOL    HW128142   3.069   1.686   3.131  0.8116 -1.0822 -1.0061
 5561SOL    HW228143   2.986   1.600   3.034 -2.3718  2.9681 -2.7719
 5562SOL     OW28144   0.488   0.299   8.987 -0.8473 -0.1248 -0.5642
 5562SOL    HW128145   0.480   0.394   9.000  0.2692 -0.6071  3.6812
 5562SOL    HW228146   0.577   0.298   8.951 -0.6513 -0.5283 -0.0633
 5563SOL     OW28147   0.225   1.496   1.844 -0.4109  0.7199  0.0670
 5563SOL    HW128148   0.269   1.567   1.797  1.1491 -1.1958 -1.3966
 5563SOL    HW228149   0.150   1.540   1.883  1.5949  1.5226  2.9733
 5564SOL     OW28150   3.826   0.804  11.105 -0.3565  0.1315  0.0637
 5564SOL    HW128151   3.881   0.852  11.167 -1.5898  1.0865  0.4011
 5564SOL    HW228152   3.834   0.716  11.144 -2.3936 -0.0650  0.0234
 5565SOL     OW28153   0.790   0.703  10.897 -0.1361  0.2906 -0.2056
 5565SOL    HW128154   0.876   0.660  10.901 -0.0522  0.5411  0.5973
 5565SOL    HW228155   0.739   0.623  10.888 -0.3000  0.5449 -1.4720
 5566SOL     OW28156   3.456   4.604   8.506  0.9507 -0.0336  0.8718
 5566SOL    HW128157   3.371   4.647   8.515  1.1422  0.4510  0.3371
 5566SOL    HW228158   3.464   4.608   8.411  1.2172  2.5264  0.9963
 5567SOL     OW28159   1.476   0.070   6.666 -0.0828 -0.3463 -0.1430
 5567SOL    HW128160   1.439   4.709   6.636  0.5138 -0.6204 -0.0996
 5567SOL    HW228161   1.397   0.123   6.680  1.1200  1.4237 -0.1038
 5568SOL     OW28162   4.192   0.244   0.695 -0.2957  0.4867 -0.2825
 5568SOL    HW128163   4.141   0.324   0.684  0.4971  0.7435 -2.1809
 5568SOL    HW228164   4.255   0.247   0.622  0.0987 -0.7530  0.0064
 5569SOL     OW28165   3.544   3.766  11.279  0.0468  0.2950 -0.0669
 5569SOL    HW128166   3.570   3.829  11.346 -1.9218  0.8395  0.1877
 5569SOL    HW228167   3.532   3.687  11.330 -1.2636  0.3822 -0.2304
 5570SOL     OW28168   4.269   1.649  16.310  0.2904 -0.0703 -0.1098
 5570SOL    HW128169   4.268   1.744  16.298  0.2335 -0.0554  0.0104
 5570SOL    HW228170   4.236   1.620  16.225 -4.1554  1.7831  1.0267
 5571SOL     OW28171   1.910   0.799   7.538 -0.2805 -0.4097 -0.8094
 5571SOL    HW128172   1.951   0.884   7.522  1.9538 -1.1139  1.0877
 5571SOL    HW228173   1.925   0.753   7.455  0.2695 -0.1051 -0.8836
 5572SOL     OW28174   3.824   2.488   6.518 -0.1931  0.0278 -0.5029
 5572SOL    HW128175   3.822   2.582   6.499  0.9134  0.2689  0.5684
 5572SOL    HW228176   3.734   2.468   6.494  0.2543 -0.2732 -1.9341
 5573SOL     OW28177   2.673   4.720   1.390 -0.5258  0.5755  0.1266
 5573SOL    HW128178   2.630   4.638   1.414  1.3456 -0.3033  0.4720
 5573SOL    HW228179   2.666   0.056   1.465 -2.5382 -0.4660  0.7609
 5574SOL     OW28180   3.935   3.863   3.224  0.2371  0.1810 -0.4284
 5574SOL    HW128181   3.989   3.938   3.199  0.0300  1.1251  1.9192
 5574SOL    HW228182   3.990   3.823   3.292 -1.6036 -0.6932  0.5607
 5575SOL     OW28183   4.704   3.650   7.187 -0.6187  0.5813 -0.0763
 5575SOL    HW128184   0.014   3.590   7.255  1.8102  0.7160 -1.1592
 5575SOL    HW228185   4.638   3.704   7.232 -0.4671 -0.2564  1.1725
 5576SOL     OW28186   2.385   2.285  11.956  0.0828 -0.3204 -0.2807
 5576SOL    HW128187   2.408   2.318  12.042  0.6849 -0.8378 -0.2421
 5576SOL    HW228188   2.293   2.311  11.957  0.3389  0.6459 -1.3880
 5577SOL     OW28189   4.012   2.883   6.704 -0.5029  0.1220  0.1385
 5577SOL    HW128190   4.026   2.890   6.609 -2.7502 -1.1243 -0.2836
 5577SOL    HW228191   4.098   2.901   6.740  0.4730 -1.5064 -1.3497
 5578SOL     OW28192   1.020   4.692  11.134 -0.6344  0.3108  0.0675
 5578SOL    HW128193   0.996   0.032  11.202 -0.4952  0.2607  0.1642
 5578SOL    HW228194   1.097   0.001  11.088 -0.6317 -0.6167 -0.5747
 5579SOL     OW28195   3.654   1.162   4.131  0.4696 -0.5491 -0.0266
 5579SOL    HW128196   3.665   1.119   4.047  1.8640  1.1557 -0.7247
 5579SOL    HW228197   3.731   1.220   4.133  0.6338 -0.7703  0.0945
 5580SOL     OW28198   0.360   3.908   6.399  0.6014  0.1308  0.0279
 5580SOL    HW128199   0.346   3.958   6.479 -0.2602 -0.1657  0.0610
 5580SOL    HW228200   0.269   3.891   6.376 -0.0633 -0.2031  3.0109
 5581SOL     OW28201   2.743   0.658   7.556 -0.0631 -0.0150  0.1183
 5581SOL    HW128202   2.805   0.606   7.608 -2.2851 -1.3850  1.3815
 5581SOL    HW228203   2.750   0.748   7.587 -2.6400  0.4338 -0.6325
 5582SOL     OW28204   2.564   2.977   8.511 -0.2665  0.5634  0.3687
 5582SOL    HW128205   2.519   3.035   8.572 -0.5968  0.1465  0.5229
 5582SOL    HW228206   2.493   2.953   8.450 -0.9543  2.0497  0.5893
 5583SOL     OW28207   2.931   0.479   5.769 -0.4376 -0.0765 -0.4711
 5583SOL    HW128208   2.975   0.560   5.742 -2.3330  0.5162 -1.7369
 5583SOL    HW228209   2.995   0.451   5.835  0.0893 -0.0750 -0.9908
 5584SOL     OW28210   2.848   2.378   5.388  0.1654 -0.2898  0.2932
 5584SOL    HW128211   2.803   2.447   5.437  0.3010 -1.3517  1.9228
 5584SOL    HW228212   2.876   2.427   5.311  2.5345  1.0051  1.9888
 5585SOL     OW28213   3.844   1.166   6.775 -0.2772 -0.6830 -0.0194
 5585SOL    HW128214   3.809   1.162   6.686 -1.6403  0.7688  0.4590
 5585SOL    HW228215   3.894   1.084   6.775 -0.8408 -1.0206  1.3130
 5586SOL     OW28216   3.027   3.107   4.052  0.1690  0.1389 -0.2371
 5586SOL    HW128217   3.116   3.074   4.059  0.0344  0.1807  1.5587
 5586SOL    HW228218   2.986   3.033   4.008  0.7011 -0.8470  0.9364
 5587SOL     OW28219   2.218   0.324  16.643 -0.2463 -0.2138  0.4901
 5587SOL    HW128220   2.152   0.341  16.576 -0.3757 -1.2312  0.3584
 5587SOL    HW228221   2.204   0.405  16.692  1.7909 -0.0909  0.8530
 5588SOL     OW28222   1.207   1.629   5.639 -0.4025  0.7480  0.0206
 5588SOL    HW128223   1.289   1.595   5.602  0.0079  0.7559  0.9196
 5588SOL    HW228224   1.210   1.613   5.734  0.0539 -2.6918 -0.5718
 5589SOL     OW28225   0.915   0.287  11.823  0.2804 -0.2447  0.4590
 5589SOL    HW128226   0.983   0.244  11.770 -1.4115 -1.2613 -0.8953
 5589SOL    HW228227   0.926   0.238  11.904 -0.4332 -1.1396  0.0064
 5590SOL     OW28228   3.889   0.545  14.854  0.2451  0.6476 -0.4962
 5590SOL    HW128229   3.906   0.484  14.782  1.2253  0.4782 -0.1129
 5590SOL    HW228230   3.958   0.605  14.826  1.2117 -1.0364 -1.7895
 5591SOL     OW28231   0.679   2.680   3.454  0.1535  0.9392 -0.2366
 5591SOL    HW128232   0.602   2.624   3.465  2.3371 -1.7752  1.2388
 5591SOL    HW228233   0.659   2.749   3.391  0.5330  1.0587 -0.2235
 5592SOL     OW28234   2.052   0.871   2.271 -0.9028 -0.5656  0.2163
 5592SOL    HW128235   2.040   0.776   2.262 -0.8633 -0.4946 -0.5094
 5592SOL    HW228236   2.017   0.911   2.192 -3.3127 -2.8481  0.0974
 5593SOL     OW28237   1.938   3.424   6.262  0.1886  0.5568  0.0594
 5593SOL    HW128238   1.844   3.404   6.264  0.1184  0.9563  0.6657
 5593SOL    HW228239   1.930   3.495   6.198 -0.7499 -0.3960 -0.8770
 5594SOL     OW28240   4.434   4.451   8.180 -0.2012  0.0389  0.1924
 5594SOL    HW128241   4.360   4.495   8.139 -0.1117 -0.7657 -0.8393
 5594SOL    HW228242   4.427   4.495   8.264  0.2646  0.5026 -0.0148
 5595SOL     OW28243   4.297   4.640   2.021 -0.1763  0.3248 -0.7458
 5595SOL    HW128244   4.235   4.667   2.089  0.8129 -0.4662  0.4673
 5595SOL    HW228245   4.273   4.548   2.015 -0.1424  0.2508  0.2729
 5596SOL     OW28246   2.046   0.043   4.258  0.3082  0.4086 -0.0115
 5596SOL    HW128247   2.138   0.064   4.245 -0.1242 -0.6061 -4.4782
 5596SOL    HW228248   2.051   4.672   4.245  0.1673  0.4386 -0.2820
 5597SOL     OW28249   0.754   1.210  13.615 -0.7726 -0.0148 -0.5073
 5597SOL    HW128250   0.729   1.272  13.683 -1.4854 -0.3067 -0.4961
 5597SOL    HW228251   0.794   1.138  13.663 -5.0574 -1.0909  1.4902
 5598SOL     OW28252   4.139   3.884  16.299  0.5413  0.4449 -0.5389
 5598SOL    HW128253   4.070   3.933  16.343  0.3991 -1.2291  1.0994
 5598SOL    HW228254   4.161   3.806  16.351 -1.1374  0.1993 -0.1970
 5599SOL     OW28255   4.221   4.509   8.031 -0.0564 -0.1326  0.2338
 5599SOL    HW128256   4.131   4.533   8.010 -0.5056 -0.1742  2.1021
 5599SOL    HW228257   4.256   4.497   7.943  1.4349  0.8662  0.6961
 5600SOL     OW28258   0.224   4.651   1.129  0.3747  0.1266  0.1071
 5600SOL    HW128259   0.291   4.619   1.068  1.2472  2.0649  0.0465
 5600SOL    HW228260   0.283   4.690   1.194  0.0583  0.3523  0.2632
 5601SOL     OW28261   3.954   4.502   1.799  0.1058  0.0971  0.7781
 5601SOL    HW128262   3.914   4.500   1.886 -1.4766 -0.5027  0.0209
 5601SOL    HW228263   3.987   4.412   1.791  1.6314  0.8080 -0.8763
 5602SOL     OW28264   2.317   1.919  11.628  0.3303  0.0751 -0.3557
 5602SOL    HW128265   2.372   1.937  11.704 -0.5516 -0.1061  0.3331
 5602SOL    HW228266   2.368   1.924  11.548 -0.9504 -2.7342 -1.3544
 5603SOL     OW28267   0.773   2.089  10.933  0.1945 -0.1554 -0.7887
 5603SOL    HW128268   0.863   2.082  10.965 -0.4698 -0.0711  1.1072
 5603SOL    HW228269   0.732   2.019  10.984  2.4600 -1.1252 -0.3089
 5604SOL     OW28270   3.535   1.281   3.511  0.2885 -0.4237  0.5115
 5604SOL    HW128271   3.589   1.360   3.520  0.9150 -0.5732 -1.8972
 5604SOL    HW228272   3.564   1.249   3.426 -1.1413 -0.8255  0.1734
 5605SOL     OW28273   0.451   3.375   4.586  0.3581 -0.3835 -0.3682
 5605SOL    HW128274   0.413   3.384   4.673  1.4237  1.3998 -0.0791
 5605SOL    HW228275   0.477   3.465   4.567  0.3825 -0.4459 -0.6277
 5606SOL     OW28276   2.485   4.132  11.146 -0.0428 -0.0323  0.5746
 5606SOL    HW128277   2.403   4.110  11.101  1.6276 -2.7189 -1.1320
 5606SOL    HW228278   2.479   4.228  11.139 -3.8748 -0.3108 -0.1173
 5607SOL     OW28279   1.167   2.659   3.131 -0.1220 -0.9090 -0.2684
 5607SOL    HW128280   1.209   2.623   3.209  1.4540  3.1085  0.7316
 5607SOL    HW228281   1.100   2.717   3.168 -0.6276 -1.7257  0.0888
 5608SOL     OW28282   3.781   2.441  11.165 -0.8673  0.4856  1.0088
 5608SOL    HW128283   3.830   2.472  11.241  1.3770  1.4246 -0.8139
 5608SOL    HW228284   3.718   2.509  11.145 -2.3468 -0.6089  1.9199
 5609SOL     OW28285   3.064   4.022   2.117 -0.7619 -0.2364 -0.4659
 5609SOL    HW128286   3.073   3.927   2.132  2.9323  0.3001  0.8348
 5609SOL    HW228287   3.056   4.056   2.206  1.4000  0.6432 -0.6080
 5610SOL     OW28288   1.366   1.740   4.478  0.8821 -0.4926 -0.0007
 5610SOL    HW128289   1.297   1.783   4.427  0.4959 -0.7229  0.3323
 5610SOL    HW228290   1.341   1.652   4.451 -1.9443  0.8905 -2.0046
 5611SOL     OW28291   3.619   4.605   8.025  0.2060  0.0466  0.1067
 5611SOL    HW128292   3.551   4.582   8.088 -1.3000  1.9122 -0.7834
 5611SOL    HW228293   3.611   4.701   8.016  0.8721  0.1022  0.1520
 5612SOL     OW28294   1.535   2.155  14.522  0.1711  0.2857 -0.1609
 5612SOL    HW128295   1.538   2.233  14.466 -4.2121  0.7045  0.1711
 5612SOL    HW228296   1.454   2.177  14.566  0.7714 -0.5706  1.3538
 5613SOL     OW28297   3.146   2.430   4.838  0.1704 -0.4109  0.0050
 5613SOL    HW128298   3.080   2.427   4.769  0.1649 -0.5321  0.0158
 5613SOL    HW228299   3.162   2.336   4.844  1.7895  0.0444  2.7638
 5614SOL     OW28300   1.197   3.918   7.272  0.4534 -0.0004 -0.5578
 5614SOL    HW128301   1.106   3.915   7.241 -0.1666  0.5406  1.1783
 5614SOL    HW228302   1.246   3.901   7.192 -2.2100  0.5458 -2.3196
 5615SOL     OW28303   2.100   0.133   5.580  0.1955 -0.1460  0.7305
 5615SOL    HW128304   2.046   0.202   5.540  1.1519 -1.4442 -2.7434
 5615SOL    HW228305   2.040   0.059   5.590  0.7501 -1.0038 -2.4061
 5616SOL     OW28306   3.805   3.600   9.669 -0.2360  0.0539  0.2091
 5616SOL    HW128307   3.885   3.581   9.719 -0.7623 -2.1365  0.2016
 5616SOL    HW228308   3.776   3.690   9.684  1.1339  0.7367 -1.2943
 5617SOL     OW28309   1.215   1.435   5.003 -0.3657  0.1254 -0.3930
 5617SOL    HW128310   1.211   1.503   4.935  0.5181  1.1070  0.5405
 5617SOL    HW228311   1.270   1.375   4.952 -1.4966  0.1846 -1.6881
 5618SOL     OW28312   2.261   3.809   4.939  0.0121 -0.2166 -0.1936
 5618SOL    HW128313   2.245   3.716   4.920 -0.3261 -0.1450 -0.2552
 5618SOL    HW228314   2.200   3.854   4.882 -0.4403  0.2627  0.6662
 5619SOL     OW28315   0.228   1.621  14.865 -0.1816  0.3765 -0.0467
 5619SOL    HW128316   0.234   1.631  14.770  1.8383 -0.2194  0.0173
 5619SOL    HW228317   0.259   1.533  14.883  0.4900  0.5196 -0.5277
 5620SOL     OW28318   4.225   1.813   4.620 -0.5773  0.4280  0.0687
 5620SOL    HW128319   4.207   1.731   4.664  2.1784  1.0502  2.3711
 5620SOL    HW228320   4.165   1.874   4.662 -2.5933  0.2604 -2.5735
 5621SOL     OW28321   4.581   1.870   9.956 -0.2643 -1.1383  0.0404
 5621SOL    HW128322   4.625   1.786   9.970  2.1585  0.3595  1.2968
 5621SOL    HW228323   4.492   1.847   9.984 -0.5418 -0.1782 -0.0579
 5622SOL     OW28324   0.760   4.039   5.613  0.1557  0.4788 -0.2220
 5622SOL    HW128325   0.836   4.090   5.586  0.5346  0.0191 -0.0260
 5622SOL    HW228326   0.707   4.111   5.647 -0.3244 -0.0096  0.0625
 5623SOL     OW28327   0.668   0.188   5.423  0.1661  0.0419 -0.2517
 5623SOL    HW128328   0.753   0.190   5.467 -0.6491 -1.0702  1.3482
 5623SOL    HW228329   0.608   0.250   5.464 -0.4673 -1.4491  1.0515
 5624SOL     OW28330   3.412   4.254   3.043  0.4162  0.0695  0.5761
 5624SOL    HW128331   3.410   4.337   2.994 -1.3127 -1.5839 -2.1487
 5624SOL    HW228332   3.497   4.224   3.010  0.2220 -1.6686  1.6880
 5625SOL     OW28333   4.100   0.492  11.773 -0.8789 -0.2877 -0.3938
 5625SOL    HW128334   4.130   0.477  11.683  1.3530  0.2800  0.2624
 5625SOL    HW228335   4.122   0.402  11.799 -0.2215  0.7644  2.6474
 5626SOL     OW28336   3.602   0.279   5.259 -0.3208  0.0295 -0.1858
 5626SOL    HW128337   3.603   0.244   5.348 -2.8082 -0.0037 -0.1607
 5626SOL    HW228338   3.690   0.316   5.261 -0.0534 -0.5853 -0.4986
 5627SOL     OW28339   1.213   0.526   7.441  0.1832  0.2732  0.4295
 5627SOL    HW128340   1.268   0.600   7.469  1.2073 -0.3766  0.1561
 5627SOL    HW228341   1.146   0.500   7.503  1.6495  3.6064  3.4440
 5628SOL     OW28342   1.630   2.176   1.801 -0.0028 -0.3122  0.0959
 5628SOL    HW128343   1.622   2.093   1.754  1.3446 -0.0797 -0.5532
 5628SOL    HW228344   1.677   2.228   1.736  0.5375 -1.1872 -0.2152
 5629SOL     OW28345   3.584   3.844   4.050  0.0553  0.1595 -0.5115
 5629SOL    HW128346   3.523   3.822   4.121  3.5246 -0.9890  2.1068
 5629SOL    HW228347   3.524   3.856   3.977 -3.4059 -1.3194  2.0937
 5630SOL     OW28348   1.504   3.032   6.055  0.0419 -0.0689  0.3326
 5630SOL    HW128349   1.468   3.028   5.967 -0.2280 -2.2528  0.5461
 5630SOL    HW228350   1.436   3.076   6.105  0.1695  0.0953  0.3607
 5631SOL     OW28351   0.239   4.715   0.836 -0.1457  0.1467  0.8487
 5631SOL    HW128352   0.241   0.069   0.778  0.4938  1.7021  2.9432
 5631SOL    HW228353   0.314   4.720   0.895 -1.1892 -0.3681  2.2233
 5632SOL     OW28354   2.919   0.550   5.196  0.1200 -0.2257 -0.2119
 5632SOL    HW128355   2.882   0.463   5.179  0.9412 -0.3850 -1.2094
 5632SOL    HW228356   2.937   0.587   5.110  0.9539 -2.0890 -0.8477
 5633SOL     OW28357   2.268   4.677  17.475 -0.5030  0.0797  0.7145
 5633SOL    HW128358   2.200   4.626  17.520  0.7941 -2.3534 -0.0879
 5633SOL    HW228359   2.351   4.637  17.499  0.7001  1.3658 -1.3183
 5634SOL     OW28360   4.197   1.394   6.803 -0.2835 -0.3346  0.0596
 5634SOL    HW128361   4.182   1.354   6.889 -1.1859  0.4067  0.2495
 5634SOL    HW228362   4.112   1.437   6.795  0.6054  1.4465  0.1090
 5635SOL     OW28363   1.314   4.500   3.803  0.3252  0.7685 -0.2801
 5635SOL    HW128364   1.310   4.495   3.898 -2.5980  2.5400 -0.3130
 5635SOL    HW228365   1.299   4.406   3.798  0.5282  0.7880 -1.4305
 5636SOL     OW28366   1.883   2.599   2.654  0.0162  0.4061  0.3979
 5636SOL    HW128367   1.819   2.585   2.723 -0.4887  1.9984  0.2473
 5636SOL    HW228368   1.952   2.534   2.667 -1.3823 -1.4953 -1.5655
 5637SOL     OW28369   3.588   4.132   4.920 -0.0182 -0.3819 -0.2786
 5637SOL    HW128370   3.605   4.053   4.971  1.0556  2.3417  3.6268
 5637SOL    HW228371   3.583   4.097   4.831 -1.4923 -0.3865 -0.1964
 5638SOL     OW28372   2.374   0.941   7.538 -0.2375 -0.3975 -0.6913
 5638SOL    HW128373   2.406   0.901   7.619  0.9660 -0.5364 -1.2440
 5638SOL    HW228374   2.457   0.950   7.491 -1.0233  0.5215 -1.8898
 5639SOL     OW28375   3.150   1.945   5.124  0.0833 -0.3135  0.2368
 5639SOL    HW128376   3.175   1.891   5.048 -1.5620  0.3470 -0.7619
 5639SOL    HW228377   3.062   1.913   5.142  0.4601 -0.1499  2.3139
 5640SOL     OW28378   1.895   3.872  17.380  0.7557  0.2447 -0.3292
 5640SOL    HW128379   1.890   3.942  17.445  1.1583  2.3086 -2.5205
 5640SOL    HW228380   1.811   3.828  17.394  0.7750  0.8767  1.8181
 5641SOL     OW28381   0.067   1.568  11.225  0.1984  0.1526  0.0344
 5641SOL    HW128382   0.142   1.526  11.267  0.7327  0.1400 -0.9302
 5641SOL    HW228383   0.114   1.599  11.148  1.8781  1.1469  1.4617
 5642SOL     OW28384   0.716   2.725  10.358  0.5569 -0.0563 -0.3391
 5642SOL    HW128385   0.799   2.756  10.396 -0.2937  1.9216 -0.0855
 5642SOL    HW228386   0.696   2.640  10.398  1.1379  0.0761  0.2373
 5643SOL     OW28387   4.518   1.516  10.067 -0.5788  0.2914 -0.3520
 5643SOL    HW128388   4.547   1.559   9.986 -0.5214 -0.8319 -0.9214
 5643SOL    HW228389   4.512   1.588  10.131 -0.1219 -1.3237  1.4995
 5644SOL     OW28390   4.408   0.083   3.993  0.3392  0.7532  0.0625
 5644SOL    HW128391   4.453   0.094   4.077 -0.9217 -1.2444  0.9947
 5644SOL    HW228392   4.322   0.078   4.034  1.8924 -1.7981  3.1035
 5645SOL     OW28393   4.152   3.172   2.474  0.3017  0.5253  0.1061
 5645SOL    HW128394   4.093   3.246   2.489  1.2878  1.0450  1.4482
 5645SOL    HW228395   4.168   3.168   2.380 -1.2468  2.3180 -0.2216
 5646SOL     OW28396   1.440   4.483   7.726 -1.0527 -0.4601  0.2210
 5646SOL    HW128397   1.394   4.470   7.809 -1.3639 -0.3453  0.0640
 5646SOL    HW228398   1.455   4.577   7.737 -1.1913 -0.4404  0.2397
 5647SOL     OW28399   2.447   3.728   6.678 -0.0454 -0.0363  0.5999
 5647SOL    HW128400   2.409   3.816   6.674  1.8392  0.8438  2.0244
 5647SOL    HW228401   2.537   3.753   6.655 -0.5209  2.2406  1.2458
 5648SOL     OW28402   1.329   4.206   7.311 -0.1654 -0.7894 -0.6154
 5648SOL    HW128403   1.272   4.130   7.316 -0.7559 -0.4344 -2.1769
 5648SOL    HW228404   1.310   4.238   7.223 -1.2710 -0.1201 -0.1482
 5649SOL     OW28405   2.391   2.065   3.186 -0.2288  0.2431  0.5127
 5649SOL    HW128406   2.464   2.120   3.159 -0.4381  0.2526 -0.0247
 5649SOL    HW228407   2.388   2.097   3.276 -1.3370 -0.2546  0.6572
 5650SOL     OW28408   0.150   4.660   1.604 -0.0505 -0.1789  0.0503
 5650SOL    HW128409   0.056   4.668   1.615  0.2748  2.1729  1.2850
 5650SOL    HW228410   0.180   0.028   1.592 -1.9220  0.3714 -0.4424
 5651SOL     OW28411   0.216   2.502   5.319 -0.1189  0.4316  0.1210
 5651SOL    HW128412   0.156   2.433   5.291 -1.9323  1.8015  0.5969
 5651SOL    HW228413   0.298   2.453   5.328  0.7940  1.6506 -1.4197
 5652SOL     OW28414   4.237   4.715   7.138  0.1285 -0.0085  0.1773
 5652SOL    HW128415   4.197   0.075   7.163 -4.0581 -2.3718  1.5032
 5652SOL    HW228416   4.247   4.714   7.043 -0.1645  3.5358  0.1212
 5653SOL     OW28417   1.966   3.588   8.148  0.3626 -0.0785  0.0581
 5653SOL    HW128418   2.051   3.562   8.112  1.1791  2.1421  0.3785
 5653SOL    HW228419   1.961   3.665   8.092 -0.1983  1.5359  2.3376
 5654SOL     OW28420   2.325   0.880   4.218 -0.4436  0.1861  0.2962
 5654SOL    HW128421   2.344   0.960   4.267  2.4711  0.1170 -0.6655
 5654SOL    HW228422   2.407   0.833   4.234 -0.5357  1.1600  3.6529
 5655SOL     OW28423   4.444   0.916   5.260 -0.3592 -0.0556 -0.7872
 5655SOL    HW128424   4.532   0.904   5.296 -1.0677 -0.2264  0.8940
 5655SOL    HW228425   4.420   0.989   5.317  1.3044 -0.9767  1.0688
 5656SOL     OW28426   0.218   2.581   6.088  0.2308  0.0379  0.5788
 5656SOL    HW128427   0.282   2.513   6.066 -0.5427 -1.2623  2.4097
 5656SOL    HW228428   0.184   2.548   6.171  0.1576 -0.6352  0.2805
 5657SOL     OW28429   4.555   3.670   5.853 -0.1447  0.3609  0.3022
 5657SOL    HW128430   4.568   3.594   5.910 -1.8622  0.3992  0.7466
 5657SOL    HW228431   4.466   3.690   5.882 -0.3664  0.5550 -0.5228
 5658SOL     OW28432   2.353   2.244   4.759 -0.1792 -0.2590 -0.5863
 5658SOL    HW128433   2.433   2.279   4.797 -1.5298  1.4349  0.6573
 5658SOL    HW228434   2.288   2.285   4.816  0.7053 -0.8043  0.8026
 5659SOL     OW28435   2.015   2.192  12.570  0.7452 -0.5233 -0.0997
 5659SOL    HW128436   1.937   2.137  12.567 -0.6181  1.3713  0.4932
 5659SOL    HW228437   1.985   2.261  12.629  1.7941  0.3381 -0.5685
 5660SOL     OW28438   3.815   2.773  11.317  0.2952  0.4572  0.0164
 5660SOL    HW128439   3.750   2.756  11.249 -0.2232  1.7915  0.1900
 5660SOL    HW228440   3.890   2.734  11.272 -0.2181 -0.7331  0.2004
 5661SOL     OW28441   2.652   0.358   3.743  0.4144  0.5979  0.1548
 5661SOL    HW128442   2.678   0.432   3.687  3.0905  1.2911  2.3565
 5661SOL    HW228443   2.715   0.297   3.706 -1.4400  0.1526 -2.3428
 5662SOL     OW28444   0.675   1.075   0.920  0.0049 -0.4098  0.2977
 5662SOL    HW128445   0.668   1.033   1.006 -1.2323 -1.5449 -0.3469
 5662SOL    HW228446   0.662   1.167   0.945  0.3011 -0.0806 -0.7554
 5663SOL     OW28447   3.517   2.936   6.062 -0.1883  0.1348  0.2523
 5663SOL    HW128448   3.497   2.882   6.138 -3.6680  2.6456  1.1163
 5663SOL    HW228449   3.553   2.870   6.003 -2.3683 -0.7242 -0.1110
 5664SOL     OW28450   0.309   2.504   6.855 -0.2252 -0.4527 -0.0679
 5664SOL    HW128451   0.308   2.546   6.941 -1.3791 -2.5260  0.9352
 5664SOL    HW228452   0.364   2.427   6.870 -0.5466 -0.4754  1.0373
 5665SOL     OW28453   3.042   1.322   5.205 -0.0927  0.7998 -0.3424
 5665SOL    HW128454   2.948   1.303   5.214  0.1415 -0.7068 -1.0421
 5665SOL    HW228455   3.029   1.416   5.208  0.3788  0.8602 -0.2928
 5666SOL     OW28456   4.610   0.853   4.822  0.5327 -0.1411 -0.3860
 5666SOL    HW128457   4.537   0.831   4.881  1.7234 -0.9174  0.7959
 5666SOL    HW228458   4.655   0.927   4.861  1.0119 -0.1537 -0.9157
 5667SOL     OW28459   3.499   3.450   5.388 -0.1655  0.3070 -0.4789
 5667SOL    HW128460   3.530   3.522   5.443  0.6789  1.0709 -1.9338
 5667SOL    HW228461   3.405   3.464   5.393 -0.0867  0.4350  0.6780
 5668SOL     OW28462   1.280   0.361   1.764 -0.2024 -0.2014  0.2968
 5668SOL    HW128463   1.263   0.350   1.857  3.3082  2.2063  1.1852
 5668SOL    HW228464   1.222   0.292   1.730  1.1605 -0.2854 -1.8349
 5669SOL     OW28465   2.072   0.113  14.539  0.3464 -0.2131  0.6085
 5669SOL    HW128466   2.075   0.156  14.625 -0.1708  0.6346  0.1957
 5669SOL    HW228467   2.168   0.112  14.531  0.2179  2.4206 -0.9550
 5670SOL     OW28468   4.150   2.566   9.427  0.4510 -0.0556  0.1008
 5670SOL    HW128469   4.086   2.631   9.457 -0.5142 -0.8713 -0.1970
 5670SOL    HW228470   4.217   2.580   9.494  0.5547 -0.6198  0.1123
 5671SOL     OW28471   1.456   0.125   8.294  0.2799 -0.0100  0.0198
 5671SOL    HW128472   1.471   0.065   8.367  0.9501 -2.9277 -2.5433
 5671SOL    HW228473   1.361   0.118   8.294  0.1459  1.8450  0.6281
 5672SOL     OW28474   4.301   1.846   8.580 -0.4597 -1.0138 -0.0607
 5672SOL    HW128475   4.363   1.780   8.611  0.3537 -0.9645 -1.5926
 5672SOL    HW228476   4.296   1.901   8.658  0.9800 -1.2956  0.2225
 5673SOL     OW28477   1.097   3.165   1.904  0.1268 -0.0919 -0.3183
 5673SOL    HW128478   1.042   3.087   1.892 -2.2101  1.8072 -1.9592
 5673SOL    HW228479   1.151   3.140   1.979  0.2681 -0.1519 -0.4416
 5674SOL     OW28480   4.209   1.609   7.945  0.6507  0.0669 -0.0829
 5674SOL    HW128481   4.210   1.656   7.862  2.4477  1.3245  0.6785
 5674SOL    HW228482   4.276   1.542   7.929  0.7148  0.1800 -0.2834
 5675SOL     OW28483   4.687   0.856   5.830 -0.2923 -0.0895 -0.1797
 5675SOL    HW128484   0.033   0.916   5.859  0.1210 -0.8576  0.4197
 5675SOL    HW228485   4.678   0.791   5.900  0.4904 -0.2085 -0.1832
 5676SOL     OW28486   4.461   0.006   3.400  0.1562 -0.3630 -0.2174
 5676SOL    HW128487   4.555   0.007   3.382  0.2559  1.9199  0.3894
 5676SOL    HW228488   4.450   4.639   3.429 -1.7971  0.2079  0.7783
 5677SOL     OW28489   3.813   4.623   5.031  0.1256 -0.5583  0.1897
 5677SOL    HW128490   3.801   4.628   4.937 -0.2038  0.3754  0.2741
 5677SOL    HW228491   3.753   4.694   5.056 -0.6384 -0.5354 -1.6994
 5678SOL     OW28492   2.745   4.639   7.399  0.0444  0.1240  0.4467
 5678SOL    HW128493   2.822   4.660   7.452  0.7309 -0.0912 -0.4705
 5678SOL    HW228494   2.674   4.639   7.463  1.2258  1.6009  1.7637
 5679SOL     OW28495   0.939   0.110  10.588  0.2250  0.0870  0.4784
 5679SOL    HW128496   0.885   0.071  10.520  0.1835 -0.3763  0.7767
 5679SOL    HW228497   0.912   0.057  10.664 -0.1163 -0.6415 -0.1526
 5680SOL     OW28498   2.206   2.583  13.311  0.8118  0.1313  0.1694
 5680SOL    HW128499   2.180   2.617  13.397 -0.9601 -3.1996  0.9623
 5680SOL    HW228500   2.193   2.489  13.323  0.1549  0.2342  0.2699
 5681SOL     OW28501   4.703   3.750  11.389  0.2457  0.0434 -0.2092
 5681SOL    HW128502   4.676   3.664  11.355 -0.9650 -0.2627  1.5306
 5681SOL    HW228503   4.650   3.807  11.334  0.7295 -1.3092 -2.0873
 5682SOL     OW28504   2.766   0.965   7.074  0.9499 -0.2845  0.5521
 5682SOL    HW128505   2.771   0.908   7.151  0.1618  0.1170  0.8989
 5682SOL    HW228506   2.843   0.938   7.024  1.5672  1.1329  0.7319
 5683SOL     OW28507   1.259   1.824   6.526 -0.0145  0.2745 -0.7927
 5683SOL    HW128508   1.204   1.750   6.554  0.5170 -0.8057 -2.6208
 5683SOL    HW228509   1.220   1.904   6.561  0.6273  0.1997  0.1183
 5684SOL     OW28510   4.192   0.617  10.166 -0.0329 -0.3523 -0.3651
 5684SOL    HW128511   4.246   0.542  10.190 -1.3683 -0.0715  3.5423
 5684SOL    HW228512   4.109   0.597  10.210 -0.0415 -0.7340 -0.5591
 5685SOL     OW28513   0.378   0.680   5.141  0.2669  0.4450  0.5262
 5685SOL    HW128514   0.408   0.765   5.109 -1.6926  0.8452 -0.2775
 5685SOL    HW228515   0.353   0.640   5.057 -1.3212  0.4263  1.0079
 5686SOL     OW28516   1.538   2.789   8.525 -0.0730 -0.3100  0.2598
 5686SOL    HW128517   1.464   2.744   8.566 -0.6860  3.2161  3.0107
 5686SOL    HW228518   1.523   2.769   8.433  2.3623 -1.5193  0.1310
 5687SOL     OW28519   2.876   4.004   6.935 -0.0949 -0.3099 -0.1656
 5687SOL    HW128520   2.896   3.910   6.938  1.3673 -0.0779 -2.6436
 5687SOL    HW228521   2.880   4.021   7.029 -0.7679  2.1288 -0.5972
 5688SOL     OW28522   4.560   2.626  16.715 -0.1144  0.0628  0.6694
 5688SOL    HW128523   4.491   2.576  16.759  0.8165 -2.5755 -0.8825
 5688SOL    HW228524   4.572   2.699  16.775 -0.9533 -0.3343  1.3219
 5689SOL     OW28525   0.430   0.105   0.503  0.0846 -0.6687  0.3150
 5689SOL    HW128526   0.410   0.030   0.446  0.3153 -0.8297  0.4492
 5689SOL    HW228527   0.499   0.146   0.451 -1.7906  1.2839 -0.6480
 5690SOL     OW28528   2.208   3.094   4.956  0.5934 -0.9350 -0.4754
 5690SOL    HW128529   2.178   3.078   4.867  2.8366 -1.2364 -1.1541
 5690SOL    HW228530   2.123   3.084   5.000  0.8740 -0.4240  0.1742
 5691SOL     OW28531   1.663   0.016  17.515 -0.1737  0.4022 -0.0969
 5691SOL    HW128532   1.757   0.005  17.502  0.2690  3.5437  0.4822
 5691SOL    HW228533   1.637   0.093  17.464  0.6009 -0.7348 -2.1975
 5692SOL     OW28534   3.800   3.114   2.023  0.1841 -0.2174 -0.1211
 5692SOL    HW128535   3.845   3.194   2.052 -0.2853 -0.1216  0.3336
 5692SOL    HW228536   3.818   3.052   2.093  2.3267 -0.1856 -0.6416
 5693SOL     OW28537   1.581   0.696   2.712 -0.6083 -0.2834 -0.2267
 5693SOL    HW128538   1.563   0.705   2.619 -0.5804  1.1465 -0.0862
 5693SOL    HW228539   1.638   0.771   2.725  1.1591 -1.1656 -3.1451
 5694SOL     OW28540   1.108   0.724   2.766  0.4654  1.2857  0.5675
 5694SOL    HW128541   1.191   0.677   2.770 -1.1858 -1.5625  0.9400
 5694SOL    HW228542   1.098   0.726   2.671 -1.3070  0.8182  0.7582
 5695SOL     OW28543   2.577   1.782  15.453 -0.5851 -0.7104  0.2434
 5695SOL    HW128544   2.624   1.858  15.417 -0.9772 -0.9969 -0.8834
 5695SOL    HW228545   2.504   1.816  15.504  0.2206  0.2287  0.7856
 5696SOL     OW28546   1.755   1.853   2.372 -0.0458 -0.0408  0.0879
 5696SOL    HW128547   1.827   1.789   2.369 -0.8820 -0.8769 -1.8966
 5696SOL    HW228548   1.674   1.803   2.374 -0.1370  0.0960 -0.3308
 5697SOL     OW28549   1.024   4.618   7.097  0.5258 -0.7515  0.1909
 5697SOL    HW128550   0.939   4.652   7.124  0.9352 -0.1914  0.7920
 5697SOL    HW228551   1.007   4.585   7.009 -2.3192 -2.4314  1.3591
 5698SOL     OW28552   4.342   1.108   1.912 -0.3610  0.1410 -0.1962
 5698SOL    HW128553   4.400   1.110   1.988 -1.2225 -0.0115  0.4601
 5698SOL    HW228554   4.329   1.015   1.898 -0.0525 -0.0204  0.5981
 5699SOL     OW28555   2.566   1.385   7.206 -0.4003 -0.1476  0.6067
 5699SOL    HW128556   2.646   1.360   7.160 -1.1966 -0.8097 -0.4059
 5699SOL    HW228557   2.593   1.467   7.248  0.4249 -0.6686  1.0997
 5700SOL     OW28558   3.516   4.083  16.472  0.5193 -0.6273  0.3149
 5700SOL    HW128559   3.538   4.056  16.561  2.0307 -0.1350  0.0864
 5700SOL    HW228560   3.570   4.162  16.464  1.0084 -0.9804  0.1326
 5701SOL     OW28561   2.123   3.314  13.641  0.0486  0.1266 -0.2100
 5701SOL    HW128562   2.089   3.392  13.685 -0.7027 -0.7831  0.8224
 5701SOL    HW228563   2.108   3.351  13.554 -3.6483  2.7415  1.5438
 5702SOL     OW28564   2.837   1.744   4.273 -0.3568  0.1701  0.1010
 5702SOL    HW128565   2.808   1.797   4.348  2.1535  0.3338  0.9679
 5702SOL    HW228566   2.855   1.806   4.202  0.4956  2.4294  2.2925
 5703SOL     OW28567   0.688   4.131   1.864  0.5888 -0.0250 -0.5648
 5703SOL    HW128568   0.695   4.201   1.929 -0.3555 -1.0249  0.6444
 5703SOL    HW228569   0.748   4.171   1.802  1.0264 -0.7015 -0.5780
 5704SOL     OW28570   2.210   3.176  15.624  0.2283 -0.1621 -0.9154
 5704SOL    HW128571   2.277   3.241  15.646 -2.5612  2.1335  0.8872
 5704SOL    HW228572   2.247   3.107  15.679 -0.1448  0.4463  0.0950
 5705SOL     OW28573   0.707   1.428   0.198 -0.4640  0.1264 -0.5131
 5705SOL    HW128574   0.633   1.420   0.138  0.6579  0.9722 -2.0198
 5705SOL    HW228575   0.682   1.514   0.230  0.4756  0.3332 -0.3226
 5706SOL     OW28576   3.141   2.020  11.992 -0.3683  0.0809  0.7764
 5706SOL    HW128577   3.086   1.968  11.933 -0.9623  0.9109  0.5938
 5706SOL    HW228578   3.184   1.961  12.055  0.6319  0.0416  0.0518
 5707SOL     OW28579   3.216   4.408  13.405 -0.7197 -0.2613 -0.1006
 5707SOL    HW128580   3.269   4.367  13.473 -0.8958  2.8806  1.9248
 5707SOL    HW228581   3.129   4.370  13.417 -1.3452  0.8388 -1.0790
 5708SOL     OW28582   0.187   1.687   7.258 -0.2071 -0.1838  0.4453
 5708SOL    HW128583   0.252   1.739   7.305 -3.1836  1.8594  2.3200
 5708SOL    HW228584   0.209   1.605   7.303 -0.2763  0.7545  2.1770
 5709SOL     OW28585   4.423   4.562   8.439  0.1979 -0.5172 -0.1194
 5709SOL    HW128586   4.489   4.543   8.505 -0.3142  1.0457  0.8464
 5709SOL    HW228587   4.342   4.544   8.487  0.2391 -0.5362 -0.0573
 5710SOL     OW28588   1.342   4.318   1.444 -0.2708  0.5429 -0.5956
 5710SOL    HW128589   1.335   4.242   1.386 -1.1119 -1.0240  1.5542
 5710SOL    HW228590   1.421   4.364   1.417  1.5053 -0.9783  2.0763
 5711SOL     OW28591   3.294   0.235   4.338  0.1209 -1.2807 -0.1662
 5711SOL    HW128592   3.301   0.237   4.243 -1.1228 -0.0969 -0.2444
 5711SOL    HW228593   3.217   0.183   4.358  0.0601 -0.5269  1.6008
 5712SOL     OW28594   2.469   2.554  13.215  0.0486  0.4714  0.3452
 5712SOL    HW128595   2.441   2.600  13.135  1.8225  0.3780 -0.3166
 5712SOL    HW228596   2.380   2.551  13.251  1.3222 -2.1540  3.2627
 5713SOL     OW28597   3.261   1.008  12.735 -0.4961  0.5598  0.8227
 5713SOL    HW128598   3.180   1.001  12.685 -0.7366 -1.0468  1.4167
 5713SOL    HW228599   3.240   0.954  12.811  0.1653 -0.4867  0.2717
 5714SOL     OW28600   3.916   0.601   6.819  0.3321  0.1538 -0.2345
 5714SOL    HW128601   3.973   0.524   6.817  1.2494  0.8316 -0.1638
 5714SOL    HW228602   3.832   0.565   6.789  0.1319 -0.4473  1.0560
 5715SOL     OW28603   4.372   1.265   5.176  0.2143 -0.0563  0.0897
 5715SOL    HW128604   4.374   1.342   5.232 -0.9315  1.1096 -1.4631
 5715SOL    HW228605   4.466   1.246   5.181  0.4122  0.2403 -2.5732
 5716SOL     OW28606   3.910   4.106   5.882  0.7926 -0.2969  0.1555
 5716SOL    HW128607   3.968   4.100   5.806 -0.1677  2.3614 -0.7918
 5716SOL    HW228608   3.952   4.182   5.923 -0.9640 -0.0249  1.4654
 5717SOL     OW28609   2.092   0.324   4.063  0.0117  0.3947  0.8307
 5717SOL    HW128610   2.062   0.337   4.153 -1.5727  0.4518  0.2900
 5717SOL    HW228611   2.018   0.280   4.020  0.5144  0.2152  0.1427
 5718SOL     OW28612   0.241   2.970   8.658  0.6493  0.2288 -0.2668
 5718SOL    HW128613   0.307   2.918   8.613  0.0936  1.4011 -2.4406
 5718SOL    HW228614   0.162   2.927   8.625  0.9746  0.3002 -1.1212
 5719SOL     OW28615   4.063   3.756   3.438  0.0966 -0.3280 -0.3443
 5719SOL    HW128616   4.026   3.680   3.484 -0.1968  1.2309  1.9353
 5719SOL    HW228617   4.153   3.755   3.469 -0.3402 -2.3292  0.8599
 5720SOL     OW28618   3.213   1.837   0.740  0.0936 -0.4929 -0.1202
 5720SOL    HW128619   3.228   1.747   0.712  3.0539 -0.7506  2.3127
 5720SOL    HW228620   3.284   1.888   0.702 -0.4488  1.1170  1.0034
 5721SOL     OW28621   0.895   1.408  14.486 -0.0481  0.0023  0.1203
 5721SOL    HW128622   0.951   1.395  14.409 -0.8495 -2.0381 -0.1020
 5721SOL    HW228623   0.888   1.503  14.475  3.2339  0.2348  0.1298
 5722SOL     OW28624   0.217   0.204  11.033 -0.2877 -0.1579 -0.1628
 5722SOL    HW128625   0.148   0.269  11.033  0.2322  0.3917 -0.5545
 5722SOL    HW228626   0.210   0.163  11.120  0.0662 -0.5940 -0.3341
 5723SOL     OW28627   1.524   1.114   7.199  0.3009  0.0416  0.4442
 5723SOL    HW128628   1.596   1.051   7.202  0.3555  0.1485  1.5351
 5723SOL    HW228629   1.567   1.189   7.241  0.7152 -0.0202  0.1381
 5724SOL     OW28630   1.856   0.584   3.590 -0.3320 -0.8514  0.0484
 5724SOL    HW128631   1.905   0.642   3.648  0.4233 -0.5461 -0.8878
 5724SOL    HW228632   1.922   0.517   3.573  0.2760  0.0383 -1.0772
 5725SOL     OW28633   4.426   3.314   7.121  0.3922  0.0842 -0.5852
 5725SOL    HW128634   4.441   3.245   7.055 -2.0157 -1.4812  0.5059
 5725SOL    HW228635   4.469   3.281   7.200  1.6581 -2.0068 -2.1269
 5726SOL     OW28636   3.371   1.757   6.838 -0.2804 -0.4357 -0.7363
 5726SOL    HW128637   3.423   1.712   6.904 -0.7684 -2.5028 -1.7680
 5726SOL    HW228638   3.415   1.735   6.755  2.2057 -1.5167  0.8862
 5727SOL     OW28639   3.540   3.886  15.350  0.0153 -0.3902 -0.7784
 5727SOL    HW128640   3.590   3.805  15.343 -0.8153 -1.2087  2.6212
 5727SOL    HW228641   3.586   3.935  15.419 -1.1036 -0.6292  0.1299
 5728SOL     OW28642   4.659   1.659   5.011  0.4400  0.0214  0.0953
 5728SOL    HW128643   4.658   1.753   5.030  1.4888  0.1645 -0.5599
 5728SOL    HW228644   4.597   1.618   5.072 -0.3625 -2.6299 -2.5154
 5729SOL     OW28645   0.473   4.567  11.220 -0.0073 -0.1778 -0.0433
 5729SOL    HW128646   0.443   4.572  11.311  1.2764 -1.5809  0.4562
 5729SOL    HW228647   0.508   4.478  11.220 -0.5230 -0.3823  1.5139
 5730SOL     OW28648   1.984   0.745   0.449 -0.1432  0.2469  0.3662
 5730SOL    HW128649   2.033   0.768   0.528  2.1067 -1.8402 -0.4289
 5730SOL    HW228650   1.959   0.653   0.461  0.7685  0.3885  3.3371
 5731SOL     OW28651   2.431   1.879  12.574 -0.0165 -0.2728  0.0483
 5731SOL    HW128652   2.437   1.805  12.634 -3.1148 -2.5860 -2.5314
 5731SOL    HW228653   2.516   1.922  12.562  1.1962 -2.4467  1.0325
 5732SOL     OW28654   4.616   4.426   6.906 -0.2710 -0.2135  0.2458
 5732SOL    HW128655   4.678   4.434   6.979  0.0447 -0.2535 -0.0202
 5732SOL    HW228656   4.663   4.383   6.835 -1.1346  1.3080 -1.2249
 5733SOL     OW28657   4.686   0.008   7.359 -0.1946  0.3396  0.0708
 5733SOL    HW128658   4.605   0.056   7.378 -1.4567 -1.3545 -1.0086
 5733SOL    HW228659   0.017   0.028   7.435  0.6379 -0.3464 -0.3375
 5734SOL     OW28660   0.647   0.497   1.863 -0.0751 -0.1740 -0.6050
 5734SOL    HW128661   0.629   0.549   1.785  1.9808 -0.1786 -1.0748
 5734SOL    HW228662   0.658   0.414   1.818 -0.1804 -0.8647  0.6285
 5735SOL     OW28663   0.155   4.371   0.666  0.0096 -0.5286 -0.1581
 5735SOL    HW128664   0.089   4.434   0.635  0.0987 -0.7394 -0.7750
 5735SOL    HW228665   0.232   4.399   0.616 -0.5386  0.6583 -0.3578
 5736SOL     OW28666   3.093   3.874   8.821  0.1694  0.0566  0.0275
 5736SOL    HW128667   3.174   3.877   8.771 -0.9294  1.8318 -1.6468
 5736SOL    HW228668   3.107   3.957   8.867  0.6757 -0.2642  0.4576
 5737SOL     OW28669   2.761   1.246   5.258  0.1670  0.1211  0.5316
 5737SOL    HW128670   2.691   1.213   5.203  0.2204 -2.0443  1.7477
 5737SOL    HW228671   2.719   1.263   5.343  0.8096  0.9404  0.6889
 5738SOL     OW28672   3.322   2.497   2.008  0.0493 -0.4203 -0.7349
 5738SOL    HW128673   3.324   2.588   2.036 -2.7608 -0.4745 -0.3443
 5738SOL    HW228674   3.236   2.486   1.968 -1.7300  3.3202  2.1509
 5739SOL     OW28675   1.294   1.619   7.504 -0.0604  0.0274 -0.0658
 5739SOL    HW128676   1.207   1.622   7.465  0.2463  1.0663 -0.6760
 5739SOL    HW228677   1.320   1.534   7.470  0.2028  0.6257 -1.3774
 5740SOL     OW28678   3.493   2.480   2.224 -0.0665  0.3217 -0.4711
 5740SOL    HW128679   3.515   2.387   2.219 -1.5601 -0.0944  0.7747
 5740SOL    HW228680   3.435   2.484   2.148 -1.7608 -1.3478  0.7152
 5741SOL     OW28681   2.974   3.852   5.230  0.3944 -0.0180 -0.3398
 5741SOL    HW128682   3.065   3.824   5.220 -0.3395 -1.3695 -3.3751
 5741SOL    HW228683   2.927   3.769   5.239  1.2737 -0.1878  2.6683
 5742SOL     OW28684   4.363   4.695   7.798  0.0543  0.1253 -0.3564
 5742SOL    HW128685   4.345   4.697   7.892 -1.3844  0.5445 -0.6291
 5742SOL    HW228686   4.402   0.056   7.775 -0.1822  0.0096 -1.1782
 5743SOL     OW28687   0.270   0.697   4.524  0.0508 -0.2394  0.0709
 5743SOL    HW128688   0.321   0.616   4.532  0.3074  0.0736  1.5912
 5743SOL    HW228689   0.230   0.704   4.611  1.6499  2.1046  0.6269
 5744SOL     OW28690   0.695   4.333   3.239 -0.0174 -0.6029 -0.4720
 5744SOL    HW128691   0.668   4.292   3.157  0.7975 -0.5781 -0.7470
 5744SOL    HW228692   0.610   4.375   3.256  0.4803  0.4482 -0.6140
 5745SOL     OW28693   0.416   2.321   6.563  0.0946 -0.3686 -0.6045
 5745SOL    HW128694   0.410   2.226   6.550 -2.0426 -0.5116  1.4790
 5745SOL    HW228695   0.400   2.360   6.477 -1.6150  0.0482 -0.0942
 5746SOL     OW28696   0.711   1.004  13.813  1.0936 -1.1600  0.1516
 5746SOL    HW128697   0.670   0.960  13.738  1.0410  1.2917 -1.2604
 5746SOL    HW228698   0.779   0.948  13.851  2.5329  0.1810 -0.4537
 5747SOL     OW28699   2.017   0.532  16.241  0.0872 -0.2222  0.1276
 5747SOL    HW128700   2.100   0.568  16.209 -0.0207 -1.2486 -1.3021
 5747SOL    HW228701   2.058   0.465  16.296  2.1773  0.0682 -1.0566
 5748SOL     OW28702   0.454   2.209  13.808 -0.3674  0.4940 -0.2991
 5748SOL    HW128703   0.500   2.132  13.774 -1.1591  0.7994 -2.0819
 5748SOL    HW228704   0.364   2.178  13.801  0.1025 -1.3703  1.7932
 5749SOL     OW28705   3.154   1.169   5.421 -0.0384 -0.3760  0.2198
 5749SOL    HW128706   3.103   1.236   5.468 -0.0134  0.1854 -0.5598
 5749SOL    HW228707   3.131   1.179   5.329 -0.1206  0.7062  0.3553
 5750SOL     OW28708   2.104   0.763  16.357  0.4838  0.2569  0.2395
 5750SOL    HW128709   2.177   0.740  16.414 -0.0502 -2.3538 -0.1240
 5750SOL    HW228710   2.075   0.675  16.332  1.2840  0.7963 -2.6111
 5751SOL     OW28711   2.975   1.582  14.385 -0.5620  0.2377 -0.1952
 5751SOL    HW128712   3.035   1.509  14.370 -1.3708 -0.1184 -1.7184
 5751SOL    HW228713   2.898   1.547  14.429 -0.9981  0.5410 -0.7109
 5752SOL     OW28714   2.037   3.804  17.140 -0.1559  0.3096 -0.1368
 5752SOL    HW128715   1.982   3.748  17.084  1.2064  1.5915 -2.7923
 5752SOL    HW228716   1.981   3.824  17.214  1.4906  2.0937  0.6264
 5753SOL     OW28717   4.492   3.570   3.049  0.0388 -0.4780 -0.1466
 5753SOL    HW128718   4.465   3.482   3.077  0.5274 -0.5029  0.2421
 5753SOL    HW228719   4.531   3.606   3.128  3.2067  0.8187 -2.2979
 5754SOL     OW28720   3.244   1.192   4.648 -0.2168  0.5891 -0.1175
 5754SOL    HW128721   3.151   1.177   4.634  0.6952 -3.2764 -2.2085
 5754SOL    HW228722   3.291   1.143   4.581  0.4190  0.7797  0.1896
 5755SOL     OW28723   4.104   1.953  12.500  0.3669 -0.4286 -0.1129
 5755SOL    HW128724   4.194   1.978  12.480  0.0824  0.9557  0.3712
 5755SOL    HW228725   4.093   1.865  12.462 -1.4637 -0.2167 -0.0765
 5756SOL     OW28726   4.169   0.846   7.987  0.7392 -0.3042  0.3651
 5756SOL    HW128727   4.074   0.841   8.000  0.4178 -2.8170 -2.8733
 5756SOL    HW228728   4.175   0.763   7.940 -1.0817  0.2248 -0.8140
 5757SOL     OW28729   3.333   3.039  13.773  0.2264  0.3570 -0.1830
 5757SOL    HW128730   3.269   2.969  13.786  2.0226 -1.5027 -1.2055
 5757SOL    HW228731   3.418   3.002  13.799  0.6003  1.8203  0.6711
 5758SOL     OW28732   0.216   1.641   5.104 -0.2342  0.2972  0.1251
 5758SOL    HW128733   0.128   1.623   5.071 -0.0692 -0.3508  0.0399
 5758SOL    HW228734   0.206   1.728   5.143  0.8967  0.4140  0.1548
 5759SOL     OW28735   2.356   2.483  17.020  0.2522 -0.0734 -0.4812
 5759SOL    HW128736   2.429   2.533  16.983 -0.0739  0.2814 -0.6420
 5759SOL    HW228737   2.405   2.457  17.098  1.6682 -0.4310 -1.4781
 5760SOL     OW28738   3.027   3.854  16.298  0.1559  0.0892  0.4994
 5760SOL    HW128739   2.998   3.802  16.373  0.0973 -2.2959 -1.2068
 5760SOL    HW228740   2.952   3.913  16.281  1.2523  1.6589  1.1180
 5761SOL     OW28741   1.679   2.331   4.562 -0.0943  0.4091  0.2235
 5761SOL    HW128742   1.758   2.294   4.522  1.0302  1.6171  1.3175
 5761SOL    HW228743   1.661   2.403   4.501  0.2484  1.8987  1.8787
 5762SOL     OW28744   1.837   3.172   7.373 -0.0770  0.5692 -0.0415
 5762SOL    HW128745   1.925   3.181   7.336  0.3609  1.1250  1.1588
 5762SOL    HW228746   1.860   3.092   7.420  0.2613  0.1529 -0.9050
 5763SOL     OW28747   4.448   4.127   2.784  0.4002  0.4592  0.2037
 5763SOL    HW128748   4.409   4.076   2.713  1.7558 -3.2182  2.1488
 5763SOL    HW228749   4.533   4.088   2.800 -0.4606 -1.7624 -0.6571
 5764SOL     OW28750   3.428   2.415   9.134 -0.1061  0.1020  0.2153
 5764SOL    HW128751   3.338   2.425   9.165  0.2700 -0.0156  1.3466
 5764SOL    HW228752   3.469   2.477   9.195  0.3599 -0.9715  0.9939
 5765SOL     OW28753   1.055   1.632  15.047  0.2011  0.2564 -0.0421
 5765SOL    HW128754   1.140   1.587  15.044  1.0376  1.8845 -1.2904
 5765SOL    HW228755   1.032   1.648  15.138  1.8323 -0.5530  0.5087
 5766SOL     OW28756   3.058   4.587  15.006 -0.0226 -0.2229 -0.6386
 5766SOL    HW128757   3.113   4.629  15.072 -2.3076  1.2114  0.3460
 5766SOL    HW228758   3.107   4.570  14.926  1.6123  1.0976  0.0747
 5767SOL     OW28759   0.001   2.718   4.047 -0.1228 -0.1187  0.3854
 5767SOL    HW128760   4.651   2.770   4.012  0.0514 -0.0789  0.0847
 5767SOL    HW228761   0.065   2.784   4.074  2.2236 -1.2777 -2.3458
 5768SOL     OW28762   3.123   2.896   5.317 -0.0967 -0.4801 -0.4674
 5768SOL    HW128763   3.144   2.881   5.409  0.1255 -0.7190 -0.5580
 5768SOL    HW228764   3.194   2.856   5.268 -0.7107 -0.8992 -1.0157
 5769SOL     OW28765   0.713   2.164   8.027  0.1414 -0.1464  0.2897
 5769SOL    HW128766   0.662   2.230   8.074  0.9868 -0.3434  1.4853
 5769SOL    HW228767   0.655   2.088   8.035  0.7113 -1.0801 -4.5843
 5770SOL     OW28768   2.488   2.462   5.466 -0.2895  0.0842 -0.1066
 5770SOL    HW128769   2.574   2.490   5.498 -0.5465  0.1610  0.5108
 5770SOL    HW228770   2.486   2.455   5.371 -3.4862 -1.0489  0.0315
 5771SOL     OW28771   1.458   4.078   4.203  0.7352 -0.0114  0.0537
 5771SOL    HW128772   1.370   4.053   4.177 -0.1130 -1.7199  4.4623
 5771SOL    HW228773   1.476   4.134   4.128  0.1152  0.7860  0.5082
 5772SOL     OW28774   2.047   3.007   3.611 -0.5996  0.1426 -0.0437
 5772SOL    HW128775   2.097   3.088   3.605 -1.4049  0.7238  1.0701
 5772SOL    HW228776   2.114   2.941   3.626 -1.3476 -0.6220 -0.0785
 5773SOL     OW28777   3.361   1.670  12.831  0.2775  0.0356 -0.1034
 5773SOL    HW128778   3.345   1.624  12.913 -2.1383 -3.2045 -2.4290
 5773SOL    HW228779   3.457   1.672  12.836  0.3283  1.0487 -1.3213
 5774SOL     OW28780   3.720   2.901  14.402  0.1134 -0.4204 -0.0145
 5774SOL    HW128781   3.658   2.919  14.473 -0.5992 -0.8513 -0.5298
 5774SOL    HW228782   3.680   2.956  14.334  1.6187 -1.7986 -2.0301
 5775SOL     OW28783   4.556   0.679   1.339 -0.0732 -0.2044 -0.1659
 5775SOL    HW128784   4.547   0.772   1.360  0.6308 -0.4418  1.1425
 5775SOL    HW228785   4.465   0.651   1.332  0.4097 -1.7676 -0.0895
 5776SOL     OW28786   0.873   4.303  16.041 -0.7200  0.2790  0.2750
 5776SOL    HW128787   0.926   4.223  16.040 -1.8270 -0.4956  3.5978
 5776SOL    HW228788   0.826   4.295  16.124  1.6171 -3.0478  1.2784
 5777SOL     OW28789   2.491   3.328   2.001  0.7352  0.2819 -0.0946
 5777SOL    HW128790   2.449   3.242   2.003  1.1277  0.0556 -1.5590
 5777SOL    HW228791   2.504   3.348   2.093 -0.3892  0.9752 -0.0830
 5778SOL     OW28792   4.019   3.615   5.768  0.3771 -0.1552 -0.0713
 5778SOL    HW128793   4.040   3.692   5.822  0.3063 -0.1001 -0.1227
 5778SOL    HW228794   3.994   3.655   5.685 -1.7329 -1.2507  0.0373
 5779SOL     OW28795   3.559   3.967   9.530  0.2686 -0.3596 -0.1595
 5779SOL    HW128796   3.645   3.984   9.492  0.5237 -0.5814  0.3098
 5779SOL    HW228797   3.590   3.902   9.594  1.3607  1.5439  1.2516
 5780SOL     OW28798   3.432   0.565  15.958  0.0189 -0.4603  0.0897
 5780SOL    HW128799   3.458   0.501  15.891  0.5590 -1.1437  0.9609
 5780SOL    HW228800   3.363   0.610  15.908  0.9707  1.6847  0.7502
 5781SOL     OW28801   0.257   0.973   4.930  0.3242 -0.1205  0.2475
 5781SOL    HW128802   0.182   1.025   4.959  0.6620  0.8285 -0.5941
 5781SOL    HW228803   0.290   1.025   4.857  1.8366  1.7380  2.2730
 5782SOL     OW28804   0.712   1.977   0.990 -0.3400 -0.0558 -0.7251
 5782SOL    HW128805   0.753   1.906   1.040 -2.5681 -0.2693  0.7652
 5782SOL    HW228806   0.636   1.934   0.951 -1.1919  1.1905 -0.4296
 5783SOL     OW28807   0.615   0.811   8.819 -0.4687 -0.4036  0.4382
 5783SOL    HW128808   0.527   0.831   8.789 -0.2069 -1.4446 -1.0425
 5783SOL    HW228809   0.615   0.881   8.884  0.8408 -0.1843  0.2050
 5784SOL     OW28810   4.633   3.443   5.531  0.3949  0.1754 -0.1717
 5784SOL    HW128811   4.709   3.398   5.568  0.0790 -1.0095 -0.9736
 5784SOL    HW228812   4.665   3.534   5.532  4.2733 -1.1673 -0.6527
 5785SOL     OW28813   3.392   4.322  14.668 -0.2176 -0.0797  0.4305
 5785SOL    HW128814   3.319   4.317  14.606  1.0564  1.4486 -1.2200
 5785SOL    HW228815   3.457   4.305  14.599 -1.4925 -1.0247 -0.5382
 5786SOL     OW28816   0.695   3.103   3.597 -0.0255 -0.6732  0.0755
 5786SOL    HW128817   0.783   3.134   3.578  0.1889 -0.6252  1.1537
 5786SOL    HW228818   0.715   3.015   3.629  0.2327 -0.0199  1.6919
 5787SOL     OW28819   4.446   2.395   9.304 -0.0371  0.4063  0.0887
 5787SOL    HW128820   4.351   2.406   9.296 -0.1271  0.3038  1.0650
 5787SOL    HW228821   4.463   2.335   9.232  2.2081 -2.1282  2.7517
 5788SOL     OW28822   2.163   2.288   6.290 -0.1758 -0.0301  0.0809
 5788SOL    HW128823   2.142   2.215   6.231  1.2087 -0.0816 -0.3287
 5788SOL    HW228824   2.194   2.236   6.364  2.0037 -1.2465 -1.6981
 5789SOL     OW28825   3.935   3.936   0.991 -0.3193 -0.3159  0.2635
 5789SOL    HW128826   4.018   3.891   0.972  0.3403  0.9195  0.2329
 5789SOL    HW228827   3.967   4.008   1.046  2.5512 -0.5695 -1.1129
 5790SOL     OW28828   0.330   3.667  15.919 -0.0585 -0.3369  0.0345
 5790SOL    HW128829   0.259   3.730  15.924  0.7540  0.6083 -0.2970
 5790SOL    HW228830   0.415   3.711  15.923 -1.4202  2.3438 -0.6148
 5791SOL     OW28831   0.606   4.242   4.220  0.3110  0.5855  0.2526
 5791SOL    HW128832   0.650   4.170   4.176 -0.9577  1.2192 -2.0846
 5791SOL    HW228833   0.528   4.250   4.165 -0.4103 -2.5292  0.8751
 5792SOL     OW28834   2.853   3.842   3.595 -0.0800 -0.6531 -0.4468
 5792SOL    HW128835   2.911   3.912   3.564  0.2425  0.1803  2.0372
 5792SOL    HW228836   2.782   3.894   3.632  0.8209  1.0423 -1.0775
 5793SOL     OW28837   2.794   3.322   2.974  0.1328 -0.2391  0.1501
 5793SOL    HW128838   2.777   3.402   3.023 -0.9583  0.2596 -1.0194
 5793SOL    HW228839   2.748   3.259   3.030  1.2069 -1.1371  0.0224
 5794SOL     OW28840   0.492   2.178   7.604  0.1813  0.2368  0.3460
 5794SOL    HW128841   0.504   2.096   7.651 -0.6666  0.7981  1.5386
 5794SOL    HW228842   0.484   2.249   7.668  3.5809 -1.1235  2.2673
 5795SOL     OW28843   3.219   0.558   4.198 -0.3390 -0.5427  0.1641
 5795SOL    HW128844   3.309   0.525   4.201  0.1229  1.1515  3.9258
 5795SOL    HW228845   3.235   0.642   4.156 -0.7709  0.5307  2.1648
 5796SOL     OW28846   0.858   2.854   1.196  0.0701 -0.4491  0.3775
 5796SOL    HW128847   0.884   2.763   1.190  1.3306 -0.1004  0.5964
 5796SOL    HW228848   0.791   2.856   1.127 -0.9659 -1.9115  1.3501
 5797SOL     OW28849   3.372   3.969   5.593  0.0666 -0.2591 -0.0383
 5797SOL    HW128850   3.427   4.046   5.579 -0.3141 -0.3110 -1.8514
 5797SOL    HW228851   3.346   3.993   5.682  1.3016  0.6781  0.0606
 5798SOL     OW28852   1.799   0.226   4.475 -0.5625  0.2268  0.2227
 5798SOL    HW128853   1.823   0.149   4.527  0.7296  1.8488  2.0569
 5798SOL    HW228854   1.723   0.187   4.432  0.7034 -1.9917  0.0118
 5799SOL     OW28855   4.056   1.854   6.282 -0.1592  0.1780 -0.3127
 5799SOL    HW128856   4.105   1.881   6.204 -0.4617  0.4607 -0.4057
 5799SOL    HW228857   4.071   1.926   6.343 -1.9345 -0.5691  1.0003
 5800SOL     OW28858   0.745   2.850   3.678  0.1861  0.2241 -0.3474
 5800SOL    HW128859   0.791   2.816   3.755  1.1094 -1.2251 -1.5244
 5800SOL    HW228860   0.734   2.769   3.628  0.4693  0.6643 -1.1302
 5801SOL     OW28861   0.410   4.129   1.838  0.1525  0.4110  0.1000
 5801SOL    HW128862   0.505   4.127   1.844  0.0431 -0.9374  1.5567
 5801SOL    HW228863   0.405   4.079   1.757 -3.4137 -0.8240  1.0968
 5802SOL     OW28864   4.167   3.130   7.243 -0.2643 -0.1089  0.2678
 5802SOL    HW128865   4.257   3.122   7.274 -0.3679  3.4575  1.4467
 5802SOL    HW228866   4.164   3.085   7.158  0.6572 -1.2876  0.8585
 5803SOL     OW28867   3.615   0.719  11.744  0.1762  0.2873  0.4246
 5803SOL    HW128868   3.611   0.792  11.805 -0.8408  1.1064 -0.6247
 5803SOL    HW228869   3.680   0.756  11.684  0.4062 -1.0793 -0.1826
 5804SOL     OW28870   0.349   3.253   1.783  0.1517  0.1985 -0.1391
 5804SOL    HW128871   0.302   3.289   1.708 -0.0624  0.1966 -0.0075
 5804SOL    HW228872   0.396   3.324   1.826  2.3148 -1.1231 -0.3138
 5805SOL     OW28873   1.213   1.300   5.684  0.5170  0.4178 -0.0926
 5805SOL    HW128874   1.234   1.328   5.773  0.6555  1.3259 -0.4157
 5805SOL    HW228875   1.297   1.270   5.650 -0.4497 -1.9564 -0.3482
 5806SOL     OW28876   2.021   4.006  13.849 -0.2064 -0.0333 -0.0965
 5806SOL    HW128877   2.001   4.054  13.769  1.3099 -0.4393 -0.7273
 5806SOL    HW228878   1.943   4.027  13.899  0.2121 -0.0744  0.5689
 5807SOL     OW28879   1.938   2.509   3.188 -0.5275 -0.0129  0.1155
 5807SOL    HW128880   1.926   2.415   3.174  2.4244 -0.1376 -1.6013
 5807SOL    HW228881   2.007   2.503   3.254 -0.5458  0.6151  0.1947
 5808SOL     OW28882   2.995   2.744  16.804  0.0514  0.0590  0.3771
 5808SOL    HW128883   2.942   2.771  16.729  0.7518  0.0282 -0.1225
 5808SOL    HW228884   3.060   2.815  16.803  0.3430 -0.2196 -0.0999
 5809SOL     OW28885   1.142   4.323   2.591 -0.1243 -0.2504  0.3890
 5809SOL    HW128886   1.101   4.387   2.533  1.8036 -0.2523 -0.9581
 5809SOL    HW228887   1.230   4.357   2.578  0.1955 -1.7178 -1.2193
 5810SOL     OW28888   0.604   3.086   1.256 -0.4444 -0.5066  0.3330
 5810SOL    HW128889   0.547   3.061   1.329 -2.0118 -0.2556 -0.8241
 5810SOL    HW228890   0.689   3.098   1.300 -0.1526 -2.2400  0.2418
 5811SOL     OW28891   3.812   2.506   4.193 -0.0567  0.5275 -0.4894
 5811SOL    HW128892   3.888   2.471   4.148 -1.0311 -1.4773 -0.5631
 5811SOL    HW228893   3.854   2.536   4.274  1.2948 -2.8146  0.0447
 5812SOL     OW28894   0.634   1.820  14.897 -0.1787  0.4773  0.3413
 5812SOL    HW128895   0.599   1.780  14.976 -0.7562  3.1873  1.4488
 5812SOL    HW228896   0.556   1.857  14.856  1.6414  1.1163 -2.6036
 5813SOL     OW28897   0.007   1.038   2.401  0.1284 -0.3350  0.2626
 5813SOL    HW128898   0.041   1.108   2.457  1.6875 -0.4522 -0.5045
 5813SOL    HW228899   4.639   1.063   2.393  0.2586  0.4371  1.2108
 5814SOL     OW28900   2.249   3.799   1.909  0.1812 -0.2348 -0.7459
 5814SOL    HW128901   2.225   3.723   1.856  1.2878 -0.6569 -0.6431
 5814SOL    HW228902   2.166   3.841   1.930  0.2686 -0.7542  0.6684
 5815SOL     OW28903   0.567   1.819  10.860  0.7925  0.0118 -0.1326
 5815SOL    HW128904   0.554   1.842  10.953  0.8974  1.6350 -0.5076
 5815SOL    HW228905   0.647   1.768  10.869  0.4818 -0.2081  1.5725
 5816SOL     OW28906   3.860   3.604   0.783 -0.0392 -0.3330 -0.6233
 5816SOL    HW128907   3.812   3.681   0.751  0.6884  1.0967  1.6766
 5816SOL    HW228908   3.803   3.558   0.843  1.1194 -1.4286 -0.3681
 5817SOL     OW28909   2.365   2.440   7.168  0.1916  0.5720  0.6473
 5817SOL    HW128910   2.373   2.492   7.247  1.0862  1.3052  0.0796
 5817SOL    HW228911   2.447   2.458   7.121  0.1691  2.1037  1.2077
 5818SOL     OW28912   4.588   3.751  14.550 -0.2057  0.5394 -0.2313
 5818SOL    HW128913   4.507   3.756  14.500 -0.4088 -0.0568  0.0311
 5818SOL    HW228914   4.600   3.656  14.545 -1.0666  0.4167 -0.0654
 5819SOL     OW28915   3.975   4.578   3.016  0.7616  0.1553 -0.3314
 5819SOL    HW128916   3.974   4.494   2.970 -1.8251  0.8824 -1.6321
 5819SOL    HW228917   3.883   4.583   3.042  1.1710  2.0130  0.7511
 5820SOL     OW28918   2.045   2.533  11.759  0.0243 -0.0322  0.0960
 5820SOL    HW128919   2.124   2.492  11.725 -1.0677 -2.0840  0.0303
 5820SOL    HW228920   2.052   2.536  11.854 -0.7125 -0.9066  0.1736
 5821SOL     OW28921   0.713   0.411   7.969  0.6849 -0.0922 -0.1497
 5821SOL    HW128922   0.709   0.332   7.915  1.8077 -0.1100 -0.2134
 5821SOL    HW228923   0.766   0.376   8.041 -0.5083 -1.3092  0.1471
 5822SOL     OW28924   0.348   3.117   4.837  0.2618 -0.2149 -0.6435
 5822SOL    HW128925   0.271   3.159   4.799 -1.4291 -2.3079  0.5114
 5822SOL    HW228926   0.382   3.089   4.752 -0.2387 -0.0833 -0.8883
 5823SOL     OW28927   3.066   1.479   6.762 -0.0448  0.2135  0.5813
 5823SOL    HW128928   2.985   1.504   6.806  0.4254 -0.3812  1.7865
 5823SOL    HW228929   3.060   1.383   6.763  2.1695  0.0599  0.0071
 5824SOL     OW28930   3.499   1.332   3.084  0.2070  0.0495 -0.1936
 5824SOL    HW128931   3.512   1.264   3.150  0.3405 -0.1278 -0.4040
 5824SOL    HW228932   3.592   1.349   3.067 -0.1221  0.4364 -1.5993
 5825SOL     OW28933   3.231   0.165   3.479  0.1279 -0.1282 -0.0933
 5825SOL    HW128934   3.219   0.231   3.548 -2.0476 -2.1268  1.4483
 5825SOL    HW228935   3.251   0.215   3.400  2.6098  0.1121  0.6803
 5826SOL     OW28936   3.411   0.734   4.969  0.7862 -0.0950 -0.2369
 5826SOL    HW128937   3.455   0.660   4.927 -0.1410 -0.0425 -1.2952
 5826SOL    HW228938   3.355   0.758   4.895 -0.7495  0.0207  0.9586
 5827SOL     OW28939   1.192   3.630  12.961  0.2368 -0.2146 -0.1675
 5827SOL    HW128940   1.265   3.571  12.946 -0.6059 -1.4349  0.5516
 5827SOL    HW228941   1.240   3.711  12.979 -1.2888  0.7675 -0.5608
 5828SOL     OW28942   1.744   3.839   6.647  0.2825  0.0744  0.4452
 5828SOL    HW128943   1.754   3.801   6.735 -0.9468  2.1198  1.4786
 5828SOL    HW228944   1.652   3.865   6.639  0.0757 -1.1061 -1.0687
 5829SOL     OW28945   3.784   2.762   6.547  0.3443  0.0632  0.3714
 5829SOL    HW128946   3.718   2.771   6.616  2.0080  0.7550  1.8769
 5829SOL    HW228947   3.859   2.804   6.588  1.3572  0.8882 -2.3364
 5830SOL     OW28948   0.824   1.097   2.038  0.1432  0.2003 -0.8489
 5830SOL    HW128949   0.800   1.184   2.071  1.0352  0.6069 -1.2848
 5830SOL    HW228950   0.919   1.104   2.037  0.2181 -0.5035  1.4127
 5831SOL     OW28951   0.899   0.741   3.116 -0.1127  0.4173  0.5058
 5831SOL    HW128952   0.898   0.730   3.211 -1.4292 -2.4312  0.1408
 5831SOL    HW228953   0.805   0.759   3.109 -0.4482 -1.5858 -0.0771
 5832SOL     OW28954   4.109   4.683  16.436  0.4603  0.0974  0.2980
 5832SOL    HW128955   4.198   4.705  16.408 -0.1910  2.3121 -0.0129
 5832SOL    HW228956   4.054   0.033  16.408  3.4279  2.7368  1.2917
 5833SOL     OW28957   3.306   0.494   0.428  0.0513 -0.2031  0.3104
 5833SOL    HW128958   3.251   0.446   0.365  1.9316 -2.9572  0.7645
 5833SOL    HW228959   3.317   0.424   0.493 -1.6533 -0.6814  0.0806
 5834SOL     OW28960   0.722   1.465   2.819 -0.3282  0.0435 -0.2040
 5834SOL    HW128961   0.758   1.381   2.791  1.0196  0.8378 -0.8882
 5834SOL    HW228962   0.783   1.530   2.783 -0.2318 -0.5466 -1.0853
 5835SOL     OW28963   3.204   2.819  17.372  0.5629 -0.9092 -0.0477
 5835SOL    HW128964   3.166   2.758  17.436  0.7808 -1.9292 -0.9076
 5835SOL    HW228965   3.229   2.751  17.310 -2.0194 -1.6777 -0.2769
 5836SOL     OW28966   0.990   3.060   6.579  0.2336 -0.2638  0.2360
 5836SOL    HW128967   1.064   3.013   6.540  1.9654  0.3862  2.7271
 5836SOL    HW228968   1.011   3.146   6.541 -0.6296  0.4608  1.3933
 5837SOL     OW28969   1.419   1.777   7.096  0.2336  0.2516 -0.0114
 5837SOL    HW128970   1.454   1.689   7.085 -1.3361 -0.1963 -1.4280
 5837SOL    HW228971   1.438   1.790   7.189 -0.6715  2.1885 -0.0898
 5838SOL     OW28972   0.043   2.421   6.758 -0.4302 -0.1225  0.3333
 5838SOL    HW128973   0.126   2.442   6.801  0.6633 -0.7663 -1.4472
 5838SOL    HW228974   0.070   2.367   6.683  0.4730 -0.9413  1.2502
 5839SOL     OW28975   1.814   3.622   2.539  0.3405  0.2409  0.2573
 5839SOL    HW128976   1.739   3.676   2.562 -1.1963 -2.3055  1.1477
 5839SOL    HW228977   1.788   3.580   2.458 -1.5951 -0.2967  1.1619
 5840SOL     OW28978   1.040   2.686   7.696  0.6048  0.0703  0.2351
 5840SOL    HW128979   0.951   2.720   7.697  0.3801 -0.5643  1.3798
 5840SOL    HW228980   1.017   2.593   7.693 -1.0633  0.4619  1.3181
 5841SOL     OW28981   1.755   1.076   7.668 -0.2763 -0.1931  0.5106
 5841SOL    HW128982   1.839   1.046   7.701 -1.8970 -2.2640  2.7643
 5841SOL    HW228983   1.787   1.157   7.627 -1.6254 -0.1592 -0.4870
 5842SOL     OW28984   4.151   2.347   7.940 -0.3695 -0.1610 -0.0287
 5842SOL    HW128985   4.103   2.323   7.861 -1.3357 -2.1749  1.1629
 5842SOL    HW228986   4.243   2.327   7.925 -0.6745 -1.6399  0.1192
 5843SOL     OW28987   1.183   0.069  12.350  0.3961 -0.3343  0.2771
 5843SOL    HW128988   1.266   0.025  12.328 -0.1301 -1.0481 -0.3122
 5843SOL    HW228989   1.207   0.134  12.415 -0.4053 -1.7363  1.9768
 5844SOL     OW28990   4.028   1.847   9.370 -0.3224 -0.0878  0.1035
 5844SOL    HW128991   4.092   1.834   9.300  0.4845 -1.0474  1.0220
 5844SOL    HW228992   3.987   1.931   9.348 -0.8703 -0.6274 -0.9268
 5845SOL     OW28993   0.832   1.774   6.539 -0.2110 -0.7243 -0.2634
 5845SOL    HW128994   0.882   1.712   6.592  2.1152  0.6944 -0.8075
 5845SOL    HW228995   0.875   1.780   6.454  1.7667 -1.0530  0.6953
 5846SOL     OW28996   1.951   1.521   2.200 -0.2360 -0.4664 -0.2564
 5846SOL    HW128997   2.017   1.553   2.139 -0.6993 -1.8920 -1.5053
 5846SOL    HW228998   1.888   1.465   2.154  0.2940  0.2748 -1.8827
 5847SOL     OW28999   0.969   3.162   3.643 -0.0268  0.1411 -0.3753
 5847SOL    HW129000   0.996   3.249   3.614  0.9194  0.0313  0.1556
 5847SOL    HW229001   1.052   3.114   3.633 -1.7426 -2.6623 -1.1853
 5848SOL     OW29002   0.959   2.091  13.538  0.2003  0.4009  0.4195
 5848SOL    HW129003   0.962   2.046  13.622  0.8825  0.4018  0.3934
 5848SOL    HW229004   1.046   2.070  13.505  1.5568  0.6673  3.8161
 5849SOL     OW29005   3.382   0.319   3.033 -0.3345 -0.3130 -1.2000
 5849SOL    HW129006   3.396   0.408   3.001  4.2400 -0.3246  0.7636
 5849SOL    HW229007   3.409   0.335   3.124  0.8390 -1.3886 -1.3501
 5850SOL     OW29008   2.190   3.129   0.325 -0.0839 -0.7537 -0.2719
 5850SOL    HW129009   2.212   3.036   0.328  0.6468 -0.4650  2.6571
 5850SOL    HW229010   2.094   3.123   0.327 -0.0727 -0.4146  0.8916
 5851SOL     OW29011   3.681   1.207   5.160 -0.0441 -1.0041 -0.0590
 5851SOL    HW129012   3.724   1.292   5.160 -1.1136 -0.4789  1.0699
 5851SOL    HW229013   3.642   1.199   5.247  3.2619  0.5040  1.5586
 5852SOL     OW29014   4.131   1.196   6.595 -0.4961 -0.1843 -0.3164
 5852SOL    HW129015   4.141   1.282   6.634 -0.1880  0.7094 -2.3683
 5852SOL    HW229016   4.199   1.148   6.643 -0.2765  2.0880  1.6014
 5853SOL     OW29017   1.676   3.131  16.064 -0.5271 -0.1430 -0.4272
 5853SOL    HW129018   1.754   3.116  16.011  0.4829  0.7855  0.7938
 5853SOL    HW229019   1.704   3.210  16.109 -2.2585  0.7554 -0.9375
 5854SOL     OW29020   2.274   0.870  15.429 -0.0381  0.4578 -0.2001
 5854SOL    HW129021   2.242   0.924  15.501  0.9152  0.8573 -0.0790
 5854SOL    HW229022   2.187   0.860  15.391  0.4625  0.2569 -1.2882
 5855SOL     OW29023   2.035   3.924  11.487  0.3458 -0.3312 -0.1647
 5855SOL    HW129024   2.027   3.830  11.497 -0.0389 -0.4046 -1.1427
 5855SOL    HW229025   2.124   3.947  11.461  0.2057  2.1810  1.6098
 5856SOL     OW29026   2.044   2.876  16.095 -0.0217 -0.0841 -0.0109
 5856SOL    HW129027   2.035   2.782  16.106  3.8801 -0.6192 -1.4535
 5856SOL    HW229028   2.000   2.913  16.171  1.2226 -1.2204  1.2584
 5857SOL     OW29029   3.092   1.376   0.659 -0.3226  0.0885 -0.1962
 5857SOL    HW129030   3.154   1.444   0.685 -0.0784 -0.1991 -0.0287
 5857SOL    HW229031   3.059   1.419   0.580  1.4495  0.1483 -0.8907
 5858SOL     OW29032   0.013   0.625   7.824  0.1085  0.4266 -0.0620
 5858SOL    HW129033   4.697   0.688   7.885 -2.9344  0.8693 -2.4643
 5858SOL    HW229034   0.005   0.547   7.879  1.3645  0.0231 -0.4669
 5859SOL     OW29035   1.206   2.121   6.905  0.7164 -0.4845 -0.2214
 5859SOL    HW129036   1.300   2.137   6.906  0.5431  0.5858 -0.9967
 5859SOL    HW229037   1.197   2.110   6.810 -0.3463  0.9917 -0.2998
 5860SOL     OW29038   1.847   3.400  10.400  0.3425  0.9773 -0.5879
 5860SOL    HW129039   1.904   3.464  10.443 -1.4604  2.8572 -0.9596
 5860SOL    HW229040   1.826   3.438  10.314  1.3012 -1.0232 -1.7070
 5861SOL     OW29041   2.041   2.202   7.351 -0.7569  0.2123  0.1237
 5861SOL    HW129042   2.032   2.116   7.309  2.8193 -0.3489  0.4716
 5861SOL    HW229043   2.105   2.186   7.420  0.0711  2.6538 -0.1137
 5862SOL     OW29044   4.443   3.976   8.533  0.0302 -0.4756  0.2608
 5862SOL    HW129045   4.453   3.973   8.628 -0.2474  0.8887  0.3315
 5862SOL    HW229046   4.534   3.969   8.506 -0.2735 -0.4578 -0.7808
 5863SOL     OW29047   1.220   2.132   8.965 -0.0615  0.0691  0.4176
 5863SOL    HW129048   1.146   2.175   9.008  1.4368 -0.1411  3.1866
 5863SOL    HW229049   1.292   2.194   8.974 -0.7346  0.8416  0.4251
 5864SOL     OW29050   1.718   4.575   6.604  0.0876  0.0190 -0.0428
 5864SOL    HW129051   1.751   4.544   6.689  0.8725 -0.8903 -0.6764
 5864SOL    HW229052   1.623   4.572   6.613  0.1771 -0.1103  0.8823
 5865SOL     OW29053   4.478   3.065   7.542 -0.2371  0.3958 -0.6784
 5865SOL    HW129054   4.561   3.020   7.560  0.0056  1.1187 -0.0098
 5865SOL    HW229055   4.415   3.000   7.511  0.3744 -0.7446  0.4790
 5866SOL     OW29056   1.870   0.856   3.749  0.5547  0.6877 -0.0131
 5866SOL    HW129057   1.958   0.892   3.740  1.5666 -1.1899  2.3981
 5866SOL    HW229058   1.868   0.833   3.842 -0.5992  1.6055  0.1826
 5867SOL     OW29059   3.722   1.411   6.833 -0.6111  0.1741 -0.3722
 5867SOL    HW129060   3.768   1.331   6.805 -0.6164  0.2261 -0.5250
 5867SOL    HW229061   3.690   1.372   6.915  1.3786 -0.0975  0.2997
 5868SOL     OW29062   2.148   3.755  13.544 -0.0210  0.1223  0.0116
 5868SOL    HW129063   2.146   3.838  13.592 -0.6424 -0.2479  0.6374
 5868SOL    HW229064   2.240   3.765  13.517 -0.1809  0.1011 -0.5302
 5869SOL     OW29065   2.153   4.309   1.612  0.2612  0.4808 -0.5245
 5869SOL    HW129066   2.159   4.357   1.530 -1.3592  0.6662 -0.5343
 5869SOL    HW229067   2.244   4.283   1.629 -0.3633  0.3911  2.7739
 5870SOL     OW29068   1.012   4.194   7.583  0.1233  0.2493  0.2207
 5870SOL    HW129069   1.019   4.258   7.513 -0.1265  2.2471  2.0059
 5870SOL    HW229070   0.965   4.120   7.544 -0.4824  1.9966 -2.3327
 5871SOL     OW29071   1.416   1.553   5.491 -0.0747  0.3704  0.4843
 5871SOL    HW129072   1.486   1.598   5.444 -0.5761  0.0159 -0.6266
 5871SOL    HW229073   1.373   1.518   5.412  1.1110 -0.0892  0.0413
 5872SOL     OW29074   2.945   3.824   2.381  0.1114  0.3290  0.0336
 5872SOL    HW129075   2.870   3.873   2.415 -1.0184  0.9421 -3.3497
 5872SOL    HW229076   2.904   3.740   2.358  1.2912 -0.4373  0.7357
 5873SOL     OW29077   0.176   4.491   3.365  0.2890 -0.2863 -0.6630
 5873SOL    HW129078   0.220   4.535   3.438  0.0862 -0.3170 -0.5225
 5873SOL    HW229079   0.224   4.409   3.368 -0.5490 -0.7228  1.0831
 5874SOL     OW29080   2.161   3.137  12.983 -0.1489  0.0959 -0.2427
 5874SOL    HW129081   2.235   3.187  13.018 -0.1263 -0.7005  0.8433
 5874SOL    HW229082   2.189   3.117  12.893 -2.6280  1.5291 -1.3253
 5875SOL     OW29083   0.287   0.994   2.970 -0.4140 -0.3716 -0.6653
 5875SOL    HW129084   0.218   1.053   2.999 -0.2485 -0.1355 -0.7546
 5875SOL    HW229085   0.274   0.915   3.024  0.7823  0.1507  0.3956
 5876SOL     OW29086   3.527   3.297   9.883 -0.6149 -0.1611 -0.3353
 5876SOL    HW129087   3.533   3.208   9.850 -2.8310 -0.1404 -0.8506
 5876SOL    HW229088   3.432   3.308   9.873 -0.5323  2.1547  1.2889
 5877SOL     OW29089   1.007   4.338   7.314 -0.2133 -0.0681 -0.1896
 5877SOL    HW129090   1.043   4.427   7.318 -0.0211 -0.0716 -2.2347
 5877SOL    HW229091   0.978   4.346   7.224  1.6021 -0.2275 -0.7872
 5878SOL     OW29092   0.988   3.875  15.766  0.2912 -0.5109  0.1144
 5878SOL    HW129093   1.080   3.850  15.772  0.5466 -0.0835 -2.2119
 5878SOL    HW229094   0.987   3.926  15.685  2.2351 -1.5392 -0.5332
 5879SOL     OW29095   2.919   3.437   5.787 -0.1499 -0.4209  0.1098
 5879SOL    HW129096   2.870   3.498   5.730  1.8890  3.0775  2.0887
 5879SOL    HW229097   2.986   3.497   5.819  0.3534 -0.2010 -1.3533
 5880SOL     OW29098   0.362   1.379   3.077 -0.3902  0.2698 -0.1041
 5880SOL    HW129099   0.289   1.436   3.100  0.7626 -0.0315  4.1646
 5880SOL    HW229100   0.411   1.423   3.007  1.3964 -0.0865  0.9394
 5881SOL     OW29101   2.816   4.228   8.687 -0.2023 -0.4650 -0.2231
 5881SOL    HW129102   2.909   4.205   8.683 -0.4629 -1.6794  0.6846
 5881SOL    HW229103   2.830   4.306   8.741  0.6704 -0.8604  0.1168
 5882SOL     OW29104   4.025   4.120   4.730 -0.2524  0.2277 -0.0734
 5882SOL    HW129105   4.055   4.130   4.820  1.4819 -1.5164 -0.4431
 5882SOL    HW229106   3.994   4.208   4.707 -1.9887 -0.2907  0.2929
 5883SOL     OW29107   2.753   2.195   5.071 -0.9281  0.0588  0.5827
 5883SOL    HW129108   2.720   2.143   4.998 -0.3778 -0.6125  0.8106
 5883SOL    HW229109   2.768   2.122   5.130 -0.4217 -1.6142 -1.6327
 5884SOL     OW29110   2.898   1.838  14.366  0.2233 -0.1959  0.0369
 5884SOL    HW129111   2.910   1.744  14.358 -0.5927 -0.1526 -1.8604
 5884SOL    HW229112   2.966   1.864  14.428  1.0122 -2.1199 -0.0313
 5885SOL     OW29113   1.325   3.828  11.220  0.0409 -0.1846 -0.7060
 5885SOL    HW129114   1.368   3.882  11.154 -0.2780  0.6655 -0.2192
 5885SOL    HW229115   1.392   3.759  11.228 -0.5371 -0.3367  3.2558
 5886SOL     OW29116   0.068   1.710   7.727 -0.1047 -0.5399  0.4734
 5886SOL    HW129117   4.715   1.696   7.671 -1.0295 -1.0287  1.8574
 5886SOL    HW229118   0.123   1.765   7.671 -0.0164  0.0762  1.1703
 5887SOL     OW29119   1.082   1.191  12.246 -0.6096  0.1894  0.5736
 5887SOL    HW129120   0.992   1.202  12.215 -0.5189 -0.4430  0.0932
 5887SOL    HW229121   1.060   1.164  12.335  0.1681  0.2822  0.7891
 5888SOL     OW29122   2.624   1.782   8.900 -0.3193  0.0506 -0.3916
 5888SOL    HW129123   2.549   1.737   8.937  0.1858 -1.8365 -1.6224
 5888SOL    HW229124   2.602   1.789   8.807  0.0312 -1.3505 -0.5858
 5889SOL     OW29125   3.672   1.668   3.164 -0.5089  0.6151 -0.0794
 5889SOL    HW129126   3.762   1.701   3.159 -1.2040  2.2062 -2.1352
 5889SOL    HW229127   3.661   1.630   3.077 -0.3109 -0.5246  0.3928
 5890SOL     OW29128   0.985   3.781   4.713  0.4661 -0.1422 -0.1354
 5890SOL    HW129129   0.940   3.778   4.629 -0.1459 -0.8300  0.2106
 5890SOL    HW229130   0.952   3.869   4.731 -1.3088 -0.5983 -1.1578
 5891SOL     OW29131   2.031   3.190  10.555  0.7016 -0.4863 -0.0920
 5891SOL    HW129132   2.020   3.269  10.607  0.0772 -1.8733  1.8862
 5891SOL    HW229133   1.942   3.177  10.521  1.3340 -2.2998 -1.0780
 5892SOL     OW29134   0.340   3.871  10.308  0.0840  0.3549  0.3383
 5892SOL    HW129135   0.397   3.944  10.330  0.4607 -0.5027  2.2558
 5892SOL    HW229136   0.396   3.829  10.243 -1.3638 -0.3375 -0.4704
 5893SOL     OW29137   0.961   0.768  14.579 -0.4171  0.0061 -0.2656
 5893SOL    HW129138   0.956   0.846  14.633  1.0930 -0.6401  0.8059
 5893SOL    HW229139   1.024   0.792  14.510 -0.5142  0.8977 -0.0395
 5894SOL     OW29140   4.401   1.019  15.917 -0.1698  0.0121 -0.2146
 5894SOL    HW129141   4.377   1.092  15.974  0.1766 -1.0379  1.2669
 5894SOL    HW229142   4.384   1.059  15.832 -1.1810  0.9201  0.4176
 5895SOL     OW29143   0.708   4.635   7.868 -0.2130 -0.1314  0.6509
 5895SOL    HW129144   0.657   4.662   7.944  0.8718  2.7275  0.4036
 5895SOL    HW229145   0.741   4.555   7.909  3.8105  0.8586 -0.5651
 5896SOL     OW29146   4.375   1.661   5.129 -0.3229 -0.1621  0.0772
 5896SOL    HW129147   4.334   1.731   5.078 -0.2548  0.9330  1.5063
 5896SOL    HW229148   4.395   1.705   5.212 -2.0223 -4.8028  2.9128
 5897SOL     OW29149   3.979   2.030   1.969  0.4949  0.1369  0.7929
 5897SOL    HW129150   3.965   1.936   1.961 -0.9947  0.3091  1.3735
 5897SOL    HW229151   4.003   2.043   2.060 -0.6802  1.1941  0.9497
 5898SOL     OW29152   1.940   1.762  13.991 -0.4918 -0.1403  0.0117
 5898SOL    HW129153   1.848   1.738  14.005 -0.2590 -0.1046  1.6384
 5898SOL    HW229154   1.942   1.825  13.919 -1.1508  0.2957  0.3690
 5899SOL     OW29155   3.140   2.559   5.067 -0.1753  0.0521 -0.0519
 5899SOL    HW129156   3.071   2.505   5.106  0.7908 -0.3329  1.1157
 5899SOL    HW229157   3.140   2.513   4.983 -1.0806 -1.7013  0.9139
 5900SOL     OW29158   3.512   3.446   3.209 -0.0937  0.7664  0.5995
 5900SOL    HW129159   3.545   3.489   3.130  0.3054 -2.6532 -1.1083
 5900SOL    HW229160   3.424   3.417   3.186  0.5690 -0.2208 -0.6918
 5901SOL     OW29161   3.366   0.603   4.712  0.2735  0.2254  0.0699
 5901SOL    HW129162   3.456   0.590   4.741 -0.5777  1.0727  3.1326
 5901SOL    HW229163   3.369   0.557   4.628 -0.1908  1.1547 -0.4604
 5902SOL     OW29164   2.592   0.150   2.493  0.4064  0.5415 -0.2046
 5902SOL    HW129165   2.601   0.191   2.579  3.0980  1.7692 -1.0417
 5902SOL    HW229166   2.613   0.223   2.434 -1.8553  1.1552 -0.2500
 5903SOL     OW29167   4.425   0.154  13.523 -1.2363 -0.0406  0.6332
 5903SOL    HW129168   4.479   0.157  13.444 -0.1488  0.3368  1.3865
 5903SOL    HW229169   4.407   0.247  13.534 -2.7214  0.1947 -3.9332
 5904SOL     OW29170   1.969   1.034   8.402  0.3264 -0.5794  0.0773
 5904SOL    HW129171   1.929   1.106   8.450 -0.1717 -2.0037  1.7635
 5904SOL    HW229172   1.906   1.026   8.330  1.7342  0.2672 -1.2621
 5905SOL     OW29173   4.188   0.470  16.910 -0.3040  0.6930  0.0699
 5905SOL    HW129174   4.272   0.425  16.914 -0.2233  0.7774 -0.6981
 5905SOL    HW229175   4.188   0.525  16.989 -2.8434 -0.9754  1.2338
 5906SOL     OW29176   4.491   0.222   8.065  0.0005 -0.9785 -0.2279
 5906SOL    HW129177   4.466   0.260   7.981  2.5236  1.0277 -0.0461
 5906SOL    HW229178   4.543   0.285   8.114 -1.8046 -1.0137  1.7474
 5907SOL     OW29179   1.330   2.300  15.059 -0.0163 -0.0896  0.1811
 5907SOL    HW129180   1.384   2.354  15.001  2.1973 -0.8317  1.5546
 5907SOL    HW229181   1.335   2.355  15.137 -0.3974  0.2278 -0.0162
 5908SOL     OW29182   3.951   3.648  11.223 -0.3264  0.5639 -0.5711
 5908SOL    HW129183   3.967   3.573  11.281  1.6146  1.0360 -0.4750
 5908SOL    HW229184   3.965   3.605  11.139 -1.0757 -1.2520  0.2322
 5909SOL     OW29185   4.102   0.611   5.044 -0.3107 -0.4137 -0.2509
 5909SOL    HW129186   4.098   0.668   5.121 -0.7705  0.1808 -0.7176
 5909SOL    HW229187   4.124   0.670   4.972 -0.8727 -1.1156 -0.9923
 5910SOL     OW29188   0.481   1.751   5.788  0.8361  0.1016 -0.6947
 5910SOL    HW129189   0.555   1.699   5.757  2.0592  0.7507  1.1451
 5910SOL    HW229190   0.443   1.769   5.702  0.4628 -0.7007 -0.6979
 5911SOL     OW29191   0.839   1.442   4.172 -0.3094 -0.3118 -0.4026
 5911SOL    HW129192   0.774   1.495   4.219  3.3239  0.2093  4.0306
 5911SOL    HW229193   0.784   1.389   4.114 -0.5544 -0.8916  0.3720
 5912SOL     OW29194   2.596   3.071   2.863  1.0203  0.2009  0.2297
 5912SOL    HW129195   2.561   3.133   2.799  0.8046 -0.6333 -0.4491
 5912SOL    HW229196   2.525   3.007   2.870 -0.5128  2.0231  1.4306
 5913SOL     OW29197   2.633   4.455   5.322  0.2612  0.1081 -0.3949
 5913SOL    HW129198   2.548   4.417   5.339 -0.4721  1.9431  0.0302
 5913SOL    HW229199   2.623   4.549   5.338 -0.2964  0.3436 -2.1173
 5914SOL     OW29200   2.004   1.735   6.803  0.1528 -0.0767 -0.4985
 5914SOL    HW129201   1.911   1.741   6.784 -0.1547  2.4370  1.6348
 5914SOL    HW229202   2.022   1.827   6.783  2.3254 -0.6284 -1.0925
 5915SOL     OW29203   0.303   2.666  15.682  0.4951  0.2511 -0.0244
 5915SOL    HW129204   0.376   2.651  15.742 -0.2720 -0.0188  0.8385
 5915SOL    HW229205   0.324   2.743  15.629  0.4677 -2.0781 -3.4366
 5916SOL     OW29206   1.805   0.411   9.604 -0.2594 -0.0616  0.3082
 5916SOL    HW129207   1.721   0.383   9.567  0.4804 -1.5794 -0.1939
 5916SOL    HW229208   1.788   0.496   9.644 -1.0471  0.4993 -1.2114
 5917SOL     OW29209   3.445   0.023  16.182 -0.0865 -0.2168 -0.0902
 5917SOL    HW129210   3.411   4.665  16.143 -0.2334 -0.5733  0.7859
 5917SOL    HW229211   3.402   0.078  16.116 -1.8934 -0.9445  0.4682
 5918SOL     OW29212   0.289   3.936   5.936  0.0238  0.4959  0.1491
 5918SOL    HW129213   0.222   3.963   5.873  0.0350 -4.5367 -1.9389
 5918SOL    HW229214   0.310   4.027   5.956  3.1624  0.1140 -1.4504
 5919SOL     OW29215   3.926   3.632   4.019  0.5465 -0.1347 -0.0635
 5919SOL    HW129216   3.954   3.605   3.932  1.5140  1.0504 -0.1154
 5919SOL    HW229217   3.894   3.720   3.996  2.8665  0.9463  0.8998
 5920SOL     OW29218   3.788   0.978   9.997  0.5167 -0.6736 -0.6651
 5920SOL    HW129219   3.877   0.978   9.962  1.2001  0.4153  1.0725
 5920SOL    HW229220   3.779   0.883  10.000 -1.2620 -0.5525 -2.6420
 5921SOL     OW29221   3.245   4.026  13.545  0.0315  0.0967  0.1677
 5921SOL    HW129222   3.223   4.011  13.453 -0.1845  0.7005  0.1243
 5921SOL    HW229223   3.300   4.103  13.535 -0.8306  0.8169  1.0927
 5922SOL     OW29224   4.021   2.807   8.662 -0.3935  0.0432  0.4404
 5922SOL    HW129225   4.061   2.750   8.728  0.2931  0.8401  0.7203
 5922SOL    HW229226   3.965   2.865   8.714 -1.0422  1.4739 -1.8486
 5923SOL     OW29227   1.502   3.323  17.142 -0.2559 -0.1273 -0.1488
 5923SOL    HW129228   1.589   3.298  17.115 -0.2328 -1.5548  1.2556
 5923SOL    HW229229   1.513   3.404  17.194 -0.5003 -0.7301  0.8496
 5924SOL     OW29230   2.867   2.487  17.649 -0.3057 -0.2367 -0.2113
 5924SOL    HW129231   2.780   2.498  17.609 -0.0956  1.2314 -0.2586
 5924SOL    HW229232   2.868   2.394  17.624 -2.1850 -0.6952  1.3211
 5925SOL     OW29233   1.230   4.326  10.634  0.9649  0.0337 -0.3517
 5925SOL    HW129234   1.307   4.328  10.577  2.5191  1.3335  1.8178
 5925SOL    HW229235   1.233   4.414  10.671  1.7596 -0.1738  0.0781
 5926SOL     OW29236   0.054   1.661   9.957  0.8227 -0.0738 -0.6676
 5926SOL    HW129237   0.082   1.580  10.000 -1.9191 -1.1027 -0.8929
 5926SOL    HW229238   0.129   1.710   9.992 -0.4118  1.3977 -0.0852
 5927SOL     OW29239   2.148   3.661   3.500 -0.1181 -0.0590  0.2430
 5927SOL    HW129240   2.139   3.703   3.414 -1.5230 -0.3672  0.2452
 5927SOL    HW229241   2.217   3.718   3.535 -0.5280 -0.2216  1.2823
 5928SOL     OW29242   4.108   1.112  13.504 -0.5098 -0.0663  0.6955
 5928SOL    HW129243   4.071   1.111  13.415  0.9387  2.3089  0.0629
 5928SOL    HW229244   4.092   1.204  13.523 -1.3035  0.1037 -0.7186
 5929SOL     OW29245   1.122   3.708   2.668 -0.0159  0.5667  0.4010
 5929SOL    HW129246   1.124   3.730   2.575  0.4375  0.3714  0.3668
 5929SOL    HW229247   1.037   3.744   2.696 -0.6568 -0.0627 -0.7265
 5930SOL     OW29248   0.825   0.424  15.594  0.2068  0.5215  0.0096
 5930SOL    HW129249   0.751   0.373  15.561  0.3868  0.6350 -0.5707
 5930SOL    HW229250   0.858   0.368  15.665 -1.7414  1.6039  1.7522
 5931SOL     OW29251   3.646   0.302  14.707  0.1638  0.4282 -0.2269
 5931SOL    HW129252   3.674   0.277  14.795 -0.4513 -0.2308 -0.2226
 5931SOL    HW229253   3.735   0.315  14.675  0.0739 -1.0180 -1.0612
 5932SOL     OW29254   2.037   1.792   3.654  0.0231 -0.4603 -0.1403
 5932SOL    HW129255   2.117   1.770   3.607  0.0727 -1.8377  0.5850
 5932SOL    HW229256   2.074   1.801   3.742 -1.4254  1.0748  0.3194
 5933SOL     OW29257   3.230   4.529   0.281 -0.0304  1.1073 -0.2525
 5933SOL    HW129258   3.310   4.583   0.279 -0.0140  1.0720 -0.5474
 5933SOL    HW229259   3.174   4.588   0.230  2.8220  1.6246 -2.8060
 5934SOL     OW29260   2.084   3.020   2.087  0.2230 -0.3088 -0.4933
 5934SOL    HW129261   2.036   3.103   2.092  2.0902  0.6802  1.1477
 5934SOL    HW229262   2.042   2.972   2.159  0.6514  2.0964  1.3651
 5935SOL     OW29263   4.525   3.685   4.751  0.7347 -0.4718  0.0331
 5935SOL    HW129264   4.499   3.681   4.843  0.2878 -0.6006 -0.0975
 5935SOL    HW229265   4.587   3.612   4.747 -0.8488 -1.9758  2.7383
 5936SOL     OW29266   2.827   3.639   7.284  0.1151  0.1622  0.1366
 5936SOL    HW129267   2.887   3.584   7.234 -0.8347  0.1607 -1.0120
 5936SOL    HW229268   2.769   3.577   7.329  1.0098 -1.4551 -0.9675
 5937SOL     OW29269   1.154   4.499  14.755  0.0798  0.0087 -0.1123
 5937SOL    HW129270   1.240   4.479  14.717  0.0829  0.5075 -0.3644
 5937SOL    HW229271   1.127   4.427  14.811  0.8692 -0.5342 -0.4346
 5938SOL     OW29272   2.166   3.302   2.404 -0.7093 -0.2708  0.2547
 5938SOL    HW129273   2.077   3.309   2.371 -0.6949 -1.4700 -0.0354
 5938SOL    HW229274   2.143   3.366   2.472  3.3046  1.1405  0.3261
 5939SOL     OW29275   1.833   1.358   1.987  0.3349 -0.8796  0.6486
 5939SOL    HW129276   1.853   1.360   1.893 -0.1273  0.9235  0.6005
 5939SOL    HW229277   1.737   1.362   1.989  0.3886  0.5168  0.1430
 5940SOL     OW29278   1.101   0.116  15.011 -0.9684 -1.0426  0.3439
 5940SOL    HW129279   1.177   0.137  14.956 -0.2935  0.0304  1.6706
 5940SOL    HW229280   1.079   0.204  15.044 -1.8482 -0.3632 -2.0748
 5941SOL     OW29281   0.427   2.755   5.048 -0.2726 -0.2502 -0.9266
 5941SOL    HW129282   0.469   2.716   5.124  0.4908  0.4876 -0.9698
 5941SOL    HW229283   0.462   2.842   5.067 -1.8203  0.3090 -0.6090
 5942SOL     OW29284   3.776   3.438   7.446 -0.1009  0.0859  0.0080
 5942SOL    HW129285   3.818   3.362   7.405  0.0894  1.4631 -2.3808
 5942SOL    HW229286   3.701   3.450   7.388  0.0482 -0.6726 -0.3421
 5943SOL     OW29287   3.805   2.407   1.504  0.2646  0.1280 -0.4748
 5943SOL    HW129288   3.734   2.346   1.481  1.1423 -1.5216  1.2108
 5943SOL    HW229289   3.776   2.423   1.593  0.5733 -1.6294 -0.0532
 5944SOL     OW29290   0.420   1.846   4.135 -0.6664  0.0386 -0.0490
 5944SOL    HW129291   0.515   1.835   4.145 -0.9598 -0.8560  1.7759
 5944SOL    HW229292   0.411   1.868   4.042  0.9639  3.6328  0.6584
 5945SOL     OW29293   4.277   1.947   3.343 -0.4813  0.2033 -0.0910
 5945SOL    HW129294   4.267   2.038   3.316 -0.1516  0.7584  1.6513
 5945SOL    HW229295   4.182   1.934   3.348 -0.1638 -2.0225  0.2662
 5946SOL     OW29296   3.522   3.534  10.388  0.1013 -0.0217 -0.0378
 5946SOL    HW129297   3.501   3.551  10.480 -1.5368 -0.2513 -0.3700
 5946SOL    HW229298   3.526   3.439  10.379 -0.0576 -0.0277 -0.0507
 5947SOL     OW29299   3.174   1.912   2.978 -0.2613 -0.6789 -0.1870
 5947SOL    HW129300   3.196   1.867   3.059 -1.8458 -0.1038  0.5669
 5947SOL    HW229301   3.190   1.841   2.915  1.1542 -1.6587  1.2779
 5948SOL     OW29302   2.480   4.267  11.511  0.0128 -0.0642 -0.1171
 5948SOL    HW129303   2.454   4.175  11.509 -2.5437  0.6717 -1.5327
 5948SOL    HW229304   2.475   4.281  11.606 -0.0926 -0.8163 -0.0157
 5949SOL     OW29305   4.200   0.518   8.731 -0.2426  0.4110 -0.3011
 5949SOL    HW129306   4.283   0.470   8.731 -0.1686  0.5367 -0.4552
 5949SOL    HW229307   4.195   0.541   8.823  0.1501  1.7732 -0.6185
 5950SOL     OW29308   1.865   1.233   5.238 -0.0180 -0.2566 -0.1327
 5950SOL    HW129309   1.897   1.202   5.323  1.4463  4.0559  0.8629
 5950SOL    HW229310   1.875   1.153   5.186  0.1015 -0.5830  0.3869
 5951SOL     OW29311   1.834   3.900   8.290 -0.4735  0.1206 -0.2646
 5951SOL    HW129312   1.851   3.994   8.284 -1.0851  0.2030 -0.6363
 5951SOL    HW229313   1.871   3.868   8.208  0.7616 -1.4468  0.8968
 5952SOL     OW29314   3.961   1.092  16.651 -0.7367  0.0783  0.5185
 5952SOL    HW129315   3.893   1.091  16.584  1.0078  2.2971 -1.2979
 5952SOL    HW229316   3.900   1.107  16.724 -1.3390 -0.3499  0.0990
 5953SOL     OW29317   0.888   4.540   1.373 -0.0007  0.0865  0.3150
 5953SOL    HW129318   0.961   4.573   1.322  0.0183 -0.2900  0.0950
 5953SOL    HW229319   0.935   4.482   1.432 -1.3429  1.3090  2.5546
 5954SOL     OW29320   1.047   3.563  14.739 -0.4590 -0.5859  0.4592
 5954SOL    HW129321   1.106   3.611  14.680 -1.1643  1.0542  1.0907
 5954SOL    HW229322   1.015   3.488  14.689 -1.7496 -0.1956  0.7009
 5955SOL     OW29323   0.306   0.775  13.212 -0.3010 -0.0888  0.0953
 5955SOL    HW129324   0.254   0.711  13.164  0.3434 -0.8619  0.4317
 5955SOL    HW229325   0.309   0.718  13.290 -0.7127  2.1630  1.7604
 5956SOL     OW29326   2.351   4.518   9.391 -0.0015 -0.2985 -0.6268
 5956SOL    HW129327   2.399   4.584   9.341  2.7176 -3.4331 -2.1400
 5956SOL    HW229328   2.367   4.548   9.481 -1.1509 -0.8186 -0.2439
 5957SOL     OW29329   3.808   2.462   9.937 -0.0704 -0.0122  0.4386
 5957SOL    HW129330   3.718   2.437   9.959 -0.9702  1.8466 -1.1306
 5957SOL    HW229331   3.801   2.503   9.851  0.9842 -0.8113 -0.0182
 5958SOL     OW29332   4.087   4.696  12.844  0.1086 -0.0585  0.0178
 5958SOL    HW129333   4.061   4.646  12.767 -0.0283  2.0613 -1.2806
 5958SOL    HW229334   4.028   4.672  12.915  0.7530 -1.6488  0.0193
 5959SOL     OW29335   4.670   2.396   7.537  0.7467 -0.3727  0.1772
 5959SOL    HW129336   4.667   2.388   7.632 -0.1443 -1.5172  0.0453
 5959SOL    HW229337   4.722   2.476   7.527 -1.3551  0.8819 -0.5652
 5960SOL     OW29338   0.888   1.664   2.723  0.6126  0.2778  0.1634
 5960SOL    HW129339   0.878   1.751   2.762 -0.5453  0.9806 -1.7387
 5960SOL    HW229340   0.958   1.633   2.781  0.6909 -1.9480 -1.1015
 5961SOL     OW29341   1.342   0.104   4.464  0.2948 -0.4951  0.2759
 5961SOL    HW129342   1.273   0.065   4.411  1.0315 -0.3140 -0.8307
 5961SOL    HW229343   1.411   0.124   4.400 -0.6929  0.8583 -0.3635
 5962SOL     OW29344   0.150   1.751   8.480 -0.0684  0.5084 -0.2962
 5962SOL    HW129345   0.103   1.784   8.557  0.5846  0.8750 -0.0482
 5962SOL    HW229346   0.177   1.663   8.505 -0.6931  0.4649  0.2297
 5963SOL     OW29347   3.601   4.635   4.187 -0.5865 -0.1250  0.0524
 5963SOL    HW129348   3.510   4.638   4.215 -0.8323  0.4830 -0.8308
 5963SOL    HW229349   3.604   4.560   4.128 -0.6799 -0.4651  0.4768
 5964SOL     OW29350   4.720   4.278   5.573  0.3411  0.7691 -0.6604
 5964SOL    HW129351   4.683   4.363   5.598 -4.4404 -0.9092 -1.8988
 5964SOL    HW229352   0.067   4.309   5.517 -0.8050  2.9707 -0.8839
 5965SOL     OW29353   2.975   4.585  11.016 -0.1101  0.0154 -0.2988
 5965SOL    HW129354   2.927   4.503  11.028  1.6430 -0.8876  0.5554
 5965SOL    HW229355   2.894   4.636  11.012 -0.3424 -0.4833 -1.6916
 5966SOL     OW29356   1.743   3.816   4.683  0.3616  0.5016  0.0037
 5966SOL    HW129357   1.750   3.903   4.644  3.0310  1.1657  1.9526
 5966SOL    HW229358   1.717   3.763   4.608 -0.4614 -1.5220  1.7094
 5967SOL     OW29359   4.096   2.614  13.075  0.0226 -0.0299  0.3137
 5967SOL    HW129360   4.107   2.699  13.117 -1.2799 -0.3138  1.2030
 5967SOL    HW229361   4.178   2.597  13.029  0.8943  0.9221  1.5226
 5968SOL     OW29362   3.469   2.360   4.009  0.1364  0.4751 -0.6050
 5968SOL    HW129363   3.391   2.324   3.966 -0.5518  2.1994 -0.7840
 5968SOL    HW229364   3.511   2.399   3.932  3.4433 -0.5355  0.6933
 5969SOL     OW29365   0.660   3.961   9.122  0.1998  0.1478  0.2490
 5969SOL    HW129366   0.694   4.031   9.178  1.1406 -2.3850  2.9050
 5969SOL    HW229367   0.723   3.970   9.051 -2.3700 -0.7603 -2.1255
 5970SOL     OW29368   3.958   3.125   4.313 -0.4573 -0.0936  0.4793
 5970SOL    HW129369   3.984   3.201   4.260  1.8859 -0.9656  0.3559
 5970SOL    HW229370   3.890   3.080   4.263  0.4041  0.6005 -1.3300
 5971SOL     OW29371   1.080   3.996   8.998 -0.3314 -0.1687  0.2615
 5971SOL    HW129372   1.037   4.050   8.932 -1.0335 -1.4038 -0.3051
 5971SOL    HW229373   1.063   4.039   9.081 -0.2613  1.1191 -0.3857
 5972SOL     OW29374   2.053   0.754   2.978  0.4771 -0.4637  0.8755
 5972SOL    HW129375   2.070   0.791   2.892 -0.9926 -0.2414  0.6887
 5972SOL    HW229376   1.992   0.820   3.011  1.0315  0.5805 -0.1745
 5973SOL     OW29377   0.246   2.279   0.854  0.1585 -0.3450  0.1431
 5973SOL    HW129378   0.199   2.349   0.900  0.1565 -0.5545  0.4600
 5973SOL    HW229379   0.280   2.223   0.924  0.8185  0.6757  0.6354
 5974SOL     OW29380   2.359   3.977   3.848 -0.1102 -0.5066  0.3626
 5974SOL    HW129381   2.367   4.025   3.930 -0.7335 -0.2908  0.2944
 5974SOL    HW229382   2.410   3.900   3.873  0.3105 -0.4970 -0.4687
 5975SOL     OW29383   1.992   4.477   9.701 -0.0804  0.1150 -0.0627
 5975SOL    HW129384   1.900   4.464   9.679  0.3917 -0.7003 -1.5048
 5975SOL    HW229385   2.026   4.388   9.712  1.2973  0.7788  1.0013
 5976SOL     OW29386   4.196   3.663   7.540  0.0828 -0.4827  0.6891
 5976SOL    HW129387   4.153   3.710   7.468 -0.4951 -0.3900  1.0928
 5976SOL    HW229388   4.140   3.585   7.550  0.2929 -0.9147 -1.6104
 5977SOL     OW29389   2.672   4.278  12.371 -1.2354  0.3311 -0.1285
 5977SOL    HW129390   2.725   4.204  12.342 -2.3288 -0.5311  0.0939
 5977SOL    HW229391   2.736   4.331  12.419  0.8790 -2.3086 -0.0546
 5978SOL     OW29392   2.004   1.934   3.319  0.2497  0.3251  0.5381
 5978SOL    HW129393   2.025   1.865   3.256  0.1622  0.0101  0.8503
 5978SOL    HW229394   2.092   1.959   3.348 -0.0065  0.5241  1.1532
 5979SOL     OW29395   2.058   2.341   6.947  0.3846 -0.4451  0.1565
 5979SOL    HW129396   2.044   2.272   7.011 -0.0418  0.9284  1.5305
 5979SOL    HW229397   1.979   2.391   6.970  0.7363 -0.4662  1.3552
 5980SOL     OW29398   4.155   2.569   8.082 -0.3344  0.4738 -0.4978
 5980SOL    HW129399   4.106   2.644   8.048  0.0355  0.8914 -0.1247
 5980SOL    HW229400   4.125   2.494   8.031  1.0855 -1.0994  0.9634
 5981SOL     OW29401   3.676   2.916   2.537 -0.3123 -0.1717 -0.4961
 5981SOL    HW129402   3.669   3.009   2.518  0.5298  0.3425  1.7233
 5981SOL    HW229403   3.725   2.891   2.459 -0.4227  1.3810 -1.0555
 5982SOL     OW29404   3.633   4.128   1.944 -0.0497  0.2554  0.0435
 5982SOL    HW129405   3.589   4.213   1.950 -0.0253  0.3060 -0.4614
 5982SOL    HW229406   3.589   4.064   2.000  0.2671 -1.2244 -1.3847
 5983SOL     OW29407   3.045   0.647  16.097 -0.2414 -0.6715  0.4465
 5983SOL    HW129408   3.053   0.730  16.145 -3.2889 -0.5316  0.6682
 5983SOL    HW229409   3.118   0.600  16.137 -0.2706 -1.1187 -0.0285
 5984SOL     OW29410   1.092   3.021   2.599  0.3605 -0.4916  0.1724
 5984SOL    HW129411   1.075   2.949   2.660 -1.6012  0.0681  0.3102
 5984SOL    HW229412   1.005   3.034   2.561  0.1642 -3.3534 -0.3760
 5985SOL     OW29413   2.639   3.374  14.155  0.0110 -0.0975  0.8264
 5985SOL    HW129414   2.589   3.294  14.138 -2.2565  1.8190 -1.5257
 5985SOL    HW229415   2.599   3.388  14.240  2.5897 -1.2839  2.2405
 5986SOL     OW29416   0.400   0.092   4.982  0.0609  0.2101 -0.2098
 5986SOL    HW129417   0.477   0.133   5.021 -1.1253  2.4165 -0.2085
 5986SOL    HW229418   0.330   0.114   5.043  0.7181  1.8862 -0.0780
 5987SOL     OW29419   2.802   1.448   6.855  0.2746  0.0349 -0.3494
 5987SOL    HW129420   2.824   1.398   6.776 -1.7317 -2.8333  0.9268
 5987SOL    HW229421   2.801   1.385   6.927  2.9699 -0.9449 -1.1683
 5988SOL     OW29422   1.567   4.274  11.764  0.5689 -0.2384  0.2331
 5988SOL    HW129423   1.476   4.291  11.740 -0.6644 -3.6555  2.3966
 5988SOL    HW229424   1.610   4.342  11.713 -0.4903  0.3145  0.0667
 5989SOL     OW29425   0.446   1.518  11.945 -0.2899 -0.4282  0.2143
 5989SOL    HW129426   0.526   1.570  11.958 -0.1317 -0.0187 -2.3023
 5989SOL    HW229427   0.478   1.428  11.951 -0.9415 -0.6748 -0.0229
 5990SOL     OW29428   3.491   1.685  15.116 -0.2666 -0.5304 -0.5517
 5990SOL    HW129429   3.404   1.662  15.150 -0.0439 -1.3616 -0.5512
 5990SOL    HW229430   3.552   1.632  15.167  2.7318  1.1681 -2.3649
 5991SOL     OW29431   2.305   0.778  16.554 -0.2764 -0.1079 -0.2062
 5991SOL    HW129432   2.227   0.824  16.585 -0.4423  0.1275 -0.9806
 5991SOL    HW229433   2.362   0.853  16.569  0.4002 -0.2505 -2.0465
 5992SOL     OW29434   0.198   3.907   8.490 -0.2481 -0.1441  0.4252
 5992SOL    HW129435   0.190   3.858   8.408 -1.5959  0.2402  0.3220
 5992SOL    HW229436   0.127   3.970   8.495  0.7397  1.0366 -0.3006
 5993SOL     OW29437   2.538   4.089   7.820  0.3509  0.1010 -0.2422
 5993SOL    HW129438   2.461   4.063   7.770 -1.4169  3.4954  0.6615
 5993SOL    HW229439   2.545   4.025   7.890 -1.2926  1.6582  1.3365
 5994SOL     OW29440   0.710   2.881  12.625 -0.2880 -0.2752 -0.0679
 5994SOL    HW129441   0.674   2.812  12.681 -1.8143  1.9968  1.8132
 5994SOL    HW229442   0.702   2.954  12.687 -1.6222  0.1699 -0.7704
 5995SOL     OW29443   0.885   1.753   1.857 -0.4909  0.3414 -0.4343
 5995SOL    HW129444   0.949   1.800   1.803 -0.8751  3.5463  1.8847
 5995SOL    HW229445   0.893   1.810   1.934  1.4673  1.0148 -1.1378
 5996SOL     OW29446   4.023   2.376   1.332 -0.8043 -0.2061 -0.4480
 5996SOL    HW129447   4.016   2.285   1.305  1.7979 -0.5764  0.1384
 5996SOL    HW229448   3.937   2.386   1.373 -0.4299  0.8168  0.1055
 5997SOL     OW29449   1.510   2.588   9.434 -0.6365  0.3158  0.0607
 5997SOL    HW129450   1.599   2.575   9.468  0.2778  0.0130 -2.4234
 5997SOL    HW229451   1.455   2.612   9.508  0.6301 -0.8181  1.3597
 5998SOL     OW29452   2.909   1.168   2.462 -0.5833 -0.2933  0.3597
 5998SOL    HW129453   2.979   1.215   2.416  1.5762 -1.5090  2.3983
 5998SOL    HW229454   2.864   1.129   2.388  0.4646 -1.8346  0.5357
 5999SOL     OW29455   0.291   0.057  10.839  0.3653 -0.5196  1.0528
 5999SOL    HW129456   0.264   0.116  10.909  0.4383  0.7709 -0.0012
 5999SOL    HW229457   0.226   4.710  10.848  1.2282 -1.1840  1.9868
 6000SOL     OW29458   3.715   2.615   6.288 -1.1663 -0.8242 -0.4128
 6000SOL    HW129459   3.702   2.528   6.326  1.1920 -0.8863  0.2769
 6000SOL    HW229460   3.798   2.587   6.249 -0.2212  2.5646 -0.8571
 6001SOL     OW29461   1.076   0.358   3.873 -0.0286  0.2079 -0.0007
 6001SOL    HW129462   1.141   0.404   3.820 -1.7021  1.6649 -0.8035
 6001SOL    HW229463   1.058   0.436   3.925 -0.0406  0.1197  0.1250
 6002SOL     OW29464   0.577   3.122   4.010  0.5336 -0.2874  0.0656
 6002SOL    HW129465   0.619   3.208   4.015  1.2904 -0.8901  4.4001
 6002SOL    HW229466   0.618   3.099   3.927  0.2838 -0.9111  0.1196
 6003SOL     OW29467   1.591   2.485   3.522 -0.0278  0.5987 -0.0571
 6003SOL    HW129468   1.592   2.402   3.473  3.7767  0.9285 -0.5105
 6003SOL    HW229469   1.623   2.551   3.461  0.3904  1.4994  1.1362
 6004SOL     OW29470   1.246   2.987   2.387 -0.2874 -0.0992 -0.4089
 6004SOL    HW129471   1.178   2.925   2.416 -2.0188  1.5233 -0.9867
 6004SOL    HW229472   1.252   3.038   2.467 -3.5021  2.4313 -1.7419
 6005SOL     OW29473   3.187   0.717  15.095  0.5699  0.0309  0.1310
 6005SOL    HW129474   3.273   0.692  15.129 -0.1937 -2.2684  0.3478
 6005SOL    HW229475   3.200   0.808  15.067  0.2986  0.6277  1.9471
 6006SOL     OW29476   4.063   0.368   6.763  0.1584  0.2994  0.4218
 6006SOL    HW129477   4.155   0.395   6.754  0.1681  0.7565  1.8880
 6006SOL    HW229478   4.064   0.289   6.817  0.6099  0.6298  0.8911
 6007SOL     OW29479   0.620   4.338   3.787 -0.5232  0.0220 -0.5991
 6007SOL    HW129480   0.572   4.415   3.816  1.0107  0.6906  0.1999
 6007SOL    HW229481   0.693   4.379   3.740  1.6286 -2.3586  0.6792
 6008SOL     OW29482   1.073   2.489   2.198 -0.1468 -0.1052 -0.0370
 6008SOL    HW129483   0.999   2.518   2.144  0.5587  0.5685 -0.6411
 6008SOL    HW229484   1.136   2.556   2.173 -0.5318  0.2708 -0.0091
 6009SOL     OW29485   2.156   4.067  10.412 -0.1745 -0.6859 -0.3350
 6009SOL    HW129486   2.097   4.010  10.362 -1.1453 -0.0811  0.1084
 6009SOL    HW229487   2.177   4.130  10.344 -0.1920  0.8878  1.1094
 6010SOL     OW29488   4.539   1.049   7.761  0.0292  0.1823 -0.1900
 6010SOL    HW129489   4.504   1.022   7.846  0.8969  0.6177  0.3076
 6010SOL    HW229490   4.478   1.013   7.697  2.1063 -0.9465 -1.5576
 6011SOL     OW29491   2.459   3.754   8.446  0.3706 -0.0470  0.5577
 6011SOL    HW129492   2.531   3.702   8.411 -1.5669 -1.9557 -0.5439
 6011SOL    HW229493   2.490   3.762   8.537 -2.1883 -0.4232  1.4451
 6012SOL     OW29494   0.005   1.232  11.533  0.1255  0.0844  0.0925
 6012SOL    HW129495   4.713   1.324  11.514 -0.8580 -0.2972 -1.0100
 6012SOL    HW229496   0.101   1.226  11.529 -0.0100  0.1196 -3.1773
 6013SOL     OW29497   1.289   3.782   5.791 -0.4112  0.3330  0.0627
 6013SOL    HW129498   1.303   3.872   5.821  0.0616  0.8967 -1.8610
 6013SOL    HW229499   1.196   3.768   5.808  0.0535 -1.1972  1.4230
 6014SOL     OW29500   1.192   1.192   7.149 -0.8842 -0.0118  0.2939
 6014SOL    HW129501   1.273   1.196   7.099 -0.1658  1.5323  1.5707
 6014SOL    HW229502   1.214   1.151   7.232 -1.3261 -2.8819 -0.9964
 6015SOL     OW29503   1.998   2.140   2.086 -0.1804 -0.2645  0.0261
 6015SOL    HW129504   2.039   2.058   2.060  0.7856  0.9761 -2.3206
 6015SOL    HW229505   1.911   2.104   2.102 -0.8986  1.5668  0.1757
 6016SOL     OW29506   0.629   1.652  17.044  0.3022  0.2144 -0.2982
 6016SOL    HW129507   0.690   1.724  17.059  0.7486 -0.9531  3.4506
 6016SOL    HW229508   0.570   1.678  17.115 -1.0674 -0.4595 -1.1923
 6017SOL     OW29509   1.091   3.733   9.113 -0.4649 -0.4881 -0.0801
 6017SOL    HW129510   1.002   3.739   9.148 -0.5289 -1.5613 -0.0715
 6017SOL    HW229511   1.092   3.813   9.060 -0.1843  0.8924  2.0342
 6018SOL     OW29512   4.706   3.786   1.101 -0.3817  0.0389 -0.1143
 6018SOL    HW129513   4.692   3.879   1.084 -1.7717 -0.3605 -1.2380
 6018SOL    HW229514   4.692   3.742   1.017  0.6297  0.5252 -0.5268
 6019SOL     OW29515   0.243   3.893   5.031  0.7430  0.4312  0.2295
 6019SOL    HW129516   0.259   3.798   5.031  0.0632  0.3134  0.6416
 6019SOL    HW229517   0.186   3.904   5.107  0.0363 -1.4112 -0.0254
 6020SOL     OW29518   1.811   3.484   6.832  0.5270  0.1589 -0.2549
 6020SOL    HW129519   1.794   3.578   6.836  1.2084  0.2357  0.9940
 6020SOL    HW229520   1.765   3.449   6.909 -0.1373 -1.4835 -1.4143
 6021SOL     OW29521   3.636   0.469   8.775  0.5034  0.2361  0.3558
 6021SOL    HW129522   3.587   0.392   8.805 -0.1738  0.4956 -0.0688
 6021SOL    HW229523   3.722   0.449   8.812  1.2490 -0.6856 -1.8372
 6022SOL     OW29524   3.971   2.717   9.959  0.6215  0.2838 -0.2519
 6022SOL    HW129525   3.993   2.713  10.052  0.9121  0.0583 -0.3295
 6022SOL    HW229526   3.938   2.628   9.947  2.2311 -0.3386 -0.1269
 6023SOL     OW29527   0.899   4.275  11.728 -0.2232  0.5101  0.3486
 6023SOL    HW129528   0.934   4.266  11.639  1.7766 -0.7332  1.2672
 6023SOL    HW229529   0.877   4.368  11.722  1.0662  0.7786 -0.1568
 6024SOL     OW29530   1.971   3.432  17.339 -0.1296 -0.6661 -0.1933
 6024SOL    HW129531   2.031   3.386  17.280  0.6456  0.3702 -0.2040
 6024SOL    HW229532   2.016   3.423  17.423  0.8945  0.9677 -0.5661
 6025SOL     OW29533   0.704   2.872   0.700  0.1366 -0.2686  0.0309
 6025SOL    HW129534   0.663   2.785   0.691 -0.3048  0.2067 -2.6904
 6025SOL    HW229535   0.647   2.914   0.635  0.4400  0.2114  0.0822
 6026SOL     OW29536   2.908   4.717   1.264 -0.0535  0.4885  0.5314
 6026SOL    HW129537   2.833   4.692   1.319  0.2109 -0.0702  0.6408
 6026SOL    HW229538   2.928   0.080   1.300 -3.4831  2.3162 -1.8471
 6027SOL     OW29539   4.556   2.478  13.534 -0.2419  0.0221  0.0191
 6027SOL    HW129540   4.546   2.500  13.441 -1.3177  2.2421  0.6689
 6027SOL    HW229541   4.594   2.560  13.564  1.0289  0.0324 -1.6408
 6028SOL     OW29542   3.540   2.602   9.308 -0.5959  0.3483  0.1706
 6028SOL    HW129543   3.469   2.658   9.339 -0.3039  0.3815  0.7913
 6028SOL    HW229544   3.612   2.666   9.305  0.8795 -1.3125  0.2577
 6029SOL     OW29545   4.694   0.301   9.947  0.6512 -0.5166 -0.0589
 6029SOL    HW129546   0.033   0.338   9.884 -0.5147  0.7006 -0.4913
 6029SOL    HW229547   0.007   0.328  10.032 -2.6524 -2.8151  2.0332
 6030SOL     OW29548   0.636   2.915  14.522  0.2975 -0.0939 -0.7143
 6030SOL    HW129549   0.571   2.959  14.468 -0.8869 -0.2516  0.5790
 6030SOL    HW229550   0.713   2.967  14.498  0.7597 -0.5379 -0.1889
 6031SOL     OW29551   1.220   1.219   3.405  0.5856 -0.1959  0.0899
 6031SOL    HW129552   1.163   1.149   3.438  0.4476  0.2489  0.8053
 6031SOL    HW229553   1.230   1.267   3.487  3.5809  0.9575 -0.9818
 6032SOL     OW29554   0.458   0.368   3.367 -0.0935 -0.5235  0.3027
 6032SOL    HW129555   0.465   0.281   3.329 -2.6056 -0.6259  0.1087
 6032SOL    HW229556   0.369   0.393   3.345 -0.0848 -1.3036 -0.6365
 6033SOL     OW29557   2.136   4.087   4.436 -0.2295  0.5157 -0.0141
 6033SOL    HW129558   2.216   4.044   4.467 -1.6139 -1.4982  0.7758
 6033SOL    HW229559   2.080   4.010   4.427  1.4728 -0.8362  1.0564
 6034SOL     OW29560   1.653   3.244   5.796 -0.3618 -0.2268  0.1551
 6034SOL    HW129561   1.717   3.221   5.864  0.1655 -1.1173 -0.6572
 6034SOL    HW229562   1.701   3.217   5.718 -0.4273  2.2092 -0.7222
 6035SOL     OW29563   3.713   2.000  13.833  0.5863  0.0138  0.0676
 6035SOL    HW129564   3.783   2.050  13.793  1.4322 -2.1525 -1.1704
 6035SOL    HW229565   3.654   2.064  13.872 -1.3244 -0.7229 -1.6184
 6036SOL     OW29566   0.437   0.360   2.662  0.8926 -0.5040  0.4397
 6036SOL    HW129567   0.442   0.446   2.703 -0.9437  0.4651 -1.3676
 6036SOL    HW229568   0.455   0.373   2.569  2.2097  2.1887  1.0827
 6037SOL     OW29569   0.444   0.551   6.492  0.4817  0.5694 -0.0025
 6037SOL    HW129570   0.458   0.467   6.535  1.8443 -0.5717 -2.6922
 6037SOL    HW229571   0.518   0.558   6.432  0.0543  0.0263 -0.5882
 6038SOL     OW29572   3.617   0.309   9.041  0.0620 -0.9443 -0.2420
 6038SOL    HW129573   3.627   0.215   9.055  0.5013 -1.1918 -2.2065
 6038SOL    HW229574   3.521   0.314   9.047  0.0259 -3.0399  0.9921
 6039SOL     OW29575   1.831   4.715   6.235 -0.3482 -0.0866 -0.1078
 6039SOL    HW129576   1.828   0.047   6.314  0.4551  1.9706 -1.5055
 6039SOL    HW229577   1.879   0.057   6.184  1.1995 -1.1031  0.0535
 6040SOL     OW29578   0.863   1.577   6.995  0.2456  0.0144 -0.1223
 6040SOL    HW129579   0.862   1.650   7.057  1.9160 -0.3327  0.2997
 6040SOL    HW229580   0.849   1.624   6.913  1.2330  1.0919  0.3423
 6041SOL     OW29581   1.395   3.169   5.772 -0.5085  0.2969  0.3517
 6041SOL    HW129582   1.444   3.093   5.740 -1.2600 -0.2995  0.6152
 6041SOL    HW229583   1.472   3.223   5.789 -0.3596 -0.1020  0.9558
 6042SOL     OW29584   1.219   0.475   6.605 -0.6595 -0.0647 -0.5766
 6042SOL    HW129585   1.136   0.488   6.652  0.9742  0.5761  2.1457
 6042SOL    HW229586   1.272   0.538   6.654 -0.0365  0.7849 -2.3638
 6043SOL     OW29587   3.371   0.714   9.097  0.6534 -0.0154  0.8526
 6043SOL    HW129588   3.458   0.741   9.124  0.6198  1.2303 -0.2913
 6043SOL    HW229589   3.390   0.680   9.009 -0.6538 -1.2273  1.0155
 6044SOL     OW29590   3.272   2.775  15.028  0.4308  0.3715 -0.6952
 6044SOL    HW129591   3.349   2.760  15.081  1.5429  1.3571 -2.0232
 6044SOL    HW229592   3.303   2.743  14.943  1.7262  0.4869 -0.2608
 6045SOL     OW29593   1.553   2.215   3.430  0.1669 -0.0474  0.1938
 6045SOL    HW129594   1.637   2.171   3.421 -0.2582 -0.3759 -2.1090
 6045SOL    HW229595   1.490   2.178   3.369 -0.0016  0.9951 -0.2714
 6046SOL     OW29596   4.330   2.737   6.994  0.0336 -0.7034 -0.0994
 6046SOL    HW129597   4.328   2.749   6.899 -1.8094 -0.1845  0.0038
 6046SOL    HW229598   4.253   2.787   7.020  0.4268  0.5830 -1.4031
 6047SOL     OW29599   3.163   3.564   4.965 -0.1258 -0.7187  0.4349
 6047SOL    HW129600   3.257   3.573   4.984  0.1866 -2.2468 -0.3829
 6047SOL    HW229601   3.141   3.652   4.936  0.4987 -0.4474  0.7714
 6048SOL     OW29602   3.567   2.517  16.870 -0.1832  0.2261  0.4073
 6048SOL    HW129603   3.514   2.572  16.929  0.4631  0.3837  0.8426
 6048SOL    HW229604   3.536   2.431  16.897  0.6923 -1.0613 -2.8158
 6049SOL     OW29605   2.191   4.277   9.936  0.5647  0.0552 -0.4498
 6049SOL    HW129606   2.249   4.343   9.897 -1.0925  0.8756 -1.5856
 6049SOL    HW229607   2.137   4.244   9.864 -0.6559 -0.3493  0.6677
 6050SOL     OW29608   1.438   0.798   6.891 -0.1809 -0.3333 -0.2491
 6050SOL    HW129609   1.503   0.802   6.820 -0.0090  2.5340  0.0587
 6050SOL    HW229610   1.462   0.713   6.927 -0.2488  0.0964  0.7881
 6051SOL     OW29611   1.262   2.468   2.596 -0.1128 -0.8587 -0.3459
 6051SOL    HW129612   1.268   2.429   2.508  1.0663 -1.4017 -0.0250
 6051SOL    HW229613   1.169   2.449   2.612 -0.4311  0.4273 -0.6587
 6052SOL     OW29614   1.755   3.852  10.131 -0.5691  0.2495  0.2348
 6052SOL    HW129615   1.772   3.799  10.053 -2.0227 -0.4477  0.3986
 6052SOL    HW229616   1.668   3.887  10.113  0.4329  3.4398  1.4818
 6053SOL     OW29617   4.278   1.861   4.936 -0.1663  0.4056 -0.0949
 6053SOL    HW129618   4.254   1.900   4.852 -1.3148  1.0529  0.5242
 6053SOL    HW229619   4.188   1.863   4.968  0.1586  1.3555  0.7575
 6054SOL     OW29620   2.687   1.578  11.112 -0.3804 -0.1801 -0.5197
 6054SOL    HW129621   2.655   1.595  11.023  1.2628 -2.9009 -1.6372
 6054SOL    HW229622   2.600   1.570  11.152  0.3862 -2.9160  0.6191
 6055SOL     OW29623   2.404   2.727   4.193  0.0770 -0.0630 -0.2464
 6055SOL    HW129624   2.445   2.813   4.201 -0.0552 -0.1597  1.4671
 6055SOL    HW229625   2.348   2.740   4.116  0.2535  1.1836 -0.1642
 6056SOL     OW29626   1.956   3.126   5.077 -0.4553  0.2988 -0.1820
 6056SOL    HW129627   1.870   3.086   5.073 -0.3111  0.1319 -1.6502
 6056SOL    HW229628   1.946   3.194   5.011 -0.6794 -0.2820 -0.7475
 6057SOL     OW29629   3.175   1.005   4.931  0.3162  0.4843 -0.0775
 6057SOL    HW129630   3.128   1.084   4.902 -1.1135 -0.4806 -0.4188
 6057SOL    HW229631   3.114   0.935   4.909 -0.1868  0.3133  1.8550
 6058SOL     OW29632   3.001   2.894   2.261  0.5442 -0.1685 -0.0769
 6058SOL    HW129633   3.011   2.842   2.182  0.8532  0.2614 -0.3224
 6058SOL    HW229634   3.077   2.952   2.271  0.7831 -0.6122  0.6859
 6059SOL     OW29635   1.979   1.632   5.313 -0.1211 -0.3593 -0.1385
 6059SOL    HW129636   2.002   1.581   5.390 -1.5410 -0.7065  0.0606
 6059SOL    HW229637   1.996   1.567   5.245  1.9727 -0.0718  0.1127
 6060SOL     OW29638   4.532   0.987  10.093  0.0035  0.0644 -0.1117
 6060SOL    HW129639   4.441   0.958  10.101 -0.3121  0.5782 -1.9423
 6060SOL    HW229640   4.516   1.080  10.106  2.8252 -0.0910  4.5189
 6061SOL     OW29641   1.762   0.073   5.354 -0.7288  0.1649  0.5514
 6061SOL    HW129642   1.679   0.077   5.307  0.5849 -1.2575 -1.8571
 6061SOL    HW229643   1.788   4.708   5.328 -0.1861  0.6498 -0.5548
 6062SOL     OW29644   1.559   0.282   9.501  0.4607 -0.7650  0.0779
 6062SOL    HW129645   1.494   0.262   9.435  0.8957  0.8413 -0.8199
 6062SOL    HW229646   1.509   0.320   9.573  0.7917  0.3786 -0.3008
 6063SOL     OW29647   0.938   3.460  13.031 -0.1897  0.0615 -0.3899
 6063SOL    HW129648   0.989   3.468  12.950  2.6124 -1.1675  1.2371
 6063SOL    HW229649   1.005   3.446  13.098  1.1187  1.8366 -1.3331
 6064SOL     OW29650   2.161   4.361   3.576 -0.0804  0.3177 -0.0670
 6064SOL    HW129651   2.207   4.416   3.514  2.2387 -0.1376  1.2406
 6064SOL    HW229652   2.080   4.368   3.526 -0.8949  0.2125  1.2139
 6065SOL     OW29653   2.494   1.496   2.218  0.3631  0.7254  0.7934
 6065SOL    HW129654   2.412   1.448   2.216  0.2712  0.9501 -0.8750
 6065SOL    HW229655   2.478   1.566   2.154  0.3125  0.3385  0.3844
 6066SOL     OW29656   3.699   0.153   1.570  0.0474 -0.1383 -0.3764
 6066SOL    HW129657   3.753   0.087   1.614  2.7877  1.8844 -0.7219
 6066SOL    HW229658   3.613   0.111   1.580  0.2039 -0.3450  0.1093
 6067SOL     OW29659   3.454   1.519  11.318  0.0566 -0.3369 -0.0163
 6067SOL    HW129660   3.461   1.461  11.242  2.9181 -1.1579  0.8506
 6067SOL    HW229661   3.414   1.457  11.379  0.2718 -0.4513  0.0080
 6068SOL     OW29662   4.641   1.583   4.714  0.1263  0.6343  0.0596
 6068SOL    HW129663   0.009   1.594   4.686  0.6008 -2.1103  0.5031
 6068SOL    HW229664   4.644   1.599   4.809 -0.7152  0.7002  0.0749
 6069SOL     OW29665   2.806   1.004   6.450 -0.2320 -0.4448  0.3184
 6069SOL    HW129666   2.868   0.948   6.404 -0.5087 -0.6746  0.2213
 6069SOL    HW229667   2.819   1.087   6.404 -1.1062 -0.1594  0.5710
 6070SOL     OW29668   4.194   0.693   8.512  0.2676  0.4518 -0.7741
 6070SOL    HW129669   4.114   0.741   8.535 -0.2062 -0.9790  0.5501
 6070SOL    HW229670   4.200   0.636   8.588  1.0682 -0.2426 -1.3579
 6071SOL     OW29671   1.620   0.688  12.014 -0.0057 -0.4920  0.1676
 6071SOL    HW129672   1.711   0.669  12.034  0.3328 -1.2831 -2.0491
 6071SOL    HW229673   1.585   0.602  11.990  2.0356 -0.2513 -3.6877
 6072SOL     OW29674   2.917   0.588   4.188 -0.4106 -0.9610 -0.3977
 6072SOL    HW129675   3.009   0.562   4.182  0.0721  0.3417  1.3216
 6072SOL    HW229676   2.910   0.583   4.093 -1.2125  0.2058 -0.3990
 6073SOL     OW29677   2.309   0.074   2.381  0.1285  0.7835 -0.0410
 6073SOL    HW129678   2.267   0.073   2.467  0.9388 -2.2809  0.3216
 6073SOL    HW229679   2.402   0.066   2.401 -0.4268  1.4893  2.7703
 6074SOL     OW29680   4.396   2.252   7.878  0.3250  0.6562  0.0896
 6074SOL    HW129681   4.416   2.188   7.945  0.0918  0.6239  0.1286
 6074SOL    HW229682   4.474   2.307   7.868 -1.7636  3.2188 -2.4906
 6075SOL     OW29683   0.595   1.823   3.014 -0.0467  0.3599  0.0298
 6075SOL    HW129684   0.516   1.811   3.067  0.8652  0.8381  1.4843
 6075SOL    HW229685   0.656   1.778   3.072 -2.0246 -1.2269  0.8933
 6076SOL     OW29686   2.826   2.002   4.120 -0.0004  0.0119 -0.1108
 6076SOL    HW129687   2.837   2.045   4.035 -0.5403 -2.1589 -1.2846
 6076SOL    HW229688   2.809   2.078   4.176  1.4851  0.0913  0.2260
 6077SOL     OW29689   2.303   0.298   3.163 -0.1132 -0.1856  0.0451
 6077SOL    HW129690   2.251   0.237   3.215  1.3895 -0.2901  1.4124
 6077SOL    HW229691   2.241   0.370   3.175  3.5868  3.0401 -0.3498
 6078SOL     OW29692   2.230   3.101   7.627  0.7993  0.2056 -0.4848
 6078SOL    HW129693   2.234   3.126   7.534 -1.7016  1.2374 -0.3258
 6078SOL    HW229694   2.135   3.095   7.641  0.7742  1.4998 -0.1338
 6079SOL     OW29695   4.059   0.756   6.033 -0.7308 -0.3303  0.4426
 6079SOL    HW129696   4.075   0.704   6.111 -1.2527 -0.7881  0.2411
 6079SOL    HW229697   4.086   0.702   5.959  1.5275  1.0780  0.2175
 6080SOL     OW29698   1.596   3.275   3.848  0.2910  0.0593 -0.1236
 6080SOL    HW129699   1.659   3.222   3.897 -2.0948 -2.9898 -0.3393
 6080SOL    HW229700   1.571   3.345   3.907  1.8820 -0.6684  1.3938
 6081SOL     OW29701   1.380   3.868   2.366 -0.0395 -0.3081  0.5624
 6081SOL    HW129702   1.411   3.957   2.383 -0.4394  0.2461 -1.6527
 6081SOL    HW229703   1.464   3.834   2.334 -0.4123 -2.1299  1.5321
 6082SOL     OW29704   4.310   2.675   0.189 -0.1177 -0.5138  0.4939
 6082SOL    HW129705   4.237   2.719   0.145 -0.0279 -1.1430 -0.2847
 6082SOL    HW229706   4.344   2.754   0.233 -0.4862  0.5556 -1.1337
 6083SOL     OW29707   3.890   2.418  12.328  0.1235 -0.1456  0.4258
 6083SOL    HW129708   3.803   2.450  12.351 -0.2047 -1.9334  1.6701
 6083SOL    HW229709   3.913   2.350  12.391 -0.1184 -2.7008 -2.2467
 6084SOL     OW29710   0.647   2.178   6.189 -0.4082 -0.6761 -0.2802
 6084SOL    HW129711   0.642   2.201   6.096  0.4666  0.9507  0.0772
 6084SOL    HW229712   0.742   2.177   6.197 -0.4550  1.6161  0.6353
 6085SOL     OW29713   2.025   1.408   5.990  0.3336 -0.3870 -0.0450
 6085SOL    HW129714   2.115   1.379   6.004 -0.0687 -0.5568  2.2417
 6085SOL    HW229715   2.039   1.503   5.983  1.2027 -0.6082 -1.2403
 6086SOL     OW29716   4.456   3.270   2.060 -0.0160  0.3457 -0.7755
 6086SOL    HW129717   4.544   3.287   2.028  0.3323  2.1768  1.1254
 6086SOL    HW229718   4.472   3.192   2.113 -0.9640  0.5017 -0.2624
 6087SOL     OW29719   1.754   3.476   3.401 -0.8496  0.4515 -0.4036
 6087SOL    HW129720   1.815   3.517   3.463 -0.7216 -2.2018  1.2340
 6087SOL    HW229721   1.687   3.435   3.456 -0.3695  3.4448  2.3853
 6088SOL     OW29722   0.063   0.352   6.970  0.5566 -0.1127 -0.1941
 6088SOL    HW129723   4.721   0.421   6.955  1.2764  0.5944 -0.0284
 6088SOL    HW229724   0.020   0.267   6.963  1.0486 -0.5130  1.6522
 6089SOL     OW29725   3.116   1.931   6.246 -0.2381  0.3253 -0.1115
 6089SOL    HW129726   3.128   2.010   6.194 -0.8690  0.0010 -0.7444
 6089SOL    HW229727   3.046   1.958   6.305  1.6520  0.7308  1.9270
 6090SOL     OW29728   1.738   3.554  12.085 -0.0982  0.5901  0.0205
 6090SOL    HW129729   1.791   3.481  12.118  2.5700  3.3600  1.8806
 6090SOL    HW229730   1.770   3.624  12.143 -0.9454  1.7566 -0.9104
 6091SOL     OW29731   0.115   4.613  16.075 -0.2436 -0.0632  0.3813
 6091SOL    HW129732   0.068   4.644  16.153 -0.1665  3.1116 -0.8150
 6091SOL    HW229733   0.096   4.682  16.011 -0.4459 -0.3177  0.1707
 6092SOL     OW29734   1.947   1.034   3.048  0.6051 -0.1229  0.2459
 6092SOL    HW129735   1.856   1.051   3.074  0.6872 -0.8471  1.0113
 6092SOL    HW229736   1.981   1.020   3.137  0.3143 -0.8020  0.2523
 6093SOL     OW29737   2.028   1.436   4.676 -0.1881 -0.2432 -0.4082
 6093SOL    HW129738   1.965   1.438   4.748 -0.4683 -1.7355 -0.5932
 6093SOL    HW229739   1.973   1.390   4.613 -2.7895  4.9139 -1.8868
 6094SOL     OW29740   3.129   3.742   1.031  0.4626 -0.3759  0.1379
 6094SOL    HW129741   3.174   3.792   0.963  2.2438 -2.1913 -0.0095
 6094SOL    HW229742   3.095   3.806   1.094  0.5651  0.1943 -0.3876
 6095SOL     OW29743   1.454   2.910   6.814  0.2158 -0.4111  0.2702
 6095SOL    HW129744   1.389   2.844   6.838  0.1349 -1.0692 -1.7252
 6095SOL    HW229745   1.508   2.848   6.765  1.0616  0.4727  0.0828
 6096SOL     OW29746   0.499   3.951   8.405 -0.6705  0.3189  0.1891
 6096SOL    HW129747   0.476   4.002   8.327 -1.3531 -1.4447 -0.7670
 6096SOL    HW229748   0.412   3.939   8.443 -0.6967 -1.5749 -0.4416
 6097SOL     OW29749   1.433   1.100   5.550 -0.1183  0.2516 -1.0846
 6097SOL    HW129750   1.424   1.128   5.459  2.2414  1.3024 -0.9899
 6097SOL    HW229751   1.418   1.007   5.531  0.8475  0.0247 -0.7632
 6098SOL     OW29752   3.653   0.457   3.056 -0.0108 -0.4568  0.0107
 6098SOL    HW129753   3.681   0.365   3.054  2.2463  0.1738  2.2013
 6098SOL    HW229754   3.645   0.470   3.151 -2.1433  1.9891 -0.4823
 6099SOL     OW29755   4.006   3.925   6.535 -0.4201  0.7551 -0.3032
 6099SOL    HW129756   4.068   3.888   6.598  1.1067  0.9299 -1.7014
 6099SOL    HW229757   4.050   3.902   6.453 -1.6365  3.5995 -1.7524
 6100SOL     OW29758   0.904   0.387   0.335 -0.1716 -0.1723  0.3787
 6100SOL    HW129759   0.973   0.442   0.370  1.6423 -1.2602 -1.5050
 6100SOL    HW229760   0.848   0.450   0.289 -2.9232 -2.9310 -0.0863
 6101SOL     OW29761   1.632   0.791   7.523 -0.3252 -0.1451  0.3626
 6101SOL    HW129762   1.720   0.820   7.548  0.7286 -1.4523 -1.7865
 6101SOL    HW229763   1.650   0.710   7.475 -0.6435  0.1095 -0.1924
 6102SOL     OW29764   4.715   2.153   2.003 -0.2456 -0.2608 -0.4053
 6102SOL    HW129765   0.046   2.165   2.081 -1.5011  2.4252  0.0508
 6102SOL    HW229766   0.062   2.172   1.940  0.7729  0.3841  0.9314
 6103SOL     OW29767   3.739   2.242   5.673  0.0372  0.1297  0.2909
 6103SOL    HW129768   3.700   2.273   5.591  0.3516  1.3016  0.5835
 6103SOL    HW229769   3.701   2.297   5.742 -1.3186 -1.6459  0.9686
 6104SOL     OW29770   2.370   4.110   2.161 -0.5475  0.0692  0.0805
 6104SOL    HW129771   2.370   4.202   2.134 -1.1343  0.3453  1.0425
 6104SOL    HW229772   2.423   4.074   2.090 -2.4579 -2.1762 -0.2030
 6105SOL     OW29773   0.061   0.014  17.359  0.0722  0.5055  0.3458
 6105SOL    HW129774   0.006   0.016  17.281  0.2019 -1.6500  0.1765
 6105SOL    HW229775   0.024   0.088  17.406  0.5255  1.2503 -0.4744
 6106SOL     OW29776   1.905   2.294   7.671  0.4687  0.0402  0.5565
 6106SOL    HW129777   1.815   2.310   7.700  0.7628  0.9703  0.9565
 6106SOL    HW229778   1.879   2.257   7.587 -0.3642 -1.0347  1.2840
 6107SOL     OW29779   2.304   4.674  10.349  0.2145  0.2938 -0.3447
 6107SOL    HW129780   2.223   4.667  10.299 -0.5556  0.7718  0.8356
 6107SOL    HW229781   2.371   4.650  10.285  2.5544  2.7898  1.1514
 6108SOL     OW29782   0.756   0.130   8.565 -0.6813 -0.4021 -0.6078
 6108SOL    HW129783   0.749   0.065   8.635  1.0552  2.0885  1.8902
 6108SOL    HW229784   0.692   0.191   8.602  0.3087 -0.3106  0.9718
 6109SOL     OW29785   0.079   2.146   1.274 -0.2194  0.1549  0.1038
 6109SOL    HW129786   0.005   2.185   1.320  1.5640  0.8850  2.3489
 6109SOL    HW229787   0.040   2.059   1.270  2.5755 -1.1572  1.3109
 6110SOL     OW29788   3.478   0.053  16.466 -0.6383  0.3388  0.4559
 6110SOL    HW129789   3.472   0.063  16.371  1.2225 -0.8909  0.2158
 6110SOL    HW229790   3.556   0.105  16.484 -0.7891  0.2109  1.4675
 6111SOL     OW29791   2.303   2.679   3.348  0.2474 -0.0588 -0.0478
 6111SOL    HW129792   2.216   2.720   3.350  0.0199 -0.7255  3.0136
 6111SOL    HW229793   2.281   2.586   3.341 -1.5772  0.5405 -2.7281
 6112SOL     OW29794   1.045   3.509  11.010 -0.2721  0.2489  0.4405
 6112SOL    HW129795   1.089   3.448  11.069 -1.0491  0.5578  1.3434
 6112SOL    HW229796   1.096   3.587  11.029 -0.3730 -0.4151  3.3277
 6113SOL     OW29797   1.549   1.756  14.969  0.0286 -0.7225  0.0754
 6113SOL    HW129798   1.598   1.675  14.954  0.1670 -0.7795  0.8595
 6113SOL    HW229799   1.616   1.824  14.972  0.6509 -1.1352 -3.6312
 6114SOL     OW29800   4.545   2.309   6.856  0.9357  0.0824  0.0388
 6114SOL    HW129801   4.640   2.319   6.847  1.0823 -1.4707 -0.1431
 6114SOL    HW229802   4.525   2.295   6.949  2.8628  0.1471  0.4672
 6115SOL     OW29803   4.394   3.618  15.143  0.3464  0.4381 -0.7995
 6115SOL    HW129804   4.439   3.637  15.225  0.0028 -0.4200 -0.4066
 6115SOL    HW229805   4.367   3.700  15.101 -2.3345  0.2823  0.6122
 6116SOL     OW29806   2.069   4.429  10.484 -1.0613  0.3721 -0.4983
 6116SOL    HW129807   2.059   4.488  10.409  0.1667  0.1481 -0.8332
 6116SOL    HW229808   2.156   4.444  10.521  0.0962 -2.2205 -2.1206
 6117SOL     OW29809   1.627   2.921   8.734 -0.4635 -0.4325 -0.1856
 6117SOL    HW129810   1.722   2.930   8.725 -0.2583 -1.0461  1.4395
 6117SOL    HW229811   1.610   2.897   8.643 -2.1916  1.0367 -0.2421
 6118SOL     OW29812   4.117   0.492   4.292 -0.1740 -0.1556  0.1349
 6118SOL    HW129813   4.199   0.477   4.337  0.3106 -0.2983 -0.7949
 6118SOL    HW229814   4.055   0.494   4.365  0.8767  2.8971  0.9086
 6119SOL     OW29815   2.053   2.200   9.842  0.3199  0.1599 -0.1894
 6119SOL    HW129816   2.098   2.218   9.924  2.4044  1.2760 -1.5699
 6119SOL    HW229817   2.020   2.110   9.846  0.7250 -0.1020 -2.7040
 6120SOL     OW29818   3.045   1.289   3.662  0.7101 -0.8853  0.2681
 6120SOL    HW129819   3.135   1.296   3.632  0.9092  1.8342  1.4733
 6120SOL    HW229820   3.014   1.380   3.656  3.2009  0.0450  1.4264
 6121SOL     OW29821   0.546   2.876   7.315 -0.2274 -0.4197  0.2182
 6121SOL    HW129822   0.512   2.867   7.404 -0.7249  0.0079  0.0703
 6121SOL    HW229823   0.564   2.784   7.298  0.2593 -0.3560  0.3964
 6122SOL     OW29824   0.526   4.101  10.386  0.1741 -0.4227  0.6672
 6122SOL    HW129825   0.589   4.168  10.412  0.0099 -0.0895  0.2015
 6122SOL    HW229826   0.445   4.144  10.416  0.9208  1.0059  0.6392
 6123SOL     OW29827   1.409   2.027  15.745  0.1000  0.2123 -0.2454
 6123SOL    HW129828   1.411   1.936  15.713  2.1724  0.7140 -1.5108
 6123SOL    HW229829   1.500   2.049  15.729  0.0976  1.1693  1.1100
 6124SOL     OW29830   0.212   1.021   2.191 -0.2486  0.2194 -0.3226
 6124SOL    HW129831   0.154   1.026   2.267  1.3237 -0.7204  0.9401
 6124SOL    HW229832   0.162   1.074   2.129 -0.7127  0.1175 -0.0372
 6125SOL     OW29833   0.609   0.352   3.639 -0.2660  0.4693 -0.1573
 6125SOL    HW129834   0.612   0.291   3.565 -2.5537  0.0379  0.1011
 6125SOL    HW229835   0.643   0.437   3.610 -1.7517  1.0678 -0.1234
 6126SOL     OW29836   3.316   0.592  13.945 -0.0752 -0.2388 -0.2610
 6126SOL    HW129837   3.325   0.649  13.869  0.3831  1.5766  1.1439
 6126SOL    HW229838   3.360   0.653  14.005 -1.1668 -1.7179  2.0268
 6127SOL     OW29839   3.782   4.011   5.219 -0.1317 -0.0708  0.3613
 6127SOL    HW129840   3.712   4.007   5.154  2.5085 -1.0179 -2.4372
 6127SOL    HW229841   3.854   4.045   5.167 -0.1850  0.2139  0.4775
 6128SOL     OW29842   0.988   0.686   7.293 -0.1145  0.4094 -0.0093
 6128SOL    HW129843   1.052   0.719   7.356 -1.2109  1.3736  0.5868
 6128SOL    HW229844   0.911   0.726   7.331 -0.4759  1.7010 -2.0701
 6129SOL     OW29845   4.240   4.598   2.703 -0.2357 -0.6449  0.0631
 6129SOL    HW129846   4.169   4.537   2.684 -0.2181 -0.1517 -1.5640
 6129SOL    HW229847   4.191   4.668   2.745  0.0204 -0.6596  0.3852
 6130SOL     OW29848   0.658   2.805   8.279 -0.0589  0.4506 -0.2325
 6130SOL    HW129849   0.670   2.891   8.318 -0.3700  1.0322 -1.4283
 6130SOL    HW229850   0.563   2.804   8.267 -0.0676 -1.1577 -0.0937
 6131SOL     OW29851   1.183   4.246  11.286 -0.2019 -0.4209  0.1064
 6131SOL    HW129852   1.192   4.306  11.212 -0.2445  0.8520  1.1382
 6131SOL    HW229853   1.260   4.245  11.343  0.6294  0.4640 -1.0230
 6132SOL     OW29854   0.658   2.728  14.259  0.4044 -0.6027  0.1859
 6132SOL    HW129855   0.667   2.694  14.170 -3.3281 -1.6596  0.2045
 6132SOL    HW229856   0.663   2.823  14.248 -0.3976 -0.5103  0.6669
 6133SOL     OW29857   1.810   1.974  12.435 -0.0246 -0.0383 -0.3645
 6133SOL    HW129858   1.811   1.910  12.506  0.8589  1.9082  1.3733
 6133SOL    HW229859   1.876   1.934  12.378  2.2606  1.1052  1.4799
 6134SOL     OW29860   3.889   2.002   0.646 -0.0227 -0.7864 -0.0797
 6134SOL    HW129861   3.914   2.074   0.587  0.8659  0.3757  1.6955
 6134SOL    HW229862   3.951   1.932   0.628  1.3421  0.7561 -1.4053
 6135SOL     OW29863   0.107   3.324  15.626  0.3848 -0.6907 -0.1968
 6135SOL    HW129864   0.083   3.405  15.581 -0.4233  0.8966  3.0425
 6135SOL    HW229865   0.156   3.364  15.698  0.2943 -0.8725 -0.0343
 6136SOL     OW29866   2.224   0.417   5.116 -0.2005  0.3405 -0.1115
 6136SOL    HW129867   2.130   0.432   5.125 -0.2634  0.3923 -0.8580
 6136SOL    HW229868   2.251   0.506   5.092 -2.2669  0.8040 -0.6852
 6137SOL     OW29869   3.678   1.282   7.678  0.3232 -0.1168  0.0872
 6137SOL    HW129870   3.624   1.320   7.609  0.8179  1.4524  0.5643
 6137SOL    HW229871   3.641   1.333   7.751 -0.2174  0.8389 -0.8594
 6138SOL     OW29872   2.478   0.037   6.240 -0.0834 -0.5088 -0.1670
 6138SOL    HW129873   2.434   4.715   6.312 -0.2304  0.5519  0.4002
 6138SOL    HW229874   2.519   4.680   6.208  3.5727  1.0552  0.6403
 6139SOL     OW29875   1.939   2.909   7.428  0.3536 -0.1650  0.4285
 6139SOL    HW129876   1.846   2.890   7.410 -0.1232  2.2769  0.2914
 6139SOL    HW229877   1.945   2.888   7.521  1.1065  0.7309  0.5734
 6140SOL     OW29878   1.085   2.803   8.624  0.6891  0.7936 -0.7968
 6140SOL    HW129879   1.125   2.799   8.537  0.5098 -1.8848 -0.7382
 6140SOL    HW229880   1.027   2.876   8.601  0.2725  0.9182  0.6209
 6141SOL     OW29881   1.320   0.958   0.408  0.5026 -0.5191 -0.4843
 6141SOL    HW129882   1.314   1.036   0.352 -0.5820  0.2142  0.6484
 6141SOL    HW229883   1.385   0.916   0.352  3.6270  1.7302  1.4359
 6142SOL     OW29884   2.103   1.997   6.771  0.2333  0.5503 -0.1615
 6142SOL    HW129885   2.178   2.014   6.827 -1.4527  0.8722  2.0073
 6142SOL    HW229886   2.140   2.025   6.688 -0.0163 -0.3016 -0.5612
 6143SOL     OW29887   0.556   4.141   3.636 -1.1927  0.0574  0.3665
 6143SOL    HW129888   0.510   4.194   3.571 -1.0482 -0.8998 -0.5240
 6143SOL    HW229889   0.586   4.210   3.695  0.5226 -0.8868  0.5888
 6144SOL     OW29890   2.279   1.696   2.680  0.1206 -0.3420  0.1872
 6144SOL    HW129891   2.346   1.763   2.695 -0.6045  0.2429  0.8566
 6144SOL    HW229892   2.306   1.664   2.595 -0.9719 -0.3425 -0.1576
 6145SOL     OW29893   2.928   1.524   9.897  0.3961 -0.3767  0.5086
 6145SOL    HW129894   2.951   1.494   9.810 -0.1276  0.0204  0.2340
 6145SOL    HW229895   2.835   1.500   9.895 -0.3639  2.3906  2.4239
 6146SOL     OW29896   4.254   4.568  17.103  0.1615  0.5934  0.1375
 6146SOL    HW129897   4.177   4.589  17.050  1.1741  2.3801 -0.6483
 6146SOL    HW229898   4.216   4.498  17.156 -0.6631  0.2320 -0.9245
 6147SOL     OW29899   3.865   3.151   2.833  0.1848 -0.2814  0.1940
 6147SOL    HW129900   3.951   3.123   2.865  0.1276 -0.7248 -0.0464
 6147SOL    HW229901   3.807   3.094   2.881  0.8224 -0.5988  0.5854
 6148SOL     OW29902   3.164   1.823   5.604  0.4748  0.3754  0.2489
 6148SOL    HW129903   3.172   1.845   5.697 -1.7737  3.3645 -0.2912
 6148SOL    HW229904   3.077   1.855   5.584  1.2776  2.3326 -0.0928
 6149SOL     OW29905   4.322   1.866  10.065 -0.2688 -0.6796 -0.0524
 6149SOL    HW129906   4.322   1.802  10.136 -0.7955 -0.1350  0.4395
 6149SOL    HW229907   4.279   1.811  10.000  1.9627 -0.7885 -1.4535
 6150SOL     OW29908   4.198   2.616   3.204 -0.3307  0.1766 -0.0508
 6150SOL    HW129909   4.171   2.544   3.261  1.1368 -1.3334 -1.2616
 6150SOL    HW229910   4.126   2.612   3.140 -3.5885 -0.0048  3.6403
 6151SOL     OW29911   1.109   4.033  12.408  0.1072  0.2875 -0.0045
 6151SOL    HW129912   1.063   4.003  12.487 -0.8011 -0.9586 -0.9942
 6151SOL    HW229913   1.188   3.978  12.409  0.1730  0.3589 -1.1751
 6152SOL     OW29914   4.150   1.484   8.479 -0.5549 -0.1672 -0.2534
 6152SOL    HW129915   4.187   1.399   8.457  1.4248  0.7060 -0.2774
 6152SOL    HW229916   4.066   1.448   8.509 -0.0277 -2.6771 -1.8342
 6153SOL     OW29917   3.466   2.287   7.852 -0.1853  0.6062  0.3955
 6153SOL    HW129918   3.538   2.238   7.890 -2.7344 -2.5372  1.2119
 6153SOL    HW229919   3.389   2.238   7.883 -0.6246 -0.6532 -2.6752
 6154SOL     OW29920   3.336   4.265   5.143 -0.3777 -0.4892  0.3528
 6154SOL    HW129921   3.403   4.313   5.192  0.6211  1.3090 -2.7823
 6154SOL    HW229922   3.257   4.273   5.196 -1.4691 -2.1251 -1.0193
 6155SOL     OW29923   2.694   0.632   0.388  0.2236  0.3057 -0.1832
 6155SOL    HW129924   2.636   0.666   0.320  0.6504  1.4007 -0.0080
 6155SOL    HW229925   2.772   0.687   0.384  0.2144  0.2493 -1.1787
 6156SOL     OW29926   4.622   2.095   5.683 -0.2370  0.6620  0.0504
 6156SOL    HW129927   4.669   2.129   5.607 -0.1432 -0.0657 -0.2226
 6156SOL    HW229928   4.590   2.173   5.729 -1.4376 -0.4635  1.1552
 6157SOL     OW29929   1.231   3.719   2.958 -0.5409  0.2413 -0.5428
 6157SOL    HW129930   1.299   3.680   2.904 -0.0655 -0.0084  0.2344
 6157SOL    HW229931   1.288   3.760   3.023  0.6432 -2.8586  0.3805
 6158SOL     OW29932   0.655   4.149   2.198 -0.1783  0.2370 -0.9068
 6158SOL    HW129933   0.708   4.184   2.269  0.2098 -0.7628 -0.6980
 6158SOL    HW229934   0.665   4.220   2.134 -0.7360  1.0425 -0.1021
 6159SOL     OW29935   0.300   0.922  15.622 -0.2775 -0.1802 -0.2001
 6159SOL    HW129936   0.293   0.978  15.544  0.8428  0.7131  0.3530
 6159SOL    HW229937   0.252   0.973  15.687 -0.6634  0.5535 -1.0592
 6160SOL     OW29938   1.186   0.719   6.816 -0.2759 -0.6528 -0.4638
 6160SOL    HW129939   1.224   0.641   6.855  2.6148  0.1022 -1.7923
 6160SOL    HW229940   1.252   0.785   6.836 -0.1405 -0.4980 -1.3933
 6161SOL     OW29941   3.781   3.224   9.216  0.5433 -0.1654 -0.5975
 6161SOL    HW129942   3.765   3.161   9.286  0.3524 -0.3334 -0.7952
 6161SOL    HW229943   3.718   3.291   9.241 -1.7650 -2.5852 -0.0221
 6162SOL     OW29944   2.039   0.245   2.974  0.0818  0.0831 -0.0524
 6162SOL    HW129945   1.949   0.271   2.992 -0.5917 -1.4026 -1.3109
 6162SOL    HW229946   2.044   0.152   2.995  0.0697  0.2236  0.5718
 6163SOL     OW29947   3.199   2.093   8.493  0.5461  0.1750  0.2309
 6163SOL    HW129948   3.277   2.102   8.440  0.3719 -1.2887 -0.2867
 6163SOL    HW229949   3.225   2.131   8.577 -0.3453 -0.3288  0.7417
 6164SOL     OW29950   4.612   3.217   5.833  0.3459 -0.2845  0.4313
 6164SOL    HW129951   4.626   3.146   5.895 -0.3970  0.3155  1.2856
 6164SOL    HW229952   4.696   3.228   5.788  1.8480 -0.4611  3.2139
 6165SOL     OW29953   0.596   2.623   0.613  0.3854  0.1709  0.0626
 6165SOL    HW129954   0.541   2.552   0.647  0.7095 -0.5418 -0.8949
 6165SOL    HW229955   0.670   2.569   0.585  0.1979  1.0784 -2.2108
 6166SOL     OW29956   4.167   2.689   2.282 -0.1132  0.0541 -0.0089
 6166SOL    HW129957   4.195   2.763   2.228 -0.5176 -0.8910 -1.4969
 6166SOL    HW229958   4.230   2.624   2.251  2.4333  1.9619  1.1261
 6167SOL     OW29959   0.293   1.395   0.437  0.4333  0.2517  0.1361
 6167SOL    HW129960   0.384   1.369   0.427  0.4122  0.9113 -1.6985
 6167SOL    HW229961   0.277   1.383   0.531  0.9290  1.6038  0.3911
 6168SOL     OW29962   4.212   1.375  17.240 -0.4205 -0.1399 -0.1335
 6168SOL    HW129963   4.202   1.470  17.242  3.2402  0.2731 -1.1128
 6168SOL    HW229964   4.155   1.360  17.165  2.4304 -3.3747 -1.6683
 6169SOL     OW29965   0.099   1.639  17.156  0.2029 -0.8902 -0.1860
 6169SOL    HW129966   0.149   1.592  17.089 -1.5380 -0.3329 -1.8660
 6169SOL    HW229967   0.156   1.626  17.232 -0.7954 -2.6573  0.2426
 6170SOL     OW29968   0.760   1.494   8.384  0.3383  0.1337 -0.2287
 6170SOL    HW129969   0.811   1.413   8.389 -1.3961 -1.0067 -0.8940
 6170SOL    HW229970   0.815   1.549   8.440 -1.6344  2.2584 -0.3469
 6171SOL     OW29971   1.696   3.176  14.262  0.0491  0.1957 -0.0732
 6171SOL    HW129972   1.757   3.244  14.234 -0.2930  0.1391 -0.9493
 6171SOL    HW229973   1.613   3.207  14.225 -0.1505  0.6684  0.7734
 6172SOL     OW29974   0.139   4.505   6.280  0.1004 -0.5227 -0.4856
 6172SOL    HW129975   0.109   4.585   6.238  0.2107 -1.5745 -2.5390
 6172SOL    HW229976   0.069   4.446   6.253 -0.2966  0.2975 -1.2272
 6173SOL     OW29977   3.583   1.199   5.798  0.5319  0.1491 -0.0731
 6173SOL    HW129978   3.596   1.150   5.717  2.6724  0.8523 -0.1585
 6173SOL    HW229979   3.645   1.265   5.767 -0.3782  0.6192 -0.9045
 6174SOL     OW29980   2.843   2.259  16.614 -0.2145 -0.0098 -0.2871
 6174SOL    HW129981   2.927   2.217  16.601  0.1253  0.8845 -0.9908
 6174SOL    HW229982   2.879   2.334  16.662  0.4406 -0.9754  0.7410
 6175SOL     OW29983   3.427   0.166  10.318 -0.3251 -0.2253 -0.0383
 6175SOL    HW129984   3.461   0.207  10.239  0.1339  0.1142  0.3330
 6175SOL    HW229985   3.512   0.133  10.349 -0.9649 -1.1203  0.7581
 6176SOL     OW29986   4.425   2.786   6.052  0.2504  0.7435 -0.1049
 6176SOL    HW129987   4.482   2.724   6.006 -1.4797 -0.3295 -0.7898
 6176SOL    HW229988   4.335   2.757   6.035  1.0281 -1.6552 -0.1234
 6177SOL     OW29989   4.432   3.569   3.877 -0.0696  0.0521  0.3364
 6177SOL    HW129990   4.430   3.583   3.972  1.0350 -0.6224  0.4705
 6177SOL    HW229991   4.492   3.494   3.874  0.3935  0.4963 -1.3366
 6178SOL     OW29992   1.355   4.640  16.150 -0.3246 -0.3305  0.2693
 6178SOL    HW129993   1.363   4.646  16.055  0.8886  3.3147  0.6060
 6178SOL    HW229994   1.332   0.004  16.181  1.1127  1.0269 -2.5084
 6179SOL     OW29995   3.917   0.419  16.726 -0.3053  0.2212  0.3697
 6179SOL    HW129996   3.829   0.396  16.697 -0.4942  0.2753  0.8999
 6179SOL    HW229997   3.892   0.503  16.766  0.0175  0.4311  0.1319
 6180SOL     OW29998   2.403   2.687   6.833 -0.3311  0.0283  0.6783
 6180SOL    HW129999   2.356   2.700   6.915  0.6387 -1.0928  1.4120
 6180SOL    HW230000   2.450   2.604   6.842  0.8040  0.4401 -1.4121
 6181SOL     OW30001   0.893   0.231   6.256  0.0212  0.4276 -0.0578
 6181SOL    HW130002   0.887   0.147   6.211  0.6527 -0.5823  1.7432
 6181SOL    HW230003   0.807   0.269   6.237 -0.3058 -0.2602  0.0470
 6182SOL     OW30004   4.558   3.915  11.188 -0.1698  1.0947  0.0899
 6182SOL    HW130005   4.517   3.833  11.160  0.7608  0.2995  1.0515
 6182SOL    HW230006   4.638   3.908  11.136 -0.3537 -0.2415 -0.0266
 6183SOL     OW30007   4.448   0.936   7.983  0.1468 -0.4062  0.2067
 6183SOL    HW130008   4.354   0.917   7.985  0.2659 -0.7227  2.3691
 6183SOL    HW230009   4.459   0.960   8.075  2.0302  0.3898 -0.2427
 6184SOL     OW30010   0.392   2.102   5.925 -0.3052  0.3696  0.3163
 6184SOL    HW130011   0.478   2.066   5.904 -0.5214 -0.9871  1.8056
 6184SOL    HW230012   0.354   2.069   5.844 -0.2140 -0.1231  0.4779
 6185SOL     OW30013   1.790   2.665  14.789  0.0341  0.3566 -0.4214
 6185SOL    HW130014   1.717   2.665  14.727  0.7630  0.5065 -1.2893
 6185SOL    HW230015   1.860   2.695  14.731 -0.3679 -0.4938 -1.3445
 6186SOL     OW30016   1.667   3.813   4.419 -0.0326 -0.1433 -0.2529
 6186SOL    HW130017   1.722   3.881   4.380  1.2939 -1.8104 -1.2618
 6186SOL    HW230018   1.578   3.834   4.390  0.7425  1.6930 -1.3192
 6187SOL     OW30019   1.103   3.545   6.567  0.2368  0.4611 -0.4927
 6187SOL    HW130020   1.120   3.463   6.614  2.7241  1.5171  0.4520
 6187SOL    HW230021   1.051   3.523   6.489 -0.3125 -0.8872  0.2385
 6188SOL     OW30022   4.011   1.847  10.686  0.1835  0.2337  0.5107
 6188SOL    HW130023   4.069   1.864  10.760 -0.2227 -2.3347  1.4107
 6188SOL    HW230024   4.013   1.751  10.686 -1.0774  0.1964 -0.0722
 6189SOL     OW30025   2.079   1.542   7.010  0.7424 -0.1807 -0.1082
 6189SOL    HW130026   2.080   1.606   6.939 -3.3662  0.3210  0.2826
 6189SOL    HW230027   2.172   1.527   7.028 -0.0705 -1.4275  3.0209
 6190SOL     OW30028   4.626   1.591   5.883  0.6465 -0.0958 -1.5887
 6190SOL    HW130029   4.565   1.653   5.924  1.9323  2.4034 -3.4320
 6190SOL    HW230030   4.694   1.587   5.950 -0.5678 -0.2952 -0.3481
 6191SOL     OW30031   3.280   4.147  10.949 -0.1691 -0.0264 -0.0182
 6191SOL    HW130032   3.359   4.099  10.925  0.9245  1.8411 -0.1037
 6191SOL    HW230033   3.261   4.195  10.868  0.1963 -0.9634 -0.6616
 6192SOL     OW30034   0.714   2.375   4.250 -0.1863 -0.2530  0.9031
 6192SOL    HW130035   0.697   2.375   4.345 -1.4989  2.5369  0.6633
 6192SOL    HW230036   0.808   2.363   4.240 -0.3813 -2.4497  1.8240
 6193SOL     OW30037   2.028   2.247  13.792 -0.1757 -0.2980 -0.1814
 6193SOL    HW130038   2.027   2.162  13.749  1.6624 -0.8634  0.8994
 6193SOL    HW230039   1.946   2.280  13.756 -0.3846  0.3873  0.9012
 6194SOL     OW30040   3.469   2.749   6.275 -0.2002 -0.1283 -0.1264
 6194SOL    HW130041   3.554   2.706   6.269 -0.0670  0.0930  0.1766
 6194SOL    HW230042   3.484   2.808   6.348  2.1719 -0.0973 -0.6404
 6195SOL     OW30043   4.332   1.420   4.948  0.1295  0.2806  0.2980
 6195SOL    HW130044   4.343   1.483   5.019 -0.0456 -0.7695  1.2583
 6195SOL    HW230045   4.318   1.344   5.005 -0.2970  0.7147  0.7750
 6196SOL     OW30046   2.943   4.268   1.282 -0.1018 -0.1124  0.0250
 6196SOL    HW130047   3.007   4.220   1.230  0.7423  0.4579  0.5415
 6196SOL    HW230048   2.990   4.329   1.338 -0.5396  2.4070 -2.3792
 6197SOL     OW30049   1.494   4.539   5.256  0.1923 -0.4250  0.6605
 6197SOL    HW130050   1.425   4.489   5.211 -0.2999  1.2700 -0.4415
 6197SOL    HW230051   1.495   4.481   5.332  0.8253  0.1268  1.0653
 6198SOL     OW30052   1.813   4.034  14.012  0.0173  0.0688 -0.2382
 6198SOL    HW130053   1.722   4.050  13.986 -0.2461 -0.5229  0.3257
 6198SOL    HW230054   1.809   4.089  14.091  0.8045 -1.5637  0.9388
 6199SOL     OW30055   4.226   4.605   5.419 -0.6127  0.4774  0.1655
 6199SOL    HW130056   4.191   4.648   5.341  1.3695 -0.5299 -1.3161
 6199SOL    HW230057   4.163   4.635   5.484  0.0213  3.0301 -0.3753
 6200SOL     OW30058   3.339   0.827  14.750  0.3298 -0.4390 -0.5581
 6200SOL    HW130059   3.335   0.921  14.770 -3.1485 -0.5384 -0.7720
 6200SOL    HW230060   3.305   0.833  14.661 -1.7502  0.7874  0.3056
 6201SOL     OW30061   0.500   1.962   6.335 -0.2478 -0.0060 -0.0422
 6201SOL    HW130062   0.513   2.057   6.333  1.7340 -0.2669 -0.1395
 6201SOL    HW230063   0.581   1.929   6.295 -1.2762 -0.0957 -2.0215
 6202SOL     OW30064   2.222   3.923   5.591 -0.0909  0.4212  0.6324
 6202SOL    HW130065   2.294   3.860   5.597 -0.3463 -0.1822 -2.5346
 6202SOL    HW230066   2.192   3.924   5.682 -8.5810  0.0066 -2.1283
 6203SOL     OW30067   2.142   0.069   3.836 -0.7789 -0.6519 -0.5505
 6203SOL    HW130068   2.059   0.112   3.858  0.1695  0.5284  0.7541
 6203SOL    HW230069   2.142   0.073   3.741 -1.5221  1.1899 -0.4720
 6204SOL     OW30070   4.547   0.283   0.746 -0.0215  1.0209  0.0354
 6204SOL    HW130071   4.483   0.287   0.816  0.0771 -0.4350  0.2120
 6204SOL    HW230072   4.512   0.225   0.678 -0.8380  2.4636 -0.7689
 6205SOL     OW30073   2.898   0.032  15.625  0.1869 -0.0194 -0.0350
 6205SOL    HW130074   2.835   4.705  15.573  0.3560  1.5193 -1.7142
 6205SOL    HW230075   2.954   4.687  15.662  2.1635  2.0260  0.7744
 6206SOL     OW30076   4.650   1.988   6.893 -0.0419 -0.7676 -0.0843
 6206SOL    HW130077   4.656   1.961   6.985  0.9296 -0.1014  0.0489
 6206SOL    HW230078   4.558   2.016   6.896 -0.1997 -1.1599 -1.2431
 6207SOL     OW30079   2.454   1.893   2.718 -0.9753 -0.0748 -0.4615
 6207SOL    HW130080   2.544   1.890   2.751 -0.7437 -2.0338 -1.2918
 6207SOL    HW230081   2.442   1.987   2.710  0.4039  0.0072 -1.5622
 6208SOL     OW30082   2.663   0.244   8.403  0.2770  0.0459 -0.2924
 6208SOL    HW130083   2.642   0.254   8.496  0.6662 -1.9958  0.0124
 6208SOL    HW230084   2.710   0.326   8.392  0.1518 -0.0958 -1.9288
 6209SOL     OW30085   1.376   0.712  17.088 -0.0692  0.1217 -0.3421
 6209SOL    HW130086   1.410   0.718  17.177 -2.1875  0.0175  0.4613
 6209SOL    HW230087   1.297   0.660  17.103  1.6086 -2.1211  0.8043
 6210SOL     OW30088   1.755   2.998   7.895  0.2823  0.3004 -0.4084
 6210SOL    HW130089   1.700   2.919   7.897  0.9848 -0.1788 -0.0595
 6210SOL    HW230090   1.819   2.992   7.966  0.0101 -1.6640 -0.3312
 6211SOL     OW30091   1.564   2.134   8.463  0.2516 -0.6532 -0.0005
 6211SOL    HW130092   1.544   2.224   8.489 -1.2316 -1.1458  0.5729
 6211SOL    HW230093   1.635   2.149   8.401 -0.8077  2.4026 -0.4530
 6212SOL     OW30094   1.097   2.527   8.346 -0.1877  0.1447  0.0648
 6212SOL    HW130095   1.119   2.578   8.267 -0.4217 -2.2377 -1.5252
 6212SOL    HW230096   1.181   2.494   8.380  0.6719  1.2327 -0.9923
 6213SOL     OW30097   0.284   0.775   6.070 -0.2044  0.3605 -0.3194
 6213SOL    HW130098   0.367   0.809   6.103  1.2200 -1.6661 -1.8418
 6213SOL    HW230099   0.264   0.701   6.127 -0.7906  0.4627 -0.3867
 6214SOL     OW30100   2.451   2.418   6.581  0.1446 -0.5151  0.1488
 6214SOL    HW130101   2.524   2.397   6.641 -0.6755 -0.2981  1.2248
 6214SOL    HW230102   2.376   2.381   6.627 -0.1928 -0.3000 -0.2388
 6215SOL     OW30103   4.662   1.012   3.757 -0.3801 -0.7568  1.0253
 6215SOL    HW130104   0.033   0.991   3.757 -0.2955 -0.3754  2.4981
 6215SOL    HW230105   4.656   1.044   3.847 -4.3857  1.5843 -0.0675
 6216SOL     OW30106   2.171   4.533   4.379 -0.4926  0.0471 -0.3366
 6216SOL    HW130107   2.132   4.456   4.421 -0.8928 -1.6089 -3.7822
 6216SOL    HW230108   2.260   4.498   4.375 -0.4520  0.4577 -3.0655
 6217SOL     OW30109   0.835   4.248  11.251  0.2381 -0.1979  0.3607
 6217SOL    HW130110   0.747   4.281  11.234  0.1216 -0.8656 -0.3295
 6217SOL    HW230111   0.843   4.175  11.190 -0.9035  1.7179 -2.0845
 6218SOL     OW30112   4.096   3.570   6.327  0.1120  0.0885  0.1577
 6218SOL    HW130113   4.111   3.664   6.318 -3.4301  0.6313 -0.0629
 6218SOL    HW230114   4.072   3.552   6.236  1.6330 -1.0498 -0.0196
 6219SOL     OW30115   2.761   2.331   4.701  0.4413  0.2265 -0.0195
 6219SOL    HW130116   2.837   2.304   4.650 -0.7544 -1.4187 -0.9614
 6219SOL    HW230117   2.801   2.401   4.753 -1.7171  1.1246  0.4703
 6220SOL     OW30118   0.257   2.737   8.062 -0.1512 -0.3273 -0.8528
 6220SOL    HW130119   0.222   2.663   8.012 -0.3105  0.0578 -1.3026
 6220SOL    HW230120   0.306   2.685   8.126  2.8115  2.7057 -0.6620
 6221SOL     OW30121   4.355   0.563   5.363  0.7513  0.6741  0.2989
 6221SOL    HW130122   4.446   0.551   5.336 -0.2323 -2.5629 -1.6436
 6221SOL    HW230123   4.313   0.498   5.306 -0.7591  2.1567 -0.2964
 6222SOL     OW30124   3.551   0.895   3.370  0.2836  0.1114  0.2388
 6222SOL    HW130125   3.594   0.855   3.295 -1.3104  1.8839 -1.5887
 6222SOL    HW230126   3.603   0.854   3.440 -1.4048 -0.9259  0.8844
 6223SOL     OW30127   1.742   3.155  10.469  0.1369  0.4862  0.4419
 6223SOL    HW130128   1.769   3.238  10.429 -1.6685 -0.4850 -2.8004
 6223SOL    HW230129   1.649   3.175  10.478  0.1239  0.9333 -0.6706
 6224SOL     OW30130   3.799   1.442   5.285  0.2342 -0.6077  0.4688
 6224SOL    HW130131   3.709   1.451   5.317 -0.0156  0.3871 -0.5460
 6224SOL    HW230132   3.812   1.530   5.252 -2.5337  0.3876  2.0072
 6225SOL     OW30133   0.990   1.383  12.498 -0.2938  0.3699 -0.1331
 6225SOL    HW130134   0.928   1.428  12.555 -0.3170  0.8378 -0.5339
 6225SOL    HW230135   1.027   1.311  12.549 -2.0835 -2.2130 -2.4322
 6226SOL     OW30136   2.218   0.681   5.743 -0.1836 -0.0124  0.4956
 6226SOL    HW130137   2.285   0.730   5.791  0.1674  1.0682 -1.1129
 6226SOL    HW230138   2.174   0.763   5.722  1.1556  0.7595  0.7003
 6227SOL     OW30139   2.251   2.259   8.770  0.0407  0.1913  0.2526
 6227SOL    HW130140   2.237   2.311   8.691 -1.1627  2.4914  1.9948
 6227SOL    HW230141   2.344   2.283   8.775 -0.3173  1.3073  1.4828
 6228SOL     OW30142   0.131   0.287   7.788  0.8162 -0.2972  0.0355
 6228SOL    HW130143   0.156   0.325   7.872 -0.0814  1.8391 -0.6567
 6228SOL    HW230144   0.173   0.355   7.734 -1.3463  0.8326 -0.2105
 6229SOL     OW30145   0.163   4.191   0.380  0.2025 -0.3128 -0.0362
 6229SOL    HW130146   0.207   4.159   0.459 -0.3936 -0.8907  0.0618
 6229SOL    HW230147   0.097   4.254   0.408  0.6744 -0.1355  0.6710
 6230SOL     OW30148   2.461   2.101   5.673 -0.1938 -0.0161 -0.2546
 6230SOL    HW130149   2.390   2.037   5.670 -0.2002 -0.0459  0.6559
 6230SOL    HW230150   2.532   2.055   5.629  0.4800  1.8664 -1.1294
 6231SOL     OW30151   0.383   0.520  10.710 -0.5590 -0.0403 -0.0391
 6231SOL    HW130152   0.449   0.501  10.777  1.0085  1.6982 -1.0686
 6231SOL    HW230153   0.440   0.546  10.637  0.8754 -0.3650  0.9616
 6232SOL     OW30154   0.557   2.993   2.614  0.4073 -0.3885  0.0296
 6232SOL    HW130155   0.471   2.994   2.657  1.5566  0.7502  2.3076
 6232SOL    HW230156   0.538   3.014   2.523  2.4629  0.5748 -0.1771
 6233SOL     OW30157   3.308   0.603   5.401  0.1044  0.1470  0.2046
 6233SOL    HW130158   3.385   0.659   5.401  0.2884 -0.1191  1.3436
 6233SOL    HW230159   3.312   0.568   5.311  0.2258 -0.1578  0.3275
 6234SOL     OW30160   0.028   3.271   8.381 -0.3974 -0.3742 -0.0342
 6234SOL    HW130161   4.705   3.350   8.410  1.4255  0.9312 -0.7135
 6234SOL    HW230162   0.094   3.252   8.448  1.4322  1.3292 -1.3649
 6235SOL     OW30163   0.959   0.208   5.144 -0.5232 -0.4466  0.5588
 6235SOL    HW130164   0.897   0.280   5.155 -2.1327 -1.4470 -1.8149
 6235SOL    HW230165   0.918   0.158   5.073 -0.8981  2.3892 -1.2153
 6236SOL     OW30166   1.156   0.089  17.081 -0.1188  0.6415  0.2550
 6236SOL    HW130167   1.246   0.076  17.052 -0.1690 -0.2907  0.5013
 6236SOL    HW230168   1.162   0.065  17.174  0.4696  2.0667  0.5923
 6237SOL     OW30169   4.412   0.673  12.191 -0.6632  0.1442  0.1837
 6237SOL    HW130170   4.470   0.597  12.182  0.4340  0.8945  0.9525
 6237SOL    HW230171   4.363   0.668  12.109 -1.1345  2.4881  0.3495
 6238SOL     OW30172   3.870   1.033   3.270 -0.4130  0.6506  0.7490
 6238SOL    HW130173   3.912   1.076   3.196  0.8599  0.7805  1.5531
 6238SOL    HW230174   3.936   0.968   3.293 -1.0363 -0.7193 -1.3930
 6239SOL     OW30175   4.066   1.621  11.596  0.6717 -0.1710  0.1392
 6239SOL    HW130176   4.064   1.686  11.667 -0.7989 -0.4128  0.3227
 6239SOL    HW230177   4.112   1.678  11.535 -2.0133  0.8514 -0.9107
 6240SOL     OW30178   1.708   1.743   7.129 -0.1805  0.0308 -0.0912
 6240SOL    HW130179   1.776   1.722   7.193  0.9717  0.1427 -1.2857
 6240SOL    HW230180   1.633   1.707   7.175  0.2773  1.5738  1.8503
 6241SOL     OW30181   3.948   2.739   9.501  0.1523 -0.0318  0.6829
 6241SOL    HW130182   3.961   2.822   9.547 -1.9625 -0.1666  1.5561
 6241SOL    HW230183   3.949   2.777   9.414 -1.5219 -0.3299  0.5209
 6242SOL     OW30184   2.976   2.290   6.140  0.3922  0.0733  0.0353
 6242SOL    HW130185   2.948   2.330   6.058  0.8701 -0.8745 -0.5801
 6242SOL    HW230186   3.055   2.241   6.120 -0.8888 -2.0642  0.2051
 6243SOL     OW30187   2.586   1.673   3.819 -0.2048 -0.3155  0.0457
 6243SOL    HW130188   2.541   1.700   3.899 -2.6971 -0.4889 -1.2838
 6243SOL    HW230189   2.677   1.679   3.847  0.3654  0.0085 -1.8594
 6244SOL     OW30190   2.265   1.746   5.863  0.3653  0.2525  0.3110
 6244SOL    HW130191   2.200   1.686   5.899  1.3786 -1.0663 -0.0650
 6244SOL    HW230192   2.281   1.705   5.778  0.7256 -0.0618  0.5256
 6245SOL     OW30193   2.596   3.494   7.398  0.5545 -0.2909  0.0895
 6245SOL    HW130194   2.520   3.456   7.442  1.1673 -1.8675 -0.2405
 6245SOL    HW230195   2.554   3.514   7.314 -0.4740  0.5982  0.8169
 6246SOL     OW30196   0.987   1.376   7.261  0.0590 -0.3938 -0.4480
 6246SOL    HW130197   1.054   1.335   7.206  1.3567  1.3715 -0.1927
 6246SOL    HW230198   0.905   1.362   7.214  0.4900 -1.3004 -0.9153
 6247SOL     OW30199   4.470   4.522  14.504  0.3347  0.8614 -0.7432
 6247SOL    HW130200   4.514   4.600  14.538  3.5897 -1.6461  0.8428
 6247SOL    HW230201   4.438   4.550  14.418  0.7456  0.2109 -1.1037
 6248SOL     OW30202   3.615   3.438   4.930 -0.0841 -0.2414 -0.3803
 6248SOL    HW130203   3.611   3.343   4.926 -1.9291 -0.2503  1.7733
 6248SOL    HW230204   3.707   3.465   4.921 -0.2326  1.2123  2.2597
 6249SOL     OW30205   3.788   0.082  13.437 -0.0137  0.2271  0.3070
 6249SOL    HW130206   3.715   0.095  13.498  0.8195  2.1420  0.8771
 6249SOL    HW230207   3.812   4.715  13.457 -2.4194 -0.6717 -0.7553
 6250SOL     OW30208   0.808   1.057  12.032  0.0931 -0.2017  0.2555
 6250SOL    HW130209   0.800   1.110  12.111  1.1229 -0.3492  0.4563
 6250SOL    HW230210   0.841   0.977  12.073 -1.8516 -1.7278 -1.1719
 6251SOL     OW30211   4.624   2.241   3.893 -0.0957  0.5084  0.1782
 6251SOL    HW130212   4.554   2.255   3.830  0.7485  2.1448 -0.4009
 6251SOL    HW230213   4.579   2.247   3.978  0.2460 -1.5092  0.4946
 6252SOL     OW30214   2.576   1.680   4.291  0.4957 -0.4544 -0.4621
 6252SOL    HW130215   2.666   1.693   4.260  0.5747 -1.8202 -0.7928
 6252SOL    HW230216   2.569   1.727   4.374  1.4839 -1.4121  0.1597
 6253SOL     OW30217   1.305   1.212   0.297 -0.2882 -0.3035  0.0123
 6253SOL    HW130218   1.309   1.243   0.388 -1.1507 -2.3385  0.7504
 6253SOL    HW230219   1.339   1.287   0.248  1.0141 -1.3083 -0.5903
 6254SOL     OW30220   2.514   0.987   8.074  0.2774  0.2833 -0.7570
 6254SOL    HW130221   2.488   0.931   8.001 -0.8180 -2.3475  1.6269
 6254SOL    HW230222   2.486   0.949   8.158 -0.3560  0.7905 -0.7442
 6255SOL     OW30223   2.252   4.680  10.634 -0.7552 -0.2269 -0.0098
 6255SOL    HW130224   2.284   4.657  10.547 -0.0610 -0.4321  0.2910
 6255SOL    HW230225   2.262   0.052  10.634  1.9417 -0.5105 -0.4745
 6256SOL     OW30226   1.442   3.474   3.098  0.4576  0.0327  0.2848
 6256SOL    HW130227   1.357   3.519   3.102 -0.5339 -1.7894 -0.3831
 6256SOL    HW230228   1.500   3.549   3.087 -0.6598  1.4590  4.2066
 6257SOL     OW30229   1.446   1.379   8.776 -0.1335 -0.0328  0.0850
 6257SOL    HW130230   1.364   1.414   8.741 -0.2660  1.1087  1.5455
 6257SOL    HW230231   1.403   1.338   8.851  1.1406 -0.4258  0.5871
 6258SOL     OW30232   4.088   2.518   7.135 -0.8507  0.1445  0.0537
 6258SOL    HW130233   4.104   2.473   7.052 -2.9614 -0.2982 -0.1099
 6258SOL    HW230234   4.054   2.449   7.191 -1.8995  1.5847  1.2080
 6259SOL     OW30235   0.470   1.543   7.621 -0.0957 -0.3368 -0.7790
 6259SOL    HW130236   0.535   1.516   7.686 -3.6884 -0.7958  2.5631
 6259SOL    HW230237   0.458   1.630   7.659 -0.8984 -1.4647  1.5261
 6260SOL     OW30238   0.209   0.717   3.929  0.4708 -0.6441 -0.5335
 6260SOL    HW130239   0.198   0.801   3.884  0.4553 -1.2490 -1.6574
 6260SOL    HW230240   0.206   0.665   3.848 -1.8847 -0.1117 -0.7750
 6261SOL     OW30241   4.091   3.723  11.809 -0.4030  0.4205 -0.0972
 6261SOL    HW130242   4.144   3.644  11.805  0.8058  1.1112  2.0514
 6261SOL    HW230243   4.154   3.795  11.799  1.2615 -1.1040 -0.6186
 6262SOL     OW30244   3.940   1.255   3.654  0.1325 -0.1003  0.4731
 6262SOL    HW130245   4.008   1.242   3.720  1.5804  1.7692 -0.6466
 6262SOL    HW230246   3.906   1.168   3.635  1.0666 -0.8342  2.1687
 6263SOL     OW30247   2.124   0.945   5.394 -0.6173  0.0697  0.2599
 6263SOL    HW130248   2.062   0.930   5.466 -1.6639 -2.6858 -1.2166
 6263SOL    HW230249   2.209   0.962   5.435 -0.3112 -2.0399  0.5153
 6264SOL     OW30250   4.223   3.681   5.128  0.5637 -0.2444  0.3086
 6264SOL    HW130251   4.136   3.653   5.157  1.0069 -0.4817  1.4005
 6264SOL    HW230252   4.199   3.703   5.038 -3.3078 -3.0436  0.6895
 6265SOL     OW30253   1.957   4.034   8.973 -0.3635  0.4837  0.0876
 6265SOL    HW130254   1.955   3.940   8.955 -1.0964  0.3040  1.1337
 6265SOL    HW230255   1.864   4.055   8.978 -0.1799  1.3646 -0.2102
 6266SOL     OW30256   3.808   2.046  12.249  0.1832  0.1428 -0.0365
 6266SOL    HW130257   3.815   2.123  12.193  1.3627 -0.4669 -0.7352
 6266SOL    HW230258   3.863   2.073  12.322 -0.8811 -1.3764  1.3220
 6267SOL     OW30259   1.954   0.840   2.706 -0.1645  0.0014  0.2238
 6267SOL    HW130260   2.025   0.898   2.678  0.8871 -0.5727  1.7078
 6267SOL    HW230261   1.891   0.849   2.634 -1.3109  1.3818  1.4063
 6268SOL     OW30262   0.760   1.322   8.768 -0.4747  0.3682 -0.2516
 6268SOL    HW130263   0.694   1.295   8.832 -2.0594  1.4950 -1.4298
 6268SOL    HW230264   0.752   1.245   8.712 -1.3527  1.3156 -1.4205
 6269SOL     OW30265   2.204   1.991   0.352 -0.8405  0.2882 -0.4014
 6269SOL    HW130266   2.297   2.014   0.352 -0.9199  0.6073 -0.5231
 6269SOL    HW230267   2.194   1.969   0.259 -0.8371 -1.5810  0.0423
 6270SOL     OW30268   2.942   3.834   1.444  0.1598 -0.0246 -0.1468
 6270SOL    HW130269   2.899   3.753   1.473 -1.1595  0.3976 -0.9303
 6270SOL    HW230270   3.033   3.812   1.467  0.0211 -0.4364  0.0033
 6271SOL     OW30271   3.957   4.366   4.603  0.2615 -0.5705  0.4624
 6271SOL    HW130272   3.874   4.324   4.580  0.1142  0.6140 -1.1620
 6271SOL    HW230273   3.979   4.386   4.512  1.6612 -1.6702  0.5693
 6272SOL     OW30274   3.721   0.953   2.643  0.1779  0.0975 -0.0881
 6272SOL    HW130275   3.701   0.969   2.551 -0.7335 -1.0000 -0.0835
 6272SOL    HW230276   3.769   0.870   2.644  0.7539  0.4214 -1.0439
 6273SOL     OW30277   3.502   0.948   6.584 -0.1038  0.3895 -0.6268
 6273SOL    HW130278   3.527   1.024   6.636 -0.0774  0.4345 -0.7052
 6273SOL    HW230279   3.579   0.942   6.527  0.4778 -1.0757  0.3053
 6274SOL     OW30280   2.228   3.007   8.512 -0.0245  0.0426 -0.1122
 6274SOL    HW130281   2.284   2.969   8.444  0.4985 -0.0350  0.3666
 6274SOL    HW230282   2.282   3.075   8.552  1.6769 -1.6396  0.4532
 6275SOL     OW30283   0.515   3.519   8.972 -0.4216 -0.1680  0.2019
 6275SOL    HW130284   0.552   3.579   9.036  1.0503 -1.1002  0.2262
 6275SOL    HW230285   0.581   3.520   8.904  0.4448 -0.3224  1.0469
 6276SOL     OW30286   2.663   2.394   2.772  0.6584  0.3226 -0.1093
 6276SOL    HW130287   2.668   2.303   2.802 -1.4927  0.2440 -0.0143
 6276SOL    HW230288   2.690   2.437   2.853 -2.3390  2.4709 -0.2829
 6277SOL     OW30289   0.954   4.702  14.658 -0.0122 -0.8138 -0.2454
 6277SOL    HW130290   0.994   4.643  14.722  1.8314  0.7597  0.0335
 6277SOL    HW230291   0.874   4.651  14.641  0.9985 -2.4905 -0.0015
 6278SOL     OW30292   1.154   0.459  16.327 -0.6143 -0.2354  0.6242
 6278SOL    HW130293   1.067   0.422  16.341 -0.9409 -0.4501 -2.1233
 6278SOL    HW230294   1.185   0.476  16.416 -2.4682 -1.8338  1.5841
 6279SOL     OW30295   2.363   3.134  17.342 -0.4180  0.0557 -0.0619
 6279SOL    HW130296   2.448   3.138  17.385 -0.2350  2.2303 -0.6574
 6279SOL    HW230297   2.300   3.123  17.414  0.9908 -1.3207  0.9650
 6280SOL     OW30298   0.231   1.606   2.975 -0.1187  0.1766 -0.2176
 6280SOL    HW130299   0.317   1.575   2.945 -0.0514 -0.1399  0.3025
 6280SOL    HW230300   0.178   1.602   2.895  0.1902  2.1595 -0.5180
 6281SOL     OW30301   2.440   4.386   1.276 -0.0903  0.8930  0.4422
 6281SOL    HW130302   2.431   4.399   1.182  0.8933 -0.3008  0.1790
 6281SOL    HW230303   2.459   4.294   1.296 -0.3403  0.8666  0.5664
 6282SOL     OW30304   4.650   0.854   2.045 -0.2853  0.0713 -0.3866
 6282SOL    HW130305   4.566   0.893   2.069 -0.6622 -0.7810 -0.3190
 6282SOL    HW230306   4.623   0.762   2.043  1.5147 -0.4847  0.5014
 6283SOL     OW30307   0.876   0.419   9.740 -0.0510  0.1851 -0.7377
 6283SOL    HW130308   0.867   0.513   9.726  1.5389  0.5329  0.5424
 6283SOL    HW230309   0.788   0.382   9.751  0.4593 -1.4720 -2.1010
 6284SOL     OW30310   4.622   2.662   8.320 -0.3245  0.6746 -0.2212
 6284SOL    HW130311   4.548   2.698   8.271 -0.1236  2.1654  0.5840
 6284SOL    HW230312   4.575   2.597   8.372 -1.0506  2.2381  1.0952
 6285SOL     OW30313   3.235   0.353   5.453  0.0374  0.0689  0.3068
 6285SOL    HW130314   3.289   0.358   5.532  1.7256 -2.4506 -0.7151
 6285SOL    HW230315   3.253   0.443   5.426  1.8990 -0.6630 -0.8981
 6286SOL     OW30316   0.110   1.413  17.647 -0.3091 -0.0620 -0.1524
 6286SOL    HW130317   0.157   1.408  17.564 -1.6513 -1.9540 -0.8058
 6286SOL    HW230318   0.020   1.419  17.617 -0.7266  0.8188  1.2704
 6287SOL     OW30319   3.746   1.974   8.753 -0.5974  0.6226  0.2949
 6287SOL    HW130320   3.734   2.014   8.839 -0.1634  1.7927 -0.1909
 6287SOL    HW230321   3.793   2.048   8.715  0.9676 -0.6873 -0.2994
 6288SOL     OW30322   2.147   0.627   0.902 -0.3122  0.0559 -0.4017
 6288SOL    HW130323   2.172   0.554   0.958  0.7228  1.6413  1.2308
 6288SOL    HW230324   2.090   0.669   0.966 -1.3366 -0.3412 -1.0571
 6289SOL     OW30325   0.235   1.659  11.834 -0.4404 -0.4159  0.3066
 6289SOL    HW130326   0.198   1.697  11.913  2.0505  1.9816  0.3409
 6289SOL    HW230327   0.314   1.621  11.871  0.6091 -0.6334 -2.1389
 6290SOL     OW30328   1.734   3.876   7.377 -1.1642 -0.3271  0.1694
 6290SOL    HW130329   1.794   3.865   7.451  0.3825 -0.2301 -1.0584
 6290SOL    HW230330   1.658   3.878   7.435 -0.7470  1.0265  0.6525
 6291SOL     OW30331   2.192   0.611   2.598  0.7562 -0.0028  0.9280
 6291SOL    HW130332   2.159   0.643   2.514  3.1176  2.2813  0.8530
 6291SOL    HW230333   2.219   0.696   2.634  0.3096  0.8644 -0.7489
 6292SOL     OW30334   3.921   1.743   4.331  0.3140 -0.5252 -0.2127
 6292SOL    HW130335   3.924   1.655   4.369  1.8179 -0.8112 -0.9755
 6292SOL    HW230336   4.016   1.757   4.333  0.0390  1.4805 -1.0335
 6293SOL     OW30337   0.199   3.873  10.638  0.2296 -0.0179 -0.0080
 6293SOL    HW130338   0.271   3.820  10.604 -1.6081 -2.4582 -0.0610
 6293SOL    HW230339   0.164   3.909  10.557 -0.5992  1.5172  1.0256
 6294SOL     OW30340   0.390   2.142   3.111 -0.1991 -0.6731 -0.2658
 6294SOL    HW130341   0.391   2.225   3.065 -1.6119 -1.2177 -1.2830
 6294SOL    HW230342   0.392   2.082   3.036  0.8513 -3.8726  2.2834
 6295SOL     OW30343   1.764   4.721   4.154  0.3819 -0.1018  0.2812
 6295SOL    HW130344   1.860   4.721   4.158  0.3021 -1.1337  2.2288
 6295SOL    HW230345   1.754   0.011   4.060  1.5612  0.4433  0.2178
 6296SOL     OW30346   4.457   1.250  10.100 -0.6670 -0.0049  0.0151
 6296SOL    HW130347   4.363   1.264  10.115 -1.1798 -1.9186 -1.4734
 6296SOL    HW230348   4.474   1.344  10.102 -1.2692  0.1196 -0.8245
 6297SOL     OW30349   0.220   2.178  12.071  0.1760  0.1590  0.1583
 6297SOL    HW130350   0.283   2.163  12.141  1.3599 -0.4966 -1.0573
 6297SOL    HW230351   0.207   2.084  12.057 -2.7273  0.7313 -0.9810
 6298SOL     OW30352   4.146   0.612  10.589 -0.2071  0.3216 -0.5289
 6298SOL    HW130353   4.172   0.538  10.643  0.1658  0.4460 -0.5341
 6298SOL    HW230354   4.077   0.650  10.644  0.3315  1.6902 -0.7954
 6299SOL     OW30355   1.908   1.725  15.654  0.2772  0.1036 -0.0579
 6299SOL    HW130356   1.954   1.788  15.708  0.5275  1.8374 -2.3096
 6299SOL    HW230357   1.914   1.771  15.570 -1.8283 -2.5305 -1.6836
 6300SOL     OW30358   4.072   3.803   7.327 -0.2226 -0.3373  0.1562
 6300SOL    HW130359   4.157   3.809   7.283 -1.1978 -0.1722 -1.6888
 6300SOL    HW230360   4.020   3.748   7.268 -1.6695 -0.1893  1.3040
 6301SOL     OW30361   1.376   3.686   8.471  0.5296  0.0209  0.3713
 6301SOL    HW130362   1.342   3.692   8.381  1.3128 -1.3940 -0.0337
 6301SOL    HW230363   1.468   3.711   8.458  0.2364  1.7292  1.7330
 6302SOL     OW30364   1.916   2.481  14.053  0.0295 -0.2586 -0.9546
 6302SOL    HW130365   1.938   2.396  14.092  1.4566  0.7877  0.5171
 6302SOL    HW230366   2.001   2.522  14.037  0.2724  0.7218  2.7194
 6303SOL     OW30367   3.739   4.565  17.265  0.1995 -0.0894 -0.3587
 6303SOL    HW130368   3.704   4.493  17.316  0.3571  2.1972  2.9873
 6303SOL    HW230369   3.768   4.517  17.187  0.4339  1.8160 -1.4574
 6304SOL     OW30370   3.527   1.229   8.506 -0.1404 -0.8684 -0.4973
 6304SOL    HW130371   3.551   1.174   8.432  0.3705 -0.2253 -0.8144
 6304SOL    HW230372   3.435   1.204   8.508 -0.8342  1.7030 -0.4756
 6305SOL     OW30373   3.168   4.030  13.222  0.0659 -0.2587  0.4645
 6305SOL    HW130374   3.089   4.022  13.170  0.0858  0.0288  0.3892
 6305SOL    HW230375   3.185   3.941  13.253  0.8073  0.0714  1.0211
 6306SOL     OW30376   1.843   3.003  12.607 -0.0943  0.3146 -0.7561
 6306SOL    HW130377   1.777   3.064  12.639 -2.1173 -1.8312 -0.8309
 6306SOL    HW230378   1.784   2.933  12.579  0.2558 -1.2690  2.5089
 6307SOL     OW30379   1.897   0.989   5.112  0.1933 -0.2642  0.4308
 6307SOL    HW130380   1.923   1.019   5.024 -0.5079 -0.4800  0.1500
 6307SOL    HW230381   1.920   0.896   5.115  0.1357 -0.3102 -0.4424
 6308SOL     OW30382   1.251   2.212   5.905 -0.5077  0.3191  0.2319
 6308SOL    HW130383   1.276   2.216   5.997  0.8175 -0.1245 -0.1267
 6308SOL    HW230384   1.157   2.230   5.919 -1.3822 -3.8446 -0.4374
 6309SOL     OW30385   0.087   1.725   9.474 -0.2616 -0.3424  0.1216
 6309SOL    HW130386   0.107   1.802   9.528  0.9001 -0.8535  0.4134
 6309SOL    HW230387   0.104   1.665   9.547 -1.0478 -2.0735 -1.1213
 6310SOL     OW30388   0.158   4.266   4.201  0.6258  0.1067 -0.0511
 6310SOL    HW130389   0.103   4.190   4.221  1.3997 -0.3188  0.4777
 6310SOL    HW230390   0.188   4.296   4.286  0.0985 -1.2131  0.6131
 6311SOL     OW30391   3.776   3.042   6.732 -0.3945  0.1701  0.2310
 6311SOL    HW130392   3.842   2.974   6.742  0.7904  1.1674 -0.8432
 6311SOL    HW230393   3.707   3.021   6.795 -0.0854  2.5680  1.3919
 6312SOL     OW30394   0.366   4.663   3.135  0.1369  0.1391 -0.1731
 6312SOL    HW130395   0.337   4.698   3.219  1.2778  0.2305  0.1937
 6312SOL    HW230396   0.287   4.673   3.083  1.0269 -2.2483 -1.9566
 6313SOL     OW30397   3.855   2.676  16.358  0.0220 -0.6438  0.0115
 6313SOL    HW130398   3.780   2.659  16.302  0.5350 -0.8517 -0.6165
 6313SOL    HW230399   3.831   2.624  16.434 -1.9860  0.7332  0.3120
 6314SOL     OW30400   4.607   0.446   1.780 -0.3105  0.1842 -0.1819
 6314SOL    HW130401   4.530   0.396   1.808  0.6580 -0.6137  1.0222
 6314SOL    HW230402   4.668   0.380   1.747 -1.1662 -0.0212 -1.3548
 6315SOL     OW30403   3.823   2.130   6.237 -1.0270 -0.3170  0.7395
 6315SOL    HW130404   3.849   2.135   6.145 -0.2239 -0.6470  0.9444
 6315SOL    HW230405   3.878   2.195   6.281 -0.4838 -2.0810  2.6919
 6316SOL     OW30406   3.753   3.502   5.740 -0.1402  0.2090  0.0834
 6316SOL    HW130407   3.684   3.529   5.680  0.6097  1.0488 -0.4000
 6316SOL    HW230408   3.788   3.589   5.762 -2.2134  1.2253 -0.5969
 6317SOL     OW30409   0.751   2.973   6.956 -0.0290  0.1907 -0.2702
 6317SOL    HW130410   0.838   3.013   6.955  1.3751 -2.8639  0.4111
 6317SOL    HW230411   0.784   2.886   6.931  1.1719  0.8631 -1.0349
 6318SOL     OW30412   4.296   0.901   7.652 -0.6034 -0.2349  0.1130
 6318SOL    HW130413   4.270   0.855   7.732 -0.3240  0.9261  0.8775
 6318SOL    HW230414   4.212   0.940   7.626 -0.0622  1.0270  0.2367
 6319SOL     OW30415   2.408   2.959   8.271 -0.1359  0.3941  0.7151
 6319SOL    HW130416   2.363   3.039   8.243  1.6265  0.4772 -1.8706
 6319SOL    HW230417   2.430   2.918   8.188 -1.3947 -0.7908  0.9727
 6320SOL     OW30418   1.464   0.659   8.572 -0.4719  0.4213 -0.0880
 6320SOL    HW130419   1.405   0.596   8.531  1.1977 -2.8345  2.4718
 6320SOL    HW230420   1.526   0.599   8.614  1.5197  0.3454 -3.1213
 6321SOL     OW30421   2.876   1.919   4.486 -0.0927 -0.1556 -0.0954
 6321SOL    HW130422   2.951   1.871   4.521  0.0771 -0.4404 -0.8483
 6321SOL    HW230423   2.922   1.990   4.442  3.5357 -2.1080  0.5428
 6322SOL     OW30424   3.275   1.592   1.297  0.1968  0.5906  0.6825
 6322SOL    HW130425   3.346   1.565   1.238  0.9428  1.8688  1.0030
 6322SOL    HW230426   3.293   1.533   1.370 -0.9039  1.9299  2.0070
 6323SOL     OW30427   3.085   2.051   2.670  0.5356  0.0105  0.0015
 6323SOL    HW130428   3.156   1.986   2.668  0.4182 -0.2566  3.7039
 6323SOL    HW230429   3.122   2.128   2.714  0.6162 -0.7969  1.3488
 6324SOL     OW30430   0.580   1.192  13.382  0.3448 -0.0435 -0.4355
 6324SOL    HW130431   0.543   1.104  13.378 -1.5709  0.7893 -1.0778
 6324SOL    HW230432   0.622   1.190  13.468 -3.3502  0.9561  1.3824
 6325SOL     OW30433   0.755   3.734   6.304 -0.6116 -0.0551  0.0093
 6325SOL    HW130434   0.697   3.707   6.376  0.1808  3.0706  1.8150
 6325SOL    HW230435   0.824   3.781   6.351  2.4506 -2.8287 -1.7630
 6326SOL     OW30436   2.230   3.549   8.573 -0.6444 -0.2389  0.1170
 6326SOL    HW130437   2.158   3.500   8.612  0.5207 -2.7844 -0.9329
 6326SOL    HW230438   2.186   3.631   8.547  0.1653  0.1161 -0.1475
 6327SOL     OW30439   3.495   1.056  13.581 -0.2063 -0.2279 -0.6595
 6327SOL    HW130440   3.537   1.064  13.667 -0.8021 -0.6588 -0.3349
 6327SOL    HW230441   3.403   1.049  13.605 -0.1536 -1.7926 -0.9262
 6328SOL     OW30442   0.537   3.351   1.966 -0.5258 -0.7843  0.5374
 6328SOL    HW130443   0.631   3.362   1.954 -0.3768 -0.8617  1.6675
 6328SOL    HW230444   0.531   3.353   2.061 -2.3915  3.2998  0.3362
 6329SOL     OW30445   0.828   3.617   9.555  0.3032  0.0742 -0.3475
 6329SOL    HW130446   0.903   3.601   9.613  0.5632 -0.2082 -0.7566
 6329SOL    HW230447   0.779   3.666   9.621  0.3408  0.3746 -0.5409
 6330SOL     OW30448   1.964   3.980   0.194  0.3983 -0.6283  0.3508
 6330SOL    HW130449   1.982   4.074   0.196 -0.8145 -0.3841 -0.5099
 6330SOL    HW230450   1.923   3.967   0.280  1.4874 -2.6873  0.5463
 6331SOL     OW30451   0.611   4.223   0.364  0.0026 -0.0785 -0.0536
 6331SOL    HW130452   0.561   4.150   0.401  2.0903 -0.4626  1.9470
 6331SOL    HW230453   0.613   4.273   0.445  2.3824  1.9026 -1.3447
 6332SOL     OW30454   2.274   3.671   2.759  0.5939  0.4378 -0.1285
 6332SOL    HW130455   2.257   3.738   2.693  1.2027  1.1198  0.4018
 6332SOL    HW230456   2.365   3.646   2.744  1.6952  1.9139  4.2024
 6333SOL     OW30457   2.672   2.359   3.452  0.2518 -0.1633 -0.0085
 6333SOL    HW130458   2.696   2.434   3.396 -1.8966 -0.7143 -1.6893
 6333SOL    HW230459   2.604   2.398   3.507  1.8054  2.3926  0.1407
 6334SOL     OW30460   2.555   0.478   2.108 -0.8894  0.4994 -0.1936
 6334SOL    HW130461   2.462   0.468   2.127 -0.1007 -1.0571  2.8675
 6334SOL    HW230462   2.564   0.390   2.072  2.4491  0.9683 -0.4581
 6335SOL     OW30463   3.896   2.838  15.002  0.1055  0.1043  0.1342
 6335SOL    HW130464   3.827   2.899  14.976 -0.4934 -0.3240  0.7175
 6335SOL    HW230465   3.910   2.865  15.093 -0.4781 -1.8659  0.8041
 6336SOL     OW30466   0.716   2.064   3.089  0.3360 -0.2405 -0.0208
 6336SOL    HW130467   0.690   2.078   2.998  1.0685 -0.1561 -0.2130
 6336SOL    HW230468   0.692   1.972   3.093  0.5902 -0.3376 -0.9458
 6337SOL     OW30469   1.960   0.611  15.208 -0.2400 -0.4210 -0.1313
 6337SOL    HW130470   1.932   0.623  15.117 -0.2270  0.3945 -0.0292
 6337SOL    HW230471   2.026   0.680  15.206  0.2429 -0.8328  2.3417
 6338SOL     OW30472   0.249   2.865  11.012  0.2910 -1.0076 -0.1593
 6338SOL    HW130473   0.192   2.942  11.014  0.1977 -0.9896 -3.5425
 6338SOL    HW230474   0.192   2.795  11.043  0.9533 -0.8442  1.4050
 6339SOL     OW30475   4.080   2.670  10.199 -0.5860 -0.0387 -0.9725
 6339SOL    HW130476   4.074   2.593  10.255 -0.8301  1.8012  1.5802
 6339SOL    HW230477   4.169   2.656  10.167  0.1004 -0.3296  1.0179
 6340SOL     OW30478   2.242   2.202   1.764  0.3997 -0.5695 -0.0608
 6340SOL    HW130479   2.159   2.155   1.774  0.2225 -0.2746 -0.1345
 6340SOL    HW230480   2.291   2.159   1.834  2.0122 -0.2138 -0.9970
 6341SOL     OW30481   4.362   1.556   9.590 -0.6471 -0.6705 -0.4444
 6341SOL    HW130482   4.413   1.624   9.546 -1.9259 -0.6244 -1.8867
 6341SOL    HW230483   4.284   1.565   9.534 -2.2885  1.7042  2.2207
 6342SOL     OW30484   4.603   4.351   0.987 -0.0724 -0.2353 -0.2798
 6342SOL    HW130485   4.645   4.431   0.956 -2.6212  0.3477 -2.1933
 6342SOL    HW230486   4.522   4.379   1.029  0.2483  0.9088 -0.4099
 6343SOL     OW30487   0.641   0.630  17.215 -0.5778  0.6252 -0.2385
 6343SOL    HW130488   0.689   0.554  17.181  1.2874  1.8377 -0.3447
 6343SOL    HW230489   0.700   0.659  17.285 -0.4183  2.8829 -1.3376
 6344SOL     OW30490   1.393   3.606  15.510  0.4105  0.1286 -0.0508
 6344SOL    HW130491   1.452   3.618  15.435  1.6327 -0.2342  0.8638
 6344SOL    HW230492   1.359   3.519  15.489 -0.7413  0.9689 -1.7558
 6345SOL     OW30493   2.976   4.442   2.095 -0.1651  0.2868 -0.3309
 6345SOL    HW130494   3.066   4.452   2.127 -0.4981 -2.5814  1.5859
 6345SOL    HW230495   2.990   4.418   2.004  0.3271  1.6445 -0.6115
 6346SOL     OW30496   1.809   3.936   0.411  0.5574 -0.0869 -0.1810
 6346SOL    HW130497   1.781   3.957   0.500  1.1039 -0.2435  0.0292
 6346SOL    HW230498   1.727   3.960   0.366 -0.0396 -0.5443  0.6699
 6347SOL     OW30499   2.843   1.494   5.417 -0.3358  0.1572  0.4906
 6347SOL    HW130500   2.770   1.494   5.356 -0.1805 -0.2008  0.3030
 6347SOL    HW230501   2.841   1.584   5.448  0.4470  0.1580  0.5572
 6348SOL     OW30502   0.296   2.812   3.857 -0.5496 -0.5552  0.3419
 6348SOL    HW130503   0.301   2.723   3.821  0.1480 -0.5223  0.3589
 6348SOL    HW230504   0.211   2.839   3.822  0.4093 -1.0526 -2.4131
 6349SOL     OW30505   3.817   2.562  15.327 -0.3799 -0.8525 -0.3600
 6349SOL    HW130506   3.884   2.548  15.259  0.8837 -0.2269  0.7417
 6349SOL    HW230507   3.736   2.524  15.293 -0.5667 -0.5997 -0.1939
 6350SOL     OW30508   3.464   0.056   1.608  0.5399 -0.5361  0.2626
 6350SOL    HW130509   3.439   0.059   1.700  1.5225  0.7968  0.4846
 6350SOL    HW230510   3.446   4.687   1.588 -1.0637 -0.4647  1.3422
 6351SOL     OW30511   4.195   3.798   6.690 -0.4877  0.9136  0.9177
 6351SOL    HW130512   4.289   3.816   6.698 -0.3749  1.3721 -1.6578
 6351SOL    HW230513   4.198   3.703   6.677 -1.5437  0.6863  2.4177
 6352SOL     OW30514   0.765   4.111   7.213  0.2926 -0.5805  0.3960
 6352SOL    HW130515   0.686   4.058   7.200  0.1196 -0.2770  0.2140
 6352SOL    HW230516   0.729   4.194   7.183  0.4647 -1.3236 -1.8945
 6353SOL     OW30517   1.588   2.443  11.105  0.4172  0.0022 -0.2586
 6353SOL    HW130518   1.598   2.390  11.026 -1.1914  1.0545 -1.1687
 6353SOL    HW230519   1.611   2.526  11.064 -0.8097  0.0454 -0.8387
 6354SOL     OW30520   1.612   4.186   9.535 -0.2716  0.9616 -0.3427
 6354SOL    HW130521   1.646   4.188   9.445  0.1793  2.1196 -0.1409
 6354SOL    HW230522   1.626   4.093   9.556 -1.7267  1.0057  0.8337
 6355SOL     OW30523   3.657   1.859   3.427 -0.2085 -0.1531  0.4143
 6355SOL    HW130524   3.730   1.854   3.365 -1.0859  1.9736 -0.7672
 6355SOL    HW230525   3.579   1.841   3.376  1.6276 -0.0100 -2.4082
 6356SOL     OW30526   2.109   0.397  15.964 -0.2164 -0.3845  0.4687
 6356SOL    HW130527   2.051   0.469  15.987 -0.0036 -0.4011  1.0823
 6356SOL    HW230528   2.191   0.430  16.002  1.1038 -1.3241 -1.5996
 6357SOL     OW30529   4.382   4.459   6.733 -0.1335  0.0550  0.4484
 6357SOL    HW130530   4.327   4.447   6.811 -0.4154 -0.0454  0.2338
 6357SOL    HW230531   4.467   4.456   6.777 -0.0132 -1.5658  0.1143
 6358SOL     OW30532   4.233   1.907  13.458 -0.0785 -0.4178  0.3511
 6358SOL    HW130533   4.168   1.872  13.520 -1.0317 -3.1022 -2.2005
 6358SOL    HW230534   4.261   1.834  13.404  2.5984  0.0898  1.0552
 6359SOL     OW30535   4.596   2.302  13.786 -0.3045 -0.2591 -0.1806
 6359SOL    HW130536   4.675   2.353  13.765 -1.2986  1.2722 -0.2368
 6359SOL    HW230537   4.531   2.335  13.724  0.0385  0.4139 -0.1910
 6360SOL     OW30538   2.520   2.879   8.957 -0.0886 -0.3618 -0.1432
 6360SOL    HW130539   2.585   2.818   8.992  0.3763  0.0291 -0.3369
 6360SOL    HW230540   2.550   2.885   8.867 -2.1425 -1.2974 -0.8946
 6361SOL     OW30541   4.046   0.578   8.968 -0.0866  0.0843  0.4496
 6361SOL    HW130542   4.072   0.668   8.990 -3.8698  1.6400 -1.4066
 6361SOL    HW230543   3.968   0.576   9.025 -0.4803  1.6317 -0.0119
 6362SOL     OW30544   0.072   1.771  10.665 -0.4185 -0.2579 -0.0615
 6362SOL    HW130545   0.098   1.804  10.579  1.8682 -1.6811  0.0707
 6362SOL    HW230546   0.138   1.811  10.722  0.2551 -0.4860 -0.6773
 6363SOL     OW30547   1.783   1.430   5.466 -0.7085 -0.3867 -0.2499
 6363SOL    HW130548   1.781   1.336   5.449  0.2688 -0.3878 -0.3325
 6363SOL    HW230549   1.879   1.435   5.466 -0.7031 -0.4757  0.0723
 6364SOL     OW30550   4.241   1.130   8.024  0.7060 -0.1588 -0.5746
 6364SOL    HW130551   4.153   1.139   7.989  1.1137  1.0754 -1.2717
 6364SOL    HW230552   4.238   1.035   8.039 -1.5749  0.3343  2.0897
 6365SOL     OW30553   1.537   3.151  16.885  0.0522  0.5545  0.4065
 6365SOL    HW130554   1.488   3.153  16.967 -1.3508  2.4913 -0.4933
 6365SOL    HW230555   1.623   3.178  16.917 -1.9337  5.0528  1.8801
 6366SOL     OW30556   4.477   3.825   0.082  0.5069  0.3696  0.3831
 6366SOL    HW130557   4.548   3.843   0.020  1.8695  0.8277  2.0922
 6366SOL    HW230558   4.407   3.868   0.033 -0.0952 -0.5151  0.4684
 6367SOL     OW30559   2.154   0.467  10.858 -0.7648 -0.3602  0.1048
 6367SOL    HW130560   2.091   0.451  10.928  0.8872  1.3881  2.0229
 6367SOL    HW230561   2.133   0.560  10.850 -1.9401 -0.8428 -2.5348
 6368SOL     OW30562   3.883   0.301  10.248  0.0388 -0.3613 -0.2397
 6368SOL    HW130563   3.883   0.381  10.196 -0.3976 -0.8618 -1.0044
 6368SOL    HW230564   3.975   0.310  10.274  0.1916 -1.9568 -0.2129
 6369SOL     OW30565   4.003   2.032   3.322  0.1116  0.0102  0.3606
 6369SOL    HW130566   3.962   2.104   3.274 -0.4595  0.2455  1.1987
 6369SOL    HW230567   3.962   1.954   3.287 -0.2866  1.0748 -1.5568
 6370SOL     OW30568   3.507   2.966   1.079 -0.0149 -0.1454  0.1054
 6370SOL    HW130569   3.529   2.986   1.169 -0.6512  1.1730 -0.0220
 6370SOL    HW230570   3.557   2.885   1.069  0.1716  0.0237 -0.3641
 6371SOL     OW30571   2.354   0.997   3.946 -0.6599  0.3505  0.4262
 6371SOL    HW130572   2.346   1.093   3.953  0.0764  0.3382  1.3810
 6371SOL    HW230573   2.331   0.985   4.038  1.3237 -0.4673  0.7982
 6372SOL     OW30574   2.159   2.710   6.660  0.0700  0.4698  0.4932
 6372SOL    HW130575   2.176   2.623   6.695  3.5650  0.6781 -0.7140
 6372SOL    HW230576   2.238   2.753   6.693  0.9906 -1.3623  0.6494
 6373SOL     OW30577   0.439   0.891   8.373  0.5932 -0.7467  0.1400
 6373SOL    HW130578   0.358   0.923   8.332  0.3050 -1.8241 -0.1405
 6373SOL    HW230579   0.492   0.969   8.390  1.2282 -0.7637 -1.7555
 6374SOL     OW30580   1.666   1.035   4.316 -0.4108  0.1000  0.1100
 6374SOL    HW130581   1.751   1.010   4.352 -1.2251 -3.2198 -0.2406
 6374SOL    HW230582   1.624   0.958   4.277  1.4912 -1.0246  0.2904
 6375SOL     OW30583   1.472   4.058   6.817 -0.2812  0.5701  0.0104
 6375SOL    HW130584   1.568   4.056   6.816 -0.2317  2.9126  0.1004
 6375SOL    HW230585   1.457   4.098   6.731 -0.6608 -0.3835 -0.3667
 6376SOL     OW30586   4.009   0.184   0.445  0.2063  0.7855 -0.1830
 6376SOL    HW130587   3.986   0.276   0.455  0.8377  0.8337  0.7856
 6376SOL    HW230588   4.019   0.177   0.350  0.0667 -1.2500 -0.0606
 6377SOL     OW30589   0.151   3.989   1.545  0.0131 -0.2399 -0.0003
 6377SOL    HW130590   0.124   3.958   1.459 -1.1653  0.1955  0.2148
 6377SOL    HW230591   0.247   3.991   1.539  0.0176 -0.2722  0.0536
 6378SOL     OW30592   1.046   0.941   6.682  0.5134 -0.4163 -0.1223
 6378SOL    HW130593   1.124   0.995   6.667  0.0167  0.6109  0.9530
 6378SOL    HW230594   1.006   0.982   6.759 -0.6491 -0.9976 -0.4262
 6379SOL     OW30595   0.137   3.294  13.191  0.1970 -0.2794  0.1729
 6379SOL    HW130596   0.208   3.355  13.171  1.0862 -1.5245 -0.4271
 6379SOL    HW230597   0.086   3.345  13.254 -0.1292 -0.8214  0.3380
 6380SOL     OW30598   4.187   4.038   0.667  0.2519 -0.2158 -0.2597
 6380SOL    HW130599   4.104   4.017   0.711  0.1740  1.8354  0.5703
 6380SOL    HW230600   4.198   4.134   0.669  3.2130 -0.5285 -1.8165
 6381SOL     OW30601   3.580   0.921  10.952 -0.2953 -0.0954  0.1150
 6381SOL    HW130602   3.576   0.843  10.897  1.8266  0.7385 -1.1952
 6381SOL    HW230603   3.648   0.890  11.013  0.3902  0.3990 -0.4159
 6382SOL     OW30604   1.861   3.561   5.981 -0.0275  0.3107  0.0528
 6382SOL    HW130605   1.833   3.644   6.020 -1.1285  0.3037 -0.7151
 6382SOL    HW230606   1.781   3.538   5.932 -0.5533 -0.0328  1.0818
 6383SOL     OW30607   3.928   3.552  15.057  0.2636 -0.2853 -0.5941
 6383SOL    HW130608   3.849   3.522  15.013  0.6682 -0.5122 -1.1615
 6383SOL    HW230609   3.945   3.638  15.019 -0.8929 -0.0076 -0.4646
 6384SOL     OW30610   4.549   2.961   0.902  0.0038  0.2695 -0.2613
 6384SOL    HW130611   4.505   2.876   0.895 -0.2342  0.2736  1.0818
 6384SOL    HW230612   4.509   3.005   0.827 -2.1198 -1.7157 -0.2982
 6385SOL     OW30613   1.947   2.442  17.101 -0.1222  0.0575 -0.1088
 6385SOL    HW130614   1.857   2.434  17.069 -0.3068 -0.0273  0.4316
 6385SOL    HW230615   1.977   2.521  17.056 -0.2104  0.9286  1.3541
 6386SOL     OW30616   2.726   4.230   9.148  0.2092 -0.4246  0.8140
 6386SOL    HW130617   2.688   4.302   9.097 -0.0284  1.2123  3.3110
 6386SOL    HW230618   2.797   4.216   9.084 -0.5453 -0.6662  0.0202
 6387SOL     OW30619   0.563   2.491   1.078 -0.0069  0.1366 -0.0203
 6387SOL    HW130620   0.480   2.507   1.032  0.5566  0.0403 -1.0526
 6387SOL    HW230621   0.570   2.397   1.059 -1.8884  0.3004 -1.5900
 6388SOL     OW30622   2.609   0.448   8.071  0.1151  0.8589  0.3362
 6388SOL    HW130623   2.693   0.412   8.045 -0.3016  1.6082 -2.0521
 6388SOL    HW230624   2.562   0.368   8.095 -0.5875  0.4528 -2.3498
 6389SOL     OW30625   1.644   2.366  10.840 -0.5002 -0.3747  0.0936
 6389SOL    HW130626   1.620   2.428  10.772  1.9551  0.0061 -0.4293
 6389SOL    HW230627   1.654   2.291  10.780  0.4223 -0.1242 -0.0667
 6390SOL     OW30628   4.650   2.510   2.195  0.4692 -0.3087 -0.5538
 6390SOL    HW130629   4.584   2.562   2.148 -1.1680 -3.6339 -1.9362
 6390SOL    HW230630   4.696   2.475   2.118  2.9141  0.0715  0.7456
 6391SOL     OW30631   4.190   3.836   0.974 -0.6474 -0.2987  0.5805
 6391SOL    HW130632   4.205   3.742   0.961  1.5277  0.2092 -0.5640
 6391SOL    HW230633   4.190   3.845   1.069  1.0515  0.2998  0.5268
 6392SOL     OW30634   2.100   1.917  14.201 -0.2569  0.5415  0.2348
 6392SOL    HW130635   2.161   1.955  14.138 -0.6648 -0.1700 -0.5922
 6392SOL    HW230636   2.044   1.869  14.140 -1.0627  1.6721  0.0782
 6393SOL     OW30637   4.267   2.761  14.394 -0.1783  0.7263  0.4638
 6393SOL    HW130638   4.174   2.781  14.381 -0.3538 -0.9358 -0.8235
 6393SOL    HW230639   4.282   2.801  14.480  0.0777 -1.3993  1.4042
 6394SOL     OW30640   0.820   3.840   2.747 -0.8582 -0.9086 -0.4613
 6394SOL    HW130641   0.833   3.755   2.788 -0.7581 -0.7555 -0.1711
 6394SOL    HW230642   0.801   3.893   2.825 -1.6284 -0.0821 -1.2147
 6395SOL     OW30643   0.795   1.580  12.310 -0.4345  0.1585 -0.3454
 6395SOL    HW130644   0.798   1.536  12.225  0.7088  0.4317 -0.4455
 6395SOL    HW230645   0.774   1.669  12.284  0.7118 -0.4165 -3.2047
 6396SOL     OW30646   0.608   0.935   5.262 -0.0462  0.4711  0.3414
 6396SOL    HW130647   0.580   0.908   5.175  0.8785 -0.0641  0.2054
 6396SOL    HW230648   0.555   0.884   5.323  0.2288 -0.0437  0.1528
 6397SOL     OW30649   2.061   0.839  13.327 -0.0009 -0.4490 -0.5677
 6397SOL    HW130650   2.015   0.882  13.255 -1.0690 -0.9089 -0.1647
 6397SOL    HW230651   2.146   0.882  13.319  0.7712 -2.0594 -1.0258
 6398SOL     OW30652   2.031   2.533  12.038 -0.1297  0.2541 -0.2523
 6398SOL    HW130653   2.095   2.604  12.037  1.8062 -1.4416  3.5259
 6398SOL    HW230654   1.965   2.584  12.085 -1.7984 -1.5929 -0.5675
 6399SOL     OW30655   4.013   3.032   5.651  0.0794  0.4315 -0.4865
 6399SOL    HW130656   3.951   3.105   5.656 -1.2986 -0.7420 -0.4565
 6399SOL    HW230657   3.991   2.993   5.736  1.3476  0.8191  0.0207
 6400SOL     OW30658   4.398   1.887   5.653 -0.6594 -0.0209 -0.6341
 6400SOL    HW130659   4.355   1.972   5.660 -2.0754 -0.7621 -0.2581
 6400SOL    HW230660   4.490   1.908   5.668 -1.0700  2.2476 -1.3024
 6401SOL     OW30661   1.749   1.875   4.125 -0.1800  0.2040 -0.2840
 6401SOL    HW130662   1.755   1.970   4.120  2.5664 -0.0752 -2.1809
 6401SOL    HW230663   1.661   1.851   4.095 -0.3169  0.3704 -0.0172
 6402SOL     OW30664   3.771   3.675  12.243 -0.2323  0.3277  0.3396
 6402SOL    HW130665   3.835   3.649  12.309  0.1509 -0.5793 -0.3945
 6402SOL    HW230666   3.698   3.625  12.280  0.0842  2.6564  4.1874
 6403SOL     OW30667   2.634   2.784   2.536 -0.3935 -0.0620 -0.2952
 6403SOL    HW130668   2.719   2.773   2.494 -0.3704 -0.6176 -0.1048
 6403SOL    HW230669   2.657   2.782   2.629 -3.1365  1.0812  0.4155
 6404SOL     OW30670   3.276   0.168  15.735  0.0561  0.1304  0.4690
 6404SOL    HW130671   3.287   0.253  15.692 -0.6279 -0.5841 -1.1109
 6404SOL    HW230672   3.366   0.137  15.741  0.3454  0.7450 -0.7097
 6405SOL     OW30673   0.965   3.453   2.505  0.3233 -0.1404  0.3508
 6405SOL    HW130674   1.007   3.368   2.517 -1.4383 -0.8065  1.7029
 6405SOL    HW230675   1.027   3.505   2.555 -0.3242  1.8403 -0.8676
 6406SOL     OW30676   0.502   1.248  17.472  0.1168 -0.2511  0.0845
 6406SOL    HW130677   0.507   1.174  17.533  0.4857  0.2610  0.6770
 6406SOL    HW230678   0.585   1.246  17.426  0.6205  1.6246  0.9324
 6407SOL     OW30679   0.567   4.628   3.443 -0.1211  0.2852 -0.5509
 6407SOL    HW130680   0.647   4.667   3.478  0.4115 -1.3747  0.0593
 6407SOL    HW230681   0.588   4.625   3.349 -1.1320 -1.6471 -0.7091
 6408SOL     OW30682   1.853   2.542  12.310  0.1107  0.1747  1.0992
 6408SOL    HW130683   1.787   2.594  12.265 -1.2072 -0.4427  2.2721
 6408SOL    HW230684   1.855   2.467  12.251  0.0961  0.4378  0.7698
 6409SOL     OW30685   2.853   4.084  12.301 -0.3552  0.4020 -1.0250
 6409SOL    HW130686   2.822   3.994  12.293 -0.1041  0.2642 -0.4660
 6409SOL    HW230687   2.944   4.083  12.331 -0.9438  0.6458  0.7777
 6410SOL     OW30688   1.307   1.091  14.721 -0.1613 -0.1376 -0.0321
 6410SOL    HW130689   1.304   1.008  14.770  3.8918 -0.3100 -0.1049
 6410SOL    HW230690   1.391   1.095  14.676 -0.3208 -0.6816 -0.3748
 6411SOL     OW30691   0.183   3.967   7.739  0.6187 -0.7811 -0.0312
 6411SOL    HW130692   0.248   3.914   7.694  3.9000  2.4882  0.8781
 6411SOL    HW230693   0.168   4.041   7.680 -1.9226  0.7628  2.5237
 6412SOL     OW30694   3.428   1.250   6.858  0.5028  0.5330 -0.3492
 6412SOL    HW130695   3.379   1.330   6.875 -0.9388 -0.6597  1.1089
 6412SOL    HW230696   3.443   1.253   6.763  2.1754 -1.4580 -0.1382
 6413SOL     OW30697   0.968   2.019   2.581  0.1336 -0.8528 -0.2005
 6413SOL    HW130698   0.917   2.019   2.661  0.0479  1.4826 -0.2418
 6413SOL    HW230699   0.904   1.989   2.516  0.5646 -0.7457 -0.6771
 6414SOL     OW30700   0.983   3.850   3.675  0.2369  0.3058 -0.1016
 6414SOL    HW130701   0.920   3.915   3.703  0.8200  0.5842  0.5542
 6414SOL    HW230702   0.943   3.804   3.601  0.2288  1.0306 -0.5431
 6415SOL     OW30703   2.635   4.245   2.519 -0.8764  0.1648 -0.3299
 6415SOL    HW130704   2.667   4.325   2.561 -0.6299  1.4158 -2.9024
 6415SOL    HW230705   2.692   4.240   2.442  1.2616 -0.8094  1.3128
 6416SOL     OW30706   1.604   3.813   8.472  0.3796  0.2092 -0.3832
 6416SOL    HW130707   1.671   3.849   8.413  1.9028  0.9236  1.8033
 6416SOL    HW230708   1.659   3.773   8.538  1.6601 -1.4851 -2.4707
 6417SOL     OW30709   1.998   3.862   1.955 -0.2311  0.7669 -0.6741
 6417SOL    HW130710   1.955   3.897   2.033  0.8725 -0.9481  0.7043
 6417SOL    HW230711   1.927   3.806   1.922  2.0736 -2.1865 -0.5667
 6418SOL     OW30712   2.424   1.580   6.045 -0.5501 -0.0115 -0.3006
 6418SOL    HW130713   2.494   1.596   6.109 -0.0009 -0.2427 -0.8427
 6418SOL    HW230714   2.417   1.668   6.009  0.5077  0.2119  0.0572
 6419SOL     OW30715   3.217   1.593   0.298  0.1466 -0.2046 -0.0857
 6419SOL    HW130716   3.127   1.564   0.314 -0.1100 -0.9633 -2.9927
 6419SOL    HW230717   3.218   1.672   0.353  1.8208 -0.4960  0.3000
 6420SOL     OW30718   2.783   1.884  13.739  0.0413 -0.3638 -0.4298
 6420SOL    HW130719   2.859   1.845  13.782 -0.5809  0.3611  1.3463
 6420SOL    HW230720   2.730   1.805  13.743  0.6226 -0.7661 -0.7705
 6421SOL     OW30721   1.120   0.346  11.212  0.2908 -0.3470 -0.1288
 6421SOL    HW130722   1.068   0.278  11.256 -1.1412  1.3660  0.8414
 6421SOL    HW230723   1.145   0.291  11.137  2.0349 -0.9576  0.9117
 6422SOL     OW30724   2.354   4.527   3.460 -0.3448  0.3219 -0.4030
 6422SOL    HW130725   2.354   4.590   3.533  0.7519  1.1815 -1.1522
 6422SOL    HW230726   2.439   4.547   3.423  0.1029  3.9982  2.6015
 6423SOL     OW30727   1.520   0.066   1.881 -0.4422  0.1091 -0.4918
 6423SOL    HW130728   1.606   0.041   1.850  1.4133  1.5736  3.4633
 6423SOL    HW230729   1.549   0.097   1.967 -2.7940  2.0012 -0.3440
 6424SOL     OW30730   4.206   2.144  15.712  0.7590 -0.6559  0.7521
 6424SOL    HW130731   4.253   2.061  15.705 -1.6922 -1.8883 -1.0886
 6424SOL    HW230732   4.264   2.220  15.712 -1.0833  0.7775  0.3534
 6425SOL     OW30733   4.384   0.407  17.517 -0.0313  0.7207 -0.0458
 6425SOL    HW130734   4.323   0.377  17.450  1.5458  3.3215 -2.6455
 6425SOL    HW230735   4.341   0.378  17.598 -0.2108 -0.0919 -0.4297
 6426SOL     OW30736   1.182   4.213   9.386 -0.0952 -0.4982  0.0740
 6426SOL    HW130737   1.249   4.146   9.394  1.3315  0.7601 -1.1684
 6426SOL    HW230738   1.235   4.289   9.410  1.4870 -1.2269 -1.1144
 6427SOL     OW30739   2.188   3.691   6.826  0.2407 -0.0326  0.1359
 6427SOL    HW130740   2.269   3.666   6.783  1.1961  1.2802  1.1752
 6427SOL    HW230741   2.150   3.756   6.767  1.0195  0.2466 -0.0645
 6428SOL     OW30742   1.387   1.604   0.356 -0.2404 -0.3224  0.1995
 6428SOL    HW130743   1.430   1.652   0.427  0.9228  2.1011 -2.1133
 6428SOL    HW230744   1.436   1.523   0.344 -2.9428 -2.0159  0.5664
 6429SOL     OW30745   0.193   4.305  11.469 -0.1754 -0.1740 -0.2893
 6429SOL    HW130746   0.127   4.238  11.489 -0.4408  0.7061  1.7814
 6429SOL    HW230747   0.178   4.327  11.377  0.4984 -0.8545 -0.5575
 6430SOL     OW30748   4.299   1.850   8.177  0.6470 -0.3179 -0.5619
 6430SOL    HW130749   4.236   1.869   8.247  1.7573 -0.0799  0.3678
 6430SOL    HW230750   4.293   1.755   8.189  0.5788 -0.3549 -0.8854
 6431SOL     OW30751   3.698   1.428   5.672  0.6316 -0.4474  0.3896
 6431SOL    HW130752   3.787   1.450   5.698  0.7856 -1.9969  1.2406
 6431SOL    HW230753   3.658   1.513   5.652  0.1232 -1.1271 -1.4741
 6432SOL     OW30754   4.255   3.340   4.112  0.1798 -0.2831 -0.1081
 6432SOL    HW130755   4.303   3.273   4.161 -0.0559  0.8348  1.6470
 6432SOL    HW230756   4.283   3.423   4.151 -0.3419  0.0447 -0.4336
 6433SOL     OW30757   0.920   0.508   7.673  0.0489 -0.3180 -0.2911
 6433SOL    HW130758   0.926   0.564   7.749  0.4212 -1.9176  0.8662
 6433SOL    HW230759   1.008   0.470   7.680  0.0594 -0.6531 -2.1407
 6434SOL     OW30760   2.135   3.393  17.588 -0.4758  0.8504 -0.4680
 6434SOL    HW130761   2.078   3.449  17.640 -0.1567  1.6683 -0.9957
 6434SOL    HW230762   2.188   3.340  17.648 -0.9070  0.7473 -0.1841
 6435SOL     OW30763   4.332   0.647   9.747  0.4882 -0.4231 -0.2763
 6435SOL    HW130764   4.262   0.685   9.800 -0.4594 -1.5954 -0.6880
 6435SOL    HW230765   4.382   0.587   9.802  1.1772 -0.4360 -0.9082
 6436SOL     OW30766   1.701   4.374  15.090 -0.0381  0.8348 -0.2210
 6436SOL    HW130767   1.722   4.423  15.010 -1.6925  0.6933 -0.7533
 6436SOL    HW230768   1.610   4.395  15.110 -0.2277 -1.1473  0.9842
 6437SOL     OW30769   3.492   3.363   4.198  0.4439  0.2413  0.5218
 6437SOL    HW130770   3.402   3.376   4.168  0.2573 -0.3085  0.8351
 6437SOL    HW230771   3.535   3.434   4.151  2.1057 -1.0671  0.0713
 6438SOL     OW30772   3.244   2.706   4.359  0.0478 -0.1878 -0.3646
 6438SOL    HW130773   3.175   2.736   4.299 -0.8884  0.4870  1.0580
 6438SOL    HW230774   3.277   2.631   4.310 -0.6504 -0.8873  0.2435
 6439SOL     OW30775   2.251   1.043   4.812  0.1519  0.6763  0.2537
 6439SOL    HW130776   2.326   1.010   4.861 -0.0428  0.7706  0.6180
 6439SOL    HW230777   2.281   1.056   4.722 -0.7567 -0.2945 -0.1860
 6440SOL     OW30778   1.710   2.493   4.317 -0.4421 -0.1419 -0.4706
 6440SOL    HW130779   1.781   2.449   4.271 -0.5346  0.1488 -0.8930
 6440SOL    HW230780   1.643   2.501   4.250 -1.2557  0.7685  0.4533
 6441SOL     OW30781   2.349   4.569  14.568 -0.2294  1.2686 -0.5004
 6441SOL    HW130782   2.255   4.569  14.548 -0.6140 -0.4355  1.3562
 6441SOL    HW230783   2.381   4.604  14.485  0.9915  1.0919 -0.1009
 6442SOL     OW30784   0.881   4.460   4.706 -0.3948  0.0091  0.2067
 6442SOL    HW130785   0.919   4.493   4.624  0.8914  2.4265  1.7793
 6442SOL    HW230786   0.955   4.477   4.764 -0.0516 -2.8783  0.6306
 6443SOL     OW30787   1.429   0.960   3.744  0.6222 -0.3147 -0.5958
 6443SOL    HW130788   1.392   0.953   3.656 -2.1321 -0.4055  0.5601
 6443SOL    HW230789   1.521   0.941   3.731  0.0958 -2.0414 -1.7658
 6444SOL     OW30790   1.847   4.349  13.886  0.4838 -0.0324 -0.2439
 6444SOL    HW130791   1.758   4.313  13.887  0.3185  0.3210 -1.4752
 6444SOL    HW230792   1.888   4.283  13.831 -2.5918  1.6918 -4.6391
 6445SOL     OW30793   2.155   2.358   5.381  0.1964 -0.0009 -0.0617
 6445SOL    HW130794   2.133   2.376   5.472 -2.5597  0.7907 -0.9031
 6445SOL    HW230795   2.251   2.366   5.374  0.6703 -1.8180  4.0939
 6446SOL     OW30796   1.759   4.705  11.816 -0.2433 -0.3118  0.2589
 6446SOL    HW130797   1.683   0.039  11.829  0.7007  0.9119  0.3935
 6446SOL    HW230798   1.725   4.636  11.758  0.4298 -1.1442  0.8666
 6447SOL     OW30799   2.206   2.735  12.504  0.1232 -0.0736 -0.7721
 6447SOL    HW130800   2.111   2.721  12.508  0.1408 -0.1957 -0.8155
 6447SOL    HW230801   2.217   2.815  12.452  2.5471  1.7234  2.4952
 6448SOL     OW30802   4.182   4.071   1.584  0.0290  0.1653  1.0518
 6448SOL    HW130803   4.148   4.053   1.496 -0.5855  1.4949  1.0192
 6448SOL    HW230804   4.226   3.989   1.605 -1.4155 -0.3436  2.0889
 6449SOL     OW30805   1.541   1.420  13.112 -0.2969  0.7173 -0.0245
 6449SOL    HW130806   1.500   1.505  13.095 -1.0501  0.1035 -1.2400
 6449SOL    HW230807   1.490   1.352  13.069 -0.7967  1.6275 -0.8698
 6450SOL     OW30808   0.259   2.517  17.286  0.7657 -0.5210  0.1574
 6450SOL    HW130809   0.286   2.457  17.356 -0.8594  0.4452  1.6166
 6450SOL    HW230810   0.164   2.504  17.282  0.6627 -0.4414  2.1500
 6451SOL     OW30811   0.539   2.175   1.114 -0.5407  0.2777  0.1952
 6451SOL    HW130812   0.575   2.093   1.147  0.8029  0.2049 -1.4790
 6451SOL    HW230813   0.596   2.188   1.038  1.0742  1.6885  1.6192
 6452SOL     OW30814   4.062   3.482   3.480 -0.3832  0.2066  1.0957
 6452SOL    HW130815   4.148   3.460   3.446 -0.9110 -0.3451  0.1106
 6452SOL    HW230816   4.016   3.458   3.400  1.8367  1.0469 -0.4148
 6453SOL     OW30817   0.433   4.572   4.204 -0.4777  0.0861 -0.3976
 6453SOL    HW130818   0.392   4.603   4.123 -0.7071 -1.9541 -1.0755
 6453SOL    HW230819   0.492   4.643   4.226  1.0503 -0.7348 -1.9148
 6454SOL     OW30820   1.661   3.414   6.265 -0.0004 -0.3150 -0.6456
 6454SOL    HW130821   1.633   3.347   6.328  0.2180  0.1011 -0.1010
 6454SOL    HW230822   1.615   3.490   6.300  0.1186 -0.3701 -0.3683
 6455SOL     OW30823   3.347   3.936   8.753  0.7994  0.1788  0.3210
 6455SOL    HW130824   3.425   3.882   8.763  0.6877  0.2046  1.3257
 6455SOL    HW230825   3.393   4.020   8.749  1.2828 -0.1000  0.0913
 6456SOL     OW30826   4.425   0.286  12.082  0.7282 -0.3471 -0.7238
 6456SOL    HW130827   4.447   0.321  11.996  0.0215  0.7170 -0.4592
 6456SOL    HW230828   4.453   0.358  12.139  3.7561 -0.9454 -1.4571
 6457SOL     OW30829   1.725   4.015  15.619 -0.4746  0.0871  0.7671
 6457SOL    HW130830   1.794   4.082  15.622 -0.4393  0.1799 -1.6686
 6457SOL    HW230831   1.712   3.989  15.710 -0.7932 -1.3162  0.3111
 6458SOL     OW30832   4.559   2.654   3.078 -0.0720 -1.0351 -0.0579
 6458SOL    HW130833   4.516   2.689   3.000  1.0208  1.7715  0.6020
 6458SOL    HW230834   4.625   2.722   3.088  0.3515 -1.5031  0.3494
 6459SOL     OW30835   0.559   1.653   5.273 -0.2594  0.4440  0.0148
 6459SOL    HW130836   0.651   1.680   5.275 -0.0712 -0.1000 -2.1596
 6459SOL    HW230837   0.563   1.583   5.208  1.5884  0.4033  0.1822
 6460SOL     OW30838   4.691   0.630   6.922  0.0893  0.5909  0.3794
 6460SOL    HW130839   4.601   0.638   6.891  0.1674 -2.4210 -0.6379
 6460SOL    HW230840   0.010   0.618   6.837 -3.2795  0.5020 -1.2739
 6461SOL     OW30841   0.087   4.043  10.380  0.2729  0.4162  0.5769
 6461SOL    HW130842   0.143   4.091  10.441  2.2944 -0.7243 -0.3628
 6461SOL    HW230843   0.156   4.013  10.321 -1.4886 -2.9882  0.2712
 6462SOL     OW30844   3.194   2.978   5.578  0.4970  0.9609 -0.0420
 6462SOL    HW130845   3.166   2.903   5.630  0.4222  1.2614  0.3492
 6462SOL    HW230846   3.232   3.025   5.652  2.0226 -1.1795  0.5336
 6463SOL     OW30847   1.617   0.435  16.243 -0.6129  0.4536  0.1106
 6463SOL    HW130848   1.646   0.366  16.184  2.2831  0.6124  1.3421
 6463SOL    HW230849   1.533   0.396  16.265 -0.1625 -1.2340 -1.2057
 6464SOL     OW30850   0.651   2.946   9.463  0.1571  0.0251  0.0349
 6464SOL    HW130851   0.605   3.007   9.405  2.6102 -0.1805 -2.1659
 6464SOL    HW230852   0.621   2.972   9.550  0.1592 -0.2356  0.1137
 6465SOL     OW30853   0.077   4.340  16.940 -0.5550  0.7901  0.3908
 6465SOL    HW130854   0.045   4.295  17.019  0.1131 -0.8492 -0.2683
 6465SOL    HW230855   0.147   4.283  16.910 -1.5573 -1.2489  1.9044
 6466SOL     OW30856   1.458   0.748  16.829  0.2634 -0.0562  0.0642
 6466SOL    HW130857   1.443   0.760  16.923 -0.5658  2.3172 -0.3919
 6466SOL    HW230858   1.537   0.799  16.809 -1.9604  2.9307 -1.0033
 6467SOL     OW30859   4.127   0.944   4.939  0.1936  0.0240  0.2664
 6467SOL    HW130860   4.046   0.914   4.897 -0.3541 -2.5909  3.1443
 6467SOL    HW230861   4.163   0.988   4.862 -1.4337  0.3148 -0.3470
 6468SOL     OW30862   0.656   1.556   8.781 -0.1642 -0.4146  0.3925
 6468SOL    HW130863   0.709   1.621   8.735  0.6765 -0.7449  0.8929
 6468SOL    HW230864   0.701   1.474   8.760  1.3819  0.5572 -0.1106
 6469SOL     OW30865   2.093   3.410   8.803 -0.3263 -0.6618  0.1324
 6469SOL    HW130866   2.137   3.355   8.867  0.3883 -1.4085 -0.9909
 6469SOL    HW230867   2.001   3.397   8.824  0.1808 -2.3244  1.2614
 6470SOL     OW30868   3.645   1.836   6.080 -0.1040  0.1894 -0.0678
 6470SOL    HW130869   3.640   1.750   6.038 -0.6211  0.3367 -0.3123
 6470SOL    HW230870   3.703   1.827   6.155 -1.3155 -0.5310  0.7656
 6471SOL     OW30871   0.801   4.353   1.725  0.0354  0.2463 -0.0697
 6471SOL    HW130872   0.817   4.422   1.790  0.7583  0.1659 -0.1680
 6471SOL    HW230873   0.859   4.371   1.651 -1.4170 -1.4170 -1.6111
 6472SOL     OW30874   0.844   4.299  17.631  0.2985  0.6043 -0.4335
 6472SOL    HW130875   0.815   4.285   0.027  1.6286 -0.5781 -0.1958
 6472SOL    HW230876   0.760   4.330  17.596 -0.7399 -0.9459  0.7390
 6473SOL     OW30877   0.114   0.455   9.766  0.0728 -0.3956 -0.2871
 6473SOL    HW130878   0.069   0.512   9.829 -1.3947 -0.6303 -1.1328
 6473SOL    HW230879   0.134   0.523   9.701  0.6427  1.5464  1.8940
 6474SOL     OW30880   1.100   1.287   3.820 -0.2247 -0.1960  0.3255
 6474SOL    HW130881   1.116   1.319   3.732 -0.2259 -0.0266  0.3871
 6474SOL    HW230882   1.142   1.359   3.866 -0.4320 -1.0025  1.7860
 6475SOL     OW30883   3.493   3.584   4.394 -0.1964  0.3348  0.2035
 6475SOL    HW130884   3.475   3.496   4.426 -0.4879  0.1625 -0.4572
 6475SOL    HW230885   3.588   3.592   4.393 -0.1126 -0.3017  2.3003
 6476SOL     OW30886   3.144   2.515   6.427  0.1428  0.6385  0.3364
 6476SOL    HW130887   3.072   2.471   6.473  2.7746  0.5073  4.3595
 6476SOL    HW230888   3.138   2.599   6.473 -1.0148  0.3186  0.7631
 6477SOL     OW30889   3.775   2.796  11.630 -0.0589 -0.0645  0.2990
 6477SOL    HW130890   3.701   2.844  11.666 -0.6183 -0.8320  0.1763
 6477SOL    HW230891   3.751   2.779  11.539  0.6874 -1.4936  0.3666
 6478SOL     OW30892   0.268   1.780   5.961  0.7260  0.0837 -0.3755
 6478SOL    HW130893   0.345   1.792   5.906  0.0084  2.3596 -0.8825
 6478SOL    HW230894   0.199   1.782   5.895 -0.4183 -1.6250  0.7663
 6479SOL     OW30895   0.644   0.619   0.354  0.3166 -0.2317 -0.0068
 6479SOL    HW130896   0.700   0.672   0.411  1.0212  0.0040 -0.9137
 6479SOL    HW230897   0.578   0.593   0.418  0.7769 -0.6482  0.2948
 6480SOL     OW30898   3.848   2.274   3.671  0.0618 -0.1781 -0.1730
 6480SOL    HW130899   3.916   2.222   3.629  1.5862  2.4042 -0.8635
 6480SOL    HW230900   3.871   2.256   3.763  1.8818  1.3335 -0.3389
 6481SOL     OW30901   3.664   2.859   8.429 -0.1690 -0.1487  0.1401
 6481SOL    HW130902   3.594   2.910   8.469 -0.8363 -0.7587 -0.2513
 6481SOL    HW230903   3.738   2.919   8.441 -1.5078  1.5321 -0.1431
 6482SOL     OW30904   2.528   2.569   9.300 -0.2336 -0.3163  0.3744
 6482SOL    HW130905   2.507   2.563   9.206 -3.1741  1.3984  0.9279
 6482SOL    HW230906   2.526   2.475   9.317  1.8512 -0.3973  0.2284
 6483SOL     OW30907   0.394   1.313   5.134 -0.1159 -0.1200  0.1442
 6483SOL    HW130908   0.462   1.280   5.192 -0.0188 -1.5294 -0.7794
 6483SOL    HW230909   0.318   1.313   5.193 -0.2729 -1.4217 -0.0519
 6484SOL     OW30910   2.061   1.799   0.714 -0.7346  0.2219  0.5503
 6484SOL    HW130911   1.995   1.731   0.700 -0.0686 -0.4819  0.8336
 6484SOL    HW230912   2.139   1.754   0.681 -1.2927 -0.0105 -0.4410
 6485SOL     OW30913   1.179   3.916   5.113 -0.0484 -0.2786 -0.2318
 6485SOL    HW130914   1.109   3.886   5.055 -0.0316 -3.4355  1.3635
 6485SOL    HW230915   1.242   3.844   5.113  1.0772  0.7061  0.3319
 6486SOL     OW30916   3.238   3.426   6.730  0.6768  0.5064 -0.2328
 6486SOL    HW130917   3.167   3.378   6.774  2.0205  0.3157  1.7316
 6486SOL    HW230918   3.248   3.385   6.644 -0.6979 -2.0984  0.8452
 6487SOL     OW30919   1.251   4.273  14.459 -0.0515  0.5005 -0.1342
 6487SOL    HW130920   1.317   4.218  14.416  0.3253 -1.6680  3.1492
 6487SOL    HW230921   1.308   4.347  14.482  0.9118  0.0339 -1.0183
 6488SOL     OW30922   4.499   0.443   7.833 -0.2534 -0.2064  0.2349
 6488SOL    HW130923   4.538   0.502   7.768  1.2801 -1.1341  0.2995
 6488SOL    HW230924   4.422   0.482   7.873 -0.2458  1.0425 -1.0003
 6489SOL     OW30925   0.390   1.234   7.444  0.2715  0.7848 -0.4850
 6489SOL    HW130926   0.484   1.240   7.457  0.4488  0.8327 -1.7888
 6489SOL    HW230927   0.383   1.149   7.400  1.9634  0.1388  0.5138
 6490SOL     OW30928   4.017   2.224   1.775  0.5479  0.2582 -0.0255
 6490SOL    HW130929   3.963   2.196   1.702  1.4926 -1.8824  0.1087
 6490SOL    HW230930   4.021   2.150   1.836  1.8308 -0.4736 -1.0005
 6491SOL     OW30931   4.457   3.854   6.574 -0.2359  0.2720  0.1382
 6491SOL    HW130932   4.441   3.873   6.482 -0.1759 -2.7867 -0.4981
 6491SOL    HW230933   4.546   3.820   6.585 -0.9079 -1.6195 -0.1651
 6492SOL     OW30934   0.915   0.428  15.342  0.0528  0.7211  0.1095
 6492SOL    HW130935   0.986   0.475  15.386  0.8546 -1.2261  0.8683
 6492SOL    HW230936   0.876   0.386  15.419  2.4531  0.6760  1.3104
 6493SOL     OW30937   1.458   0.074  10.758 -0.1961 -0.0216  0.1329
 6493SOL    HW130938   1.518   0.025  10.814  0.9092 -1.9592 -2.7077
 6493SOL    HW230939   1.499   0.160  10.761 -0.2111 -0.0611  1.4388
 6494SOL     OW30940   4.215   1.588  17.577  0.1943 -0.0752 -0.3061
 6494SOL    HW130941   4.267   1.655  17.533  1.5580 -0.6960  0.3546
 6494SOL    HW230942   4.142   1.642  17.608  0.7581  2.0624 -2.7594
 6495SOL     OW30943   1.466   1.781   2.397  0.3080 -0.1671  0.1369
 6495SOL    HW130944   1.406   1.852   2.373 -0.5220 -1.7119 -2.3464
 6495SOL    HW230945   1.462   1.725   2.320  0.5371  0.7156 -0.5076
 6496SOL     OW30946   0.158   3.198   9.036  0.3298 -0.0604  0.3132
 6496SOL    HW130947   0.083   3.195   9.096  0.4331  0.2514  0.4585
 6496SOL    HW230948   0.160   3.109   9.000  0.0931  0.3156 -0.6112
 6497SOL     OW30949   2.798   1.553   3.254  0.4896  0.1868  0.0334
 6497SOL    HW130950   2.864   1.610   3.214  0.3090  0.0918 -0.4002
 6497SOL    HW230951   2.749   1.536   3.173 -0.2372  1.0540  0.2905
 6498SOL     OW30952   1.100   1.224   1.959  0.1907 -0.1654  0.4130
 6498SOL    HW130953   1.086   1.313   1.992 -0.6768 -0.5249  1.0103
 6498SOL    HW230954   1.174   1.194   2.012  0.6439 -0.6507 -0.5079
 6499SOL     OW30955   2.025   2.638  12.904 -0.0430  0.3224 -0.2616
 6499SOL    HW130956   1.981   2.704  12.958  0.8383 -0.0472  0.9082
 6499SOL    HW230957   2.084   2.690  12.850 -1.2234  1.9074 -0.0318
 6500SOL     OW30958   0.724   1.138   4.053  0.3229 -0.7060 -0.3980
 6500SOL    HW130959   0.689   1.099   3.973 -0.9013 -0.3697 -0.0263
 6500SOL    HW230960   0.804   1.182   4.024 -0.1744  0.0078 -0.6881
 6501SOL     OW30961   2.906   1.101  12.426  0.0203  0.0026 -0.1867
 6501SOL    HW130962   2.943   1.094  12.338  1.8555  1.6629  0.4669
 6501SOL    HW230963   2.957   1.035  12.473  2.0527  1.4331 -0.3690
 6502SOL     OW30964   0.881   1.986   7.596  0.1184  0.4908  0.5153
 6502SOL    HW130965   0.872   1.978   7.500  1.9451 -0.3606  0.4254
 6502SOL    HW230966   0.958   2.039   7.611  1.4840 -1.2913 -0.1810
 6503SOL     OW30967   1.373   0.471   4.352  0.1878 -0.0972 -0.7744
 6503SOL    HW130968   1.444   0.514   4.399 -1.9260  0.9947  1.4499
 6503SOL    HW230969   1.314   0.465   4.428  0.4979  0.1709 -0.5145
 6504SOL     OW30970   1.772   4.409   2.493  0.2303  0.0410 -0.2999
 6504SOL    HW130971   1.820   4.368   2.421  0.3251 -1.4492  0.6093
 6504SOL    HW230972   1.842   4.407   2.558 -0.5635 -0.4722  0.5349
 6505SOL     OW30973   0.155   4.476   2.224 -0.7067 -0.4069  0.0709
 6505SOL    HW130974   0.166   4.510   2.135 -0.9037 -0.7919 -0.0978
 6505SOL    HW230975   0.200   4.392   2.213 -2.9663 -1.6671  0.6077
 6506SOL     OW30976   3.266   3.754  10.630 -0.2421 -0.0179  0.3116
 6506SOL    HW130977   3.314   3.829  10.595 -0.8915  0.8341  1.2488
 6506SOL    HW230978   3.199   3.736  10.564  0.5640 -1.0557 -0.2170
 6507SOL     OW30979   2.082   3.951   2.567 -0.5408  0.1536  0.0934
 6507SOL    HW130980   2.091   3.932   2.474 -1.2364  0.5998 -0.0683
 6507SOL    HW230981   2.174   3.967   2.588 -0.6997  1.0936  0.1093
 6508SOL     OW30982   3.476   2.557  13.209 -0.1728  0.1898  0.1973
 6508SOL    HW130983   3.486   2.553  13.114  0.5803  1.1003  0.2346
 6508SOL    HW230984   3.566   2.537  13.235 -0.1899 -1.3913 -0.9874
 6509SOL     OW30985   1.171   3.574   4.779  0.7884  0.0463  0.5997
 6509SOL    HW130986   1.118   3.644   4.741  1.1114 -0.5996 -1.0284
 6509SOL    HW230987   1.187   3.619   4.862 -2.4829  1.7331  0.3186
 6510SOL     OW30988   0.905   2.857   8.110  0.1500 -0.0168  0.0672
 6510SOL    HW130989   0.876   2.940   8.071  1.7584  1.0142  1.0544
 6510SOL    HW230990   0.831   2.852   8.171  1.5867 -1.2699  1.6903
 6511SOL     OW30991   3.866   2.052   2.708 -0.2720 -0.3777 -0.9252
 6511SOL    HW130992   3.789   1.996   2.698 -2.2093  1.8890  1.4650
 6511SOL    HW230993   3.912   2.020   2.631  0.3863 -1.3293 -0.1331
 6512SOL     OW30994   4.337   0.075   4.479  0.2496 -0.0418  0.1107
 6512SOL    HW130995   4.300   0.079   4.568  0.5696  0.4472  0.2235
 6512SOL    HW230996   4.387   0.156   4.478 -0.1441  0.1989 -0.0285
 6513SOL     OW30997   0.970   3.971  11.562 -0.4098 -0.4457 -0.3101
 6513SOL    HW130998   1.004   3.885  11.585  0.0210 -0.0981  0.3735
 6513SOL    HW230999   1.018   3.983  11.481  1.5066 -0.3622  0.8455
 6514SOL     OW31000   2.336   3.126   1.177  0.3650  0.2053  0.0532
 6514SOL    HW131001   2.309   3.044   1.136 -0.0652 -0.1634  1.0652
 6514SOL    HW231002   2.416   3.142   1.127 -0.8853 -1.8462 -2.6090
 6515SOL     OW31003   0.977   4.596   5.565 -0.3152  0.3336 -0.2433
 6515SOL    HW131004   1.045   4.559   5.508  1.2625  0.0209  1.8258
 6515SOL    HW231005   0.927   4.629   5.491  2.1800  1.1195 -1.5738
 6516SOL     OW31006   3.629   1.288   6.330  0.1119  0.0429 -0.3825
 6516SOL    HW131007   3.644   1.216   6.268  1.5358  0.5993 -0.6948
 6516SOL    HW231008   3.600   1.364   6.279 -2.7865 -1.3881 -0.8307
 6517SOL     OW31009   2.956   0.906   3.820 -0.2814 -0.1748  0.0507
 6517SOL    HW131010   2.934   0.999   3.817 -0.6518 -0.2394  0.6665
 6517SOL    HW231011   3.020   0.904   3.749 -1.4493 -0.7064 -0.9687
 6518SOL     OW31012   2.842   4.324   5.781 -0.5073  0.0645 -0.2554
 6518SOL    HW131013   2.770   4.274   5.741 -0.0124  0.4531 -1.6258
 6518SOL    HW231014   2.824   4.413   5.752 -2.9129 -0.6721 -1.0790
 6519SOL     OW31015   4.014   2.792   4.896  0.4798 -0.2004  0.9766
 6519SOL    HW131016   3.978   2.770   4.982  0.0713 -2.9847  0.1172
 6519SOL    HW231017   4.080   2.859   4.910 -0.3030  0.9074 -0.6426
 6520SOL     OW31018   3.323   4.101   4.111 -0.2089  0.4492 -0.0454
 6520SOL    HW131019   3.384   4.120   4.039  0.4054  1.0868  0.6463
 6520SOL    HW231020   3.243   4.077   4.064 -0.5441 -0.2810  0.8947
 6521SOL     OW31021   3.689   1.435   8.389 -0.4205 -0.7180  0.0826
 6521SOL    HW131022   3.628   1.371   8.426 -1.1743 -0.5216 -0.8130
 6521SOL    HW231023   3.657   1.513   8.434  1.4943  1.2647 -2.0350
 6522SOL     OW31024   2.549   3.223   2.241  0.6172 -0.4388  0.2904
 6522SOL    HW131025   2.453   3.227   2.234  0.6608  1.3960  0.8945
 6522SOL    HW231026   2.560   3.129   2.229 -2.4199 -0.6894 -0.6358
 6523SOL     OW31027   3.466   3.072   1.739  0.1689 -0.0784  0.2912
 6523SOL    HW131028   3.397   3.011   1.766 -0.2885 -0.4730 -1.7510
 6523SOL    HW231029   3.543   3.024   1.770  0.2605  0.7612  1.3896
 6524SOL     OW31030   4.216   3.395   9.111  0.2323  0.2885 -0.3912
 6524SOL    HW131031   4.142   3.409   9.170  0.3536 -0.0821 -0.1477
 6524SOL    HW231032   4.196   3.468   9.052 -0.1333 -0.9416 -1.8002
 6525SOL     OW31033   1.406   4.619  15.887  0.7273 -0.2089 -0.0893
 6525SOL    HW131034   1.363   4.694  15.845  0.2774 -0.2507  0.2931
 6525SOL    HW231035   1.451   4.581  15.812  2.7776  2.5125 -0.2424
 6526SOL     OW31036   0.674   0.061   2.589  0.3449 -0.3012  0.3862
 6526SOL    HW131037   0.638   0.126   2.649  1.4998  2.1483 -1.5479
 6526SOL    HW231038   0.726   0.107   2.522  0.6907  0.4476  1.1749
 6527SOL     OW31039   2.812   4.016   6.498  0.6875  0.4295 -0.3583
 6527SOL    HW131040   2.788   4.073   6.571  1.1587  0.1197  0.0340
 6527SOL    HW231041   2.907   4.022   6.502  0.7752  0.3359 -2.1224
 6528SOL     OW31042   1.003   2.587   4.488  0.1605  0.0770 -0.2228
 6528SOL    HW131043   0.950   2.513   4.518  1.8270 -1.1390 -0.3095
 6528SOL    HW231044   0.938   2.638   4.439  0.4876 -0.0216 -0.7606
 6529SOL     OW31045   1.591   3.546   2.743 -0.0013 -0.0051  0.1968
 6529SOL    HW131046   1.524   3.610   2.718 -0.2161 -0.0665  0.6229
 6529SOL    HW231047   1.583   3.556   2.838  1.7968 -1.3246  0.4883
 6530SOL     OW31048   2.273   1.004   2.064 -0.1879  0.1307  0.1859
 6530SOL    HW131049   2.233   1.071   2.008  1.2484  0.6603 -0.1996
 6530SOL    HW231050   2.208   1.011   2.134  0.6364 -0.3320  0.9915
 6531SOL     OW31051   3.842   4.305   8.161  0.2091 -0.4115 -0.4266
 6531SOL    HW131052   3.781   4.365   8.203 -1.7018 -2.0943 -0.7918
 6531SOL    HW231053   3.897   4.280   8.235 -0.4102  1.0438  0.5328
 6532SOL     OW31054   1.069   1.493  12.255 -0.2623 -0.6398  0.2805
 6532SOL    HW131055   1.037   1.455  12.337 -2.5143  1.7079  0.4948
 6532SOL    HW231056   0.992   1.528  12.211 -1.3514 -1.1238  1.8121
 6533SOL     OW31057   0.073   4.165   6.423  0.3488  0.4962 -0.6440
 6533SOL    HW131058   0.060   4.097   6.489  0.6170  1.7079  0.6658
 6533SOL    HW231059   0.058   4.242   6.479 -1.1238 -0.1126 -0.2005
 6534SOL     OW31060   3.959   0.356   5.882 -0.1612  0.3858 -0.1427
 6534SOL    HW131061   3.992   0.410   5.810 -3.1658  0.8658 -1.1472
 6534SOL    HW231062   3.869   0.343   5.854 -0.6847  2.6515  0.4804
 6535SOL     OW31063   3.002   2.188   8.994  0.1769 -0.4037 -0.1223
 6535SOL    HW131064   3.092   2.166   8.970  0.4985  1.1745 -0.3645
 6535SOL    HW231065   2.969   2.099   8.983  0.4975 -0.7391  1.6871
 6536SOL     OW31066   3.261   1.235   6.218  0.1058  0.4674 -0.9574
 6536SOL    HW131067   3.305   1.197   6.141 -1.2147 -2.9509 -0.0264
 6536SOL    HW231068   3.225   1.308   6.168 -0.1249  0.2860 -1.0567
 6537SOL     OW31069   0.145   2.257   2.878 -0.3953 -0.4300 -0.3195
 6537SOL    HW131070   0.143   2.320   2.950  1.4187 -0.8117  0.0642
 6537SOL    HW231071   0.064   2.269   2.828 -0.3570 -2.8541 -0.9705
 6538SOL     OW31072   1.273   1.074  11.388 -0.3375 -0.3352  0.2634
 6538SOL    HW131073   1.258   1.046  11.297  1.3083 -0.2179 -0.0427
 6538SOL    HW231074   1.185   1.097  11.417 -1.0981 -0.0356 -2.2628
 6539SOL     OW31075   3.516   1.479   5.310  0.3431  0.0746  0.3989
 6539SOL    HW131076   3.497   1.402   5.364 -2.8133  0.6406  0.0766
 6539SOL    HW231077   3.443   1.477   5.249  0.0613  0.8729  0.7100
 6540SOL     OW31078   0.664   3.612   5.295 -0.4934  0.3178  0.0590
 6540SOL    HW131079   0.653   3.654   5.381  3.0982 -1.2247  1.2862
 6540SOL    HW231080   0.574   3.616   5.263  0.0141 -1.3456 -1.5719
 6541SOL     OW31081   3.661   3.930   6.196  0.1108 -0.3097 -0.6325
 6541SOL    HW131082   3.634   4.022   6.198  0.2878 -0.2890  1.6241
 6541SOL    HW231083   3.602   3.898   6.265 -1.3106  1.7819 -0.8943
 6542SOL     OW31084   0.224   0.687   5.816  0.1074 -0.7776 -0.0603
 6542SOL    HW131085   0.297   0.625   5.827  0.8907  0.2603  0.6120
 6542SOL    HW231086   0.226   0.740   5.896 -0.2112  0.1682 -0.6906
 6543SOL     OW31087   1.846   4.037  17.586 -0.4053  0.1735 -0.3354
 6543SOL    HW131088   1.789   4.018  17.660  0.7210 -0.5343  0.3493
 6543SOL    HW231089   1.887   4.119  17.614 -0.6016 -0.0255  0.5464
 6544SOL     OW31090   2.818   1.830   7.897  0.1675  0.1510  0.1831
 6544SOL    HW131091   2.725   1.848   7.892  0.4003  1.0487 -0.7320
 6544SOL    HW231092   2.835   1.832   7.991  1.9711 -2.4023 -0.0869
 6545SOL     OW31093   3.175   4.312  11.576  0.2312  0.0516  0.0143
 6545SOL    HW131094   3.218   4.379  11.629 -2.8437  1.6663  0.4708
 6545SOL    HW231095   3.180   4.230  11.624  0.1461 -1.1985 -2.0896
 6546SOL     OW31096   3.995   4.381   5.443 -0.0058 -0.0215  0.1405
 6546SOL    HW131097   3.946   4.300   5.433 -0.0302 -0.1382  1.2237
 6546SOL    HW231098   3.949   4.430   5.375  0.6754  0.5141  0.0658
 6547SOL     OW31099   1.332   0.293   4.927  0.4858  0.5261 -0.5362
 6547SOL    HW131100   1.288   0.362   4.977 -0.0571  0.0433 -0.3471
 6547SOL    HW231101   1.411   0.286   4.980  0.9165  0.3903 -1.1921
 6548SOL     OW31102   1.562   4.270   0.827  0.0284 -0.5447  0.2305
 6548SOL    HW131103   1.564   4.351   0.878 -2.0980 -0.1364 -0.3709
 6548SOL    HW231104   1.650   4.277   0.791 -1.4019 -0.5300 -3.2040
 6549SOL     OW31105   4.484   2.642   4.995 -0.1657 -0.5128  0.5201
 6549SOL    HW131106   4.568   2.672   5.029  0.4646 -0.4728 -1.0569
 6549SOL    HW231107   4.424   2.702   5.040  1.1929  2.1641 -1.1718
 6550SOL     OW31108   2.289   4.111   5.423 -0.2475  0.8277  0.0028
 6550SOL    HW131109   2.279   4.044   5.490  1.1732  1.6488  1.0426
 6550SOL    HW231110   2.342   4.066   5.357  0.1086 -0.2973  1.0516
 6551SOL     OW31111   0.595   4.168   2.742  0.0652 -0.4059 -0.2590
 6551SOL    HW131112   0.577   4.220   2.664  0.4506 -1.1078 -0.8148
 6551SOL    HW231113   0.685   4.194   2.758 -0.2398 -0.7147  2.0002
 6552SOL     OW31114   2.568   4.251  10.812  0.3354 -0.0834 -0.1600
 6552SOL    HW131115   2.532   4.213  10.732 -2.4771 -0.8859  1.4615
 6552SOL    HW231116   2.639   4.187  10.820 -1.3753 -1.9457  0.1349
 6553SOL     OW31117   2.212   1.993   5.862 -0.0040 -0.2998  0.3357
 6553SOL    HW131118   2.218   1.897   5.865  1.0107 -0.3557 -2.9415
 6553SOL    HW231119   2.135   2.012   5.808  0.0291 -0.3577  0.2686
 6554SOL     OW31120   0.100   0.532   0.073  0.6481 -0.1584  0.2099
 6554SOL    HW131121   0.170   0.584   0.113 -0.9710  1.1326  1.3214
 6554SOL    HW231122   0.118   0.540  17.673  1.7899  0.3358  0.4644
 6555SOL     OW31123   3.557   0.720   7.475 -0.9269  0.3278 -0.0393
 6555SOL    HW131124   3.479   0.730   7.529  0.8296  0.6499  2.4519
 6555SOL    HW231125   3.567   0.625   7.477  0.4762  0.4882  0.5470
 6556SOL     OW31126   1.871   4.220  10.730 -0.2493 -0.7830 -0.5527
 6556SOL    HW131127   1.857   4.226  10.825 -0.5331  2.2592 -0.7654
 6556SOL    HW231128   1.966   4.214  10.727 -0.1868 -0.0822  0.0204
 6557SOL     OW31129   1.395   4.029   9.329 -0.7262  0.4769  0.4671
 6557SOL    HW131130   1.489   4.020   9.346 -0.4795  0.8294 -0.6605
 6557SOL    HW231131   1.370   3.938   9.341 -1.2991  0.4759 -0.7079
 6558SOL     OW31132   4.074   4.318   7.367 -0.8035 -0.0254 -0.1487
 6558SOL    HW131133   4.114   4.232   7.382 -1.3259 -0.6235 -2.1549
 6558SOL    HW231134   4.144   4.369   7.407 -0.4335 -0.8246  0.2264
 6559SOL     OW31135   1.370   4.400   9.387 -0.0502  0.8436 -0.2013
 6559SOL    HW131136   1.359   4.465   9.318  2.2933 -0.3049 -1.6730
 6559SOL    HW231137   1.447   4.357   9.351 -0.1826 -0.9817  1.6588
 6560SOL     OW31138   0.984   3.099   7.583  0.4503  0.7711 -0.3534
 6560SOL    HW131139   0.984   3.098   7.679  1.2200  1.3039 -0.3535
 6560SOL    HW231140   0.904   3.047   7.571  1.0894 -0.1735 -0.4668
 6561SOL     OW31141   0.267   4.130  13.930 -0.3383 -0.0024  0.0401
 6561SOL    HW131142   0.256   4.154  13.838 -1.6999  1.8906  0.6865
 6561SOL    HW231143   0.354   4.095  13.945  0.4591  1.5531 -1.0090
 6562SOL     OW31144   4.014   3.522  10.855  0.5885 -0.6118 -0.4789
 6562SOL    HW131145   3.932   3.495  10.813 -0.3701 -1.0091  1.6970
 6562SOL    HW231146   4.076   3.457  10.823  4.0914  1.1750  2.7593
 6563SOL     OW31147   0.955   1.606   8.592 -0.3735  0.0144  0.3797
 6563SOL    HW131148   0.893   1.678   8.607 -1.7611 -1.0701 -0.1899
 6563SOL    HW231149   1.029   1.652   8.552  0.1723  1.0346  2.5395
 6564SOL     OW31150   1.345   0.760   7.494  0.1798 -0.1373  0.2197
 6564SOL    HW131151   1.439   0.777   7.500  0.0822  0.0990  1.1118
 6564SOL    HW231152   1.306   0.800   7.572 -2.5746  2.8336 -2.7196
 6565SOL     OW31153   0.891   1.386   3.592 -0.3356 -0.6737 -0.3418
 6565SOL    HW131154   0.820   1.450   3.587 -0.7479 -1.2882 -2.1446
 6565SOL    HW231155   0.964   1.433   3.550  0.1382 -1.1190 -0.0191
 6566SOL     OW31156   3.928   2.164   6.840 -0.2384 -0.0590 -0.2632
 6566SOL    HW131157   3.923   2.239   6.780  0.0895 -1.6589 -2.3196
 6566SOL    HW231158   3.888   2.188   6.923 -2.2431 -0.3470 -1.1434
 6567SOL     OW31159   2.987   0.217   5.441  0.5200 -0.1893 -0.2324
 6567SOL    HW131160   2.967   0.225   5.534 -0.1592 -0.5484 -0.3488
 6567SOL    HW231161   3.075   0.254   5.445 -0.5885  2.3057  1.1688
 6568SOL     OW31162   2.765   0.326   5.187 -0.5064  0.4068 -0.3808
 6568SOL    HW131163   2.698   0.304   5.252  0.9540 -2.2189  0.2401
 6568SOL    HW231164   2.822   0.249   5.196  0.8707  1.6715  1.6420
 6569SOL     OW31165   1.221   2.227   3.921 -0.0559 -0.1088 -0.0131
 6569SOL    HW131166   1.270   2.309   3.934  0.9113 -0.6650 -0.1346
 6569SOL    HW231167   1.281   2.185   3.860 -0.2055  0.1445 -0.3339
 6570SOL     OW31168   1.470   2.761   8.276  0.6434  0.1602 -0.3154
 6570SOL    HW131169   1.439   2.830   8.218 -1.8848 -0.3527  0.4289
 6570SOL    HW231170   1.425   2.687   8.235 -0.3760  0.2897  0.5819
 6571SOL     OW31171   3.937   2.194   0.445  0.4969  0.1738 -0.1488
 6571SOL    HW131172   3.898   2.261   0.501 -2.0592 -0.3000 -1.3336
 6571SOL    HW231173   4.005   2.249   0.406 -0.6363  1.7664  0.0968
 6572SOL     OW31174   4.301   2.962   1.385 -0.1283 -0.2386 -0.4665
 6572SOL    HW131175   4.220   2.948   1.335 -1.2526  2.9983  0.4502
 6572SOL    HW231176   4.365   2.981   1.317 -0.5011 -0.4708 -0.8848
 6573SOL     OW31177   1.789   3.709  13.183  0.0852  0.0136  0.1225
 6573SOL    HW131178   1.710   3.663  13.154 -0.3374  1.3391 -0.7805
 6573SOL    HW231179   1.822   3.745  13.101  1.8025  0.4498  0.9976
 6574SOL     OW31180   0.427   2.761   8.670  0.1192  0.4589  0.4102
 6574SOL    HW131181   0.414   2.669   8.692 -1.1070  1.3236  3.2638
 6574SOL    HW231182   0.440   2.790   8.760 -1.0402  0.5361  0.5543
 6575SOL     OW31183   1.640   2.984   3.102 -0.1141 -0.0250  0.7944
 6575SOL    HW131184   1.662   3.064   3.151 -1.4630  0.6928  0.2391
 6575SOL    HW231185   1.731   2.962   3.083 -0.2418 -0.1341  0.3101
 6576SOL     OW31186   0.685   0.567  15.221 -0.0042  0.2839 -0.1181
 6576SOL    HW131187   0.741   0.641  15.200 -0.7648  0.6390 -0.8850
 6576SOL    HW231188   0.739   0.535  15.294  0.1153  1.1099  0.1512
 6577SOL     OW31189   3.780   4.240   3.987  0.5573  0.0758 -0.3681
 6577SOL    HW131190   3.814   4.307   4.045  0.1473  1.3917 -1.6358
 6577SOL    HW231191   3.706   4.291   3.955 -1.3360 -2.0580  0.6660
 6578SOL     OW31192   4.577   2.583   1.362  0.5649  0.2541  0.9524
 6578SOL    HW131193   4.502   2.538   1.323  1.1564  0.1066 -0.0191
 6578SOL    HW231194   4.522   2.645   1.410 -2.7408  0.2702 -2.8466
 6579SOL     OW31195   2.735   2.309   7.787  0.0871 -0.0602 -0.2512
 6579SOL    HW131196   2.773   2.278   7.704  0.1931  1.0504 -0.6236
 6579SOL    HW231197   2.725   2.401   7.764 -0.2208  0.0363  0.2900
 6580SOL     OW31198   3.346   1.426  11.006 -0.2711  0.1369  0.3545
 6580SOL    HW131199   3.354   1.512  10.965 -1.0327  0.6797  1.3312
 6580SOL    HW231200   3.415   1.366  10.978 -1.7522 -2.5516  2.4398
 6581SOL     OW31201   3.361   2.128   5.809  0.3810 -0.2767 -0.1471
 6581SOL    HW131202   3.359   2.098   5.718  1.5333  0.2261 -0.3334
 6581SOL    HW231203   3.435   2.088   5.854 -0.6286 -0.5205  1.3025
 6582SOL     OW31204   3.040   2.727  13.950 -0.3468 -0.2041 -0.1922
 6582SOL    HW131205   2.992   2.806  13.974 -0.0438  0.1486 -0.7509
 6582SOL    HW231206   3.006   2.670  14.020 -0.9310  0.2340 -0.1224
 6583SOL     OW31207   4.571   2.631   5.557 -0.1340 -0.0947  0.2282
 6583SOL    HW131208   4.554   2.650   5.465 -0.5891  1.6051  0.6686
 6583SOL    HW231209   4.585   2.716   5.598 -0.7095 -1.1464  2.6232
 6584SOL     OW31210   3.238   4.517  10.925 -0.1154 -0.3743  0.3567
 6584SOL    HW131211   3.219   4.462  10.849  1.0848  0.1379 -0.3087
 6584SOL    HW231212   3.156   4.565  10.934  0.6048  1.1456 -1.2039
 6585SOL     OW31213   2.990   4.229  11.248 -0.5415 -0.3172 -0.1353
 6585SOL    HW131214   2.913   4.184  11.212 -0.1965 -0.9832 -0.0406
 6585SOL    HW231215   2.938   4.286  11.305 -2.9073 -1.4262 -1.1698
 6586SOL     OW31216   2.222   4.373   3.275 -0.0884 -0.3168 -0.0132
 6586SOL    HW131217   2.245   4.441   3.339 -1.0523 -0.6361  0.6694
 6586SOL    HW231218   2.215   4.287   3.315 -0.5081 -0.5539 -0.5965
 6587SOL     OW31219   0.041   1.908  15.283 -0.2674  0.1648  0.1582
 6587SOL    HW131220   0.052   1.916  15.378  2.9441  2.6510 -0.4031
 6587SOL    HW231221   0.049   1.996  15.246 -0.8928  1.4233  2.9795
 6588SOL     OW31222   3.651   2.712   5.373  0.6683 -0.4071  0.2467
 6588SOL    HW131223   3.603   2.665   5.305 -0.4336  0.5603  0.3541
 6588SOL    HW231224   3.650   2.796   5.327  1.9523 -0.2828  0.4424
 6589SOL     OW31225   1.176   2.763   2.097  0.2706  0.2954  0.0578
 6589SOL    HW131226   1.154   2.811   2.017  1.1736 -1.2967 -1.1472
 6589SOL    HW231227   1.271   2.754   2.089  0.3520  0.7782  0.4818
 6590SOL     OW31228   0.076   0.843   0.620  0.3036 -0.2007  0.2300
 6590SOL    HW131229   0.062   0.934   0.596 -0.7896 -0.5002 -0.2472
 6590SOL    HW231230   0.169   0.835   0.599  0.3106  0.3188  0.0650
 6591SOL     OW31231   0.375   2.458   6.324  0.0092  0.1724 -0.3508
 6591SOL    HW131232   0.353   2.402   6.250 -0.0480  1.7757 -1.5304
 6591SOL    HW231233   0.454   2.493   6.282  0.8121 -0.8705  0.2813
 6592SOL     OW31234   0.465   0.538  13.923  0.2112 -0.4987 -0.2639
 6592SOL    HW131235   0.486   0.631  13.924  0.8562 -0.6466 -0.6531
 6592SOL    HW231236   0.377   0.546  13.887 -0.3073 -0.9768  0.8591
 6593SOL     OW31237   4.317   2.293  12.322  0.3232  0.1803  0.0623
 6593SOL    HW131238   4.280   2.284  12.234 -0.6059 -0.3439  0.5058
 6593SOL    HW231239   4.408   2.309  12.298  0.3798  0.4487  0.4540
 6594SOL     OW31240   3.970   2.350   9.434  0.5074  0.2573  0.2680
 6594SOL    HW131241   4.023   2.429   9.445  0.3047  0.4964 -0.4679
 6594SOL    HW231242   3.881   2.378   9.454  0.6344 -0.2612  1.5737
 6595SOL     OW31243   0.964   3.532   6.324  0.2159 -0.4711  0.1321
 6595SOL    HW131244   1.003   3.611   6.286  1.5160  0.0692  2.5824
 6595SOL    HW231245   0.876   3.529   6.286 -0.0977  0.2966  0.8051
 6596SOL     OW31246   3.486   1.352   2.415 -0.0334 -0.2322 -0.4010
 6596SOL    HW131247   3.537   1.383   2.340 -1.3400 -1.6348 -1.8574
 6596SOL    HW231248   3.543   1.373   2.490  0.2699 -0.2743 -0.6206
 6597SOL     OW31249   0.172   3.071  13.363 -0.3533  0.4426  0.0042
 6597SOL    HW131250   0.253   3.030  13.334 -0.2127  1.8829 -1.6226
 6597SOL    HW231251   0.155   3.144  13.303 -3.1471 -0.3636 -0.1765
 6598SOL     OW31252   4.597   1.314   6.864  0.0392 -0.4916  0.3238
 6598SOL    HW131253   4.535   1.383   6.840  0.3780 -0.8812 -1.6077
 6598SOL    HW231254   4.543   1.253   6.914  0.6851 -0.8952  0.5278
 6599SOL     OW31255   3.774   4.419   3.150 -0.0694 -0.4610 -0.1138
 6599SOL    HW131256   3.750   4.510   3.131 -3.0966 -1.0918  0.5716
 6599SOL    HW231257   3.768   4.407   3.245 -2.5714 -2.4681 -0.4967
 6600SOL     OW31258   4.465   3.955  15.260  0.5400  0.1084 -0.3604
 6600SOL    HW131259   4.549   3.924  15.225  0.0718  0.0036 -1.3765
 6600SOL    HW231260   4.405   3.958  15.186  0.1811 -0.3379 -0.0914
 6601SOL     OW31261   1.969   3.471  15.529  0.1862  0.1742  0.4750
 6601SOL    HW131262   1.946   3.440  15.617  3.2942  0.0902  1.2795
 6601SOL    HW231263   1.957   3.565  15.539  0.3454  0.2018  0.4024
 6602SOL     OW31264   4.674   2.281   4.847 -0.2474 -0.7172  0.2226
 6602SOL    HW131265   4.603   2.346   4.846 -0.9988 -1.5398  1.6253
 6602SOL    HW231266   4.621   2.203   4.833 -0.1239 -0.6056 -0.8720
 6603SOL     OW31267   4.251   0.577   8.271 -0.1347 -0.7087 -0.5194
 6603SOL    HW131268   4.207   0.513   8.327 -0.6107  1.6715  1.8292
 6603SOL    HW231269   4.261   0.645   8.338 -2.2522  1.6689 -2.6034
 6604SOL     OW31270   3.043   3.932   7.215  0.5106  0.2058 -0.1883
 6604SOL    HW131271   3.039   3.838   7.228  1.6586 -0.1060 -2.0974
 6604SOL    HW231272   3.093   3.935   7.133  0.2055 -0.6751 -0.4043
 6605SOL     OW31273   4.636   1.228   7.974 -0.5343 -0.1579  0.0328
 6605SOL    HW131274   4.691   1.285   7.921  0.0655 -0.4504  0.3477
 6605SOL    HW231275   4.652   1.147   7.927  2.6455 -0.9952  2.5484
 6606SOL     OW31276   4.421   1.662   6.472 -0.1568  0.2811 -0.4376
 6606SOL    HW131277   4.513   1.638   6.462 -0.1956 -0.1504  0.2040
 6606SOL    HW231278   4.401   1.672   6.379 -0.9845 -0.7342 -0.3745
 6607SOL     OW31279   1.839   0.388  14.427 -0.5978 -0.1446  0.2751
 6607SOL    HW131280   1.932   0.372  14.441 -0.3313  0.4894 -0.8475
 6607SOL    HW231281   1.797   0.302  14.416  1.2050 -0.8261 -1.1498
 6608SOL     OW31282   4.006   4.364   5.719  0.1619 -0.3191  0.5746
 6608SOL    HW131283   3.997   4.275   5.684 -1.3575  0.0490  0.0424
 6608SOL    HW231284   4.017   4.413   5.638  3.5127  0.9571  1.8000
 6609SOL     OW31285   4.479   0.246   6.445  0.4878  0.5659 -0.1419
 6609SOL    HW131286   4.424   0.221   6.370  0.2591 -1.4070  0.6713
 6609SOL    HW231287   4.438   0.316   6.495  0.4768 -0.1958  0.9085
 6610SOL     OW31288   4.132   4.648   9.625  0.2138  0.7182  0.2376
 6610SOL    HW131289   4.201   4.629   9.688  1.2230  1.3737 -0.6680
 6610SOL    HW231290   4.053   4.621   9.671 -0.1175 -0.8796 -1.2671
 6611SOL     OW31291   0.467   4.206  15.251  0.2681 -0.1194  0.0233
 6611SOL    HW131292   0.460   4.110  15.259 -2.5314  0.0682 -0.1751
 6611SOL    HW231293   0.562   4.215  15.245  0.1695  0.9056  0.1338
 6612SOL     OW31294   3.056   1.878   8.677  0.3034 -0.5324 -0.4858
 6612SOL    HW131295   3.146   1.910   8.671 -0.1912  1.1410  1.0457
 6612SOL    HW231296   3.086   1.788   8.687  0.7395 -0.5274 -1.8336
 6613SOL     OW31297   3.994   0.821   5.628 -0.1436  0.3151  0.4750
 6613SOL    HW131298   3.956   0.898   5.670  0.0542  2.5925 -3.5536
 6613SOL    HW231299   4.089   0.834   5.633  0.1057 -0.2548 -2.8061
 6614SOL     OW31300   1.058   1.158   0.201 -0.6664 -0.5117 -1.1183
 6614SOL    HW131301   1.037   1.085   0.260 -0.4894 -0.1302 -0.5826
 6614SOL    HW231302   1.151   1.164   0.221 -0.7429 -0.1320 -0.8778
 6615SOL     OW31303   0.820   0.798  17.336 -0.0474 -0.1234 -0.3215
 6615SOL    HW131304   0.822   0.824  17.428 -2.1727 -1.5341  0.1012
 6615SOL    HW231305   0.913   0.798  17.313  0.2196  0.4117  0.7191
 6616SOL     OW31306   3.637   1.527   3.588 -0.2907  0.0397 -0.4249
 6616SOL    HW131307   3.578   1.539   3.662  0.5947 -2.4313  0.6802
 6616SOL    HW231308   3.652   1.612   3.545 -1.8125 -0.1543 -1.3365
 6617SOL     OW31309   1.488   0.009   3.427  0.4310  0.2247 -0.2037
 6617SOL    HW131310   1.401   0.033   3.393  0.3516  1.3901  0.8244
 6617SOL    HW231311   1.497   4.637   3.426  3.3786  0.4939  1.1374
 6618SOL     OW31312   3.494   1.484   4.342 -0.5261 -0.3653  0.1189
 6618SOL    HW131313   3.566   1.507   4.283 -0.1783 -0.9704  0.3044
 6618SOL    HW231314   3.487   1.392   4.316 -0.5652 -0.5726  0.8621
 6619SOL     OW31315   4.197   3.923   4.618 -0.2102  0.6321 -0.1254
 6619SOL    HW131316   4.197   3.932   4.523  0.9202  0.3166 -0.1593
 6619SOL    HW231317   4.128   3.987   4.634 -1.2990 -0.5736  0.0154
 6620SOL     OW31318   2.313   3.511  15.956  0.3700  0.2207  0.8137
 6620SOL    HW131319   2.308   3.476  15.867 -0.3855 -0.8763  1.2872
 6620SOL    HW231320   2.389   3.473  16.000 -0.1086 -2.3194 -0.5984
 6621SOL     OW31321   0.096   0.590   4.161 -0.2226  0.5070 -0.0512
 6621SOL    HW131322   0.105   0.628   4.074 -0.1621  1.2375  0.2714
 6621SOL    HW231323   0.037   0.516   4.150  0.5792 -0.4121  1.7698
 6622SOL     OW31324   4.366   4.544   0.560  0.0470  0.3655 -0.6556
 6622SOL    HW131325   4.280   4.584   0.545 -0.5877 -1.7987 -2.7778
 6622SOL    HW231326   4.389   4.590   0.640  1.9947  0.3184 -1.2083
 6623SOL     OW31327   3.156   0.527  15.593 -0.4624 -0.3395 -0.4008
 6623SOL    HW131328   3.094   0.597  15.570  0.7991  0.4358 -1.4109
 6623SOL    HW231329   3.102   0.451  15.616 -0.5992  0.1651  0.9361
 6624SOL     OW31330   0.043   1.596   6.701 -0.2433 -0.6386  0.2461
 6624SOL    HW131331   4.689   1.597   6.643 -0.9039 -0.0659  1.1253
 6624SOL    HW231332   0.096   1.531   6.656  1.1010  0.9271 -0.4606
 6625SOL     OW31333   3.791   1.681   8.831 -0.3757  0.3617 -0.1872
 6625SOL    HW131334   3.779   1.679   8.926 -1.8696  3.1216 -0.3187
 6625SOL    HW231335   3.778   1.773   8.808 -2.2472 -0.4917 -2.5221
 6626SOL     OW31336   3.514   0.203   4.491 -0.5175 -0.1312  0.0388
 6626SOL    HW131337   3.564   0.124   4.471 -2.3399 -0.6590 -2.4860
 6626SOL    HW231338   3.454   0.210   4.417  1.1114 -1.2175 -1.4151
 6627SOL     OW31339   0.819   3.728   3.914 -0.6200 -0.3142 -0.6087
 6627SOL    HW131340   0.799   3.819   3.892 -0.7257 -0.7432 -2.2869
 6627SOL    HW231341   0.749   3.704   3.975  1.5680 -2.9899  0.8011
 6628SOL     OW31342   2.670   0.937   3.579  0.1430 -0.0077  0.2456
 6628SOL    HW131343   2.722   0.961   3.655 -0.2046 -2.2028  1.1568
 6628SOL    HW231344   2.703   0.853   3.547  1.9930  0.9321 -0.3175
 6629SOL     OW31345   4.133   1.571  13.311 -0.0151 -0.4130 -0.2994
 6629SOL    HW131346   4.172   1.486  13.290 -1.1480 -1.3527  1.3934
 6629SOL    HW231347   4.188   1.631  13.260  1.8138 -2.3469 -0.6242
 6630SOL     OW31348   1.784   2.042   7.521  0.2852 -0.1330  0.2313
 6630SOL    HW131349   1.857   1.980   7.527 -1.7123 -2.2772  2.7319
 6630SOL    HW231350   1.763   2.048   7.614 -1.8703  3.7354 -0.5316
 6631SOL     OW31351   1.026   2.754   6.121 -0.6168 -0.5948 -0.0204
 6631SOL    HW131352   0.954   2.792   6.071 -0.5060 -1.0029 -0.4912
 6631SOL    HW231353   1.012   2.796   6.205 -0.8916  0.1803 -0.4567
 6632SOL     OW31354   0.608   1.641   6.363  0.7279 -0.2226 -0.3680
 6632SOL    HW131355   0.689   1.691   6.357  1.3437 -1.2135 -0.3668
 6632SOL    HW231356   0.592   1.623   6.270 -1.5341  1.7879 -0.3565
 6633SOL     OW31357   4.460   0.315   8.986  0.0157 -0.4246 -0.1327
 6633SOL    HW131358   4.509   0.384   9.030 -1.2644 -0.2774  1.0320
 6633SOL    HW231359   4.373   0.317   9.026  2.4678 -2.3795  5.3357
 6634SOL     OW31360   2.131   4.719   2.135 -0.3120 -0.1138 -0.3403
 6634SOL    HW131361   2.178   0.009   2.218  0.6218 -0.3398 -0.8432
 6634SOL    HW231362   2.199   0.027   2.076  1.2650 -2.4253  0.2613
 6635SOL     OW31363   1.522   0.897   6.047 -0.1401  0.2881 -0.0413
 6635SOL    HW131364   1.504   0.979   6.000  0.7022  0.1900 -0.5363
 6635SOL    HW231365   1.515   0.831   5.978 -1.0808  0.0677  0.2718
 6636SOL     OW31366   2.091   3.804   4.154  0.5417  0.0073 -0.1076
 6636SOL    HW131367   2.067   3.813   4.062 -0.9921  0.2754  0.3227
 6636SOL    HW231368   2.053   3.880   4.198 -0.4318 -1.0394  0.8736
 6637SOL     OW31369   2.743   2.688  11.025  0.8365  0.0207 -0.1935
 6637SOL    HW131370   2.749   2.766  10.969  0.9348  1.0912  1.2864
 6637SOL    HW231371   2.696   2.724  11.101  2.8580  2.1341  0.0679
 6638SOL     OW31372   2.629   0.512  17.419 -0.4222 -0.0615 -0.1606
 6638SOL    HW131373   2.686   0.472  17.352 -1.0430  0.2827 -0.8981
 6638SOL    HW231374   2.687   0.568  17.469 -1.1395 -0.5974  1.2648
 6639SOL     OW31375   1.213   0.452   4.579  0.4569 -0.2395 -0.4764
 6639SOL    HW131376   1.197   0.383   4.643  1.8659  1.1232  1.3598
 6639SOL    HW231377   1.181   0.531   4.622 -1.3907 -0.6496 -1.0964
 6640SOL     OW31378   1.326   4.356   4.829 -0.4348 -0.5072  0.1545
 6640SOL    HW131379   1.359   4.410   4.901 -1.5152 -0.3719  0.5624
 6640SOL    HW231380   1.302   4.273   4.870  0.2486 -1.3475 -1.1630
 6641SOL     OW31381   3.057   3.028   8.244 -0.3744 -0.7927  0.5066
 6641SOL    HW131382   2.986   3.079   8.205  0.5368  1.1535  1.3743
 6641SOL    HW231383   3.043   3.060   8.333  4.6004 -1.0096  1.3870
 6642SOL     OW31384   3.769   4.706   3.199  0.1671 -0.4003 -0.3287
 6642SOL    HW131385   3.848   4.698   3.252 -0.0566  2.9894  0.4740
 6642SOL    HW231386   3.733   0.058   3.244  0.5784 -0.0585 -0.5615
 6643SOL     OW31387   3.410   3.420  15.476  0.6431 -0.4196  0.7469
 6643SOL    HW131388   3.368   3.342  15.512 -0.4502 -1.3109 -2.4550
 6643SOL    HW231389   3.392   3.404  15.383  0.7655 -2.9235  1.1583
 6644SOL     OW31390   1.704   0.799   4.951 -0.2799 -0.1339  0.2847
 6644SOL    HW131391   1.750   0.759   5.025 -0.3459  0.4718  0.6497
 6644SOL    HW231392   1.754   0.764   4.877 -0.7712 -0.7620  0.2521
 6645SOL     OW31393   2.099   3.283  15.356 -0.1231 -0.4562 -0.4970
 6645SOL    HW131394   2.054   3.317  15.433  2.9661 -1.5362  1.7690
 6645SOL    HW231395   2.158   3.216  15.391 -1.4707 -1.7403 -0.6525
 6646SOL     OW31396   2.731   0.976  15.527 -0.4705 -0.1968 -0.7432
 6646SOL    HW131397   2.687   1.020  15.599  2.3383 -0.7170  1.3096
 6646SOL    HW231398   2.822   0.968  15.557 -0.7120 -0.5107 -0.0850
 6647SOL     OW31399   0.938   3.150  16.450 -0.0432  0.1725  1.0020
 6647SOL    HW131400   0.902   3.090  16.384  3.5384  0.5096 -1.2664
 6647SOL    HW231401   0.886   3.228  16.434 -2.0752 -1.2805  0.4692
 6648SOL     OW31402   3.914   4.054   2.334 -0.5038 -0.6302  0.3359
 6648SOL    HW131403   3.843   3.992   2.355 -2.0795  1.8028  2.3246
 6648SOL    HW231404   3.951   4.072   2.421 -1.4857  1.8617  0.2323
 6649SOL     OW31405   1.351   1.599  14.279  0.2546 -0.5638 -0.0662
 6649SOL    HW131406   1.364   1.517  14.231 -1.3254 -0.4540 -0.6842
 6649SOL    HW231407   1.359   1.667  14.212  0.0955 -1.1842 -0.7197
 6650SOL     OW31408   4.163   2.752   7.238 -0.4756 -0.2051  0.2577
 6650SOL    HW131409   4.162   2.662   7.207  0.6151  0.7863 -2.6969
 6650SOL    HW231410   4.133   2.799   7.160  0.4960  0.9295  0.5542
 6651SOL     OW31411   0.481   3.709  13.632  0.2988 -0.1701 -0.7295
 6651SOL    HW131412   0.479   3.650  13.707  0.9142 -0.0725 -0.6393
 6651SOL    HW231413   0.561   3.758  13.652  1.6272 -1.8616 -1.9084
 6652SOL     OW31414   0.602   3.595   2.957  0.0794 -0.3818 -0.1822
 6652SOL    HW131415   0.540   3.533   2.995  0.5850 -0.1613  1.0264
 6652SOL    HW231416   0.546   3.669   2.934  1.0126  0.0349 -1.0917
 6653SOL     OW31417   4.312   3.267   1.631  0.0336  0.5418  0.1586
 6653SOL    HW131418   4.345   3.280   1.542  1.0885 -1.1547  0.2965
 6653SOL    HW231419   4.368   3.191   1.648 -1.9660 -1.4506 -2.1729
 6654SOL     OW31420   2.435   2.681   3.802  0.2579 -0.3199 -0.0733
 6654SOL    HW131421   2.475   2.764   3.827 -0.2401 -0.3511  0.8384
 6654SOL    HW231422   2.454   2.629   3.880  0.1875 -0.0016  0.1571
 6655SOL     OW31423   3.320   1.592   8.187 -0.2850 -0.6336  0.0520
 6655SOL    HW131424   3.336   1.683   8.163  1.5686 -0.3810  2.2593
 6655SOL    HW231425   3.411   1.562   8.188  1.0806  3.4640 -3.0902
 6656SOL     OW31426   3.661   3.818   4.367  0.2791  0.1421  0.8433
 6656SOL    HW131427   3.603   3.878   4.320  0.3552 -0.3117  0.1643
 6656SOL    HW231428   3.606   3.807   4.444  0.7210 -2.6621  0.7884
 6657SOL     OW31429   3.325   0.180   8.562 -0.2003 -0.4178 -1.0264
 6657SOL    HW131430   3.343   0.267   8.526 -1.0855  0.4848  0.7000
 6657SOL    HW231431   3.234   0.184   8.534  0.8461 -1.8133 -4.5811
 6658SOL     OW31432   0.250   3.968  14.667 -0.1850  0.8169  0.2890
 6658SOL    HW131433   0.207   3.930  14.743  0.2522  2.1758  1.2005
 6658SOL    HW231434   0.295   4.042  14.708  0.8055 -0.2728  1.1543
 6659SOL     OW31435   2.950   2.755   5.116  0.7172 -0.2408 -0.2072
 6659SOL    HW131436   3.016   2.779   5.180  0.6456 -0.0774 -0.1947
 6659SOL    HW231437   2.988   2.675   5.081 -1.0900  0.1368 -3.0461
 6660SOL     OW31438   0.938   0.267  15.808  0.3796 -1.1071 -0.0541
 6660SOL    HW131439   0.949   0.327  15.881  0.4217  2.0132 -2.6212
 6660SOL    HW231440   0.979   0.189  15.845  1.9919 -0.9968 -1.6359
 6661SOL     OW31441   1.120   4.191   9.658  0.0328 -0.2922 -0.1768
 6661SOL    HW131442   1.059   4.118   9.649 -0.4841  0.0142  0.9222
 6661SOL    HW231443   1.123   4.210   9.564 -0.2890 -1.4066 -0.4155
 6662SOL     OW31444   2.439   4.091   3.207 -0.7392  0.0677  0.0087
 6662SOL    HW131445   2.458   3.997   3.211 -2.4899 -0.3407 -1.1515
 6662SOL    HW231446   2.394   4.099   3.123  0.3841  0.1899 -0.5822
 6663SOL     OW31447   1.893   0.507  16.853  0.6984 -0.0703  0.3938
 6663SOL    HW131448   1.963   0.481  16.913  2.0797  0.7841 -0.8610
 6663SOL    HW231449   1.858   0.419  16.840 -1.2011  0.5984  0.9426
 6664SOL     OW31450   4.415   0.886   4.120 -0.3120  0.2635  0.1636
 6664SOL    HW131451   4.485   0.950   4.135 -0.1468 -0.1140  1.0103
 6664SOL    HW231452   4.446   0.808   4.165  0.0636 -0.3286 -1.1291
 6665SOL     OW31453   3.960   4.120   3.825 -0.0449  0.1063  0.2054
 6665SOL    HW131454   3.917   4.193   3.869 -0.8276  0.0996 -0.5333
 6665SOL    HW231455   3.977   4.161   3.740 -1.7014 -0.5159 -0.4367
 6666SOL     OW31456   0.424   3.071   3.489 -0.1152 -0.4075 -0.3662
 6666SOL    HW131457   0.431   3.145   3.428 -0.3945  0.3498  0.5272
 6666SOL    HW231458   0.518   3.060   3.506 -0.5207 -0.7805  1.5423
 6667SOL     OW31459   2.852   2.679  14.551 -0.5354  0.2516  0.6475
 6667SOL    HW131460   2.774   2.645  14.594 -1.2773  1.0534 -0.0784
 6667SOL    HW231461   2.823   2.751  14.495 -0.9192 -0.0078  0.5160
 6668SOL     OW31462   3.082   0.690   5.565  0.4886  0.0045 -0.1235
 6668SOL    HW131463   3.044   0.766   5.522  0.1672 -0.1632 -0.1346
 6668SOL    HW231464   3.153   0.663   5.507  1.9519  0.4969  1.4239
 6669SOL     OW31465   0.679   3.500  11.650 -0.0557  0.7542  0.4991
 6669SOL    HW131466   0.603   3.466  11.601  0.9718 -0.4370 -0.2650
 6669SOL    HW231467   0.640   3.562  11.711 -1.2875  1.1760 -0.7038
 6670SOL     OW31468   3.027   2.286   4.576  0.7665  0.0887  0.2556
 6670SOL    HW131469   3.022   2.216   4.510  1.6944 -0.1659  0.4541
 6670SOL    HW231470   3.120   2.310   4.571  1.1109 -1.3179 -0.1849
 6671SOL     OW31471   2.758   4.049  15.882  0.0759 -0.2940 -0.3973
 6671SOL    HW131472   2.847   4.016  15.891 -0.7172 -2.5924 -0.9126
 6671SOL    HW231473   2.768   4.114  15.812  0.2947  0.0930 -0.0033
 6672SOL     OW31474   1.834   0.346   5.373  0.0476 -0.3817  0.0760
 6672SOL    HW131475   1.778   0.269   5.368 -2.0810  1.2017 -0.4632
 6672SOL    HW231476   1.803   0.384   5.455  0.2063  1.0379 -0.5052
 6673SOL     OW31477   4.327   1.307   8.269  0.1341 -0.0554 -0.0261
 6673SOL    HW131478   4.349   1.256   8.192 -0.8957  0.1438 -0.4457
 6673SOL    HW231479   4.236   1.281   8.282  0.4251 -0.7755  0.5374
 6674SOL     OW31480   1.773   3.553  17.663 -0.8033  0.7952  0.5570
 6674SOL    HW131481   1.854   3.555   0.020 -0.3932  0.2346 -0.0683
 6674SOL    HW231482   1.771   3.641  17.627 -0.1770  0.6725  0.2115
 6675SOL     OW31483   0.126   2.411  13.688  0.2244 -0.4261  0.1301
 6675SOL    HW131484   0.152   2.404  13.596 -0.4547  0.0818 -0.1036
 6675SOL    HW231485   0.130   2.505  13.707  1.7150 -0.5224  0.2441
 6676SOL     OW31486   3.879   3.932   8.583 -0.0378  0.5817 -0.1270
 6676SOL    HW131487   3.843   3.921   8.671 -1.1821 -0.9197 -0.7893
 6676SOL    HW231488   3.809   3.949   8.520  1.5966  3.0371 -1.2739
 6677SOL     OW31489   3.050   3.336   5.543 -0.1974  0.1687 -0.0975
 6677SOL    HW131490   3.024   3.331   5.635  0.7702 -2.1565  0.0614
 6677SOL    HW231491   2.967   3.363   5.504 -0.6353 -2.5177 -0.9980
 6678SOL     OW31492   3.365   2.029  13.332  0.1095 -0.2220  0.0848
 6678SOL    HW131493   3.276   1.993  13.329  1.5502 -4.0301  2.9739
 6678SOL    HW231494   3.366   2.066  13.420 -2.0141 -3.0636  1.2910
 6679SOL     OW31495   2.735   0.780  13.342  0.5185  0.0055  0.2237
 6679SOL    HW131496   2.658   0.820  13.303  0.4453  0.1124  0.4802
 6679SOL    HW231497   2.798   0.797  13.272  1.4587  2.5630  1.6798
 6680SOL     OW31498   2.853   3.726  15.080  0.5082 -0.3265 -0.2011
 6680SOL    HW131499   2.810   3.811  15.070  1.4644  0.2851  0.7543
 6680SOL    HW231500   2.939   3.746  15.042  0.4197  1.7009  0.6590
 6681SOL     OW31501   1.655   2.770   1.685  0.1038 -0.5467  0.0619
 6681SOL    HW131502   1.587   2.740   1.625 -0.7173 -0.2102  0.8184
 6681SOL    HW231503   1.689   2.686   1.716 -0.1497 -0.4424  0.6220
 6682SOL     OW31504   0.930   1.475  10.200  0.9032  0.3979 -0.1890
 6682SOL    HW131505   1.008   1.423  10.217  0.9964  0.9502  1.0816
 6682SOL    HW231506   0.885   1.457  10.282  0.1053 -2.6783 -1.3232
 6683SOL     OW31507   1.725   2.427   9.184  0.0479 -0.2256 -0.2178
 6683SOL    HW131508   1.769   2.347   9.157 -0.4803 -0.6574  0.2119
 6683SOL    HW231509   1.663   2.434   9.112 -1.3356 -1.2110  0.8688
 6684SOL     OW31510   0.504   2.995   0.586 -0.1827 -0.3240 -0.4601
 6684SOL    HW131511   0.444   3.042   0.528 -0.8064 -1.1864 -0.4975
 6684SOL    HW231512   0.459   2.913   0.569 -0.1099 -0.3510 -0.5279
 6685SOL     OW31513   0.320   1.845  15.035 -0.2252  0.5768  0.4421
 6685SOL    HW131514   0.252   1.888  14.982 -0.5377  1.1489  1.3049
 6685SOL    HW231515   0.337   1.773  14.974  1.9132  0.9405  0.6159
 6686SOL     OW31516   4.404   4.410   5.707  0.1297 -0.0247 -0.0936
 6686SOL    HW131517   4.354   4.371   5.635 -0.3864  1.2916 -0.4465
 6686SOL    HW231518   4.463   4.465   5.656  0.3692  0.0961  0.3194
 6687SOL     OW31519   0.546   2.636  15.831  0.4675 -0.0553  0.0085
 6687SOL    HW131520   0.641   2.643  15.842  0.7432 -2.6653 -0.6215
 6687SOL    HW231521   0.526   2.554  15.877  0.4701 -0.2634 -0.3627
 6688SOL     OW31522   4.214   0.842   1.441 -0.1073 -0.0039  0.2821
 6688SOL    HW131523   4.163   0.919   1.466  1.1356  0.8788  0.1030
 6688SOL    HW231524   4.281   0.883   1.386  0.3970  1.4932  1.9942
 6689SOL     OW31525   1.875   3.269  12.387 -0.2607  0.0476 -0.4851
 6689SOL    HW131526   1.929   3.345  12.364 -3.0364  2.3226  0.4911
 6689SOL    HW231527   1.790   3.288  12.348 -1.0766  1.1012  1.8032
 6690SOL     OW31528   1.976   3.469   5.654  0.3295  0.0202 -0.2120
 6690SOL    HW131529   2.031   3.543   5.682  1.4220 -0.4056 -1.2415
 6690SOL    HW231530   1.999   3.410   5.727  0.3604 -3.2024 -2.8518
 6691SOL     OW31531   1.075   3.233  15.394  0.4428 -0.4302  0.8517
 6691SOL    HW131532   0.986   3.241  15.361  1.1325  1.8739 -0.4043
 6691SOL    HW231533   1.059   3.186  15.476  2.2160  1.2312  2.1328
 6692SOL     OW31534   0.595   3.808  11.076  0.1419 -0.2509 -0.1857
 6692SOL    HW131535   0.672   3.796  11.022  0.2552  1.0254 -0.3134
 6692SOL    HW231536   0.530   3.829  11.008 -2.1529  0.8270  2.3125
 6693SOL     OW31537   3.529   2.416   7.631  0.4005  0.4989 -0.1958
 6693SOL    HW131538   3.493   2.377   7.711 -1.1797 -0.8269 -1.5455
 6693SOL    HW231539   3.492   2.504   7.628  0.0880  0.3809  0.0777
 6694SOL     OW31540   3.240   4.695   9.726  0.3251 -0.1954  0.2715
 6694SOL    HW131541   3.239   4.604   9.697  0.0482 -0.1258  0.0600
 6694SOL    HW231542   3.311   0.007   9.672 -0.8563  0.3616 -0.9371
 6695SOL     OW31543   2.063   4.412   8.744 -0.2119  0.0517  0.1419
 6695SOL    HW131544   2.097   4.325   8.721 -2.2663 -1.0404  1.3025
 6695SOL    HW231545   2.110   4.460   8.676  0.1295 -2.2370 -1.2547
 6696SOL     OW31546   1.674   0.232   8.134 -0.1888  0.7165  0.5210
 6696SOL    HW131547   1.757   0.206   8.175  0.9496  1.3528 -1.3897
 6696SOL    HW231548   1.611   0.186   8.190  0.3046 -0.7959 -0.1569
 6697SOL     OW31549   3.387   0.692   0.653 -0.2075  0.0054 -0.1378
 6697SOL    HW131550   3.469   0.734   0.680 -0.1412 -1.7969  2.4310
 6697SOL    HW231551   3.403   0.652   0.568 -0.5597  2.7142 -1.5020
 6698SOL     OW31552   1.241   2.064  14.982 -0.6489 -0.2719  0.1675
 6698SOL    HW131553   1.262   2.148  15.023 -0.2961 -0.5688  0.5966
 6698SOL    HW231554   1.206   2.025  15.062 -2.0975 -0.2833 -0.4682
 6699SOL     OW31555   3.231   3.408   4.099 -0.7331  0.0419 -0.2133
 6699SOL    HW131556   3.191   3.375   4.019 -1.0664  0.3222 -0.1599
 6699SOL    HW231557   3.222   3.503   4.087  1.1207  0.6091  2.8604
 6700SOL     OW31558   4.495   3.482   8.420  0.1177  0.4286 -0.0073
 6700SOL    HW131559   4.524   3.563   8.378  2.0688  0.4550  1.3885
 6700SOL    HW231560   4.480   3.429   8.342 -0.2489  0.7691 -0.1675
 6701SOL     OW31561   2.619   2.919   6.278 -0.3956 -0.5580  0.2787
 6701SOL    HW131562   2.650   2.953   6.194 -1.5152 -1.9237 -0.6713
 6701SOL    HW231563   2.691   2.950   6.334  0.6082  1.7909 -2.2744
 6702SOL     OW31564   4.713   4.558   3.167 -0.3845 -0.4290  0.0640
 6702SOL    HW131565   4.709   4.468   3.135 -0.2540  0.5371 -2.7176
 6702SOL    HW231566   0.052   4.546   3.239  1.7422 -0.7957 -1.8224
 6703SOL     OW31567   2.307   1.932   4.085 -0.1986 -0.0823  0.1449
 6703SOL    HW131568   2.384   1.988   4.095  0.3065 -0.9200  0.8659
 6703SOL    HW231569   2.349   1.847   4.072  0.6297 -0.0681  2.8106
 6704SOL     OW31570   1.682   1.034   3.659  0.4400 -0.5537 -0.0499
 6704SOL    HW131571   1.711   1.124   3.676  0.4195 -0.8801  1.6874
 6704SOL    HW231572   1.753   0.979   3.692  1.7768  0.6769 -0.8855
 6705SOL     OW31573   3.645   0.570   2.804  0.3065  0.5083  0.3906
 6705SOL    HW131574   3.720   0.629   2.801  1.9931 -1.6443  0.1549
 6705SOL    HW231575   3.654   0.550   2.897  0.2693 -0.5653  0.1602
 6706SOL     OW31576   3.792   1.849   6.322 -0.0485  0.0301 -0.3413
 6706SOL    HW131577   3.802   1.944   6.330 -1.3529 -0.1724  3.4748
 6706SOL    HW231578   3.887   1.834   6.319 -0.3587 -1.6681 -1.5925
 6707SOL     OW31579   0.561   1.074   2.266 -0.9982 -0.6162 -0.2861
 6707SOL    HW131580   0.590   1.153   2.313 -0.2508  0.5065 -2.6374
 6707SOL    HW231581   0.611   1.084   2.185  1.7584  1.5239  1.6642
 6708SOL     OW31582   3.434   4.665   5.077  0.0489 -0.0858 -0.1219
 6708SOL    HW131583   3.489   0.012   5.041 -1.0148  1.6498  1.6051
 6708SOL    HW231584   3.441   4.584   5.027  1.6363  0.4397 -0.7445
 6709SOL     OW31585   3.874   3.647   7.203  0.3103  0.4708  0.2093
 6709SOL    HW131586   3.813   3.655   7.277 -0.0714  2.8241 -0.3772
 6709SOL    HW231587   3.823   3.702   7.143  1.4589  0.9750 -0.2990
 6710SOL     OW31588   2.786   0.236   7.199  0.0168  0.2849  0.1157
 6710SOL    HW131589   2.830   0.201   7.277 -0.6057 -0.0051  0.3421
 6710SOL    HW231590   2.696   0.211   7.219 -0.5075  2.0321 -0.0322
 6711SOL     OW31591   0.722   2.666  10.084 -0.0238  0.4705 -0.1960
 6711SOL    HW131592   0.777   2.743  10.066 -0.2877  1.3296  2.6695
 6711SOL    HW231593   0.716   2.667  10.180  1.6382 -0.9306 -0.0667
 6712SOL     OW31594   2.777   1.816   0.979  0.4548  0.1154 -0.5777
 6712SOL    HW131595   2.703   1.873   0.959 -0.2966 -0.9283 -0.8025
 6712SOL    HW231596   2.825   1.873   1.039  0.9508  0.5570 -1.3943
 6713SOL     OW31597   1.129   3.038   4.151 -0.0570 -0.3436 -0.1408
 6713SOL    HW131598   1.091   3.000   4.072  0.4235 -2.0678  0.4702
 6713SOL    HW231599   1.171   2.963   4.193 -1.6910 -1.4656 -0.4890
 6714SOL     OW31600   1.482   3.623   6.802 -0.1629  0.4452 -0.6063
 6714SOL    HW131601   1.480   3.561   6.875 -2.1425  1.5531  0.2827
 6714SOL    HW231602   1.388   3.641   6.793 -0.5878 -2.3098 -1.7209
 6715SOL     OW31603   0.299   0.369  17.175 -0.7749 -0.2222 -0.3276
 6715SOL    HW131604   0.384   0.402  17.205 -1.1390  0.2243  0.2117
 6715SOL    HW231605   0.241   0.438  17.208  0.9818  0.3233  1.5858
 6716SOL     OW31606   2.899   3.338   3.391  0.1230  0.2248  0.1743
 6716SOL    HW131607   2.866   3.298   3.311  3.3122 -0.2379 -0.8711
 6716SOL    HW231608   2.838   3.412   3.380 -1.5627 -1.1233  0.4086
 6717SOL     OW31609   1.620   4.665   9.492  0.2334 -0.1277 -0.2295
 6717SOL    HW131610   1.530   4.639   9.512  0.1295 -0.8497 -1.6447
 6717SOL    HW231611   1.631   4.708   9.577  0.4405 -0.1841 -0.2276
 6718SOL     OW31612   1.657   4.245   7.989 -0.1695  0.3183 -0.1271
 6718SOL    HW131613   1.677   4.333   7.957 -0.8949  0.6162  0.2237
 6718SOL    HW231614   1.612   4.213   7.911 -2.9515  1.3212  1.0711
 6719SOL     OW31615   4.165   2.427   5.251  0.2522 -0.2880  0.1447
 6719SOL    HW131616   4.171   2.382   5.166 -0.1867 -0.5622  0.2596
 6719SOL    HW231617   4.085   2.380   5.272  0.1156 -0.6942 -1.3051
 6720SOL     OW31618   3.351   2.223  16.695 -0.0730  0.0351  0.8311
 6720SOL    HW131619   3.418   2.221  16.763 -1.3145  1.2091  2.1102
 6720SOL    HW231620   3.401   2.214  16.614 -3.0874 -0.8151 -0.9464
 6721SOL     OW31621   2.234   1.478   5.376  0.2619 -0.3323  0.1730
 6721SOL    HW131622   2.185   1.471   5.294 -0.6251 -0.2667  0.7059
 6721SOL    HW231623   2.309   1.421   5.361 -2.2280 -3.7465  0.6763
 6722SOL     OW31624   0.914   0.222   5.547  0.3143  0.0783  0.1914
 6722SOL    HW131625   0.959   0.301   5.518  0.2525  0.0344 -0.0183
 6722SOL    HW231626   0.982   0.175   5.594 -1.4870 -1.4538  1.2735
 6723SOL     OW31627   0.704   3.377   6.209  0.5058 -0.0899 -0.4232
 6723SOL    HW131628   0.754   3.316   6.155 -2.7314 -0.8176 -2.6160
 6723SOL    HW231629   0.707   3.451   6.148 -0.3687  2.6460  2.8869
 6724SOL     OW31630   1.309   4.210  11.666  0.0249 -0.2297 -0.6281
 6724SOL    HW131631   1.355   4.225  11.584  2.0352 -1.8728  0.2068
 6724SOL    HW231632   1.314   4.114  11.670  0.2834 -0.1794  0.2610
 6725SOL     OW31633   3.016   0.648  17.364  0.4218  0.1711 -0.3958
 6725SOL    HW131634   2.966   0.673  17.286 -1.5910 -1.1789  0.4466
 6725SOL    HW231635   3.086   0.598  17.322 -0.8322 -2.7906  1.0289
 6726SOL     OW31636   0.845   1.713  13.530 -0.0648 -0.2126 -0.6568
 6726SOL    HW131637   0.876   1.797  13.497  0.6780 -0.4932 -0.6763
 6726SOL    HW231638   0.815   1.669  13.450 -1.0779  0.8514 -0.8712
 6727SOL     OW31639   3.588   2.915   7.175  0.2883  0.1410  0.4174
 6727SOL    HW131640   3.634   2.838   7.205 -1.0271 -1.0145 -0.5135
 6727SOL    HW231641   3.502   2.906   7.217  0.1986  2.5542  0.7941
 6728SOL     OW31642   1.528   3.632   6.320  0.0399  0.4805  0.3207
 6728SOL    HW131643   1.525   3.654   6.227  0.0429  1.9123  0.6670
 6728SOL    HW231644   1.488   3.701   6.373  2.3962  1.1708  1.1757
 6729SOL     OW31645   1.872   2.920  14.396 -0.8822 -0.5326  0.6273
 6729SOL    HW131646   1.805   2.946  14.459  0.4517 -0.2013  1.9170
 6729SOL    HW231647   1.934   2.864  14.443  0.5772  0.7100  0.1999
 6730SOL     OW31648   1.743   1.465   4.241 -0.1774  0.1008 -0.3502
 6730SOL    HW131649   1.716   1.540   4.295 -0.9883 -1.7900  1.8677
 6730SOL    HW231650   1.667   1.412   4.219  0.1409 -0.1606 -0.8087
 6731SOL     OW31651   1.137   4.503   4.100 -0.8196  0.3042  0.3356
 6731SOL    HW131652   1.084   4.423   4.100  1.6819 -1.3279  1.0887
 6731SOL    HW231653   1.213   4.466   4.143 -2.2405 -3.6481 -0.5352
 6732SOL     OW31654   2.266   4.280   4.971 -0.5412 -0.0459 -0.5636
 6732SOL    HW131655   2.260   4.365   5.015  0.6018 -0.0771 -0.3490
 6732SOL    HW231656   2.361   4.278   4.960 -0.6072 -0.0760 -1.1389
 6733SOL     OW31657   1.261   1.088   3.958 -0.5960 -0.0731  0.1592
 6733SOL    HW131658   1.226   1.161   3.906  1.2550  0.1305 -0.7814
 6733SOL    HW231659   1.320   1.055   3.890 -0.4100 -2.5753  1.5624
 6734SOL     OW31660   3.459   4.550  14.352 -0.5753  1.0692 -0.6489
 6734SOL    HW131661   3.509   4.592  14.422 -0.0163  2.0691 -1.6596
 6734SOL    HW231662   3.480   4.459  14.374  0.9333  0.9497 -2.5785
 6735SOL     OW31663   0.749   0.935   4.866  1.1209 -0.3477  0.3607
 6735SOL    HW131664   0.798   1.017   4.871 -1.9434  1.5137 -0.2496
 6735SOL    HW231665   0.731   0.941   4.773  0.7498  0.5400  0.4866
 6736SOL     OW31666   3.506   2.306  17.677  0.1997 -0.0033 -0.1396
 6736SOL    HW131667   3.555   2.379   0.022 -0.0157  0.9805 -1.6744
 6736SOL    HW231668   3.417   2.318   0.016  0.9926  1.2338  1.5763
 6737SOL     OW31669   0.748   0.515   7.478  0.0189  0.6761  0.3306
 6737SOL    HW131670   0.781   0.532   7.566 -0.4824  2.4954  0.1688
 6737SOL    HW231671   0.674   0.573   7.460  0.5180  1.1035 -0.3232
 6738SOL     OW31672   4.501   2.058   7.522  0.2853 -0.4549  0.6556
 6738SOL    HW131673   4.595   2.074   7.511  0.4906 -1.5890  0.7201
 6738SOL    HW231674   4.478   2.122   7.589  1.1756 -1.5469  1.9921
 6739SOL     OW31675   3.889   0.331   9.030 -0.4985 -0.3098  0.0152
 6739SOL    HW131676   3.907   0.237   9.029  2.3902  0.2436  0.9926
 6739SOL    HW231677   3.793   0.327   9.028 -0.3908 -2.6005 -0.3904
 6740SOL     OW31678   2.307   4.379   7.097 -0.5697  0.4165  0.4088
 6740SOL    HW131679   2.370   4.356   7.166 -0.2797  1.4970  0.5124
 6740SOL    HW231680   2.295   4.472   7.117 -4.5235 -0.4651  2.1552
 6741SOL     OW31681   3.332   0.064  10.704  0.2489  0.1596  0.5817
 6741SOL    HW131682   3.320   0.134  10.767 -1.2500  1.0464 -0.6765
 6741SOL    HW231683   3.398   0.098  10.643  1.1221 -0.3389  1.2537
 6742SOL     OW31684   1.596   2.808   5.350  0.4675  0.5606  0.2465
 6742SOL    HW131685   1.681   2.793   5.391 -0.4982 -1.2020  1.6237
 6742SOL    HW231686   1.572   2.724   5.310 -2.2797  2.2849 -1.7394
 6743SOL     OW31687   1.329   3.048   3.091 -0.3500 -0.6110 -0.0364
 6743SOL    HW131688   1.372   3.117   3.141 -1.2681  0.4872 -0.7628
 6743SOL    HW231689   1.237   3.075   3.093  0.2449  1.5100 -1.3069
 6744SOL     OW31690   3.596   4.357   8.270  0.5192  0.1877  0.0890
 6744SOL    HW131691   3.523   4.411   8.240  0.5753  0.1629 -0.0956
 6744SOL    HW231692   3.559   4.273   8.243 -0.6328  0.2275  1.5902
 6745SOL     OW31693   2.090   2.426   8.029 -0.0766 -0.0776  0.6261
 6745SOL    HW131694   2.126   2.434   7.941 -0.6692  2.0021  0.5581
 6745SOL    HW231695   2.101   2.515   8.063  0.0813  0.2717 -0.3563
 6746SOL     OW31696   3.293   0.454  15.344  0.3972 -1.0126  0.5038
 6746SOL    HW131697   3.318   0.500  15.264 -0.0064 -3.2636 -0.9107
 6746SOL    HW231698   3.207   0.491  15.360  0.2919 -1.3832  0.7996
 6747SOL     OW31699   0.736   3.706  12.448  0.1986  0.2718 -0.2649
 6747SOL    HW131700   0.682   3.632  12.421 -2.8297  1.6592  2.0279
 6747SOL    HW231701   0.683   3.767  12.397  0.2324  0.9484  0.5170
 6748SOL     OW31702   1.972   1.256  13.066 -0.4188  0.3312 -0.7235
 6748SOL    HW131703   2.057   1.258  13.111 -1.3765 -0.0581  1.1161
 6748SOL    HW231704   1.989   1.217  12.980  0.2156  1.3362 -1.0575
 6749SOL     OW31705   3.451   0.512   6.585 -0.2233  0.1600 -0.2770
 6749SOL    HW131706   3.456   0.439   6.524 -1.9434  1.1621 -1.6117
 6749SOL    HW231707   3.493   0.578   6.530  0.2421  0.9461  1.0323
 6750SOL     OW31708   2.700   3.583   7.668 -0.1969  0.0396 -0.4889
 6750SOL    HW131709   2.792   3.603   7.683 -0.3663  0.1594  0.3801
 6750SOL    HW231710   2.693   3.546   7.580  1.3329  2.1942 -1.5147
 6751SOL     OW31711   0.127   3.055   3.006 -0.7513  0.0862 -0.7632
 6751SOL    HW131712   0.186   3.120   3.044 -1.8120  1.3542 -1.2531
 6751SOL    HW231713   0.076   3.119   2.955  2.3201 -0.5025 -4.5891
 6752SOL     OW31714   0.559   3.919   7.196  0.0928 -0.1750 -0.3738
 6752SOL    HW131715   0.495   3.966   7.143  0.5842  1.9735  0.9318
 6752SOL    HW231716   0.517   3.879   7.272 -0.3224  2.9173  1.0261
 6753SOL     OW31717   0.405   3.415   3.023 -0.2442  0.3361  0.5444
 6753SOL    HW131718   0.413   3.353   3.096  0.7633 -0.4375 -0.2297
 6753SOL    HW231719   0.353   3.372   2.956  1.8732  0.8998 -1.4479
 6754SOL     OW31720   0.278   0.285   5.269 -0.5921 -0.0805  0.0232
 6754SOL    HW131721   0.366   0.320   5.254 -0.8011  0.1592 -0.6282
 6754SOL    HW231722   0.270   0.315   5.360  2.2843  1.4319 -0.2262
 6755SOL     OW31723   3.280   3.730   7.931  0.1938  0.1271  0.1643
 6755SOL    HW131724   3.289   3.677   8.011  1.9042  1.0009  0.5343
 6755SOL    HW231725   3.184   3.733   7.929  0.2982  1.7249 -1.8382
 6756SOL     OW31726   2.958   0.932   5.531 -0.1097  0.0585  0.0478
 6756SOL    HW131727   3.042   0.977   5.521 -0.8330  1.3897 -0.0755
 6756SOL    HW231728   2.923   0.937   5.442 -2.5495 -2.4672  0.8913
 6757SOL     OW31729   0.514   1.918   8.067  0.1352  0.4096  0.2555
 6757SOL    HW131730   0.422   1.899   8.084  0.3630 -1.2378 -0.3907
 6757SOL    HW231731   0.555   1.851   8.121  1.4783 -0.2063 -1.5639
 6758SOL     OW31732   0.211   0.038   6.661  0.3368 -0.0653  0.4652
 6758SOL    HW131733   0.189   0.131   6.654  0.6727 -0.0483 -0.3457
 6758SOL    HW231734   0.228   0.035   6.755 -1.0584 -0.3057  0.7116
 6759SOL     OW31735   1.303   0.457  10.922  0.1181 -0.0679  1.2554
 6759SOL    HW131736   1.280   0.428  10.834  0.9970  1.7846  0.4186
 6759SOL    HW231737   1.386   0.413  10.940  1.7066  2.5149  0.1988
 6760SOL     OW31738   2.673   0.231   8.676  0.4814 -0.3572  0.6519
 6760SOL    HW131739   2.606   0.222   8.744 -1.6398  1.0084 -1.2248
 6760SOL    HW231740   2.707   0.320   8.679  0.5297 -0.2858 -1.7894
 6761SOL     OW31741   0.787   0.740  12.665 -0.0860 -0.0108  0.1324
 6761SOL    HW131742   0.813   0.685  12.739 -0.3257 -0.6686 -0.2725
 6761SOL    HW231743   0.836   0.712  12.588  1.2603 -1.6117  1.5638
 6762SOL     OW31744   4.599   0.943   9.845  0.1181 -0.5027 -0.1410
 6762SOL    HW131745   4.570   0.944   9.936  2.1169 -0.5946  0.4977
 6762SOL    HW231746   4.694   0.935   9.856  0.4543  1.6594 -1.3005
 6763SOL     OW31747   0.351   3.195  16.531 -0.3012  0.3389  0.3965
 6763SOL    HW131748   0.381   3.126  16.591  1.7383 -0.4044 -1.4560
 6763SOL    HW231749   0.277   3.238  16.573 -0.1052  0.8085  0.2620
 6764SOL     OW31750   4.579   3.185   7.777 -0.4707  0.3278  0.1314
 6764SOL    HW131751   4.541   3.144   7.854  2.0902 -0.6741  0.8736
 6764SOL    HW231752   4.512   3.174   7.710  0.5630 -3.7929 -0.1984
 6765SOL     OW31753   3.347   1.774   6.272 -0.0915 -0.2786 -0.0609
 6765SOL    HW131754   3.422   1.808   6.320 -0.6515  3.0081 -1.5087
 6765SOL    HW231755   3.284   1.840   6.302 -0.2799  0.1431 -1.3831
 6766SOL     OW31756   2.413   3.364   7.606  0.1505  0.1190 -0.7589
 6766SOL    HW131757   2.376   3.278   7.629 -2.5405  1.5273  0.0942
 6766SOL    HW231758   2.449   3.393   7.690 -0.3024 -0.3173 -0.4168
 6767SOL     OW31759   3.615   3.071   5.641 -0.1766  0.5846  0.0212
 6767SOL    HW131760   3.566   3.086   5.721  0.2241 -0.2682  0.4312
 6767SOL    HW231761   3.680   3.138   5.662  0.9436 -0.8278  1.0685
 6768SOL     OW31762   3.859   2.574   5.514  0.1042 -0.5008  0.0580
 6768SOL    HW131763   3.777   2.598   5.470  0.3280 -0.9615 -0.5965
 6768SOL    HW231764   3.905   2.657   5.499 -0.5386 -0.0019  0.8026
 6769SOL     OW31765   0.812   4.427   4.201  0.2793 -0.1871 -0.0473
 6769SOL    HW131766   0.834   4.486   4.274  1.4631 -0.5527 -0.1033
 6769SOL    HW231767   0.730   4.385   4.225  0.2422 -0.3722 -0.4957
 6770SOL     OW31768   2.035   4.484   2.320  0.3645  0.5061 -0.1976
 6770SOL    HW131769   2.082   4.456   2.242  1.5989 -0.6544  0.9445
 6770SOL    HW231770   1.966   4.418   2.321  1.9365 -1.1507 -0.5955
 6771SOL     OW31771   2.557   4.159   6.576 -0.3038  0.4368  0.5790
 6771SOL    HW131772   2.537   4.250   6.597  1.1444  0.2849  2.6051
 6771SOL    HW231773   2.640   4.165   6.529 -1.2931 -1.2505 -1.3822
 6772SOL     OW31774   0.789   2.796   7.671 -0.2391  0.1057 -0.1015
 6772SOL    HW131775   0.715   2.740   7.651  0.9488 -1.0362 -1.3280
 6772SOL    HW231776   0.756   2.884   7.652  0.3866  0.6930  1.5171
 6773SOL     OW31777   0.919   3.986   2.412  0.3947 -0.4070  0.1681
 6773SOL    HW131778   0.988   3.922   2.430  0.1855 -0.9325 -0.9653
 6773SOL    HW231779   0.845   3.926   2.413 -0.4406  0.6484  1.5485
 6774SOL     OW31780   1.693   1.585   7.632 -0.1238  0.0636  0.0473
 6774SOL    HW131781   1.616   1.538   7.660 -1.0147  1.5751  0.1493
 6774SOL    HW231782   1.658   1.671   7.607 -2.0588 -1.1239 -1.3132
 6775SOL     OW31783   1.363   3.603   1.727 -0.5245  0.1913  0.0930
 6775SOL    HW131784   1.348   3.513   1.696 -0.5869 -0.3167  1.6004
 6775SOL    HW231785   1.291   3.621   1.787  0.2552 -0.0594  1.0905
 6776SOL     OW31786   1.849   1.487   7.424 -0.8040 -0.4292  0.2091
 6776SOL    HW131787   1.886   1.560   7.374  0.7961 -0.6656  1.0292
 6776SOL    HW231788   1.813   1.526   7.505 -2.6443  0.0791 -0.8502
 6777SOL     OW31789   1.456   3.553   8.064  0.0258  0.0545 -0.6280
 6777SOL    HW131790   1.536   3.587   8.102 -0.3208 -0.8643  0.9440
 6777SOL    HW231791   1.486   3.546   7.973 -0.3411 -0.4989 -0.7063
 6778SOL     OW31792   4.095   1.225   2.604  0.6097  0.5141 -0.1232
 6778SOL    HW131793   4.143   1.211   2.522  1.4550 -2.4481  0.8586
 6778SOL    HW231794   4.149   1.290   2.649 -0.2621 -1.3858  3.6927
 6779SOL     OW31795   1.344   3.409  12.453 -0.2015 -0.0029  0.2877
 6779SOL    HW131796   1.249   3.398  12.452 -0.1810 -0.0270 -1.3331
 6779SOL    HW231797   1.347   3.503  12.435  3.5137  0.0928  1.4887
 6780SOL     OW31798   1.287   4.503   0.468  0.2189 -0.6892 -0.1931
 6780SOL    HW131799   1.229   4.443   0.515  0.2391  0.6635  1.5777
 6780SOL    HW231800   1.236   4.560   0.411 -0.8595  0.0632  1.5210
 6781SOL     OW31801   1.932   0.046  17.402  0.2442 -0.2066 -0.6602
 6781SOL    HW131802   2.010   0.058  17.457  1.4084 -2.1578 -1.9157
 6781SOL    HW231803   1.941   4.685  17.359  3.9962  0.9513 -2.1213
 6782SOL     OW31804   2.787   3.642   4.361 -0.0312 -0.0310  0.4290
 6782SOL    HW131805   2.759   3.598   4.281 -0.1769 -1.6245  1.3498
 6782SOL    HW231806   2.868   3.591   4.375 -0.3427 -0.9062 -1.0206
 6783SOL     OW31807   1.570   3.694  15.701  0.4019 -0.4483 -0.0352
 6783SOL    HW131808   1.508   3.648  15.644 -2.7692 -1.5197  4.2991
 6783SOL    HW231809   1.531   3.781  15.692  1.7538 -0.1161 -2.6613
 6784SOL     OW31810   2.918   1.597  16.980  0.3933  0.2943 -0.1812
 6784SOL    HW131811   2.845   1.569  16.926 -1.1110  1.0333  1.4735
 6784SOL    HW231812   2.957   1.673  16.936 -1.2653  0.1113 -1.9278
 6785SOL     OW31813   4.014   0.957   6.505  0.4044 -0.2258 -0.1453
 6785SOL    HW131814   4.040   1.041   6.544  0.7129 -1.2824  1.9174
 6785SOL    HW231815   4.102   0.928   6.480  0.5826 -1.4745  1.9458
 6786SOL     OW31816   4.161   3.059   0.421  0.4775 -0.2797 -0.9074
 6786SOL    HW131817   4.086   3.042   0.478  1.2473 -1.5747 -0.2851
 6786SOL    HW231818   4.217   3.104   0.485 -1.2889  0.9434 -0.2420
 6787SOL     OW31819   2.338   3.083   9.935 -0.2592 -0.1646  0.0555
 6787SOL    HW131820   2.414   3.140   9.926 -1.8785  2.2148  1.5325
 6787SOL    HW231821   2.290   3.094   9.853  0.1331  1.0574 -0.0021
 6788SOL     OW31822   1.271   3.311   6.807  0.0740 -0.4487 -0.1100
 6788SOL    HW131823   1.175   3.311   6.816  0.2745  0.7344  2.0022
 6788SOL    HW231824   1.296   3.299   6.898 -0.3480  1.9952  0.3294
 6789SOL     OW31825   4.573   4.662   2.962  0.1390  0.2786 -0.3514
 6789SOL    HW131826   4.617   4.627   3.039 -0.0921 -0.1626 -0.4251
 6789SOL    HW231827   4.604   0.030   2.967  2.2892 -0.5612  1.7553
 6790SOL     OW31828   1.717   2.651   3.305 -0.1210 -0.1470 -0.7254
 6790SOL    HW131829   1.755   2.736   3.330 -0.1448 -0.3690  0.0769
 6790SOL    HW231830   1.785   2.614   3.250  0.2504 -0.2994 -0.1569
 6791SOL     OW31831   1.218   1.458   9.530  0.4136 -0.1884  0.1154
 6791SOL    HW131832   1.230   1.376   9.482 -0.0313 -0.1612 -0.0403
 6791SOL    HW231833   1.289   1.513   9.496  0.7741  0.3919  1.7946
 6792SOL     OW31834   0.324   1.280   8.071  0.0179  0.3711  0.3651
 6792SOL    HW131835   0.252   1.296   8.010 -1.3569  0.7039  2.0758
 6792SOL    HW231836   0.389   1.341   8.036  0.7403 -0.7522 -0.2433
 6793SOL     OW31837   3.476   2.073  13.082  0.2292  0.8366 -0.2802
 6793SOL    HW131838   3.434   2.063  13.167  1.7787 -1.0579  0.2765
 6793SOL    HW231839   3.405   2.041  13.027  0.3733  0.2832 -0.1505
 6794SOL     OW31840   0.333   0.299   1.185 -0.2631  0.1783  0.4002
 6794SOL    HW131841   0.380   0.219   1.160  1.0245  0.5284  1.6983
 6794SOL    HW231842   0.283   0.260   1.256 -1.5345  0.9510 -0.0655
 6795SOL     OW31843   3.422   2.754   8.641  0.5241  0.6655 -0.1502
 6795SOL    HW131844   3.449   2.697   8.713  0.8896  0.1677 -0.6879
 6795SOL    HW231845   3.409   2.686   8.575  0.2002  0.8161 -0.2433
 6796SOL     OW31846   0.160   2.951   4.072  0.0458 -0.0054 -0.6681
 6796SOL    HW131847   0.249   2.919   4.088 -0.7223 -1.5417  0.4762
 6796SOL    HW231848   0.166   2.977   3.980 -1.1186 -0.8438 -0.9755
 6797SOL     OW31849   3.742   2.771  15.455  0.0954  0.8825  0.1163
 6797SOL    HW131850   3.760   2.694  15.401 -0.8431 -0.8286  2.2119
 6797SOL    HW231851   3.659   2.745  15.495  0.3443  2.2014  1.4860
 6798SOL     OW31852   1.796   3.520   5.450  0.3403 -0.2184 -0.3286
 6798SOL    HW131853   1.720   3.555   5.497  0.0803  2.7969 -3.0096
 6798SOL    HW231854   1.849   3.506   5.528 -0.9282  2.2521  0.9854
 6799SOL     OW31855   0.809   3.908   8.055  0.3743 -0.4081  0.8816
 6799SOL    HW131856   0.739   3.936   8.114  1.4513 -1.2062  2.5306
 6799SOL    HW231857   0.774   3.936   7.971  0.7661  1.5550  1.3614
 6800SOL     OW31858   3.009   1.254   6.528 -0.6590  0.0039 -0.3056
 6800SOL    HW131859   3.085   1.196   6.527 -0.1075  0.7165  0.3114
 6800SOL    HW231860   3.046   1.328   6.480  0.1003 -0.7671 -0.9109
 6801SOL     OW31861   0.572   3.578   4.356  0.0282 -0.2226  0.3767
 6801SOL    HW131862   0.536   3.654   4.402 -0.7016 -0.7642  0.7041
 6801SOL    HW231863   0.642   3.547   4.413 -0.7949 -0.0235  1.5030
 6802SOL     OW31864   1.305   3.465   0.920  0.0222  0.7462 -0.2462
 6802SOL    HW131865   1.221   3.511   0.924  0.0251  0.6600  1.0062
 6802SOL    HW231866   1.274   3.379   0.891  1.0603  1.0896 -2.3836
 6803SOL     OW31867   0.576   4.438  10.199 -0.4715  0.2408  0.3669
 6803SOL    HW131868   0.610   4.366  10.146 -1.6448 -1.0937  1.4496
 6803SOL    HW231869   0.657   4.490  10.200  1.7073 -3.1473  1.8917
 6804SOL     OW31870   1.760   2.751   3.684 -0.0336  0.2969 -0.4233
 6804SOL    HW131871   1.667   2.744   3.666  0.0608  1.8361 -1.5111
 6804SOL    HW231872   1.768   2.659   3.710 -1.8827  0.0596 -0.6806
 6805SOL     OW31873   3.486   2.216   4.781 -0.0899  0.3325  0.2382
 6805SOL    HW131874   3.392   2.201   4.788 -0.2578  0.8862 -0.7064
 6805SOL    HW231875   3.500   2.214   4.686 -0.1498  0.6284  0.2221
 6806SOL     OW31876   4.695   3.784  12.692 -0.0056  0.1012 -0.6071
 6806SOL    HW131877   0.065   3.804  12.694 -0.2848  1.2091  2.0568
 6806SOL    HW231878   4.647   3.864  12.715  0.4754  0.0409  0.6121
 6807SOL     OW31879   0.044   4.645  16.762  0.3656  0.7134  0.0135
 6807SOL    HW131880   0.096   0.002  16.770  1.5286 -0.0902  0.4974
 6807SOL    HW231881   0.024   4.638  16.668  1.4549 -2.2785 -0.0170
 6808SOL     OW31882   3.652   2.265  13.158 -0.3343 -0.0158  0.2082
 6808SOL    HW131883   3.588   2.211  13.110  0.9061  0.8306 -2.4213
 6808SOL    HW231884   3.686   2.204  13.224  1.6594 -0.0797 -0.8825
 6809SOL     OW31885   2.530   0.374   2.917 -0.0824 -0.2212  0.4697
 6809SOL    HW131886   2.512   0.417   2.833  0.4339  0.6311  0.7936
 6809SOL    HW231887   2.542   0.445   2.980  2.2877  0.4111 -0.6787
 6810SOL     OW31888   2.965   3.878   2.947 -0.4651 -0.0924 -0.3692
 6810SOL    HW131889   3.017   3.955   2.971 -1.1088 -0.2260  1.4027
 6810SOL    HW231890   2.923   3.858   3.030 -2.2317  3.1102 -0.5345
 6811SOL     OW31891   4.304   3.514  16.653  0.2690 -0.0421 -0.1495
 6811SOL    HW131892   4.286   3.579  16.721 -1.3340 -0.3755 -0.2601
 6811SOL    HW231893   4.313   3.440  16.713 -0.8241  0.2213  0.3315
 6812SOL     OW31894   0.035   1.227   2.749  0.1052  0.5601 -0.3053
 6812SOL    HW131895   0.047   1.179   2.831  2.2776 -0.6328 -1.3235
 6812SOL    HW231896   4.668   1.256   2.766  0.6437  1.9801  0.0987
 6813SOL     OW31897   4.474   0.162   7.436 -0.3853 -0.0260 -0.6947
 6813SOL    HW131898   4.384   0.130   7.442 -0.1159 -0.5265  0.6780
 6813SOL    HW231899   4.467   0.201   7.523 -2.6011  0.4500 -1.0738
 6814SOL     OW31900   2.934   4.551   5.470  0.9326 -0.2846 -0.1948
 6814SOL    HW131901   2.862   4.492   5.449  1.6378 -1.5507  0.9447
 6814SOL    HW231902   2.909   4.582   5.557  0.5362 -0.8519 -0.1097
 6815SOL     OW31903   4.409   4.117   5.861 -0.0103  0.2956 -0.0156
 6815SOL    HW131904   4.408   4.179   5.789  2.7752  1.5224  1.0048
 6815SOL    HW231905   4.366   4.044   5.816  1.3168 -0.1348 -0.5907
 6816SOL     OW31906   4.416   2.862   2.875  0.0228 -0.3862 -0.4169
 6816SOL    HW131907   4.496   2.861   2.822  1.7876 -0.7137  2.2629
 6816SOL    HW231908   4.356   2.901   2.811  0.9685 -1.7148 -2.1214
 6817SOL     OW31909   3.060   4.344   6.757  0.2780  0.7921 -0.6067
 6817SOL    HW131910   3.119   4.269   6.751 -0.6820 -0.0744  0.6731
 6817SOL    HW231911   3.010   4.333   6.676  3.7160 -0.1951 -2.5732
 6818SOL     OW31912   2.231   2.962   5.602 -0.0433 -0.3889  0.2195
 6818SOL    HW131913   2.187   3.042   5.630 -0.7404 -1.1335  1.2258
 6818SOL    HW231914   2.244   2.997   5.514 -2.9149  1.5570  0.5747
 6819SOL     OW31915   1.464   4.154   3.451 -0.2290 -0.2416 -0.6017
 6819SOL    HW131916   1.556   4.135   3.432 -0.0905 -0.1008 -0.0504
 6819SOL    HW231917   1.446   4.197   3.367  1.7355 -1.3344 -1.5887
 6820SOL     OW31918   1.607   0.092  12.632  0.7488 -0.5746 -0.1274
 6820SOL    HW131919   1.516   0.102  12.661  1.3520 -1.8676  2.2516
 6820SOL    HW231920   1.659   0.136  12.699  2.0997 -0.6517 -1.1420
 6821SOL     OW31921   3.199   1.105   3.899  0.6199  0.5978  0.0876
 6821SOL    HW131922   3.244   1.189   3.906  2.9785 -0.9342  3.0374
 6821SOL    HW231923   3.207   1.088   3.805  0.9721  2.2176 -0.1779
 6822SOL     OW31924   4.013   0.839   3.398 -0.1716 -0.4574  0.4656
 6822SOL    HW131925   4.033   0.802   3.484  2.6332 -0.6233 -0.2561
 6822SOL    HW231926   4.099   0.830   3.357 -0.0186 -0.6091  0.8175
 6823SOL     OW31927   4.291   2.252   7.345 -0.0610 -0.2264  0.4989
 6823SOL    HW131928   4.296   2.249   7.441 -1.0892  2.3844  0.6325
 6823SOL    HW231929   4.197   2.240   7.331 -0.0948 -2.2935  2.4829
 6824SOL     OW31930   1.736   3.615   7.249 -0.1708 -0.0703  0.0063
 6824SOL    HW131931   1.686   3.649   7.176 -0.1147 -1.5439 -0.7351
 6824SOL    HW231932   1.722   3.680   7.318  0.0512 -0.5445  0.5074
 6825SOL     OW31933   2.062   0.871   3.406 -0.1184 -0.4786  0.2110
 6825SOL    HW131934   2.134   0.812   3.429 -0.7083 -0.6200  1.6783
 6825SOL    HW231935   2.101   0.952   3.438 -0.2820 -1.1974  2.2543
 6826SOL     OW31936   4.532   0.763  17.386 -0.0330 -0.0856 -0.2004
 6826SOL    HW131937   4.534   0.857  17.369  2.9563  0.0040  0.6305
 6826SOL    HW231938   4.508   0.726  17.301  0.1262 -1.7405  0.4617
 6827SOL     OW31939   0.060   2.862   4.442  0.1125  0.3087 -0.4438
 6827SOL    HW131940   0.032   2.948   4.411 -1.5374 -0.1498 -0.2287
 6827SOL    HW231941   0.089   2.881   4.531 -0.4934  0.7944 -0.3474
 6828SOL     OW31942   4.405   3.152   8.007  0.0591 -0.6762 -0.0347
 6828SOL    HW131943   4.346   3.223   7.983 -1.5193 -2.3739 -1.1447
 6828SOL    HW231944   4.343   3.079   8.002 -0.9034  0.1393  0.0905
 6829SOL     OW31945   3.651   3.746   3.202 -0.1487  0.5772  0.5477
 6829SOL    HW131946   3.710   3.813   3.237  1.1043  0.3286 -1.0836
 6829SOL    HW231947   3.670   3.683   3.272 -1.4754 -0.3009  0.1209
 6830SOL     OW31948   0.776   4.048   8.873  0.6172 -0.1539 -0.5910
 6830SOL    HW131949   0.753   4.059   8.781 -1.0722  3.3819  0.2774
 6830SOL    HW231950   0.848   4.111   8.878  0.2873  0.2998 -1.4118
 6831SOL     OW31951   1.197   1.908  15.214  0.0183 -0.1201 -0.2767
 6831SOL    HW131952   1.140   1.858  15.272 -0.3525  0.4013 -0.1930
 6831SOL    HW231953   1.270   1.847  15.203  1.4212  1.4815  0.2106
 6832SOL     OW31954   3.046   3.999   8.317  0.2818  0.8173  0.4414
 6832SOL    HW131955   3.113   3.980   8.382 -0.2290 -0.9736  0.4490
 6832SOL    HW231956   3.003   4.080   8.345 -0.3566  0.6321  0.0084
 6833SOL     OW31957   3.205   1.838   6.585 -0.6186  0.3171 -0.3280
 6833SOL    HW131958   3.242   1.754   6.557 -0.9521 -0.9416  2.9474
 6833SOL    HW231959   3.120   1.806   6.615 -1.3540  1.6912 -0.9524
 6834SOL     OW31960   1.867   4.411  12.024  0.2032 -0.2942 -0.1736
 6834SOL    HW131961   1.869   4.321  12.055 -1.9634 -0.3564 -0.2572
 6834SOL    HW231962   1.954   4.410  11.984  0.2326  0.2415 -0.1320
 6835SOL     OW31963   3.063   0.608   4.452  0.1547  1.0253 -0.3310
 6835SOL    HW131964   3.060   0.527   4.504  1.6944  0.3568 -1.3134
 6835SOL    HW231965   3.131   0.596   4.386  0.2758  2.4242 -0.4408
 6836SOL     OW31966   2.966   4.018   5.820  0.0069 -0.1977 -0.2698
 6836SOL    HW131967   2.950   4.112   5.829  1.9861  0.1510 -0.4180
 6836SOL    HW231968   3.060   4.002   5.828  0.3374  0.9923 -1.8711
 6837SOL     OW31969   0.725   1.457   1.007  0.0809  0.0632 -0.1827
 6837SOL    HW131970   0.798   1.499   0.962 -0.0994 -0.4945 -0.9849
 6837SOL    HW231971   0.653   1.520   1.002  1.0518  0.9132 -3.2477
 6838SOL     OW31972   2.486   4.566   0.132 -0.2186  0.5710 -0.4875
 6838SOL    HW131973   2.441   4.630   0.189  0.2969 -0.0377  0.6073
 6838SOL    HW231974   2.416   4.516   0.090  1.6916 -1.1019 -1.6486
 6839SOL     OW31975   4.270   3.529   6.679 -0.5368 -0.2387  0.3987
 6839SOL    HW131976   4.355   3.528   6.723 -0.2769 -2.2863 -0.1541
 6839SOL    HW231977   4.285   3.483   6.596 -0.3478  1.1417 -0.3274
 6840SOL     OW31978   3.338   4.202   8.379  0.7113  0.0472 -0.0553
 6840SOL    HW131979   3.369   4.218   8.468  1.2261  0.4390 -0.3026
 6840SOL    HW231980   3.271   4.269   8.371  0.0016 -0.5135  1.1457
 6841SOL     OW31981   4.147   4.135   6.839  0.0407  0.5601  0.0278
 6841SOL    HW131982   4.143   4.044   6.868 -0.1473  0.8758  1.0144
 6841SOL    HW231983   4.241   4.152   6.842 -0.1943  2.1070 -1.0061
 6842SOL     OW31984   0.427   1.298   1.128  0.5243 -0.3229 -0.4651
 6842SOL    HW131985   0.350   1.256   1.168 -0.3497  1.7025 -0.0331
 6842SOL    HW231986   0.493   1.229   1.137  2.0566  0.8408 -2.7185
 6843SOL     OW31987   2.828   1.989  15.034  0.7972  0.1203 -0.1931
 6843SOL    HW131988   2.903   1.958  15.084  0.7149 -0.3209 -0.3468
 6843SOL    HW231989   2.788   1.908  15.003  0.8908 -0.4678  1.2159
 6844SOL     OW31990   1.551   1.264   6.339  0.4868  0.0636 -0.1248
 6844SOL    HW131991   1.581   1.351   6.362 -4.0556  1.3339  1.0294
 6844SOL    HW231992   1.567   1.217   6.421  0.5448  1.9200  0.9211
 6845SOL     OW31993   3.865   0.189  13.201 -0.4160 -0.2567  0.4623
 6845SOL    HW131994   3.862   0.283  13.216 -0.2286  0.1349 -2.0640
 6845SOL    HW231995   3.828   0.156  13.283 -2.4471  3.6183  1.1145
 6846SOL     OW31996   1.955   0.428   5.085  0.0122  0.1630 -0.0817
 6846SOL    HW131997   1.938   0.413   4.992 -2.4286  1.5677  0.1422
 6846SOL    HW231998   1.889   0.369   5.121  0.4839  0.0622  0.6185
 6847SOL     OW31999   1.231   2.027   4.727 -0.4360  0.0035 -0.3717
 6847SOL    HW132000   1.170   2.065   4.664 -0.9383  0.0559  0.1465
 6847SOL    HW232001   1.195   1.939   4.737  1.2526 -0.5231  1.0444
 6848SOL     OW32002   4.705   0.040   2.126 -0.3120  0.2246  0.7528
 6848SOL    HW132003   4.636   0.075   2.183 -0.1688  2.0815 -0.2127
 6848SOL    HW232004   4.716   4.674   2.159  1.5835  0.5561  1.0289
 6849SOL     OW32005   2.115   2.431   4.639  0.2702  0.1037 -0.6141
 6849SOL    HW132006   2.210   2.419   4.643  0.0992 -0.5765  1.8137
 6849SOL    HW232007   2.109   2.512   4.589 -1.1045 -0.4108 -1.2879
 6850SOL     OW32008   1.762   3.724   4.095  0.2746  0.0087 -0.3423
 6850SOL    HW132009   1.669   3.734   4.114  0.3103  0.0008 -0.1662
 6850SOL    HW232010   1.753   3.690   4.006 -1.0090  1.7301 -0.8707
 6851SOL     OW32011   2.291   0.769   3.510  0.0940 -0.3654  0.1660
 6851SOL    HW132012   2.321   0.710   3.579  1.6866  0.1671 -0.0664
 6851SOL    HW232013   2.335   0.848   3.538 -0.3293 -0.3201  0.6847
 6852SOL     OW32014   0.547   0.889  17.339 -0.0731 -0.0620  0.6232
 6852SOL    HW132015   0.626   0.838  17.357  0.2862  0.3343  0.1532
 6852SOL    HW232016   0.583   0.971  17.307  0.4043 -0.4888  0.0724
 6853SOL     OW32017   0.959   0.536   2.949  0.0755  0.2373  0.6106
 6853SOL    HW132018   0.971   0.578   2.864  0.7444 -2.9956 -0.9004
 6853SOL    HW232019   0.951   0.600   3.019  0.8268  0.5400  0.4175
 6854SOL     OW32020   4.717   4.434  17.284  0.3143  0.3968 -0.1087
 6854SOL    HW132021   0.066   4.465  17.229 -0.4367 -0.5742 -1.6639
 6854SOL    HW232022   4.645   4.429  17.221  0.0942  0.6037  0.1272
 6855SOL     OW32023   3.093   3.069   5.858  0.4466  0.3547 -0.4188
 6855SOL    HW132024   3.053   3.071   5.771  2.0879  2.1168 -1.1226
 6855SOL    HW232025   3.047   3.134   5.911  0.2237 -1.1642  1.2636
 6856SOL     OW32026   0.060   0.915  10.471 -0.2239 -0.0497  0.3897
 6856SOL    HW132027   4.691   0.914  10.447 -0.3044  0.1216  0.6956
 6856SOL    HW232028   0.055   0.857  10.547 -0.5126 -2.1782 -1.2574
 6857SOL     OW32029   1.305   1.380   2.235 -0.3544  0.8492  0.0984
 6857SOL    HW132030   1.216   1.415   2.224 -0.4990  0.5827  0.4419
 6857SOL    HW232031   1.339   1.444   2.298  0.5858  0.9533 -0.5290
 6858SOL     OW32032   3.642   1.201   3.274 -0.0229 -0.4111  0.0932
 6858SOL    HW132033   3.689   1.125   3.309  1.5142  0.4207 -0.1616
 6858SOL    HW232034   3.700   1.221   3.201 -0.5331 -1.7969 -0.6881
 6859SOL     OW32035   2.050   2.093   6.510 -0.2005 -0.1588  0.0760
 6859SOL    HW132036   1.966   2.050   6.494 -0.4656  0.1562  0.5991
 6859SOL    HW232037   2.024   2.185   6.519 -0.3227 -0.0142 -1.9005
 6860SOL     OW32038   1.754   4.474  13.479  0.7364  0.1292  0.3650
 6860SOL    HW132039   1.818   4.463  13.409 -2.7647 -0.9240 -2.6524
 6860SOL    HW232040   1.806   4.533  13.533  2.4740 -0.3013 -0.8650
 6861SOL     OW32041   4.426   0.320  16.968 -0.8345  0.0671 -0.3652
 6861SOL    HW132042   4.521   0.322  16.972 -0.7685  2.0593 -2.3909
 6861SOL    HW232043   4.411   0.231  16.997  0.4052 -0.1523 -0.3923
 6862SOL     OW32044   1.749   4.190   3.837 -0.2316  0.2216 -0.1801
 6862SOL    HW132045   1.835   4.225   3.861 -0.2078  0.8617 -1.1596
 6862SOL    HW232046   1.773   4.103   3.869 -0.6562  0.2404  0.1744
 6863SOL     OW32047   0.956   2.291   6.766  0.0008 -0.2853 -0.2994
 6863SOL    HW132048   0.932   2.310   6.857 -1.2274  0.1882 -0.7168
 6863SOL    HW232049   0.872   2.269   6.727 -0.9717  0.8791  1.1094
 6864SOL     OW32050   1.109   0.557   0.398 -0.0694 -0.6076 -0.3507
 6864SOL    HW132051   1.157   0.579   0.318 -0.4157  1.3096 -0.0106
 6864SOL    HW232052   1.111   0.644   0.436  1.0671 -1.2570  1.0376
 6865SOL     OW32053   3.987   4.330   2.192 -0.4670 -0.0283 -0.1223
 6865SOL    HW132054   4.066   4.369   2.228 -1.2828  2.3869 -0.9282
 6865SOL    HW232055   3.951   4.277   2.263 -1.5616  2.2572  1.0440
 6866SOL     OW32056   4.439   4.299   3.228 -0.3732  0.4138 -0.1223
 6866SOL    HW132057   4.396   4.383   3.210 -1.7253  0.4930  3.6168
 6866SOL    HW232058   4.372   4.257   3.282  0.1066 -0.9713 -0.5991
 6867SOL     OW32059   2.508   1.879   3.665  0.2918  0.1154  0.0921
 6867SOL    HW132060   2.548   1.806   3.712  0.9261  1.0259  0.9829
 6867SOL    HW232061   2.566   1.885   3.589 -0.9162  1.2671 -0.7403
 6868SOL     OW32062   4.619   0.093  17.120  0.5205 -0.1894  0.3228
 6868SOL    HW132063   4.608   0.032  17.047 -1.5065 -1.1802  1.4758
 6868SOL    HW232064   4.665   0.164  17.075 -0.8021 -1.0687 -2.4295
 6869SOL     OW32065   0.923   1.406   0.045  0.1665  0.0859 -0.0975
 6869SOL    HW132066   0.849   1.419   0.104 -1.0139 -1.7635 -1.1569
 6869SOL    HW232067   0.988   1.362   0.099 -0.5328 -0.1333  0.5621
 6870SOL     OW32068   2.013   4.611  14.676 -0.1767  0.0277 -0.0462
 6870SOL    HW132069   2.016   4.686  14.617  2.2116 -1.1837 -1.4813
 6870SOL    HW232070   1.941   4.561  14.637 -0.2384 -0.0207  0.1281
 6871SOL     OW32071   1.220   3.699   6.823 -0.1681 -0.2527  0.1071
 6871SOL    HW132072   1.178   3.742   6.748 -0.9756  0.5672  1.0283
 6871SOL    HW232073   1.171   3.616   6.822 -2.4275  1.0600  1.5188
 6872SOL     OW32074   3.951   1.570   7.213  0.6876 -0.1496 -0.0249
 6872SOL    HW132075   3.998   1.648   7.244 -0.9923  1.1873 -0.8430
 6872SOL    HW232076   3.990   1.510   7.276  1.3737 -0.1451 -0.4396
 6873SOL     OW32077   1.997   1.951   8.228  0.0976  0.0666 -0.0648
 6873SOL    HW132078   1.954   1.959   8.313 -1.3497  2.2871 -1.0160
 6873SOL    HW232079   1.928   1.911   8.176 -2.2809  3.5064  0.4192
 6874SOL     OW32080   3.974   2.813   5.498  0.2058  0.7211  0.0167
 6874SOL    HW132081   3.956   2.897   5.541  1.2152  0.8986  0.0837
 6874SOL    HW232082   4.028   2.848   5.427 -1.9373  0.4273 -1.7965
 6875SOL     OW32083   2.644   0.518  12.012 -0.0984 -0.3300 -0.2023
 6875SOL    HW132084   2.696   0.587  12.052 -0.8868 -0.3173  0.8136
 6875SOL    HW232085   2.555   0.552  12.024  0.9567  1.5497  2.3815
 6876SOL     OW32086   2.363   1.527   3.750  0.6264 -0.2751  0.0200
 6876SOL    HW132087   2.454   1.558   3.741 -0.1202  0.6517 -4.3636
 6876SOL    HW232088   2.331   1.535   3.660  1.0674  0.0074 -0.1166
 6877SOL     OW32089   2.193   2.817  15.544 -0.3185 -0.2626  0.0594
 6877SOL    HW132090   2.173   2.726  15.566  2.5477 -0.6694  1.0009
 6877SOL    HW232091   2.219   2.851  15.630 -2.9456  0.3071  0.6300
 6878SOL     OW32092   2.688   1.427  16.218  0.4838  0.2789 -0.3950
 6878SOL    HW132093   2.712   1.423  16.310  3.4523 -2.1577 -1.2963
 6878SOL    HW232094   2.598   1.394  16.227  0.8140  0.0871  2.2341
 6879SOL     OW32095   1.409   0.720   3.279  0.2185 -0.5340  0.0096
 6879SOL    HW132096   1.398   0.646   3.220  1.9196  0.0116 -1.0005
 6879SOL    HW232097   1.377   0.783   3.214 -0.0587 -0.2099  0.4631
 6880SOL     OW32098   4.668   1.888   3.658 -0.3587  0.2047  0.2306
 6880SOL    HW132099   4.583   1.852   3.682 -0.7993  2.4662  2.1267
 6880SOL    HW232100   4.635   1.934   3.581 -1.4684  2.9571  2.3165
 6881SOL     OW32101   0.349   3.287   8.876  0.7760 -0.0122  0.0360
 6881SOL    HW132102   0.264   3.272   8.918 -0.1620 -0.9395 -2.1889
 6881SOL    HW232103   0.400   3.322   8.950  0.2411 -1.1272  0.9419
 6882SOL     OW32104   2.131   4.243  16.813  0.1786 -0.1960  0.2735
 6882SOL    HW132105   2.097   4.206  16.894 -1.6744  0.4242 -0.2114
 6882SOL    HW232106   2.225   4.225  16.815  0.4731  1.1629 -1.4362
 6883SOL     OW32107   4.708   2.589   2.430  0.2445  0.1778  0.8954
 6883SOL    HW132108   4.650   2.665   2.426 -0.9519 -0.8502 -0.9470
 6883SOL    HW232109   4.678   2.550   2.348  3.1153 -1.1683  0.5057
 6884SOL     OW32110   0.955   0.366  12.421  0.3417 -0.0186 -0.0757
 6884SOL    HW132111   0.992   0.324  12.344 -0.1119 -1.6053  0.5730
 6884SOL    HW232112   0.980   0.311  12.496  1.3811 -1.5392 -1.5559
 6885SOL     OW32113   0.573   4.287   8.713 -0.1299  0.5438  0.1605
 6885SOL    HW132114   0.515   4.211   8.709  0.4661 -0.0386  2.5144
 6885SOL    HW232115   0.639   4.258   8.650  1.6608 -0.4876  2.5438
 6886SOL     OW32116   4.096   3.698  12.899  0.1374  0.1151 -0.1920
 6886SOL    HW132117   4.092   3.786  12.861  0.6365 -0.3079 -1.2218
 6886SOL    HW232118   4.051   3.642  12.835  1.0570 -1.8418  0.8803
 6887SOL     OW32119   3.286   2.432   1.126  0.1973  0.4497 -0.5744
 6887SOL    HW132120   3.198   2.467   1.112  0.0172  0.5433  0.7950
 6887SOL    HW232121   3.274   2.391   1.212  0.4468 -1.1203 -1.2840
 6888SOL     OW32122   2.706   1.970   8.351  0.0823 -0.2044  0.3632
 6888SOL    HW132123   2.709   2.044   8.411 -0.0029 -0.4355  0.6500
 6888SOL    HW232124   2.801   1.957   8.345 -0.2679 -2.3806 -0.2812
 6889SOL     OW32125   2.645   3.958   3.740  0.2975 -0.0646  0.3488
 6889SOL    HW132126   2.636   4.042   3.786  1.0918  0.0536  0.2930
 6889SOL    HW232127   2.608   3.894   3.801 -0.7556  1.1941  1.0596
 6890SOL     OW32128   3.919   2.606   8.516 -0.1346  0.3079  0.4091
 6890SOL    HW132129   3.888   2.641   8.432  0.2567  0.5351  0.3607
 6890SOL    HW232130   3.952   2.685   8.559 -1.7636  0.2789  1.7294
 6891SOL     OW32131   2.098   2.015   7.971 -0.0018 -0.2466 -0.1506
 6891SOL    HW132132   2.175   2.066   7.998  0.2805 -0.8377  0.1585
 6891SOL    HW232133   2.066   2.004   8.061 -1.8411  3.3136 -0.3659
 6892SOL     OW32134   3.423   1.030   4.816 -0.2258  0.0069 -0.3353
 6892SOL    HW132135   3.413   1.107   4.760  0.7951  0.5999  0.2937
 6892SOL    HW232136   3.343   1.046   4.866 -0.7304 -2.5065 -0.3334
 6893SOL     OW32137   2.321   1.766   4.696  0.1018  0.4871 -0.4898
 6893SOL    HW132138   2.349   1.821   4.623 -0.3315 -0.0554 -1.0605
 6893SOL    HW232139   2.226   1.780   4.701 -0.2680 -2.6601  1.0468
 6894SOL     OW32140   0.726   4.361   6.910  0.0875 -0.2992  0.4343
 6894SOL    HW132141   0.670   4.310   6.968 -3.3417  0.9464 -1.7508
 6894SOL    HW232142   0.729   4.305   6.833 -0.0460  0.5563 -0.1994
 6895SOL     OW32143   0.516   0.664  10.525 -0.8516  1.1628  0.2167
 6895SOL    HW132144   0.462   0.737  10.496  0.2645  2.5027  1.5447
 6895SOL    HW232145   0.596   0.704  10.560 -0.0482  0.6929 -1.0623
 6896SOL     OW32146   0.218   0.503   1.692  0.2556 -0.1160  0.0158
 6896SOL    HW132147   0.174   0.540   1.768  2.4194  0.3458  1.0508
 6896SOL    HW232148   0.153   0.475   1.628 -2.5079 -0.6043  3.0214
 6897SOL     OW32149   4.504   3.144   0.336  0.6663 -0.1974  0.1705
 6897SOL    HW132150   4.560   3.156   0.259 -0.8149  3.7012 -0.2541
 6897SOL    HW232151   4.493   3.232   0.371  0.2782  0.3151 -1.2212
 6898SOL     OW32152   2.131   3.665  11.260  0.1911  0.2960 -0.3356
 6898SOL    HW132153   2.061   3.665  11.326  0.9377 -0.4586  0.4692
 6898SOL    HW232154   2.187   3.593  11.291 -1.5123 -1.5951 -1.6607
 6899SOL     OW32155   0.127   1.242   6.762 -0.1753 -0.2360 -0.0299
 6899SOL    HW132156   0.131   1.273   6.671 -0.9521  0.1246  0.0507
 6899SOL    HW232157   0.037   1.269   6.783 -0.5905 -1.1588 -0.6180
 6900SOL     OW32158   2.332   4.335  10.962  0.0133  0.2345 -0.1725
 6900SOL    HW132159   2.383   4.388  11.023  0.5844  0.3249 -0.7251
 6900SOL    HW232160   2.407   4.305  10.911  0.8278 -1.7163  2.2146
 6901SOL     OW32161   3.116   2.109   4.070  0.7029  0.0306  0.0050
 6901SOL    HW132162   3.115   2.203   4.049  3.0603  0.3556  1.2429
 6901SOL    HW232163   3.037   2.089   4.019  1.6654 -1.5334 -0.8820
 6902SOL     OW32164   0.697   2.402  16.024  0.4790  0.1350 -0.4807
 6902SOL    HW132165   0.604   2.422  16.028  0.6378  0.8705 -0.5296
 6902SOL    HW232166   0.703   2.357  16.108  0.6446 -1.0086 -1.0973
 6903SOL     OW32167   4.248   4.045  16.677  0.3015  0.0716  0.2685
 6903SOL    HW132168   4.197   3.970  16.645 -1.4526  1.3187  0.1518
 6903SOL    HW232169   4.219   4.113  16.616 -0.8772 -0.7092 -0.0370
 6904SOL     OW32170   3.364   4.633   2.400  0.0885 -0.3059  0.2422
 6904SOL    HW132171   3.305   4.636   2.476 -1.3620  0.5407 -0.9067
 6904SOL    HW232172   3.446   4.599   2.436 -0.9116 -2.8608  0.1137
 6905SOL     OW32173   2.267   4.043   9.418 -0.0227 -0.6205  0.0100
 6905SOL    HW132174   2.182   4.088   9.418 -0.3273 -1.1747  1.7789
 6905SOL    HW232175   2.283   4.032   9.325  1.5525  0.9691  0.0812
 6906SOL     OW32176   1.875   1.280   4.505 -0.0281 -0.1937 -0.8698
 6906SOL    HW132177   1.789   1.305   4.470  0.6686  0.1342 -2.3490
 6906SOL    HW232178   1.905   1.217   4.439 -1.2009 -1.5073 -0.1623
 6907SOL     OW32179   1.254   4.430   7.507 -0.3460 -0.1197  0.1034
 6907SOL    HW132180   1.277   4.339   7.484 -0.4373  0.4269 -2.1201
 6907SOL    HW232181   1.340   4.470   7.516 -0.5785  0.4575 -0.3049
 6908SOL     OW32182   1.682   3.838   3.312 -0.2941  0.1511  0.4757
 6908SOL    HW132183   1.740   3.786   3.257  1.8869  2.2509  0.8138
 6908SOL    HW232184   1.612   3.773   3.309 -1.6051  1.5986 -0.1021
 6909SOL     OW32185   4.018   2.241   5.780  0.2891  0.2700 -0.3811
 6909SOL    HW132186   4.055   2.220   5.695  0.8056  0.6530 -0.2477
 6909SOL    HW232187   3.930   2.262   5.748 -0.1128 -0.5457  0.1812
 6910SOL     OW32188   3.348   3.826   8.220  0.1883  0.4043  0.5074
 6910SOL    HW132189   3.269   3.812   8.272  0.0121  0.9011  0.3697
 6910SOL    HW232190   3.362   3.738   8.186 -0.1007  0.4444  0.2851
 6911SOL     OW32191   1.056   4.299   5.054  0.1305 -0.2033 -0.2970
 6911SOL    HW132192   0.986   4.263   5.109  0.4030  0.3228  0.3985
 6911SOL    HW232193   1.019   4.379   5.019 -1.5654 -0.1059  1.7073
 6912SOL     OW32194   1.492   2.236   6.687 -0.3051 -0.0777  0.3536
 6912SOL    HW132195   1.414   2.271   6.644 -1.4610  0.4891  2.9182
 6912SOL    HW232196   1.474   2.263   6.777 -0.6452 -1.9855  0.8635
 6913SOL     OW32197   3.142   2.729   7.767  0.1386  0.4653 -0.0978
 6913SOL    HW132198   3.106   2.644   7.794 -2.0982  1.1361 -1.0063
 6913SOL    HW232199   3.136   2.777   7.850 -0.0310 -2.4922  1.5922
 6914SOL     OW32200   3.171   4.224   6.105 -0.1088 -0.0417  0.3594
 6914SOL    HW132201   3.086   4.247   6.069 -0.0816  1.1985  1.1050
 6914SOL    HW232202   3.234   4.274   6.053 -0.8360  0.2199 -0.2736
 6915SOL     OW32203   2.079   4.097  17.062  0.4294  0.6796 -0.4177
 6915SOL    HW132204   2.075   4.003  17.042  4.6144 -0.0355  2.2137
 6915SOL    HW232205   2.163   4.098  17.108 -0.2928  0.0318  0.9203
 6916SOL     OW32206   1.071   0.906   3.562  0.2598  0.1050  0.0161
 6916SOL    HW132207   1.151   0.927   3.515  0.5875 -1.2455 -0.0164
 6916SOL    HW232208   1.033   0.994   3.565 -0.0872 -0.0541  0.3948
 6917SOL     OW32209   1.261   1.202   3.149 -0.5789 -0.7523  0.3553
 6917SOL    HW132210   1.351   1.230   3.134 -1.2779 -0.4100 -3.1241
 6917SOL    HW232211   1.248   1.214   3.243 -2.0486 -0.9811  0.1801
 6918SOL     OW32212   1.514   2.975   2.019 -0.4220 -0.4393 -0.1394
 6918SOL    HW132213   1.545   2.956   1.930  0.4448  0.7455 -0.0914
 6918SOL    HW232214   1.559   2.906   2.068 -0.2035  0.3784  0.8262
 6919SOL     OW32215   0.700   0.565  14.542  0.1477 -0.0788 -0.0806
 6919SOL    HW132216   0.691   0.637  14.479  1.0560 -0.7920 -1.0279
 6919SOL    HW232217   0.613   0.543  14.575 -0.2228 -0.1552 -1.1176
 6920SOL     OW32218   1.106   1.492   2.035  0.5456  0.3666  0.4556
 6920SOL    HW132219   1.141   1.562   1.980 -1.6293  0.4814 -0.7629
 6920SOL    HW232220   1.030   1.534   2.074  0.3290  2.4518 -2.2063
 6921SOL     OW32221   3.047   2.829   7.530 -0.7383 -0.5269 -0.3251
 6921SOL    HW132222   3.069   2.796   7.617 -3.6735 -2.7554 -0.4512
 6921SOL    HW232223   3.012   2.916   7.547  0.3846 -0.6322  2.5775
 6922SOL     OW32224   3.963   2.500   1.867 -0.2344  0.3160 -0.6599
 6922SOL    HW132225   3.948   2.409   1.842 -2.4963 -0.0301  2.0673
 6922SOL    HW232226   3.957   2.485   1.961 -0.1747  2.3063 -0.3313
 6923SOL     OW32227   3.728   2.951  16.206 -0.0689  0.1184  0.5079
 6923SOL    HW132228   3.673   2.973  16.281 -0.7027  1.2647 -0.2957
 6923SOL    HW232229   3.726   2.855  16.207 -1.1615  0.0724 -3.2434
 6924SOL     OW32230   3.114   0.083   4.650 -0.4515 -0.2767 -0.1965
 6924SOL    HW132231   3.064   0.047   4.724 -0.0496 -0.7369 -0.1499
 6924SOL    HW232232   3.074   0.043   4.572  0.0275 -0.4569 -0.3463
 6925SOL     OW32233   0.450   3.261   5.050  0.7233 -0.0734  0.1233
 6925SOL    HW132234   0.372   3.273   5.105  1.1748 -1.3472  1.0399
 6925SOL    HW232235   0.411   3.213   4.977  1.1262  0.8772 -0.7113
 6926SOL     OW32236   0.381   1.167   6.747  0.3373  0.3108  0.2319
 6926SOL    HW132237   0.379   1.138   6.656  3.5746  0.3426  0.1462
 6926SOL    HW232238   0.292   1.201   6.758  0.4727  0.4711  0.8436
 6927SOL     OW32239   2.533   0.556   6.878  0.1588 -0.4374  0.2491
 6927SOL    HW132240   2.523   0.505   6.797 -0.5291 -0.6722  0.4803
 6927SOL    HW232241   2.589   0.627   6.847 -1.1756  0.6990  0.4094
 6928SOL     OW32242   0.524   3.662  11.799 -0.3677  0.6571 -0.2875
 6928SOL    HW132243   0.456   3.700  11.743  0.8269  1.5288 -1.1453
 6928SOL    HW232244   0.474   3.666  11.880 -3.7258 -3.4556 -2.1424
 6929SOL     OW32245   2.543   0.662  16.420  0.0485  0.5498 -0.0935
 6929SOL    HW132246   2.473   0.702  16.470  0.3735 -0.0871  0.8904
 6929SOL    HW232247   2.489   0.584  16.408  0.3408  0.1557  1.1272
 6930SOL     OW32248   1.711   3.216   8.134  0.1940 -0.6214  0.0757
 6930SOL    HW132249   1.624   3.229   8.173  1.1142  0.1947  1.8393
 6930SOL    HW232250   1.698   3.268   8.055  2.2763  1.1900  0.9297
 6931SOL     OW32251   2.574   3.840   7.341 -0.3485 -0.2909 -0.4264
 6931SOL    HW132252   2.639   3.800   7.283  0.9362  0.1091  0.7408
 6931SOL    HW232253   2.531   3.896   7.275  1.4906 -0.0856 -1.4577
 6932SOL     OW32254   0.521   0.418  17.629 -0.1867  0.3636  0.6027
 6932SOL    HW132255   0.551   0.330  17.651 -1.2674 -0.0997  0.2463
 6932SOL    HW232256   0.429   0.395  17.614 -0.1574  1.2004 -0.9658
 6933SOL     OW32257   4.487   1.120   1.094  0.3289  0.1792  0.1299
 6933SOL    HW132258   4.573   1.156   1.072  0.4818 -0.2189  0.0723
 6933SOL    HW232259   4.433   1.167   1.030 -0.4410 -1.9013 -0.7238
 6934SOL     OW32260   0.197   3.571   7.784  0.5889  0.0169  0.1967
 6934SOL    HW132261   0.221   3.563   7.877  0.5311  1.9709  0.3971
 6934SOL    HW232262   0.103   3.559   7.791  0.8152 -2.3384 -1.1881
 6935SOL     OW32263   1.240   1.693   6.826  0.4031  0.1173  0.1768
 6935SOL    HW132264   1.182   1.718   6.755  1.4650 -1.1603 -1.1421
 6935SOL    HW232265   1.181   1.635   6.875  1.4112 -1.4637 -0.4652
 6936SOL     OW32266   4.091   3.978  14.769 -0.6698  0.0471 -0.0727
 6936SOL    HW132267   4.108   4.040  14.840  0.4590 -0.8553  0.4487
 6936SOL    HW232268   4.179   3.972  14.733 -1.2055  0.9835 -1.5381
 6937SOL     OW32269   3.328   2.124   7.373  0.1484  0.6371  0.0310
 6937SOL    HW132270   3.392   2.080   7.428 -0.0739 -1.4211 -1.3439
 6937SOL    HW232271   3.333   2.066   7.296  2.2071 -1.5245  1.7884
 6938SOL     OW32272   3.466   3.983   6.009  0.2902 -0.9836  0.7227
 6938SOL    HW132273   3.538   3.934   6.049  0.3947 -1.3218  0.1030
 6938SOL    HW232274   3.474   4.064   6.060 -3.4663 -0.1745 -0.0114
 6939SOL     OW32275   1.913   3.674   0.322 -0.0082 -0.0733  0.2804
 6939SOL    HW132276   1.956   3.646   0.402  2.0335  0.8455 -0.5146
 6939SOL    HW232277   1.880   3.759   0.351 -0.7036 -0.0624 -0.5242
 6940SOL     OW32278   0.042   1.311  17.179  0.7114 -0.0510  0.3548
 6940SOL    HW132279   0.123   1.266  17.204  0.2522 -1.1836 -0.2454
 6940SOL    HW232280   0.023   1.251  17.107  2.7634 -0.5932  0.2642
 6941SOL     OW32281   1.936   2.329   6.563 -0.1852  0.1913 -0.0517
 6941SOL    HW132282   1.881   2.317   6.640  0.7103 -0.0618  0.5345
 6941SOL    HW232283   1.899   2.415   6.540  1.0116  1.0186  1.1091
 6942SOL     OW32284   0.887   0.837  11.088 -0.1856  0.3796  0.1285
 6942SOL    HW132285   0.857   0.794  11.007 -1.5756  1.9637 -0.1841
 6942SOL    HW232286   0.924   0.918  11.052 -2.4813 -0.2163 -3.5787
 6943SOL     OW32287   0.593   3.572   0.706  0.2921 -0.0441 -0.3296
 6943SOL    HW132288   0.520   3.512   0.690 -0.8920  0.8866  1.5786
 6943SOL    HW232289   0.591   3.576   0.801  3.1850 -1.9441 -0.2239
 6944SOL     OW32290   3.956   1.386   3.267  0.7371 -0.4659  0.6586
 6944SOL    HW132291   3.958   1.388   3.362 -0.7664 -1.5149  0.7116
 6944SOL    HW232292   3.978   1.294   3.254  1.7948 -0.1634  0.2833
 6945SOL     OW32293   4.641   0.939   6.738  0.3115 -0.7293 -0.1295
 6945SOL    HW132294   4.719   0.902   6.778 -0.1777 -1.6079 -0.0066
 6945SOL    HW232295   4.578   0.867   6.738 -0.3170 -0.1807  0.6405
 6946SOL     OW32296   3.662   1.339  11.038  0.5136 -0.5604  0.0860
 6946SOL    HW132297   3.732   1.352  11.101 -0.0995 -0.2159  0.6940
 6946SOL    HW232298   3.674   1.420  10.988 -0.8683 -0.6024 -0.3266
 6947SOL     OW32299   1.543   0.535  17.452  0.3464  0.3089  0.2569
 6947SOL    HW132300   1.600   0.486  17.512 -0.2773 -0.9659 -0.1788
 6947SOL    HW232301   1.468   0.477  17.436 -0.6787  0.8062  3.2391
 6948SOL     OW32302   2.063   1.884   4.202  0.6024  0.2521  0.3191
 6948SOL    HW132303   2.026   1.868   4.289 -1.9361 -0.9069 -0.9660
 6948SOL    HW232304   2.158   1.882   4.206  0.5340  0.4322  2.1396
 6949SOL     OW32305   1.084   1.375   3.055 -0.0315  0.0709  0.3050
 6949SOL    HW132306   1.148   1.325   3.106  0.9426 -0.0537 -1.0282
 6949SOL    HW232307   1.090   1.325   2.974  1.3454 -1.5453  1.4147
 6950SOL     OW32308   0.134   1.487  15.606  0.3481  0.0851  0.4115
 6950SOL    HW132309   0.126   1.563  15.548 -0.8016  0.2766  0.8374
 6950SOL    HW232310   0.185   1.520  15.679 -0.7777  0.9721  0.7782
 6951SOL     OW32311   1.333   1.853   7.961 -0.5362 -0.2468  0.0117
 6951SOL    HW132312   1.405   1.795   7.936 -0.5998 -0.7427  0.9604
 6951SOL    HW232313   1.375   1.889   8.040  4.1946  0.8188 -3.0026
 6952SOL     OW32314   2.575   0.885   6.444 -0.1777  0.4086 -0.5464
 6952SOL    HW132315   2.590   0.822   6.374  1.9252  0.3391 -0.0400
 6952SOL    HW232316   2.663   0.918   6.462 -0.1289 -0.5520  0.9653
 6953SOL     OW32317   3.408   4.497   3.759 -0.7650 -0.1714 -0.2434
 6953SOL    HW132318   3.495   4.505   3.721 -1.1161  0.4128 -0.9122
 6953SOL    HW232319   3.362   4.447   3.692 -0.0412 -1.1889  0.0248
 6954SOL     OW32320   2.236   2.407   4.953  0.6140 -0.0583 -0.7245
 6954SOL    HW132321   2.276   2.492   4.932 -0.5379  0.0321 -2.5986
 6954SOL    HW232322   2.147   2.432   4.929 -0.0076 -2.6684 -1.0949
 6955SOL     OW32323   1.021   4.161   9.185  0.7776 -0.0611  0.7063
 6955SOL    HW132324   0.993   4.250   9.164  1.3849  0.0195  0.2522
 6955SOL    HW232325   1.081   4.168   9.259  1.8562 -1.8630 -0.0047
 6956SOL     OW32326   0.190   4.403  14.395  0.5441  0.1245  0.2330
 6956SOL    HW132327   0.154   4.491  14.394 -0.3589 -0.2330  0.5783
 6956SOL    HW232328   0.110   4.353  14.374 -0.1625  0.7076  1.5648
 6957SOL     OW32329   0.642   2.411   8.143 -0.0169  0.0067 -0.3242
 6957SOL    HW132330   0.718   2.468   8.126  0.7633 -0.6670  0.9082
 6957SOL    HW232331   0.619   2.433   8.233  0.0244  0.3730 -0.4005
 6958SOL     OW32332   1.405   4.158   0.489 -0.6959 -0.4894  0.2928
 6958SOL    HW132333   1.380   4.251   0.495  1.6294  0.2656 -2.0734
 6958SOL    HW232334   1.329   4.119   0.533  1.6999 -3.0092  2.1263
 6959SOL     OW32335   0.781   4.405   8.004  0.2199  0.1791  0.2460
 6959SOL    HW132336   0.858   4.365   7.964 -1.9095 -1.9570 -1.7285
 6959SOL    HW232337   0.708   4.378   7.948  0.6309  3.8364 -2.0333
 6960SOL     OW32338   1.289   0.560   5.312  0.0341  0.2947  0.2665
 6960SOL    HW132339   1.291   0.465   5.304  1.2952  0.1761  1.9932
 6960SOL    HW232340   1.364   0.581   5.257 -0.2245 -1.4870 -0.7546
 6961SOL     OW32341   3.779   4.592   6.474 -0.3043  0.4133  0.3628
 6961SOL    HW132342   3.868   4.602   6.508 -0.3480 -0.2096  0.6585
 6961SOL    HW232343   3.727   4.616   6.551 -0.8272 -0.1740  0.1900
 6962SOL     OW32344   3.776   3.023   6.403 -0.0358 -1.0827 -0.0607
 6962SOL    HW132345   3.766   2.932   6.433 -0.4155 -1.3355 -0.9417
 6962SOL    HW232346   3.702   3.024   6.342  0.9872  2.2363 -1.2075
 6963SOL     OW32347   3.125   1.349  14.311 -0.1093  0.0238  0.1894
 6963SOL    HW132348   3.127   1.255  14.295 -0.5911  0.0934 -0.2773
 6963SOL    HW232349   3.208   1.379  14.273  0.5541  0.0663  1.6763
 6964SOL     OW32350   0.554   0.290   8.668  0.1401  0.0214 -0.4702
 6964SOL    HW132351   0.595   0.265   8.750  1.2640 -0.6182 -1.2237
 6964SOL    HW232352   0.460   0.293   8.687  0.0907  0.4246 -0.7896
 6965SOL     OW32353   4.627   2.840   8.061  0.6298  0.5439 -0.2337
 6965SOL    HW132354   4.538   2.815   8.085  0.9516  0.3627  0.7326
 6965SOL    HW232355   4.634   2.936   8.063 -1.9180  0.6946  0.8707
 6966SOL     OW32356   2.997   1.493   9.097  0.0636  0.1895 -0.5232
 6966SOL    HW132357   2.919   1.532   9.057 -0.6986  0.4607  1.2418
 6966SOL    HW232358   3.066   1.557   9.081  1.6937 -1.2343  0.8272
 6967SOL     OW32359   3.099   0.264  16.350  0.0319  0.0077  0.0861
 6967SOL    HW132360   3.131   0.314  16.275  0.2380 -1.4801 -0.8148
 6967SOL    HW232361   3.063   0.334  16.404  1.9106 -0.0160  1.3680
 6968SOL     OW32362   2.371   3.562   6.472  0.4372 -0.1475  0.1184
 6968SOL    HW132363   2.284   3.594   6.446  1.0066  2.4359  1.3663
 6968SOL    HW232364   2.403   3.625   6.536  0.7916 -1.2650  1.0334
 6969SOL     OW32365   1.528   0.582   5.631 -0.5421  0.0180 -0.1746
 6969SOL    HW132366   1.607   0.635   5.634 -1.7129  1.7452  0.3587
 6969SOL    HW232367   1.550   0.494   5.599  0.3761 -0.8543  2.7631
 6970SOL     OW32368   1.076   0.066  15.939 -0.2647 -0.6598  0.2539
 6970SOL    HW132369   1.154   0.090  15.989  0.3988 -1.2514 -0.4948
 6970SOL    HW232370   1.058   4.702  15.975  0.0139 -1.5608 -1.8164
 6971SOL     OW32371   2.412   3.890  13.980  0.0062  0.4644 -0.3594
 6971SOL    HW132372   2.442   3.968  13.934 -0.6699  0.3659 -0.9582
 6971SOL    HW232373   2.404   3.834  13.902 -0.3379 -1.1363  0.8176
 6972SOL     OW32374   2.978   0.847   4.182  0.9969  0.5331 -0.4137
 6972SOL    HW132375   2.954   0.758   4.206 -1.2175  1.8036  2.1184
 6972SOL    HW232376   3.060   0.828   4.137  2.1166 -1.7066  2.5936
 6973SOL     OW32377   3.855   0.178   8.172 -0.0094  0.0639  0.2686
 6973SOL    HW132378   3.894   0.091   8.177 -1.8788 -0.8992 -2.1769
 6973SOL    HW232379   3.943   0.217   8.178  0.9693 -1.8806 -1.4108
 6974SOL     OW32380   2.934   1.959   7.270 -0.1164 -0.7993 -0.1885
 6974SOL    HW132381   3.011   1.938   7.217  1.3022  1.8925  0.7644
 6974SOL    HW232382   2.867   1.934   7.207 -2.6591  1.9638  1.4190
 6975SOL     OW32383   0.348   4.068   6.638 -0.0815 -0.1192 -0.1056
 6975SOL    HW132384   0.264   4.024   6.651  1.0306 -1.1492  3.7612
 6975SOL    HW232385   0.318   4.157   6.653 -1.5225 -0.5401 -0.5312
 6976SOL     OW32386   0.833   2.571   2.065  0.3340 -0.1325 -0.2252
 6976SOL    HW132387   0.756   2.557   2.120  0.8446  1.0640  0.8056
 6976SOL    HW232388   0.816   2.663   2.043  0.7925  0.2049  0.7949
 6977SOL     OW32389   0.019   3.011   3.824 -0.1610 -0.2084  0.4266
 6977SOL    HW132390   0.056   3.084   3.774 -0.0297  0.3627  1.3683
 6977SOL    HW232391   4.687   2.968   3.759 -0.9244 -1.6853  2.0725
 6978SOL     OW32392   4.636   3.638   6.188 -0.1402  0.0377 -0.2387
 6978SOL    HW132393   4.590   3.576   6.131  4.4007 -4.2586  0.6991
 6978SOL    HW232394   4.714   3.657   6.137  0.2709  0.3191  0.5032
 6979SOL     OW32395   3.515   0.399   5.672 -0.1248 -0.1754  0.1146
 6979SOL    HW132396   3.489   0.442   5.753  1.6858 -0.2916  0.7503
 6979SOL    HW232397   3.449   0.330   5.678  0.6675 -0.7896  1.6726
 6980SOL     OW32398   0.537   2.357   7.044 -0.1483 -0.3172  0.0774
 6980SOL    HW132399   0.452   2.314   7.038  0.6324 -1.8571  0.0079
 6980SOL    HW232400   0.599   2.288   7.019  1.0622 -0.6144  3.8205
 6981SOL     OW32401   4.557   0.454  17.299 -0.4783 -0.4487 -0.0704
 6981SOL    HW132402   4.498   0.448  17.223 -2.2436 -0.1491  1.2798
 6981SOL    HW232403   4.499   0.477  17.372  1.6904  2.6249  0.6797
 6982SOL     OW32404   4.261   2.045   0.549  0.3459 -0.2978  0.3295
 6982SOL    HW132405   4.317   1.974   0.581  1.4380  0.1523 -0.5837
 6982SOL    HW232406   4.194   1.993   0.506  0.3360  1.2479 -1.5263
 6983SOL     OW32407   3.665   2.990   0.253 -0.5201 -0.4633  1.0530
 6983SOL    HW132408   3.743   3.038   0.282  0.9982 -0.6135 -2.7191
 6983SOL    HW232409   3.688   2.940   0.174 -0.3195 -0.5049  1.1380
 6984SOL     OW32410   0.280   2.981   9.833 -0.1681  0.2471 -0.2777
 6984SOL    HW132411   0.282   2.891   9.865  0.7715  0.3262 -0.1024
 6984SOL    HW232412   0.360   2.982   9.779 -1.1351  1.8240 -1.6696
 6985SOL     OW32413   0.715   1.974   5.191  0.1207 -0.9925  0.5400
 6985SOL    HW132414   0.701   2.067   5.176 -2.2109 -1.3705  0.2998
 6985SOL    HW232415   0.627   1.941   5.171 -0.0961  0.1957 -0.4830
 6986SOL     OW32416   4.497   2.629   9.013  0.5362 -0.6968  0.0643
 6986SOL    HW132417   4.472   2.541   8.984  1.0778 -0.6223 -0.6180
 6986SOL    HW232418   4.408   2.662   9.027  0.8909 -0.2156  1.1740
 6987SOL     OW32419   1.526   0.409  14.230 -0.2744 -0.1575  0.3802
 6987SOL    HW132420   1.472   0.360  14.168 -0.9454  1.3713 -0.2474
 6987SOL    HW232421   1.572   0.341  14.279  0.3690 -0.4146 -0.5904
 6988SOL     OW32422   1.140   2.772   5.404  0.6318 -0.7484  0.5242
 6988SOL    HW132423   1.200   2.836   5.443 -1.3788  0.6289  1.3306
 6988SOL    HW232424   1.167   2.689   5.445 -1.8201 -0.8450  1.9680
 6989SOL     OW32425   0.298   4.348   0.178 -0.9495  0.2222 -0.1022
 6989SOL    HW132426   0.269   4.288   0.246 -1.0255  0.9322  0.4971
 6989SOL    HW232427   0.318   4.283   0.110 -0.3140  0.0061  0.2937
 6990SOL     OW32428   0.546   3.697   6.472 -0.3691  0.0106  0.4660
 6990SOL    HW132429   0.485   3.632   6.506  0.9391 -0.5487  1.7825
 6990SOL    HW232430   0.486   3.768   6.455  2.0053  1.3405 -2.2764
 6991SOL     OW32431   2.254   2.734   4.720  0.2713  0.1664 -0.4560
 6991SOL    HW132432   2.334   2.683   4.737 -0.6274 -1.2877 -0.5619
 6991SOL    HW232433   2.231   2.752   4.811  2.5340  0.0854  0.1435
 6992SOL     OW32434   1.105   0.319   2.288  0.0049  0.0074 -0.0381
 6992SOL    HW132435   1.050   0.395   2.268 -0.9324 -0.1024  2.0906
 6992SOL    HW232436   1.131   0.346   2.377  0.1740  0.1217 -0.1222
 6993SOL     OW32437   0.555   4.699  17.433 -0.3911  0.2085  0.1639
 6993SOL    HW132438   0.484   4.708  17.369 -0.1021 -0.3470 -0.2286
 6993SOL    HW232439   0.613   4.646  17.379 -0.8252  1.5387 -1.6134
 6994SOL     OW32440   0.180   2.522  12.473 -0.3586  0.4952  0.0671
 6994SOL    HW132441   0.106   2.503  12.416 -0.0680  0.3102 -0.2530
 6994SOL    HW232442   0.193   2.617  12.476 -1.8423  0.6018  2.9874
 6995SOL     OW32443   3.181   0.765  15.886 -0.4346 -0.5086  0.2044
 6995SOL    HW132444   3.137   0.701  15.941  0.0244  0.7758  2.0327
 6995SOL    HW232445   3.103   0.805  15.847  1.8591  1.7692 -2.0031
 6996SOL     OW32446   0.508   3.212  14.016 -0.0111  0.0447 -0.1922
 6996SOL    HW132447   0.553   3.296  14.011  0.6559 -0.3705 -1.2369
 6996SOL    HW232448   0.423   3.236  14.054  1.1239  1.6070  1.3346
 6997SOL     OW32449   0.856   4.006   7.475  0.0865  0.2780 -0.2388
 6997SOL    HW132450   0.836   4.045   7.390 -1.1024  0.1605 -0.0198
 6997SOL    HW232451   0.780   3.949   7.488 -0.8855  1.5665 -0.2065
 6998SOL     OW32452   2.930   1.419   4.555 -0.0904  0.2023 -0.4613
 6998SOL    HW132453   2.945   1.326   4.539  1.6425  0.4061 -0.0403
 6998SOL    HW232454   2.834   1.416   4.562  0.1455 -1.4174  2.0556
 6999SOL     OW32455   0.425   3.610   1.893 -0.1584 -0.3629  0.1250
 6999SOL    HW132456   0.453   3.519   1.904  2.4095  0.5455  1.0041
 6999SOL    HW232457   0.439   3.642   1.982 -1.3077  0.9657 -0.1746
 7000SOL     OW32458   3.083   3.085   6.404  0.2424  0.5255  0.3957
 7000SOL    HW132459   3.119   3.056   6.488  2.0711  2.3082  0.2182
 7000SOL    HW232460   3.121   3.026   6.340 -1.0373 -1.3278  1.3458
 7001SOL     OW32461   3.639   2.421   1.786 -0.0262 -0.4185  0.4981
 7001SOL    HW132462   3.573   2.428   1.855 -0.0948 -0.7617  0.4664
 7001SOL    HW232463   3.625   2.331   1.756 -2.6285  0.6283 -1.4854
 7002SOL     OW32464   0.212   3.794   0.662 -0.4248  0.3963 -0.2133
 7002SOL    HW132465   0.268   3.725   0.626 -1.8085 -1.4677  1.2278
 7002SOL    HW232466   0.159   3.819   0.586  0.9434  0.8114 -1.0251
 7003SOL     OW32467   3.931   0.869   2.462  0.6993 -0.1539  0.0759
 7003SOL    HW132468   3.999   0.921   2.419 -1.8652  2.2692 -1.0307
 7003SOL    HW232469   3.894   0.826   2.384  0.4449  2.2860 -1.1506
 7004SOL     OW32470   1.805   1.036   5.757  0.0304  0.2702 -0.2334
 7004SOL    HW132471   1.738   1.104   5.750 -1.9237 -1.5994  0.2155
 7004SOL    HW232472   1.834   1.057   5.846  1.0316 -1.6834 -0.1112
 7005SOL     OW32473   4.267   2.983   2.658  0.1257 -0.1388 -0.0010
 7005SOL    HW132474   4.239   2.901   2.616  1.0580 -0.8912  0.8526
 7005SOL    HW232475   4.262   3.049   2.588  0.1046 -0.3712 -0.2182
 7006SOL     OW32476   2.269   2.767   1.504 -0.3819  0.1966  0.1934
 7006SOL    HW132477   2.279   2.827   1.578 -0.9780  3.2021 -2.1567
 7006SOL    HW232478   2.275   2.837   1.439 -0.0825 -1.1039 -1.1699
 7007SOL     OW32479   2.617   0.272   5.396 -0.2463  0.4733 -0.0500
 7007SOL    HW132480   2.667   0.349   5.422 -0.7251  1.3357 -1.6929
 7007SOL    HW232481   2.527   0.295   5.418 -1.0009 -1.3579 -1.2828
 7008SOL     OW32482   3.717   2.989   4.952 -0.0934 -0.2157  0.0084
 7008SOL    HW132483   3.803   3.024   4.975 -0.0958  0.6995 -1.3562
 7008SOL    HW232484   3.734   2.950   4.866 -1.1121 -1.0528  0.1919
 7009SOL     OW32485   0.080   0.706  13.597  0.2093  0.0252  0.0658
 7009SOL    HW132486   0.022   0.733  13.668  0.0586  0.2018 -0.1240
 7009SOL    HW232487   0.022   0.740  13.529  0.5109  0.9856  0.2982
 7010SOL     OW32488   4.355   2.542   6.357  0.0390  0.3820 -0.4299
 7010SOL    HW132489   4.424   2.554   6.292  0.8101  0.4667  0.4075
 7010SOL    HW232490   4.389   2.487   6.427 -0.8442  0.7247  0.2714
 7011SOL     OW32491   0.291   2.025   6.591 -0.1203  0.4655  0.8192
 7011SOL    HW132492   0.272   2.003   6.682 -1.0011  1.0840  0.7774
 7011SOL    HW232493   0.213   2.002   6.542 -0.6209  1.2649  1.2392
 7012SOL     OW32494   3.291   0.172  16.679 -0.1869 -0.2115  0.0127
 7012SOL    HW132495   3.364   0.184  16.618  0.7165  0.7888  1.2707
 7012SOL    HW232496   3.231   0.128  16.619  0.8899 -1.5594 -0.0771
 7013SOL     OW32497   4.234   2.145   6.851  0.1367 -0.2090 -0.0182
 7013SOL    HW132498   4.160   2.200   6.879 -0.4964 -0.3900 -1.3455
 7013SOL    HW232499   4.257   2.192   6.772  0.6379 -0.6415 -0.1300
 7014SOL     OW32500   4.101   3.833  16.638 -0.2638 -0.5623  0.2368
 7014SOL    HW132501   4.118   3.779  16.561 -2.0116  0.4969 -0.8927
 7014SOL    HW232502   4.111   3.771  16.711  0.6230 -0.2051  0.4232
 7015SOL     OW32503   2.742   3.092   5.682 -0.1913 -0.0052 -0.1931
 7015SOL    HW132504   2.715   3.183   5.672  2.0452  0.6806  0.0887
 7015SOL    HW232505   2.681   3.068   5.752 -3.0474  1.1056 -2.3197
 7016SOL     OW32506   0.998   4.245  14.395 -0.2825  0.0642 -0.1028
 7016SOL    HW132507   1.088   4.242  14.425 -0.5691 -2.0612  0.5089
 7016SOL    HW232508   0.998   4.162  14.348  0.0698  0.8950 -1.5581
 7017SOL     OW32509   0.065   3.402  10.092 -0.5610 -0.4037 -0.2442
 7017SOL    HW132510   0.150   3.382  10.131  0.3029  0.8737 -1.4976
 7017SOL    HW232511   0.058   3.335  10.025  2.8716 -2.3132  1.3110
 7018SOL     OW32512   3.122   4.086  14.377 -0.2420 -0.7929  0.2097
 7018SOL    HW132513   3.113   4.131  14.293  0.9113 -1.6058 -0.3397
 7018SOL    HW232514   3.145   4.153  14.441  0.4348 -0.7203 -0.1114
 7019SOL     OW32515   0.113   3.822  15.892  0.4516 -0.1600 -0.1104
 7019SOL    HW132516   0.071   3.818  15.806 -2.0011 -4.5356  1.2499
 7019SOL    HW232517   0.046   3.784  15.949  2.9998 -1.0455  2.3391
 7020SOL     OW32518   0.164   4.673  15.008 -0.6450  0.1397 -0.4811
 7020SOL    HW132519   0.102   4.702  15.076 -0.0050 -0.3158  0.2956
 7020SOL    HW232520   0.252   4.697  15.037 -1.2473  2.1573 -0.3162
 7021SOL     OW32521   4.361   0.620   7.183  0.0323 -0.1241 -0.2981
 7021SOL    HW132522   4.348   0.652   7.272 -1.2475 -3.0791  0.5559
 7021SOL    HW232523   4.273   0.617   7.147  0.4007 -0.5683 -1.1792
 7022SOL     OW32524   2.008   2.734   6.400  0.2226 -0.1056 -0.8455
 7022SOL    HW132525   1.937   2.671   6.411 -1.7231  1.9368 -1.5778
 7022SOL    HW232526   2.058   2.736   6.481 -0.3580  0.2489 -0.4973
 7023SOL     OW32527   0.665   1.624   4.289  0.0330 -0.0514 -0.1272
 7023SOL    HW132528   0.576   1.624   4.252 -1.6051  1.1077  3.8636
 7023SOL    HW232529   0.687   1.716   4.299 -1.1268  0.2078  0.0517
 7024SOL     OW32530   1.557   4.485   4.965  0.1008  0.2704 -0.2025
 7024SOL    HW132531   1.609   4.533   4.902  1.4013 -1.9407 -0.8216
 7024SOL    HW232532   1.569   4.538   5.044  2.6808 -0.5684 -0.0267
 7025SOL     OW32533   4.680   3.906  11.613  0.2664 -0.1505  0.1750
 7025SOL    HW132534   4.634   3.841  11.666 -0.5922 -0.2127 -0.6375
 7025SOL    HW232535   4.695   3.851  11.536 -2.0345 -1.7133  0.8424
 7026SOL     OW32536   1.562   1.834   7.591 -0.4122  0.3826 -0.2995
 7026SOL    HW132537   1.468   1.837   7.607 -0.1114  0.7769  1.3733
 7026SOL    HW232538   1.584   1.903   7.654  2.2956 -1.2858  0.5753
 7027SOL     OW32539   2.697   3.324   4.554 -0.6170  0.2615  0.4614
 7027SOL    HW132540   2.786   3.358   4.562 -1.1108  1.2716  1.8008
 7027SOL    HW232541   2.692   3.291   4.644  1.8087 -1.5738 -0.0735
 7028SOL     OW32542   0.843   0.126   7.131  0.6365  0.2791 -0.4844
 7028SOL    HW132543   0.875   0.133   7.221  2.0454 -0.1454 -0.9671
 7028SOL    HW232544   0.868   0.205   7.083 -1.2900  0.7461 -0.7172
 7029SOL     OW32545   2.255   4.626   8.934  0.3879 -0.0721 -0.0606
 7029SOL    HW132546   2.195   4.563   8.973 -1.2277  1.4262 -0.1310
 7029SOL    HW232547   2.191   4.684   8.893 -0.4917 -3.0947 -2.9431
 7030SOL     OW32548   0.658   3.495   7.883  0.2150  0.4656 -0.1608
 7030SOL    HW132549   0.752   3.511   7.880 -0.1241  2.5983  0.6056
 7030SOL    HW232550   0.651   3.477   7.976 -1.9056  1.7953 -0.0457
 7031SOL     OW32551   3.877   0.793   7.103 -0.0575 -0.2268 -0.1291
 7031SOL    HW132552   3.888   0.812   7.197  2.3202 -3.1740  0.1749
 7031SOL    HW232553   3.791   0.752   7.097  0.3637 -1.2947  1.1478
 7032SOL     OW32554   3.008   3.527   2.650 -0.4494 -0.1909 -0.2387
 7032SOL    HW132555   3.033   3.523   2.742 -2.0999 -1.3625  0.1555
 7032SOL    HW232556   3.046   3.614   2.635 -2.5736  1.1843  2.3305
 7033SOL     OW32557   3.225   0.798   4.066 -0.2595 -0.7680  0.4119
 7033SOL    HW132558   3.294   0.863   4.078 -0.3262 -1.1945  3.0119
 7033SOL    HW232559   3.239   0.780   3.973 -0.5723 -1.3581  0.4775
 7034SOL     OW32560   1.765   4.418   4.567 -0.6763  0.3397 -0.1050
 7034SOL    HW132561   1.682   4.374   4.586 -1.0274  1.2162  0.3691
 7034SOL    HW232562   1.831   4.350   4.584 -0.8767 -0.3311 -2.0455
 7035SOL     OW32563   3.705   4.041   6.511  0.0326  0.1823 -0.3673
 7035SOL    HW132564   3.725   4.134   6.522 -0.7001  0.4051 -0.9611
 7035SOL    HW232565   3.793   4.012   6.538 -0.5514 -1.2237  0.0042
 7036SOL     OW32566   2.379   2.052   6.863  0.3092  0.0126  0.2713
 7036SOL    HW132567   2.471   2.076   6.865  0.6537 -1.3766  0.9018
 7036SOL    HW232568   2.349   2.118   6.926  0.3807 -0.4797  0.8288
 7037SOL     OW32569   2.323   2.030   1.957  0.1249 -0.4040  0.1371
 7037SOL    HW132570   2.402   1.979   1.976  0.8844 -0.0347 -2.0542
 7037SOL    HW232571   2.288   2.061   2.041  2.3235  0.2474  0.8065
 7038SOL     OW32572   2.718   3.551   3.913  0.4167  0.5955  0.3984
 7038SOL    HW132573   2.673   3.468   3.897  2.9296 -1.1625  2.3222
 7038SOL    HW232574   2.763   3.531   3.996  0.5360 -2.5421 -0.4256
 7039SOL     OW32575   0.910   1.408  13.450 -0.3674 -0.0671 -0.7372
 7039SOL    HW132576   0.839   1.345  13.463  1.0547 -1.4827  0.2634
 7039SOL    HW232577   0.971   1.380  13.519 -0.5630  1.7013  0.1508
 7040SOL     OW32578   1.541   4.263   4.683  0.5590  0.1443  0.0925
 7040SOL    HW132579   1.482   4.262   4.608  0.3907 -0.8877  0.2446
 7040SOL    HW232580   1.482   4.302   4.747 -0.5237 -1.5202  0.0979
 7041SOL     OW32581   1.285   2.980  16.824  0.1424 -0.3871 -0.0627
 7041SOL    HW132582   1.299   3.071  16.798 -0.6235 -0.3428 -0.3397
 7041SOL    HW232583   1.347   2.968  16.896 -0.8527 -1.5878  0.5962
 7042SOL     OW32584   1.294   1.868   3.643  0.1786 -0.0298  0.1029
 7042SOL    HW132585   1.387   1.885   3.630  0.3664 -2.2385 -1.3458
 7042SOL    HW232586   1.247   1.915   3.573  0.6414  1.7249  0.9666
 7043SOL     OW32587   3.388   1.764  11.962 -0.0146  0.0625  0.2041
 7043SOL    HW132588   3.333   1.732  12.034 -0.7275 -1.6530 -1.0849
 7043SOL    HW232589   3.476   1.731  11.981  1.0261  1.0366 -2.9516
 7044SOL     OW32590   1.224   2.956   4.505  0.2564 -0.1479  0.3320
 7044SOL    HW132591   1.129   2.961   4.515  0.4830  1.5222  1.6341
 7044SOL    HW232592   1.257   3.046   4.508  0.6406 -0.3238  1.6713
 7045SOL     OW32593   1.610   2.649   4.758  0.5639 -0.3470 -0.7043
 7045SOL    HW132594   1.680   2.585   4.743  1.2812  0.5609 -1.2490
 7045SOL    HW232595   1.539   2.588   4.780  1.6445 -0.0568  3.3943
 7046SOL     OW32596   2.517   4.554   1.545 -0.3752  0.0690 -0.2507
 7046SOL    HW132597   2.559   4.468   1.539 -0.0135  0.2304  0.0150
 7046SOL    HW232598   2.555   4.590   1.625 -1.3377  1.5044 -0.4361
 7047SOL     OW32599   0.912   0.414   7.283 -0.1477 -1.0863 -1.1691
 7047SOL    HW132600   0.952   0.500   7.301  0.0653 -1.3852 -0.2105
 7047SOL    HW232601   0.828   0.434   7.325  0.3972  0.7064 -0.9210
 7048SOL     OW32602   1.950   0.966  13.124  0.6852  0.6128  0.6146
 7048SOL    HW132603   1.919   0.989  13.036 -0.1310  0.1144  0.7691
 7048SOL    HW232604   1.890   1.028  13.166  0.1463  0.9509 -0.6516
 7049SOL     OW32605   1.096   3.488   8.373 -0.1439 -0.1566  0.3632
 7049SOL    HW132606   1.036   3.426   8.332 -0.4620  0.5255 -0.1906
 7049SOL    HW232607   1.044   3.567   8.366  1.9468  0.9076 -3.0565
 7050SOL     OW32608   3.081   3.640   6.750  0.3360 -0.4506  0.3901
 7050SOL    HW132609   3.146   3.574   6.773 -0.0613 -0.6739  0.8569
 7050SOL    HW232610   3.082   3.629   6.655  0.4921 -0.3987  0.3858
 7051SOL     OW32611   2.075   0.687   6.498  0.7582  0.5286  0.2298
 7051SOL    HW132612   2.158   0.647   6.521  0.3229 -0.1752  0.5733
 7051SOL    HW232613   2.091   0.758   6.434  0.1554  0.2891 -0.1915
 7052SOL     OW32614   0.105   3.594   4.633  0.6436  0.0126 -0.1397
 7052SOL    HW132615   0.158   3.648   4.691  3.1184 -1.6595 -0.8127
 7052SOL    HW232616   0.151   3.510   4.629  0.2440 -0.3001  2.2143
 7053SOL     OW32617   0.874   1.048   0.008  0.0306 -0.0289 -0.4089
 7053SOL    HW132618   0.847   1.104  17.630  2.7995  0.6206 -0.9312
 7053SOL    HW232619   0.923   1.102   0.070 -1.9160  0.2476  0.8822
 7054SOL     OW32620   2.435   2.592   4.867  0.2451 -0.6140  0.2521
 7054SOL    HW132621   2.496   2.662   4.889 -0.2228  0.2796 -1.3375
 7054SOL    HW232622   2.489   2.513   4.859  1.2492  0.0462  0.5866
 7055SOL     OW32623   1.659   3.230   1.102  0.2712  0.3799 -0.3708
 7055SOL    HW132624   1.675   3.228   1.008  2.5492 -0.0188  0.0389
 7055SOL    HW232625   1.642   3.325   1.105  0.4350  0.4401 -1.6071
 7056SOL     OW32626   4.431   0.571   5.030  0.1290 -0.3036 -0.0978
 7056SOL    HW132627   4.413   0.530   4.946 -0.6063 -0.4264  0.1206
 7056SOL    HW232628   4.411   0.660   5.002  1.3491 -1.0520 -3.3442
 7057SOL     OW32629   2.308   1.763  17.367  0.0812 -0.3357  0.4740
 7057SOL    HW132630   2.278   1.747  17.277  2.0445 -0.7318 -0.1164
 7057SOL    HW232631   2.400   1.783  17.349 -0.4034  0.7552 -0.7405
 7058SOL     OW32632   4.472   1.444  16.847  0.0477 -0.0917  0.9751
 7058SOL    HW132633   4.383   1.465  16.820  0.2611 -0.1905  0.1956
 7058SOL    HW232634   4.470   1.359  16.891  1.1145  1.9840  5.0829
 7059SOL     OW32635   0.912   3.483  15.677  0.2135  0.2712 -0.3420
 7059SOL    HW132636   0.823   3.476  15.643  0.4684  1.3930 -1.2249
 7059SOL    HW232637   0.969   3.437  15.615  0.6716  0.2836  0.0690
 7060SOL     OW32638   2.586   4.107   5.211 -0.1018  0.2988 -0.3089
 7060SOL    HW132639   2.676   4.083   5.235  0.0931  1.0027 -0.3397
 7060SOL    HW232640   2.592   4.128   5.118 -0.9585  0.0552 -0.4211
 7061SOL     OW32641   3.872   1.539   7.722  0.1124  0.1969  0.5681
 7061SOL    HW132642   3.788   1.528   7.678  1.5305  0.7747 -2.3022
 7061SOL    HW232643   3.841   1.589   7.798  0.6248 -1.4905  1.8945
 7062SOL     OW32644   0.495   2.797   5.753  0.1970  0.2883  0.2191
 7062SOL    HW132645   0.503   2.819   5.661  2.4341 -0.8226  0.1546
 7062SOL    HW232646   0.421   2.735   5.756  0.6829 -0.2354  1.4240
 7063SOL     OW32647   2.422   4.040   8.199  0.6909  0.6414  0.0751
 7063SOL    HW132648   2.388   4.129   8.188 -0.8465 -0.2023 -2.1408
 7063SOL    HW232649   2.431   4.046   8.294 -1.5472 -2.4071  0.4881
 7064SOL     OW32650   4.300   3.898   0.445 -0.7239  0.2086  0.2415
 7064SOL    HW132651   4.280   3.944   0.527 -0.8306  0.3087  0.1605
 7064SOL    HW232652   4.283   3.966   0.379 -1.8627  0.3509  0.6664
 7065SOL     OW32653   1.130   0.280   4.776 -0.0309  0.0542 -0.0575
 7065SOL    HW132654   1.068   0.293   4.848 -0.1656  0.3385 -0.2269
 7065SOL    HW232655   1.215   0.273   4.820 -0.0407  0.1684 -0.0207
 7066SOL     OW32656   2.676   0.559   5.732 -0.1467  0.0625 -0.1645
 7066SOL    HW132657   2.686   0.573   5.638  1.7716  1.8342  0.2920
 7066SOL    HW232658   2.763   0.531   5.758  1.2404  3.7248 -0.8030
 7067SOL     OW32659   1.905   1.839   9.527 -0.1480 -0.4835  0.3771
 7067SOL    HW132660   1.999   1.836   9.511 -0.3896  2.7450 -1.5588
 7067SOL    HW232661   1.886   1.919   9.478  1.8644 -0.2105  0.0577
 7068SOL     OW32662   2.022   1.516   5.566  0.0137  0.2831  0.3483
 7068SOL    HW132663   2.007   1.574   5.640  1.8604  1.1814  0.0112
 7068SOL    HW232664   2.118   1.508   5.565  0.0811  1.1655 -0.5483
 7069SOL     OW32665   0.789   4.418   6.391  0.3120 -0.0349 -0.0566
 7069SOL    HW132666   0.737   4.469   6.453  0.6294 -1.0236  1.0171
 7069SOL    HW232667   0.843   4.488   6.353  0.4038 -1.1878 -2.0466
 7070SOL     OW32668   0.647   0.492  11.856 -0.2552  0.8052 -0.2181
 7070SOL    HW132669   0.708   0.559  11.823 -0.9732  1.4446 -0.2561
 7070SOL    HW232670   0.662   0.507  11.949 -0.6526 -0.1106 -0.0068
 7071SOL     OW32671   0.299   4.649  12.065  0.4191  0.0953 -0.3130
 7071SOL    HW132672   0.288   4.658  11.970 -0.5720 -2.9237 -0.4805
 7071SOL    HW232673   0.370   4.707  12.092 -0.4883 -0.0880  2.4690
 7072SOL     OW32674   1.555   1.983   3.684 -0.0922  0.1877  0.1678
 7072SOL    HW132675   1.560   1.925   3.760 -2.5258 -1.1759 -0.7242
 7072SOL    HW232676   1.646   2.006   3.664 -0.3121  2.3016  1.5908
 7073SOL     OW32677   0.757   4.649  15.702  0.3363  0.5594  0.2113
 7073SOL    HW132678   0.770   4.560  15.669  0.7833  0.8486 -0.3922
 7073SOL    HW232679   0.847   4.678  15.687  0.1228  1.6989  1.2148
 7074SOL     OW32680   3.831   1.185  10.697 -0.2551  0.3028  0.2094
 7074SOL    HW132681   3.789   1.098  10.699 -1.9980  1.0796 -1.8570
 7074SOL    HW232682   3.873   1.184  10.783 -2.9098 -1.4048  1.4942
 7075SOL     OW32683   2.205   2.046  13.998  0.3041  0.5046  0.6140
 7075SOL    HW132684   2.269   2.016  13.934 -0.2425  0.1770  0.2205
 7075SOL    HW232685   2.195   2.141  13.988 -0.0189  0.2914 -0.9593
 7076SOL     OW32686   4.289   2.894   7.441 -0.0237 -0.2583  0.5376
 7076SOL    HW132687   4.260   2.855   7.358 -2.5977  2.6219  0.0582
 7076SOL    HW232688   4.222   2.852   7.496  0.6191  0.6658  2.0072
 7077SOL     OW32689   4.382   1.229   2.720 -0.0204  0.2968  0.9071
 7077SOL    HW132690   4.391   1.314   2.764  0.2889  2.4988 -3.3997
 7077SOL    HW232691   4.400   1.166   2.789 -0.2282 -0.7549  0.0067
 7078SOL     OW32692   2.814   4.670  10.671  0.1379  0.0055  0.1192
 7078SOL    HW132693   2.804   4.594  10.728  1.7060 -1.1696 -1.1817
 7078SOL    HW232694   2.903   4.700  10.689  0.0957  0.6606 -0.7574
 7079SOL     OW32695   2.355   0.434  17.465 -0.1071  0.6841 -0.1277
 7079SOL    HW132696   2.323   0.516  17.503 -0.8402 -0.1435  1.0549
 7079SOL    HW232697   2.450   0.438  17.474 -0.2517  0.4684  1.5059
 7080SOL     OW32698   1.410   3.287   8.149  0.4050  0.3642 -0.8952
 7080SOL    HW132699   1.395   3.375   8.116 -0.8740  0.3085 -0.4704
 7080SOL    HW232700   1.375   3.240   8.073  0.3125 -2.7345  1.0372
 7081SOL     OW32701   3.641   4.550  13.207 -0.7426 -0.2427  0.4155
 7081SOL    HW132702   3.555   4.509  13.214 -1.4461  0.8176 -1.8116
 7081SOL    HW232703   3.687   4.468  13.225 -1.3007 -0.4286  0.9755
 7082SOL     OW32704   0.249   2.508   2.287 -0.4275  0.2615 -0.5761
 7082SOL    HW132705   0.155   2.520   2.296 -1.0074  0.4422 -6.6148
 7082SOL    HW232706   0.247   2.451   2.209 -0.5873  2.9034 -2.4991
 7083SOL     OW32707   2.518   2.482   5.954 -0.7065  0.1763  0.6992
 7083SOL    HW132708   2.484   2.394   5.938 -0.1386  0.0565  0.1504
 7083SOL    HW232709   2.467   2.501   6.033  1.3496  1.3376  1.7499
 7084SOL     OW32710   2.043   2.906   1.284  0.6475 -0.0224 -0.0198
 7084SOL    HW132711   2.121   2.904   1.229  0.3519  1.5915 -0.4943
 7084SOL    HW232712   2.024   3.000   1.277  1.0751 -0.0510 -1.4683
 7085SOL     OW32713   2.575   2.307   8.811  0.0302 -0.2425 -0.1904
 7085SOL    HW132714   2.572   2.311   8.716 -1.9664 -1.5234 -0.1722
 7085SOL    HW232715   2.669   2.307   8.830 -0.2194  1.4310  1.1363
 7086SOL     OW32716   2.480   0.478   2.650  0.0195 -0.4559 -0.5829
 7086SOL    HW132717   2.538   0.460   2.576 -0.6001  1.4934 -1.5535
 7086SOL    HW232718   2.415   0.536   2.610 -0.3439  0.7302  1.7415
 7087SOL     OW32719   2.087   1.579  14.478 -0.0777  0.1184 -0.1845
 7087SOL    HW132720   2.166   1.585  14.424  0.0204 -0.5509 -0.1150
 7087SOL    HW232721   2.027   1.629  14.424  0.8801  0.7115 -0.7011
 7088SOL     OW32722   0.565   4.552   2.730 -0.0194  0.0071 -0.2852
 7088SOL    HW132723   0.636   4.528   2.789 -1.3718 -1.4729  0.7264
 7088SOL    HW232724   0.587   4.644   2.714 -0.1861 -0.3000 -2.2574
 7089SOL     OW32725   4.337   4.121   2.054 -0.0661  0.1371  0.1998
 7089SOL    HW132726   4.314   4.187   1.988 -0.0062 -0.8724 -0.8338
 7089SOL    HW232727   4.317   4.162   2.138 -1.2968  0.8607 -0.4416
 7090SOL     OW32728   3.347   3.524   1.773  0.6092  0.3951 -0.6992
 7090SOL    HW132729   3.385   3.604   1.810 -0.3948  0.0950  0.9621
 7090SOL    HW232730   3.380   3.461   1.837 -0.0937 -1.5835 -2.2757
 7091SOL     OW32731   1.870   0.774  16.880  0.0763 -0.0046 -0.9310
 7091SOL    HW132732   1.787   0.784  16.833  0.4077 -0.6388 -1.6375
 7091SOL    HW232733   1.874   0.678  16.880  1.3841  0.0628 -1.5602
 7092SOL     OW32734   0.826   4.258  16.351 -0.1487  0.1547  0.1147
 7092SOL    HW132735   0.796   4.331  16.405 -1.2008 -0.3019  0.1346
 7092SOL    HW232736   0.791   4.181  16.396 -0.4931 -0.2238 -0.8019
 7093SOL     OW32737   3.514   4.383   5.319  0.0497 -0.0425 -0.1590
 7093SOL    HW132738   3.584   4.358   5.379  0.5804  0.5062 -0.5382
 7093SOL    HW232739   3.442   4.425   5.365 -1.1263 -1.0027 -1.1166
 7094SOL     OW32740   3.479   2.997   5.411  0.2665 -0.3480  0.5123
 7094SOL    HW132741   3.391   2.983   5.446 -0.5697 -1.1563 -1.9348
 7094SOL    HW232742   3.527   3.025   5.489 -0.0048 -0.8221  0.8493
 7095SOL     OW32743   4.640   1.271  11.215 -0.0802 -0.0195  0.3082
 7095SOL    HW132744   4.621   1.353  11.170  0.5717 -0.7968 -1.3627
 7095SOL    HW232745   4.555   1.239  11.246 -0.2856 -0.3856 -0.6151
 7096SOL     OW32746   3.030   4.012  15.851  0.0701  0.3505 -0.0445
 7096SOL    HW132747   3.101   3.960  15.889 -1.2745 -0.8405  0.8107
 7096SOL    HW232748   3.077   4.058  15.781 -1.0209  0.4538 -0.7099
 7097SOL     OW32749   1.378   4.043   5.887 -0.2692 -0.4357 -0.0397
 7097SOL    HW132750   1.303   4.088   5.846  0.3557  0.8566  0.2453
 7097SOL    HW232751   1.366   4.071   5.977  0.7960 -1.5360  0.4431
 7098SOL     OW32752   4.161   0.367   3.640  0.1169  0.4721  0.4317
 7098SOL    HW132753   4.187   0.281   3.606 -1.4162  0.6137 -1.0674
 7098SOL    HW232754   4.203   0.361   3.726 -3.5463 -0.0404  2.1791
 7099SOL     OW32755   1.550   0.286   9.202 -0.0708 -0.1575  0.3803
 7099SOL    HW132756   1.561   0.220   9.132  0.4632  0.9398 -0.5729
 7099SOL    HW232757   1.501   0.238   9.268  1.9374 -2.6247  0.1171
 7100SOL     OW32758   2.109   3.881  15.364 -0.1083 -0.1345 -0.1347
 7100SOL    HW132759   2.193   3.860  15.325 -0.5878 -0.9014 -0.7603
 7100SOL    HW232760   2.078   3.955  15.311 -0.4981  0.0211  0.3107
 7101SOL     OW32761   1.117   1.950   3.048 -0.2956  0.1201  0.1828
 7101SOL    HW132762   1.176   1.973   3.120 -1.4881 -1.0787  1.5562
 7101SOL    HW232763   1.182   1.948   2.978 -1.1835  1.3967 -0.6845
 7102SOL     OW32764   3.530   0.190   3.680  0.8251 -0.3905  0.2653
 7102SOL    HW132765   3.498   0.189   3.770  1.3542  0.4801  0.4523
 7102SOL    HW232766   3.568   0.275   3.658  0.3002 -0.5400 -1.2427
 7103SOL     OW32767   1.102   2.227  16.530  0.3323 -0.0577  0.6003
 7103SOL    HW132768   1.127   2.311  16.569 -0.4884 -1.0518  3.2495
 7103SOL    HW232769   1.022   2.192  16.569  0.4235 -1.0931 -0.1374
 7104SOL     OW32770   2.118   4.255   6.928  0.3213 -0.1100 -0.1886
 7104SOL    HW132771   2.172   4.308   6.987 -2.8512  0.5228  2.1213
 7104SOL    HW232772   2.124   4.170   6.971  1.0367 -0.4581 -0.9691
 7105SOL     OW32773   1.407   2.748  17.576 -0.1145  0.2675  0.1585
 7105SOL    HW132774   1.319   2.719  17.599 -0.8311  1.5783 -0.9407
 7105SOL    HW232775   1.455   2.670  17.603  0.6813  0.0969 -1.7419
 7106SOL     OW32776   1.969   3.393  16.046 -0.3840 -0.2695  0.2028
 7106SOL    HW132777   2.018   3.351  16.116 -2.7018  0.2171  2.1026
 7106SOL    HW232778   1.928   3.462  16.098  0.6045 -0.6309  1.4678
 7107SOL     OW32779   1.922   0.461   6.358  0.3685  0.0557  0.1596
 7107SOL    HW132780   1.934   0.527   6.427  0.2549  1.2126 -0.9377
 7107SOL    HW232781   1.957   0.378   6.391 -0.2880  0.2375  1.3297
 7108SOL     OW32782   0.395   4.461   8.438  0.1782 -0.2192  0.3996
 7108SOL    HW132783   0.361   4.479   8.525 -0.7369  2.0976 -0.4474
 7108SOL    HW232784   0.338   4.516   8.384 -1.2477 -1.7583  0.3434
 7109SOL     OW32785   3.504   0.718  14.107 -0.0885  0.0465 -0.2478
 7109SOL    HW132786   3.505   0.712  14.203  1.7914  0.2581 -0.2610
 7109SOL    HW232787   3.597   0.713  14.087  0.0097  0.3495  0.1233
 7110SOL     OW32788   0.233   1.788   4.808 -0.2368 -0.4272 -0.0389
 7110SOL    HW132789   0.224   1.834   4.891  0.7221 -0.2694 -0.0173
 7110SOL    HW232790   0.175   1.841   4.753  0.9688  1.4261  0.4665
 7111SOL     OW32791   2.281   4.366   5.729  0.3673 -0.1932 -0.2052
 7111SOL    HW132792   2.250   4.385   5.818  0.5867 -0.5206 -0.0626
 7111SOL    HW232793   2.202   4.336   5.685 -0.9439 -1.1902  2.7887
 7112SOL     OW32794   2.303   1.945   7.258 -0.4687 -0.0773 -0.2048
 7112SOL    HW132795   2.237   1.960   7.191 -1.4664  0.2309  0.8407
 7112SOL    HW232796   2.360   2.014   7.223 -0.6037  0.9191  1.5476
 7113SOL     OW32797   2.167   2.810   8.722 -0.3173 -0.1216  0.5215
 7113SOL    HW132798   2.202   2.863   8.795 -1.9019 -1.0100  1.9278
 7113SOL    HW232799   2.222   2.842   8.651  1.0411 -0.3814  1.4535
 7114SOL     OW32800   2.115   1.694   1.273 -0.1595 -0.5668  0.0041
 7114SOL    HW132801   2.118   1.785   1.245 -0.4698 -0.9089 -1.1084
 7114SOL    HW232802   2.030   1.663   1.243 -0.4622  0.7523 -0.4849
 7115SOL     OW32803   4.589   4.586  16.956  0.2169 -0.1649  0.0225
 7115SOL    HW132804   4.556   4.497  16.948  1.2901 -0.4154 -1.7093
 7115SOL    HW232805   4.641   4.593  16.875 -0.5230 -1.1148 -0.5327
 7116SOL     OW32806   4.258   1.581  14.485  0.0044 -0.7843 -0.1569
 7116SOL    HW132807   4.219   1.496  14.468 -1.1890  0.0394 -1.5571
 7116SOL    HW232808   4.249   1.574  14.580  1.2373  0.2693  0.0426
 7117SOL     OW32809   0.370   1.839   7.393 -0.5688  0.0755  0.0305
 7117SOL    HW132810   0.386   1.919   7.343  0.2666  1.0579  1.8777
 7117SOL    HW232811   0.459   1.805   7.407 -0.9771 -0.9974  0.0263
 7118SOL     OW32812   4.078   2.670  12.767 -0.1908  0.2448 -0.6611
 7118SOL    HW132813   4.085   2.763  12.787  0.5867  0.2769 -1.0926
 7118SOL    HW232814   4.070   2.630  12.854  2.7290 -0.1338 -0.5601
 7119SOL     OW32815   4.685   3.933   9.194 -0.3406  0.2980  0.1725
 7119SOL    HW132816   0.036   3.907   9.248 -0.2032 -0.4140 -0.3617
 7119SOL    HW232817   4.645   3.847   9.184  0.9926 -0.3141  0.1614
 7120SOL     OW32818   3.891   2.347   8.053 -0.5584  0.1716 -0.3383
 7120SOL    HW132819   3.903   2.308   8.139  0.0082 -0.9889 -0.9406
 7120SOL    HW232820   3.975   2.325   8.014 -0.1198  2.7499 -0.8423
 7121SOL     OW32821   2.788   0.334   6.936 -0.2753  0.1220  0.0851
 7121SOL    HW132822   2.702   0.375   6.941 -0.9233 -0.9595 -2.0390
 7121SOL    HW232823   2.800   0.302   7.026  0.6404  0.0536 -0.0584
 7122SOL     OW32824   3.649   4.287   3.712  0.7108  0.3708 -0.4691
 7122SOL    HW132825   3.739   4.321   3.715  1.8635 -2.4527 -2.1854
 7122SOL    HW232826   3.608   4.334   3.640 -0.8077 -1.2168 -0.6272
 7123SOL     OW32827   2.676   0.840  16.241 -0.5090 -0.1637  0.2050
 7123SOL    HW132828   2.694   0.772  16.306 -2.2857  0.8063  1.6860
 7123SOL    HW232829   2.685   0.792  16.159  0.5427 -0.5593  0.5528
 7124SOL     OW32830   1.395   2.774   2.632  0.3304  0.0414  0.2987
 7124SOL    HW132831   1.333   2.704   2.654  2.7311 -2.5789 -1.1430
 7124SOL    HW232832   1.446   2.770   2.713  2.7543  0.9521 -1.1904
 7125SOL     OW32833   3.903   1.464   4.802 -0.2231  0.1428  0.3373
 7125SOL    HW132834   3.841   1.407   4.756  1.0668  0.1280 -1.3981
 7125SOL    HW232835   3.973   1.402   4.824 -0.8013  0.0647  1.9302
 7126SOL     OW32836   3.450   3.394  14.772 -0.3850 -0.3578  0.2468
 7126SOL    HW132837   3.379   3.437  14.819 -2.1255 -2.8972 -0.0600
 7126SOL    HW232838   3.410   3.397  14.685 -0.1069  0.2879  0.1362
 7127SOL     OW32839   1.264   3.841   1.116 -0.8836  0.4427  0.3481
 7127SOL    HW132840   1.342   3.812   1.164  0.8760  1.3627 -1.9180
 7127SOL    HW232841   1.307   3.875   1.038 -2.3022  1.8428  0.1852
 7128SOL     OW32842   4.126   0.706   9.915  0.1863  0.7608  0.4240
 7128SOL    HW132843   4.105   0.798   9.928  2.0020  1.1739  0.4287
 7128SOL    HW232844   4.142   0.680  10.006 -1.5491 -1.7367  0.0103
 7129SOL     OW32845   2.968   2.791  11.970 -0.0701 -0.0523  0.6146
 7129SOL    HW132846   2.887   2.758  12.010 -0.6630  0.0142 -0.5225
 7129SOL    HW232847   3.034   2.728  11.999 -0.3916 -1.3270 -1.3908
 7130SOL     OW32848   1.027   0.586   6.113  0.9635  0.4096 -0.2383
 7130SOL    HW132849   1.073   0.647   6.056  1.9066  0.7275  0.8584
 7130SOL    HW232850   1.002   0.642   6.187  0.0314  0.2771 -0.4505
 7131SOL     OW32851   4.009   1.966   5.313 -0.4669  0.2921  0.1018
 7131SOL    HW132852   3.934   2.023   5.298  0.0368  1.1983  1.0515
 7131SOL    HW232853   3.969   1.895   5.363 -1.1977  0.9349  0.4293
 7132SOL     OW32854   2.596   1.665   6.628 -0.0994 -0.2412 -0.0419
 7132SOL    HW132855   2.533   1.736   6.616 -0.4950 -0.3595  1.3214
 7132SOL    HW232856   2.613   1.673   6.722  0.6853  0.7599 -0.2603
 7133SOL     OW32857   2.195   0.986  15.043  0.3668 -0.1211  0.1624
 7133SOL    HW132858   2.167   0.910  15.094 -0.0594 -2.2740 -3.2828
 7133SOL    HW232859   2.139   0.982  14.965  1.1591 -1.5475 -0.3296
 7134SOL     OW32860   4.372   0.310   8.376 -0.2277 -0.7009 -0.3418
 7134SOL    HW132861   4.363   0.267   8.461 -0.2901  0.8404  0.4262
 7134SOL    HW232862   4.291   0.361   8.382 -0.2300 -0.8763  0.9976
 7135SOL     OW32863   2.969   1.520   0.394 -0.0219  0.4507 -0.0305
 7135SOL    HW132864   2.911   1.443   0.397  0.3712  0.2034  1.3714
 7135SOL    HW232865   2.899   1.583   0.411  0.3022  1.2447 -1.6751
 7136SOL     OW32866   0.419   3.970   1.565  0.4919  0.7408  0.1023
 7136SOL    HW132867   0.464   3.988   1.483  0.5415  1.3273  0.2606
 7136SOL    HW232868   0.486   3.921   1.613 -1.2271 -1.0652  0.6710
 7137SOL     OW32869   1.392   4.489   8.687  0.0809  0.0141  0.7116
 7137SOL    HW132870   1.396   4.463   8.779 -2.8713  1.0175  1.1173
 7137SOL    HW232871   1.298   4.509   8.684  0.1440  0.3723  1.1360
 7138SOL     OW32872   0.444   1.554   8.613  0.0830  0.0286 -0.5691
 7138SOL    HW132873   0.520   1.589   8.660 -1.1750  1.3218  0.4748
 7138SOL    HW232874   0.477   1.549   8.523 -0.7955 -0.5738 -0.8568
 7139SOL     OW32875   0.141   1.725  12.082 -0.1162 -0.1038  0.0858
 7139SOL    HW132876   0.170   1.795  12.140  0.7040  0.0628 -0.5238
 7139SOL    HW232877   0.157   1.647  12.135  0.5260  0.1215  0.2225
 7140SOL     OW32878   1.457   1.658   2.135  0.1383 -0.0026 -0.2698
 7140SOL    HW132879   1.502   1.581   2.100  1.0620  0.1055  0.6743
 7140SOL    HW232880   1.368   1.645   2.102  0.0636  0.9353 -0.4430
 7141SOL     OW32881   1.278   4.412  16.751  0.1058  0.7812  0.0444
 7141SOL    HW132882   1.184   4.396  16.736  0.7318  0.4170 -3.4791
 7141SOL    HW232883   1.306   4.351  16.820 -0.6634  0.0109 -0.3134
 7142SOL     OW32884   0.797   3.188  12.408 -0.3938  0.1156  0.2694
 7142SOL    HW132885   0.804   3.093  12.417  0.8749  0.2595  0.8810
 7142SOL    HW232886   0.840   3.203  12.324 -0.3185  0.8393  0.4378
 7143SOL     OW32887   0.784   1.432   5.442 -0.2259  0.2061 -0.4763
 7143SOL    HW132888   0.805   1.518   5.407  0.1674  1.0435  1.8167
 7143SOL    HW232889   0.872   1.395   5.438  0.1144  0.8112  1.6838
 7144SOL     OW32890   1.607   4.415  10.124  0.7638  0.4910  0.1298
 7144SOL    HW132891   1.649   4.435  10.040 -0.5275 -1.4202 -0.9690
 7144SOL    HW232892   1.663   4.462  10.187  1.3855 -0.0346 -0.0343
 7145SOL     OW32893   2.695   2.966   7.842 -0.5856  0.2815 -0.5114
 7145SOL    HW132894   2.652   3.050   7.826 -1.3648 -0.1593 -0.7481
 7145SOL    HW232895   2.674   2.922   7.760  2.3632 -1.2172 -0.4521
 7146SOL     OW32896   0.686   2.256   3.579 -0.2488  0.2633  0.2802
 7146SOL    HW132897   0.645   2.340   3.596 -0.4735 -0.1775  1.9700
 7146SOL    HW232898   0.632   2.211   3.514  0.2557 -0.6865  0.5106
 7147SOL     OW32899   0.850   2.339   7.024 -0.1859  0.7494 -0.0997
 7147SOL    HW132900   0.798   2.401   7.076  1.5082  2.5657 -0.5450
 7147SOL    HW232901   0.900   2.293   7.091 -0.4992  1.7887  0.8442
 7148SOL     OW32902   0.215   3.548   4.154 -0.1795 -0.2679 -0.0736
 7148SOL    HW132903   0.266   3.479   4.197 -0.7721  0.0904  1.2106
 7148SOL    HW232904   0.248   3.618   4.211  1.1191 -1.2085  0.3286
 7149SOL     OW32905   0.866   3.796   4.446  0.2236 -0.2955  0.6541
 7149SOL    HW132906   0.828   3.709   4.434  0.2597 -0.4705  1.8866
 7149SOL    HW232907   0.819   3.864   4.398 -0.0810 -1.5581 -0.8493
 7150SOL     OW32908   2.144   2.510  16.816 -0.7414  0.1394 -0.0425
 7150SOL    HW132909   2.220   2.473  16.862 -0.5413 -1.9313 -2.0359
 7150SOL    HW232910   2.106   2.555  16.891 -1.4941  0.8732 -0.8681
 7151SOL     OW32911   0.060   1.833   3.334  0.2779  0.0158 -0.2762
 7151SOL    HW132912   0.113   1.911   3.347  1.2958 -0.6814 -0.2640
 7151SOL    HW232913   4.699   1.874   3.357 -0.1352 -1.1768  0.3905
 7152SOL     OW32914   0.347   4.209   8.349  0.1255  0.1809 -0.0047
 7152SOL    HW132915   0.364   4.303   8.359  2.1548  0.0788 -2.3421
 7152SOL    HW232916   0.316   4.203   8.258 -1.5006 -1.6067  0.6700
 7153SOL     OW32917   2.872   3.584   1.618 -0.7119  0.0380  0.1148
 7153SOL    HW132918   2.883   3.495   1.584  1.8714  0.6776 -0.6742
 7153SOL    HW232919   2.858   3.568   1.711 -0.6559 -1.6898 -0.1631
 7154SOL     OW32920   2.188   0.175   8.277  0.0801  0.6649 -0.0336
 7154SOL    HW132921   2.154   0.224   8.351 -2.6656 -0.8241 -0.3057
 7154SOL    HW232922   2.258   0.127   8.322  0.8224  0.6570 -1.1944
 7155SOL     OW32923   3.670   0.350   8.259 -0.1819 -0.3099  0.2393
 7155SOL    HW132924   3.750   0.302   8.235  1.3790  0.7800  3.2903
 7155SOL    HW232925   3.626   0.296   8.325 -1.1997 -0.6823 -0.7552
 7156SOL     OW32926   1.362   3.161   6.307 -0.1622  0.4173 -0.4548
 7156SOL    HW132927   1.321   3.151   6.393  0.6173 -1.1775 -0.2813
 7156SOL    HW232928   1.446   3.115   6.306  0.3482  1.3616 -1.6727
 7157SOL     OW32929   0.711   3.332   2.728 -0.3273  0.2884  0.9210
 7157SOL    HW132930   0.716   3.281   2.809 -0.0859  0.9703  1.3314
 7157SOL    HW232931   0.737   3.266   2.663 -2.0958  0.2081  0.3126
 7158SOL     OW32932   1.295   1.473   5.262  0.1281 -0.1886  0.1774
 7158SOL    HW132933   1.290   1.478   5.167 -0.2372 -1.0384  0.1544
 7158SOL    HW232934   1.251   1.550   5.299  2.7095  0.5624  1.7107
 7159SOL     OW32935   1.236   4.524   2.083  0.1895  0.4246  0.0747
 7159SOL    HW132936   1.326   4.557   2.089  0.3994  0.1437 -1.7124
 7159SOL    HW232937   1.189   4.604   2.106  0.6905  0.9025 -0.5676
 7160SOL     OW32938   2.157   4.156  17.328  0.3953 -0.2154  0.0788
 7160SOL    HW132939   2.177   4.242  17.366 -2.6372 -0.8783  3.1425
 7160SOL    HW232940   2.121   4.115  17.407  1.3925 -0.4490  0.4131
 7161SOL     OW32941   2.448   4.298   6.009  0.0022  0.3446  0.2684
 7161SOL    HW132942   2.458   4.266   5.919 -2.3921 -1.8517  0.7883
 7161SOL    HW232943   2.377   4.361   6.014 -1.7897 -1.6774  0.4254
 7162SOL     OW32944   2.039   1.490  13.712 -0.2064  0.1466  0.6002
 7162SOL    HW132945   1.993   1.491  13.628 -0.8918 -0.2677  0.9715
 7162SOL    HW232946   2.008   1.409  13.753 -1.2323  2.4276  4.3505
 7163SOL     OW32947   4.403   1.762   3.129 -0.2901  0.0396 -0.6842
 7163SOL    HW132948   4.442   1.745   3.215 -1.2877 -0.1807 -0.2703
 7163SOL    HW232949   4.364   1.847   3.149  2.6162  1.1873  0.1706
 7164SOL     OW32950   0.290   1.147  17.206 -0.4724  0.3814 -0.1083
 7164SOL    HW132951   0.255   1.058  17.201 -1.0135  0.5960 -0.2080
 7164SOL    HW232952   0.326   1.165  17.120  0.9518  1.2572  0.6738
 7165SOL     OW32953   2.813   0.241   3.400  0.2888  0.1893 -0.4423
 7165SOL    HW132954   2.721   0.266   3.389  0.9406  2.7169  0.0499
 7165SOL    HW232955   2.816   0.170   3.335  3.2351 -1.2041  1.2425
 7166SOL     OW32956   1.828   2.478   3.689 -0.4116 -0.0647  0.3406
 7166SOL    HW132957   1.836   2.384   3.703  0.2884  0.1557  1.4025
 7166SOL    HW232958   1.737   2.493   3.666 -0.2331  0.5225  0.0113
 7167SOL     OW32959   1.676   3.950   9.379 -0.2882 -0.4913 -0.1296
 7167SOL    HW132960   1.712   3.888   9.315 -0.1783  0.5959 -1.1380
 7167SOL    HW232961   1.628   3.886   9.431  2.2351  0.0185  2.8523
 7168SOL     OW32962   3.738   2.497  11.471  0.1965 -0.1639  0.1427
 7168SOL    HW132963   3.782   2.411  11.466 -0.6547 -0.4911 -1.7378
 7168SOL    HW232964   3.809   2.558  11.492  0.3008  0.2200 -1.3162
 7169SOL     OW32965   1.883   2.332   1.609 -0.2441  0.4273  0.3223
 7169SOL    HW132966   1.844   2.279   1.539 -0.6333 -2.4370  2.6927
 7169SOL    HW232967   1.920   2.264   1.666 -0.7687  0.1785  0.3681
 7170SOL     OW32968   3.551   1.801   5.693  0.0598 -0.2544  0.0383
 7170SOL    HW132969   3.490   1.861   5.651 -0.8726 -1.6389 -0.5819
 7170SOL    HW232970   3.626   1.861   5.693 -2.6107  3.0906  1.9521
 7171SOL     OW32971   4.598   1.501  17.277 -0.0955  0.1214  0.4352
 7171SOL    HW132972   4.647   1.576  17.243  0.2565 -0.7367 -0.9203
 7171SOL    HW232973   4.649   1.425  17.249  0.1293 -0.1022  1.4336
 7172SOL     OW32974   1.234   4.383  13.364 -0.2892 -0.6287 -0.4553
 7172SOL    HW132975   1.289   4.451  13.326 -2.9301  0.9804 -1.4394
 7172SOL    HW232976   1.147   4.424  13.369  0.0767 -0.1095  1.8549
 7173SOL     OW32977   1.614   3.917   5.739 -0.3089 -0.2994 -0.1386
 7173SOL    HW132978   1.578   3.902   5.651 -3.7299 -1.1299  1.4162
 7173SOL    HW232979   1.538   3.960   5.777  0.0419 -0.1068  0.3389
 7174SOL     OW32980   4.418   0.778   6.136 -0.5905 -0.1798 -0.0617
 7174SOL    HW132981   4.427   0.840   6.208 -3.5629  1.1053 -0.8050
 7174SOL    HW232982   4.399   0.836   6.062  0.6538  0.7534  0.3508
 7175SOL     OW32983   1.778   2.972   1.833  0.1129  0.4731 -0.3196
 7175SOL    HW132984   1.754   2.908   1.765  0.7956  0.2853 -0.3785
 7175SOL    HW232985   1.865   3.003   1.810  0.8876 -0.8829  0.8468
 7176SOL     OW32986   1.913   1.247   7.477 -0.4790 -0.0170  0.2267
 7176SOL    HW132987   1.896   1.340   7.463 -1.7521 -0.0378  1.6932
 7176SOL    HW232988   2.001   1.240   7.513  0.2291  0.4372 -1.4273
 7177SOL     OW32989   4.259   4.677   9.862 -0.0841  0.5050 -0.5785
 7177SOL    HW132990   4.306   4.594   9.870 -0.2710  0.9218  4.7323
 7177SOL    HW232991   4.198   4.658   9.933 -1.2709 -0.3542 -1.8159
 7178SOL     OW32992   0.737   1.068   3.304  0.8240  0.2282 -0.0824
 7178SOL    HW132993   0.667   1.049   3.242  0.0023  1.7901  0.3746
 7178SOL    HW232994   0.807   1.094   3.244  0.3479  0.5299 -0.5049
 7179SOL     OW32995   0.642   2.687   2.634 -0.6131  0.4199  0.4899
 7179SOL    HW132996   0.554   2.651   2.622  0.3877 -1.9568  0.1495
 7179SOL    HW232997   0.662   2.733   2.552 -0.2755  0.0987  0.3886
 7180SOL     OW32998   3.789   0.015  15.219 -0.3951 -0.1505 -0.4453
 7180SOL    HW132999   3.863   0.076  15.222  0.9622 -1.7846 -0.5172
 7180SOL    HW233000   3.743   0.031  15.302  1.0979  3.2891 -0.2798
 7181SOL     OW33001   4.398   3.577   7.053 -0.2728 -0.0187  0.6050
 7181SOL    HW133002   4.440   3.578   6.967  0.8113  0.7312  1.1359
 7181SOL    HW233003   4.404   3.484   7.075  0.6606  0.2309  1.3933
 7182SOL     OW33004   3.247   3.228  11.038 -0.0026 -0.1288  0.3807
 7182SOL    HW133005   3.193   3.289  11.088  1.5668  0.6309  1.1584
 7182SOL    HW233006   3.199   3.146  11.040  0.5099 -0.4253  0.6177
 7183SOL     OW33007   4.685   1.303   1.834  0.4135 -0.2927  0.2353
 7183SOL    HW133008   4.625   1.373   1.860 -0.8077 -0.6348 -1.6458
 7183SOL    HW233009   4.646   1.263   1.756 -0.2163  0.6014  0.1001
 7184SOL     OW33010   3.408   0.983   4.239 -0.0421  0.5847 -0.1229
 7184SOL    HW133011   3.331   1.021   4.282 -0.1162 -0.5047  0.6966
 7184SOL    HW233012   3.447   0.932   4.309 -0.6907  1.4491  0.8653
 7185SOL     OW33013   2.939   2.277   8.133  0.6413  0.0393  0.5694
 7185SOL    HW133014   2.874   2.239   8.074  2.0565 -0.6020 -0.5896
 7185SOL    HW233015   3.011   2.214   8.136 -0.3702 -1.1254  0.6303
 7186SOL     OW33016   3.805   3.854   2.098 -0.0275 -0.7030 -0.3755
 7186SOL    HW133017   3.797   3.816   2.185 -3.4321  0.3385 -0.2580
 7186SOL    HW233018   3.777   3.943   2.119 -2.2627 -1.5340  0.1266
 7187SOL     OW33019   3.560   4.229   5.603  0.5068  0.4454 -0.0814
 7187SOL    HW133020   3.629   4.232   5.538 -1.6065  0.6970 -2.3003
 7187SOL    HW233021   3.610   4.203   5.680 -2.0771 -1.5071  0.9693
 7188SOL     OW33022   3.799   0.695   4.590  0.4057  0.1389 -0.7114
 7188SOL    HW133023   3.848   0.747   4.526  1.4225 -1.2274 -1.0415
 7188SOL    HW233024   3.744   0.768   4.618  0.9369 -0.3881  1.7079
 7189SOL     OW33025   3.089   2.985   6.916 -0.0066  0.0148 -0.9699
 7189SOL    HW133026   3.136   2.980   6.999  1.8260  1.4536 -1.9160
 7189SOL    HW233027   2.999   3.003   6.943 -0.2115 -1.3715 -0.7236
 7190SOL     OW33028   2.570   4.616   8.137  0.3785 -0.3461  0.3324
 7190SOL    HW133029   2.659   4.623   8.173  0.0733  0.5210  0.9081
 7190SOL    HW233030   2.536   4.566   8.212  1.3329 -2.1285 -0.4170
 7191SOL     OW33031   2.494   0.216   5.930  0.3190 -0.5602  0.3236
 7191SOL    HW133032   2.439   0.284   5.890 -2.2615 -1.4522  2.3082
 7191SOL    HW233033   2.536   0.258   6.005  1.1053 -1.2763  0.2821
 7192SOL     OW33034   1.008   2.653   3.705 -0.3637  0.1575 -0.0825
 7192SOL    HW133035   0.990   2.693   3.620 -0.4172  0.9746  0.3179
 7192SOL    HW233036   1.063   2.580   3.676  0.3236  1.0281 -0.9601
 7193SOL     OW33037   0.641   3.919   7.823  0.1755 -0.4450 -0.7863
 7193SOL    HW133038   0.654   3.886   7.734 -1.4679 -1.9187 -0.4863
 7193SOL    HW233039   0.577   3.861   7.863  0.3126  0.8971  1.4157
 7194SOL     OW33040   3.552   0.162  15.674  0.0596  0.0805  0.1525
 7194SOL    HW133041   3.636   0.195  15.706  0.6626 -1.2146 -0.1034
 7194SOL    HW233042   3.556   0.227  15.603 -0.9789  1.1993  1.1146
 7195SOL     OW33043   2.823   1.616   3.922 -0.3174  0.4002 -0.2770
 7195SOL    HW133044   2.826   1.521   3.932  2.0227  0.6967  1.7492
 7195SOL    HW233045   2.905   1.648   3.959 -1.2231  2.4169 -0.0089
 7196SOL     OW33046   2.428   1.888   7.553 -0.3484 -0.0941 -0.2011
 7196SOL    HW133047   2.519   1.889   7.582 -0.6922 -0.1880  0.9039
 7196SOL    HW233048   2.452   1.883   7.461  0.5277 -0.1117  0.0350
 7197SOL     OW33049   1.026   0.200   7.971  0.1537  0.8078 -0.0899
 7197SOL    HW133050   1.090   0.130   7.986 -1.0995 -0.6397 -1.5223
 7197SOL    HW233051   1.049   0.247   8.052  0.9478  1.8798 -0.9313
 7198SOL     OW33052   1.294   3.066   8.322  0.2336 -0.3559  0.2410
 7198SOL    HW133053   1.335   3.123   8.257  0.6658 -1.1789 -0.2084
 7198SOL    HW233054   1.366   3.059   8.384  0.8696  0.7210 -0.3588
 7199SOL     OW33055   2.515   2.511   4.014 -0.6361 -0.6085  0.1856
 7199SOL    HW133056   2.469   2.502   4.098 -0.0290 -0.8913  0.4941
 7199SOL    HW233057   2.595   2.552   4.048 -0.5490 -0.9145  0.3610
 7200SOL     OW33058   2.478   0.424   1.127  0.0843  0.3264  0.1407
 7200SOL    HW133059   2.538   0.400   1.055  0.0596 -4.2058  1.6065
 7200SOL    HW233060   2.500   0.351   1.185  2.4947 -0.0319 -1.1921
 7201SOL     OW33061   2.915   0.610  17.018 -0.5148  0.2028 -0.0531
 7201SOL    HW133062   2.943   0.695  17.050 -0.8604 -0.7775  2.8373
 7201SOL    HW233063   3.002   0.578  16.995 -0.8771 -0.3809 -0.6438
 7202SOL     OW33064   0.939   0.459   4.892  0.1376 -0.8315  0.2618
 7202SOL    HW133065   0.881   0.457   4.816 -0.1297 -0.7810  0.4647
 7202SOL    HW233066   0.877   0.439   4.963  0.7770  1.3644  1.4510
 7203SOL     OW33067   3.211   0.802   1.821 -0.0461  0.6139 -0.3565
 7203SOL    HW133068   3.117   0.820   1.820  0.0932  1.2734 -1.5863
 7203SOL    HW233069   3.225   0.759   1.905  0.8516  2.1052  0.2565
 7204SOL     OW33070   0.761   0.134  12.780  0.0779 -0.2758 -0.5125
 7204SOL    HW133071   0.695   0.145  12.712  2.0779 -1.9720 -2.6957
 7204SOL    HW233072   0.707   0.093  12.847 -2.2178  2.5362 -0.6080
 7205SOL     OW33073   4.187   3.078   3.359 -0.1324 -0.1417  0.0554
 7205SOL    HW133074   4.218   3.002   3.310  2.9771  1.8246 -1.0865
 7205SOL    HW233075   4.114   3.103   3.304 -0.9853  2.0959  2.2003
 7206SOL     OW33076   3.034   1.365   5.538  0.2722 -0.0856  0.3263
 7206SOL    HW133077   2.957   1.394   5.489  1.8345 -0.8439 -2.5633
 7206SOL    HW233078   3.075   1.450   5.550  0.8292 -0.0558 -1.9611
 7207SOL     OW33079   0.135   3.142  12.104 -0.2053 -0.3266  0.0866
 7207SOL    HW133080   0.193   3.196  12.158 -0.8340 -1.5560  1.9769
 7207SOL    HW233081   0.203   3.118  12.041  0.3718 -0.3915  0.7307
 7208SOL     OW33082   0.424   0.462   7.402 -0.4852  0.0756  0.0328
 7208SOL    HW133083   0.396   0.475   7.312 -2.5043  0.4869  0.7295
 7208SOL    HW233084   0.462   0.374   7.402 -2.3286 -0.7092  1.4421
 7209SOL     OW33085   0.342   4.657   7.661 -0.1113  0.4835 -0.2267
 7209SOL    HW133086   0.373   4.578   7.615 -1.9870 -0.4790  0.1587
 7209SOL    HW233087   0.319   4.608   7.740 -1.3890  1.4550 -0.0087
 7210SOL     OW33088   3.453   3.374  12.032  0.1099  0.3280 -0.1697
 7210SOL    HW133089   3.459   3.464  12.066  3.3231 -0.3652  1.1447
 7210SOL    HW233090   3.369   3.370  11.987  0.4487  2.9525 -1.0208
 7211SOL     OW33091   3.376   4.022  10.612 -0.4050 -0.3170  0.0403
 7211SOL    HW133092   3.398   4.040  10.521 -2.8725  2.1691 -0.0660
 7211SOL    HW233093   3.324   4.101  10.626  1.0585  0.6151  0.1770
 7212SOL     OW33094   1.017   3.528   8.638 -0.1838 -0.2873 -0.5386
 7212SOL    HW133095   1.057   3.485   8.563  0.1076  0.0937 -0.6018
 7212SOL    HW233096   1.098   3.545   8.686  1.0393 -0.4464 -2.5590
 7213SOL     OW33097   3.735   3.340   6.999  0.2888 -0.3484  0.4266
 7213SOL    HW133098   3.818   3.386   7.013  0.3824 -0.0939 -1.0048
 7213SOL    HW233099   3.717   3.307   7.087 -0.8236 -1.3629 -0.1867
 7214SOL     OW33100   2.442   0.411   4.424  0.0436  0.0998 -0.6288
 7214SOL    HW133101   2.490   0.442   4.501  0.6656  0.3272 -1.1041
 7214SOL    HW233102   2.510   0.429   4.359 -0.7029  0.0943 -1.3978
 7215SOL     OW33103   1.562   2.337   3.886  0.5215 -0.1415  0.2698
 7215SOL    HW133104   1.546   2.308   3.796 -0.4847  1.5090 -0.0738
 7215SOL    HW233105   1.643   2.293   3.914  0.1087 -1.3293 -0.4007
 7216SOL     OW33106   3.554   2.175   6.193  0.1909 -0.1266  0.2877
 7216SOL    HW133107   3.502   2.140   6.265  1.3729 -1.5266  0.4601
 7216SOL    HW233108   3.646   2.172   6.218  0.5559 -0.7794 -1.0882
 7217SOL     OW33109   1.173   1.434   8.714 -0.1492  0.1343 -0.5044
 7217SOL    HW133110   1.115   1.403   8.783  0.5767  1.4812  0.6972
 7217SOL    HW233111   1.111   1.499   8.680  0.0433  0.4881 -0.1638
 7218SOL     OW33112   1.270   0.016   4.932 -0.0259  0.0827  0.3177
 7218SOL    HW133113   1.309   0.007   4.845 -1.0114 -0.5794 -0.0584
 7218SOL    HW233114   1.294   0.106   4.955 -1.3406  0.9373 -1.6560
 7219SOL     OW33115   0.326   0.651  14.855 -0.3464  0.2641  0.5573
 7219SOL    HW133116   0.406   0.629  14.903  0.8469 -0.6663 -1.8868
 7219SOL    HW233117   0.346   0.721  14.794 -0.7086 -1.4095 -1.4878
 7220SOL     OW33118   4.607   2.836   7.560 -0.4966 -0.1573 -0.8207
 7220SOL    HW133119   4.677   2.771   7.544  0.9092  1.3449 -0.7484
 7220SOL    HW233120   4.537   2.810   7.500  0.7645 -0.2635 -2.2344
 7221SOL     OW33121   1.742   4.103   4.284  0.5847  0.1135  0.1828
 7221SOL    HW133122   1.757   4.193   4.255  0.7785  0.3862  1.1533
 7221SOL    HW233123   1.656   4.092   4.244  0.5253 -0.1504  0.3849
 7222SOL     OW33124   0.844   2.772   9.118  0.4812  0.2807  0.1199
 7222SOL    HW133125   0.840   2.731   9.031 -0.2905  1.7640 -0.5416
 7222SOL    HW233126   0.937   2.764   9.139  0.5001 -0.2311 -0.1359
 7223SOL     OW33127   3.475   0.518  11.992  0.3565  0.6112 -0.4696
 7223SOL    HW133128   3.558   0.472  11.990 -0.5086 -0.9453 -0.3017
 7223SOL    HW233129   3.431   0.484  12.070 -0.3758  1.9711 -0.2863
 7224SOL     OW33130   4.008   4.490   2.596  0.2893 -0.1921  0.9708
 7224SOL    HW133131   3.954   4.432   2.649 -0.6099 -0.2258  0.0365
 7224SOL    HW233132   3.937   4.516   2.537  0.1849  0.5008  1.4046
 7225SOL     OW33133   2.002   2.928   3.065  0.7100 -0.0885 -0.1897
 7225SOL    HW133134   1.974   2.980   2.990 -1.3606 -0.4122  0.3407
 7225SOL    HW233135   1.944   2.852   3.056 -0.1541  0.7515 -1.7513
 7226SOL     OW33136   3.341   4.513   9.037  0.6847  0.0285 -0.7485
 7226SOL    HW133137   3.357   4.423   9.011 -2.3207 -0.8008  0.2957
 7226SOL    HW233138   3.431   4.547   9.040  0.3544  0.9659 -1.3549
 7227SOL     OW33139   4.349   3.794   3.755 -0.1599  0.6867 -0.0297
 7227SOL    HW133140   4.313   3.787   3.667 -0.8622  1.0481  0.2322
 7227SOL    HW233141   4.367   3.707   3.791 -1.4005  1.0559  1.5065
 7228SOL     OW33142   4.016   3.438   6.744  0.0010 -0.3360 -0.5207
 7228SOL    HW133143   4.099   3.486   6.742 -0.0785 -0.0465  2.9565
 7228SOL    HW233144   3.970   3.468   6.822  0.2516 -1.2966  0.0047
 7229SOL     OW33145   4.030   4.084   4.320 -0.0213  0.4259  0.2113
 7229SOL    HW133146   4.038   4.175   4.346  1.7549  0.3097  0.1089
 7229SOL    HW233147   4.122   4.057   4.323 -0.3600 -0.7716 -0.1119
 7230SOL     OW33148   3.956   3.543   4.616 -0.2556  0.4037 -0.1246
 7230SOL    HW133149   4.036   3.491   4.609 -0.2504  0.1679  1.7633
 7230SOL    HW233150   3.897   3.517   4.545  0.5787  0.9871 -1.0450
 7231SOL     OW33151   3.952   1.056   4.052  0.7925  0.6096 -0.1188
 7231SOL    HW133152   3.866   1.049   4.009  0.1282 -0.1319  1.3271
 7231SOL    HW233153   3.984   0.966   4.053 -1.1889 -0.0801  0.3152
 7232SOL     OW33154   1.005   4.017   4.034  0.3901  0.1706 -0.0806
 7232SOL    HW133155   1.083   4.033   3.980  1.7255 -0.2262  1.7058
 7232SOL    HW233156   0.943   4.085   4.011 -1.4030 -0.7723  1.9734
 7233SOL     OW33157   3.640   4.131   8.669  0.0277 -0.2318  0.1846
 7233SOL    HW133158   3.631   4.063   8.602  0.7522 -0.6030  0.4644
 7233SOL    HW233159   3.694   4.082   8.731 -0.4772  0.0613  0.8501
 7234SOL     OW33160   2.019   3.735   5.590  0.8110 -0.2379  0.0142
 7234SOL    HW133161   2.071   3.810   5.562  0.5753 -0.1602 -0.2060
 7234SOL    HW233162   2.005   3.757   5.682 -0.0742  0.1625 -0.2190
 7235SOL     OW33163   3.044   0.669  14.589  0.0264 -0.6891 -0.0638
 7235SOL    HW133164   3.123   0.694  14.541  1.2552 -1.2121  1.6974
 7235SOL    HW233165   3.055   0.724  14.667  0.2848 -0.0023 -0.5796
 7236SOL     OW33166   4.262   3.462  12.508 -0.2384  0.3739 -0.4167
 7236SOL    HW133167   4.280   3.446  12.415  3.0638  1.4625  0.0358
 7236SOL    HW233168   4.183   3.409  12.512 -0.1252 -0.0184 -3.3938
 7237SOL     OW33169   1.818   3.570  17.124  0.6996 -0.1057  0.3993
 7237SOL    HW133170   1.726   3.571  17.151  0.8438  2.4098  0.8327
 7237SOL    HW233171   1.866   3.537  17.200  1.0421 -0.6046 -0.0404
 7238SOL     OW33172   1.508   3.712   6.018 -0.4693  0.0575 -0.1837
 7238SOL    HW133173   1.534   3.644   5.956  0.4575 -0.0313  0.3022
 7238SOL    HW233174   1.444   3.764   5.968 -0.3129  0.6436  0.2200
 7239SOL     OW33175   1.440   2.531   7.740  0.4744  0.2590  0.1648
 7239SOL    HW133176   1.372   2.522   7.806  1.4316 -1.3899  0.9486
 7239SOL    HW233177   1.394   2.565   7.664  1.0839  1.4733  0.3385
 7240SOL     OW33178   0.505   1.475   7.957  0.3258  0.0321 -0.3535
 7240SOL    HW133179   0.497   1.567   7.933  1.7626  0.0123 -0.9326
 7240SOL    HW233180   0.579   1.453   7.900  0.3351 -2.9206  0.7801
 7241SOL     OW33181   1.124   0.825   4.931 -0.6630  0.5793 -0.4729
 7241SOL    HW133182   1.190   0.804   4.997 -2.4039 -1.1733  0.6900
 7241SOL    HW233183   1.044   0.826   4.985  1.5640  0.7460  2.8291
 7242SOL     OW33184   0.586   2.953   7.986  0.7533 -0.1067 -0.1350
 7242SOL    HW133185   0.511   2.969   8.044  1.6921  1.6177  0.6149
 7242SOL    HW233186   0.548   2.921   7.904 -0.7366 -3.8611  2.0038
 7243SOL     OW33187   2.668   3.021  11.596  0.0168  0.0363  0.4168
 7243SOL    HW133188   2.677   2.945  11.654  0.0751 -0.9303 -0.8651
 7243SOL    HW233189   2.605   2.985  11.533  0.4137  2.4285 -1.3675
 7244SOL     OW33190   3.906   1.890  16.107 -0.0521 -0.5396 -0.0966
 7244SOL    HW133191   3.945   1.825  16.165 -1.0849  0.5079  1.7753
 7244SOL    HW233192   3.982   1.922  16.058  0.0959  0.0111  0.4956
 7245SOL     OW33193   3.420   1.282   4.199  0.1760  0.4958  0.2175
 7245SOL    HW133194   3.499   1.230   4.183  0.3302  0.9518 -0.5330
 7245SOL    HW233195   3.356   1.226   4.243 -0.7449  1.7803  0.5402
 7246SOL     OW33196   4.686   4.691  10.412 -0.8164 -0.6411  0.0893
 7246SOL    HW133197   4.630   4.667  10.485 -1.9792  0.5300 -0.4064
 7246SOL    HW233198   0.029   0.025  10.452 -0.2280 -0.3450 -1.2750
 7247SOL     OW33199   4.076   4.299   5.969 -0.3580  0.2791  0.4039
 7247SOL    HW133200   4.157   4.349   5.981 -0.3033  0.8425 -2.3512
 7247SOL    HW233201   4.038   4.348   5.897  1.3492  1.5694  0.3723
 7248SOL     OW33202   3.324   3.833   0.864 -0.3841 -0.0870 -0.6715
 7248SOL    HW133203   3.412   3.864   0.841 -1.1661  0.9070 -2.3596
 7248SOL    HW233204   3.289   3.801   0.781 -1.3764  0.3049 -0.4049
 7249SOL     OW33205   4.243   3.590   8.489 -0.1320  0.6309  0.0430
 7249SOL    HW133206   4.336   3.569   8.494 -0.4596 -1.2381 -1.8066
 7249SOL    HW233207   4.222   3.523   8.424 -0.3402 -0.5961  1.3861
 7250SOL     OW33208   0.865   2.717   4.303  0.4316 -0.1689  0.0288
 7250SOL    HW133209   0.874   2.788   4.240 -0.2662  1.3086  1.5824
 7250SOL    HW233210   0.797   2.662   4.264  2.4932 -0.9597 -2.4563
 7251SOL     OW33211   0.467   1.900  11.848 -0.5910 -0.3887  0.4065
 7251SOL    HW133212   0.468   1.929  11.939 -0.0329 -1.7265  0.8277
 7251SOL    HW233213   0.374   1.913  11.828 -0.3891  1.1280  0.4667
 7252SOL     OW33214   2.422   1.397  11.536 -0.6746 -0.1239  0.5244
 7252SOL    HW133215   2.455   1.308  11.523  0.2809  0.4187 -0.6948
 7252SOL    HW233216   2.341   1.381  11.585 -1.1277  2.5158  0.6356
 7253SOL     OW33217   2.739   4.487  10.857  0.0619  0.5305  0.0987
 7253SOL    HW133218   2.644   4.496  10.862  0.0399  0.3346  0.0330
 7253SOL    HW233219   2.745   4.410  10.801  0.7687  0.3072  0.4795
 7254SOL     OW33220   0.900   2.490  16.368 -0.5598 -0.3282 -0.3203
 7254SOL    HW133221   0.828   2.428  16.359 -1.5514  0.9159 -0.9023
 7254SOL    HW233222   0.861   2.546  16.434 -1.1615 -1.0247 -0.0954
 7255SOL     OW33223   2.670   4.090  15.503  0.2112 -0.5052 -0.0010
 7255SOL    HW133224   2.709   4.005  15.519  1.8747  0.2318 -0.1515
 7255SOL    HW233225   2.676   4.126  15.592  0.2023 -0.1140 -0.1557
 7256SOL     OW33226   3.108   0.329   2.968  0.3573 -0.3189 -0.0012
 7256SOL    HW133227   3.154   0.274   3.031  0.8824  1.9528  1.5699
 7256SOL    HW233228   3.172   0.400   2.963 -2.1035  2.0172  1.5946
 7257SOL     OW33229   0.351   2.502   8.210 -0.4820 -0.0926 -0.2819
 7257SOL    HW133230   0.344   2.430   8.148 -2.1716 -0.1961  0.0294
 7257SOL    HW233231   0.265   2.499   8.252  0.0970  2.4048  1.1176
 7258SOL     OW33232   1.922   1.510  13.481  0.8657 -0.1700  0.6191
 7258SOL    HW133233   1.987   1.534  13.415  1.3193  0.0917  1.1605
 7258SOL    HW233234   1.851   1.480  13.424  1.0903  0.8682 -0.2084
 7259SOL     OW33235   1.937   2.994   5.383 -0.4877  0.2001  0.0499
 7259SOL    HW133236   1.986   3.070   5.413 -1.1015  0.0485  1.4357
 7259SOL    HW233237   1.929   3.029   5.295 -1.6927 -0.4205 -0.0953
 7260SOL     OW33238   4.342   3.086   6.543  0.2405 -0.5062  0.2732
 7260SOL    HW133239   4.277   3.154   6.527 -0.2936 -0.7816  1.2464
 7260SOL    HW233240   4.313   2.998   6.520  0.7112 -0.8507  0.9680
 7261SOL     OW33241   1.143   0.108  15.505 -0.3315 -0.0812 -0.2767
 7261SOL    HW133242   1.127   0.198  15.477 -0.4801 -0.1429 -0.3937
 7261SOL    HW233243   1.150   0.057  15.424 -1.6413  1.7326 -1.5480
 7262SOL     OW33244   4.000   3.808   5.567 -0.1661  0.2105 -0.3350
 7262SOL    HW133245   3.937   3.793   5.497 -0.6692 -1.8983  0.5556
 7262SOL    HW233246   4.080   3.789   5.517 -1.1793  1.0388 -2.2475
 7263SOL     OW33247   0.346   0.231   2.139 -0.7224  0.3261  0.0111
 7263SOL    HW133248   0.258   0.209   2.170  0.0032 -0.2201  1.7058
 7263SOL    HW233249   0.346   0.180   2.059  2.5665 -0.4770  0.5454
 7264SOL     OW33250   4.586   3.438   0.680  0.3699 -0.1318 -0.0109
 7264SOL    HW133251   4.645   3.424   0.607 -1.5467  0.3032 -1.6343
 7264SOL    HW233252   4.555   3.526   0.659  0.7892 -0.2656 -1.1975
 7265SOL     OW33253   0.714   0.216   8.874 -0.3354 -0.3349 -0.3339
 7265SOL    HW133254   0.802   0.251   8.859 -0.7670  0.9157  0.0591
 7265SOL    HW233255   0.745   0.133   8.910  1.5127 -0.1210 -1.4347
 7266SOL     OW33256   4.290   0.775   0.638  0.4718 -0.4329  0.0313
 7266SOL    HW133257   4.220   0.730   0.684 -0.2544 -0.1696 -0.8155
 7266SOL    HW233258   4.358   0.765   0.705  0.1479  2.2680  0.7867
 7267SOL     OW33259   2.705   0.735  11.243  0.3571 -0.1754  0.1175
 7267SOL    HW133260   2.663   0.683  11.174 -0.0859 -0.9040  0.9329
 7267SOL    HW233261   2.724   0.665  11.306 -1.0817 -0.9892 -0.3538
 7268SOL     OW33262   3.643   0.508  10.277 -0.5242 -0.6546 -0.1345
 7268SOL    HW133263   3.661   0.484  10.186 -0.8484 -0.7093 -0.1852
 7268SOL    HW233264   3.682   0.433  10.322  2.1526  0.4724 -0.5514
 7269SOL     OW33265   0.659   3.767   7.595  0.0284 -0.7609  0.0031
 7269SOL    HW133266   0.600   3.694   7.613 -1.4153  0.6489  0.9924
 7269SOL    HW233267   0.741   3.724   7.620  0.0906 -1.4467 -1.3488
 7270SOL     OW33268   0.866   3.157   6.100  0.0328 -0.8705 -0.4587
 7270SOL    HW133269   0.942   3.118   6.142  1.3158  1.9333 -0.1565
 7270SOL    HW233270   0.808   3.081   6.103 -2.5663  1.0644 -1.0951
 7271SOL     OW33271   0.530   0.063   1.696  0.2009  0.2833 -0.1438
 7271SOL    HW133272   0.544   0.020   1.612  0.8620  1.3129 -0.5514
 7271SOL    HW233273   0.464   0.130   1.680  0.6371  0.5321 -0.8919
 7272SOL     OW33274   0.509   1.913   6.840  0.4010 -0.5081 -0.3037
 7272SOL    HW133275   0.435   1.866   6.879  1.1577 -0.8452  0.7028
 7272SOL    HW233276   0.540   1.869   6.761  1.0714 -0.4450 -0.0739
 7273SOL     OW33277   0.287   4.283   7.822  0.1231  0.0261  0.1605
 7273SOL    HW133278   0.249   4.248   7.741  2.5938 -2.3229  0.0285
 7273SOL    HW233279   0.238   4.365   7.822 -0.5244 -0.3496 -1.3905
 7274SOL     OW33280   1.307   2.103   7.800  0.4759  0.0413 -0.1413
 7274SOL    HW133281   1.399   2.079   7.790 -0.0300 -1.5967 -0.9058
 7274SOL    HW233282   1.276   2.014   7.819 -1.1495  0.5397 -0.4963
 7275SOL     OW33283   0.427   0.467  11.543  0.7791  0.2060 -0.5033
 7275SOL    HW133284   0.456   0.553  11.512  0.7869  1.3252  2.5796
 7275SOL    HW233285   0.420   0.422  11.459  0.2131  1.3544 -1.0635
 7276SOL     OW33286   0.228   3.615  13.479 -0.2114 -0.0527 -0.3976
 7276SOL    HW133287   0.313   3.656  13.499  0.1939 -0.3130 -1.5665
 7276SOL    HW233288   0.170   3.690  13.471  0.0666  0.0430 -1.5804
 7277SOL     OW33289   1.738   3.242   3.261 -0.4964 -0.1424 -0.4529
 7277SOL    HW133290   1.746   3.324   3.311  0.4617  0.1233 -1.0389
 7277SOL    HW233291   1.831   3.230   3.242 -0.2544 -2.7185  2.3835
 7278SOL     OW33292   3.293   1.375   3.910 -0.0345  0.0191  0.5227
 7278SOL    HW133293   3.294   1.411   3.998 -1.7282 -1.6787  1.2537
 7278SOL    HW233294   3.269   1.440   3.845  0.3075 -1.2032 -0.8306
 7279SOL     OW33295   3.982   3.554   3.755 -0.1077  0.1675  0.0175
 7279SOL    HW133296   3.966   3.560   3.660 -0.3227  0.4489  0.0696
 7279SOL    HW233297   4.075   3.534   3.749 -0.5317 -1.3887 -1.3245
 7280SOL     OW33298   1.582   4.669   8.850 -0.3717  0.1333 -0.4377
 7280SOL    HW133299   1.661   4.675   8.904  0.0907  0.9409 -1.2234
 7280SOL    HW233300   1.546   4.588   8.887 -1.4988  1.8358  2.1904
 7281SOL     OW33301   2.427   2.868  11.118 -0.5718 -0.1678  0.4932
 7281SOL    HW133302   2.422   2.952  11.163  0.4401 -0.2395  0.7379
 7281SOL    HW233303   2.498   2.824  11.165  0.7534 -0.2789 -1.6068
 7282SOL     OW33304   1.883   4.407   0.483  0.5065 -0.1797  0.3934
 7282SOL    HW133305   1.796   4.410   0.445  0.7147  2.2258  0.0851
 7282SOL    HW233306   1.867   4.357   0.563  1.9664 -0.9391  0.2121
 7283SOL     OW33307   1.576   0.171  11.890 -0.4196  0.1573  0.5592
 7283SOL    HW133308   1.575   0.262  11.917  1.0876  0.4095 -0.2532
 7283SOL    HW233309   1.566   0.122  11.972  2.1679 -2.3924 -0.6444
 7284SOL     OW33310   2.410   2.021   4.592  0.4401  0.1383  0.2107
 7284SOL    HW133311   2.391   2.078   4.667  0.6794 -1.3116  1.3732
 7284SOL    HW233312   2.416   2.095   4.532 -0.5234  0.8893  1.0329
 7285SOL     OW33313   3.386   0.527   9.330 -0.3597 -0.4976  0.0379
 7285SOL    HW133314   3.394   0.505   9.237  2.1406 -0.6416  0.2837
 7285SOL    HW233315   3.466   0.579   9.342  0.6136 -1.5212 -1.9755
 7286SOL     OW33316   4.378   1.401   3.646 -0.1660  0.1558 -0.0240
 7286SOL    HW133317   4.401   1.422   3.736 -1.9528  0.9412  0.2306
 7286SOL    HW233318   4.289   1.432   3.631  1.4284  4.9642  0.6906
 7287SOL     OW33319   1.225   3.325  17.037 -0.3353 -0.2798  0.0015
 7287SOL    HW133320   1.165   3.294  17.105  1.1864  1.8241  2.2926
 7287SOL    HW233321   1.307   3.321  17.085  0.4598  3.4124 -1.0615
 7288SOL     OW33322   0.440   2.333   8.546  1.3550  0.6502  0.6806
 7288SOL    HW133323   0.482   2.378   8.472  1.5846  3.0975  2.3057
 7288SOL    HW233324   0.476   2.245   8.547 -0.2032 -0.0065 -0.1040
 7289SOL     OW33325   2.326   3.938   4.554 -0.2455  0.2251  0.2439
 7289SOL    HW133326   2.418   3.923   4.535  0.2951  1.6363  1.8086
 7289SOL    HW233327   2.313   3.856   4.601 -0.8526  0.2078  0.0459
 7290SOL     OW33328   0.578   4.259   2.998 -0.2234 -0.0349 -0.2184
 7290SOL    HW133329   0.595   4.220   2.912  1.6353 -0.3678  0.2953
 7290SOL    HW233330   0.485   4.237   3.006  0.3726 -1.7224  2.2421
 7291SOL     OW33331   1.667   3.493   4.574 -0.5957  0.5207  0.3505
 7291SOL    HW133332   1.672   3.520   4.483  3.6321  0.0226  0.4395
 7291SOL    HW233333   1.572   3.490   4.586 -0.4400 -1.2045  1.1455
 7292SOL     OW33334   3.554   0.333   6.416 -0.3772  0.1893  0.2362
 7292SOL    HW133335   3.536   0.240   6.404  0.7062  0.0773 -0.5034
 7292SOL    HW233336   3.639   0.336   6.460 -1.0731 -1.0905  1.6631
 7293SOL     OW33337   2.969   3.109   5.392 -0.1444  0.7696 -0.0325
 7293SOL    HW133338   3.030   3.043   5.359  0.1190  0.5125  0.9869
 7293SOL    HW233339   3.011   3.154   5.465 -1.3264 -2.6176  2.7256
 7294SOL     OW33340   3.341   0.390   9.071  0.4706 -0.0308 -0.0915
 7294SOL    HW133341   3.279   0.458   9.043  0.7780 -0.0553 -0.8305
 7294SOL    HW233342   3.281   0.320   9.096 -0.8884  1.1263 -0.1430
 7295SOL     OW33343   2.391   2.518   1.462 -0.2408 -0.3926 -0.7740
 7295SOL    HW133344   2.400   2.481   1.550  0.8386 -0.5526 -0.9491
 7295SOL    HW233345   2.343   2.598   1.484  1.0082  0.3085 -0.5682
 7296SOL     OW33346   4.650   3.601   9.899  0.1933 -0.1470 -0.5156
 7296SOL    HW133347   4.592   3.608   9.975 -0.7311  0.6930 -1.3028
 7296SOL    HW233348   0.006   3.554   9.927 -0.2884 -0.8074 -0.2606
 7297SOL     OW33349   2.198   4.276   0.732  0.1101 -0.1156  0.0990
 7297SOL    HW133350   2.239   4.212   0.790  3.0788  2.1399  0.4546
 7297SOL    HW233351   2.106   4.281   0.757 -0.2551 -0.6408 -1.1413
 7298SOL     OW33352   3.399   4.177   7.968  0.1060 -0.3857  0.2190
 7298SOL    HW133353   3.389   4.142   8.056  0.5532 -0.4394  0.2502
 7298SOL    HW233354   3.492   4.156   7.956 -0.1216 -0.1802 -1.8437
 7299SOL     OW33355   1.505   2.560   1.203  0.1150  0.3002 -0.0042
 7299SOL    HW133356   1.515   2.637   1.259 -1.8529  0.8765 -0.4394
 7299SOL    HW233357   1.588   2.541   1.159 -0.9049 -0.3790 -1.6573
 7300SOL     OW33358   0.858   0.781  15.154  0.3000  0.6546  0.1706
 7300SOL    HW133359   0.946   0.786  15.117  0.3084 -0.3622  0.0577
 7300SOL    HW233360   0.814   0.823  15.080  0.7846  0.0945 -0.4369
 7301SOL     OW33361   3.667   3.267  17.466 -0.0731  0.1998  0.3716
 7301SOL    HW133362   3.629   3.316  17.539  0.5385 -0.6570  1.2758
 7301SOL    HW233363   3.597   3.275  17.401 -1.1857 -1.8187  1.3159
 7302SOL     OW33364   4.577   4.566   1.410  0.2441  0.5857 -0.1829
 7302SOL    HW133365   4.643   4.542   1.345 -0.9769  0.1031 -1.2499
 7302SOL    HW233366   4.516   4.492   1.413 -2.1407  2.4344 -3.3212
 7303SOL     OW33367   1.891   2.808   6.755  0.0471  0.4227 -0.3524
 7303SOL    HW133368   1.971   2.758   6.742 -0.0513  0.2087 -0.1215
 7303SOL    HW233369   1.918   2.889   6.710  1.0931 -0.9181 -2.1542
 7304SOL     OW33370   3.240   4.499   2.188 -1.0005  0.4622 -0.5256
 7304SOL    HW133371   3.287   4.548   2.255  1.2374 -1.4554 -0.6669
 7304SOL    HW233372   3.249   4.569   2.124  1.6416  0.3201 -0.3322
 7305SOL     OW33373   0.171   0.213   2.426  0.0599 -0.1462  0.3838
 7305SOL    HW133374   0.265   0.217   2.408  0.2655 -2.5556  1.0513
 7305SOL    HW233375   0.148   0.304   2.449 -0.3341 -0.1979  0.1994
 7306SOL     OW33376   4.022   3.391  11.089  0.1544 -0.3166  0.1555
 7306SOL    HW133377   4.029   3.425  11.000  0.3811 -1.2517 -0.1903
 7306SOL    HW233378   4.056   3.307  11.059  0.5134 -1.0160  2.5104
 7307SOL     OW33379   4.272   0.476   2.350 -0.0801  0.0175  0.0907
 7307SOL    HW133380   4.234   0.559   2.323 -1.0666 -0.6559 -0.5727
 7307SOL    HW233381   4.218   0.458   2.427  1.7268  0.2040  1.4240
 7308SOL     OW33382   1.852   0.956   2.452 -0.7139 -0.8881  0.1520
 7308SOL    HW133383   1.822   1.046   2.439  0.6336 -0.2446  1.5082
 7308SOL    HW233384   1.886   0.935   2.365  1.6427 -0.8529  1.0512
 7309SOL     OW33385   1.969   3.308   5.955  0.5085  0.0935  0.3701
 7309SOL    HW133386   1.946   3.400   5.964  0.7116  0.1154  0.6843
 7309SOL    HW233387   1.926   3.277   6.035 -0.2411 -1.1539 -0.5170
 7310SOL     OW33388   2.334   4.368  10.624 -0.1601  0.1334  0.1668
 7310SOL    HW133389   2.371   4.280  10.626 -1.7705 -0.5050  1.7002
 7310SOL    HW233390   2.397   4.413  10.567  0.8802  0.1869  1.3585
 7311SOL     OW33391   0.129   0.898   6.430 -0.3448  0.7928  0.1802
 7311SOL    HW133392   0.113   0.813   6.387 -1.5043 -0.2790  2.7497
 7311SOL    HW233393   0.057   0.953   6.400 -0.4053  0.0184 -1.1502
 7312SOL     OW33394   3.187   3.968   6.238  0.5220  0.4655 -0.2679
 7312SOL    HW133395   3.111   3.924   6.200 -1.0064  0.7465  2.4157
 7312SOL    HW233396   3.191   4.045   6.182 -0.8291  0.7041 -0.0283
 7313SOL     OW33397   1.114   3.802   2.394  0.4454  0.3477  0.1292
 7313SOL    HW133398   1.106   3.712   2.365  0.1794  0.7050 -0.9070
 7313SOL    HW233399   1.208   3.815   2.379  0.3295 -1.1540 -1.7564
 7314SOL     OW33400   1.819   1.963   8.445 -0.6536  0.4291  0.2680
 7314SOL    HW133401   1.808   1.869   8.458  1.2367  0.3783  1.4124
 7314SOL    HW233402   1.743   1.985   8.391 -2.0797 -2.2370  1.1516
 7315SOL     OW33403   2.321   1.428   9.015 -0.5086  0.3123  0.1577
 7315SOL    HW133404   2.328   1.490   8.942  0.9386  0.4501  0.4067
 7315SOL    HW233405   2.352   1.484   9.085  3.3352 -3.8729  1.8326
 7316SOL     OW33406   0.611   2.752   1.605  0.3202  0.0061  0.5464
 7316SOL    HW133407   0.598   2.720   1.515  4.3479  1.8618 -0.7198
 7316SOL    HW233408   0.520   2.775   1.622  0.0803 -0.8048  0.3942
 7317SOL     OW33409   4.122   0.628   4.040 -0.1844 -0.2196 -0.0923
 7317SOL    HW133410   4.043   0.674   4.011  0.3510 -0.1789 -1.4936
 7317SOL    HW233411   4.103   0.622   4.134 -1.9840  0.9900 -0.3947
 7318SOL     OW33412   3.255   3.911   6.668 -0.3456 -0.1613  0.5309
 7318SOL    HW133413   3.230   3.825   6.703 -0.8330 -1.1435 -2.2089
 7318SOL    HW233414   3.347   3.895   6.648 -0.6339  0.0637 -0.9437
 7319SOL     OW33415   4.066   1.017   6.007 -0.0426  0.0603 -0.0712
 7319SOL    HW133416   4.051   0.923   5.996  0.0358  0.1597 -0.9816
 7319SOL    HW233417   4.048   1.042   5.916  0.4535  1.7272  0.2862
 7320SOL     OW33418   3.833   0.479   7.088  0.1933  0.6968  0.3634
 7320SOL    HW133419   3.809   0.501   6.998  2.3843  1.7349  0.0236
 7320SOL    HW233420   3.778   0.543   7.133 -0.3619  0.3818  0.1360
 7321SOL     OW33421   3.433   4.225   3.314  0.1428  0.1834  0.3860
 7321SOL    HW133422   3.419   4.244   3.222  2.1934  3.3750  0.7530
 7321SOL    HW233423   3.495   4.154   3.302  0.8270  0.8073  0.2826
 7322SOL     OW33424   3.871   3.919  11.163  0.2869 -0.2784  0.3023
 7322SOL    HW133425   3.864   3.832  11.202  0.5971 -0.1787  0.5771
 7322SOL    HW233426   3.923   3.962  11.231  2.3697 -0.9705 -0.8425
 7323SOL     OW33427   4.140   3.781   8.657 -0.0165  0.3964  0.0605
 7323SOL    HW133428   4.047   3.783   8.635 -0.1269  0.4346  0.5371
 7323SOL    HW233429   4.160   3.702   8.608 -0.4693  0.2323  0.1378
 7324SOL     OW33430   0.144   0.842   1.109  0.0962  0.0438  0.2538
 7324SOL    HW133431   0.077   0.871   1.170 -0.5605  1.6712 -1.2479
 7324SOL    HW233432   0.180   0.774   1.167  1.9449  2.5577  2.0169
 7325SOL     OW33433   1.160   0.206   3.659  0.3926  0.6839  0.0724
 7325SOL    HW133434   1.101   0.190   3.733 -1.6332  1.4562 -1.3562
 7325SOL    HW233435   1.178   0.114   3.642 -1.5050  0.5269 -1.0745
 7326SOL     OW33436   1.189   2.124   2.714  0.0530  0.6018  0.1980
 7326SOL    HW133437   1.105   2.094   2.681  0.4574  0.8960 -1.0937
 7326SOL    HW233438   1.243   2.159   2.643 -0.6708 -1.2966 -1.2952
 7327SOL     OW33439   3.048   3.294   6.866  0.1775 -0.3155 -0.1510
 7327SOL    HW133440   3.106   3.271   6.939  0.1657  1.9063  0.5730
 7327SOL    HW233441   2.960   3.263   6.883 -0.0587 -0.0592 -0.8862
 7328SOL     OW33442   2.814   3.855   3.176 -0.0384 -0.3017  0.2525
 7328SOL    HW133443   2.859   3.882   3.255 -1.3646 -0.3378  1.0297
 7328SOL    HW233444   2.726   3.873   3.210 -0.6564  1.4982 -2.3029
 7329SOL     OW33445   4.631   2.834   8.887  0.1241 -0.1572  0.8327
 7329SOL    HW133446   4.575   2.801   8.958  1.1678  1.3466  2.3539
 7329SOL    HW233447   4.608   2.927   8.880  1.5496 -0.0126 -1.7425
 7330SOL     OW33448   0.669   0.317   6.118  0.1211 -0.1147 -0.4389
 7330SOL    HW133449   0.596   0.360   6.073  1.3842  1.3705 -1.0648
 7330SOL    HW233450   0.738   0.310   6.052 -0.4156 -1.3051 -0.8903
 7331SOL     OW33451   2.732   0.140   6.299 -0.2673 -0.0743 -0.0508
 7331SOL    HW133452   2.640   0.162   6.285 -0.1600  0.4497  0.0303
 7331SOL    HW233453   2.748   0.068   6.239  1.1007 -1.2810  1.7634
 7332SOL     OW33454   3.318   2.137   0.849 -0.0902  0.4368  0.4755
 7332SOL    HW133455   3.369   2.216   0.866 -0.1680  0.0265  2.5306
 7332SOL    HW233456   3.308   2.137   0.753 -1.7307 -0.0410  0.6425
 7333SOL     OW33457   2.421   2.943   3.365 -0.8305 -0.0827  0.4483
 7333SOL    HW133458   2.486   2.905   3.308 -2.3731 -0.9736 -0.7071
 7333SOL    HW233459   2.363   2.869   3.385  0.8394 -1.4404  0.1851
 7334SOL     OW33460   4.106   0.829   9.070 -0.0287 -0.2928 -0.1643
 7334SOL    HW133461   4.059   0.901   9.110 -0.2207 -0.1193 -0.7013
 7334SOL    HW233462   4.184   0.833   9.125 -0.0945  1.0063 -0.1742
 7335SOL     OW33463   4.462   1.001   8.248 -0.3673  0.2276  0.6376
 7335SOL    HW133464   4.496   1.069   8.307  0.5007 -0.8322  1.3451
 7335SOL    HW233465   4.450   0.925   8.304 -1.5550 -0.3769 -0.4181
 7336SOL     OW33466   0.201   4.248   0.913 -0.2018  0.2113  0.0284
 7336SOL    HW133467   0.114   4.213   0.934 -0.0316  1.1534  2.3180
 7336SOL    HW233468   0.174   4.298   0.836 -0.8774 -1.7233 -1.0136
 7337SOL     OW33469   2.785   1.078  10.718  0.8343  0.0889  0.1961
 7337SOL    HW133470   2.791   0.982  10.718  0.5463  0.0743  0.5389
 7337SOL    HW233471   2.793   1.090  10.623 -3.7191  1.3323 -0.0457
 7338SOL     OW33472   4.251   4.337   5.409 -0.1247 -0.1616 -0.1132
 7338SOL    HW133473   4.261   4.432   5.411 -0.7705 -0.1021  0.0541
 7338SOL    HW233474   4.156   4.338   5.418 -0.1620  0.1898 -0.5962
 7339SOL     OW33475   1.909   0.556   2.760 -0.1767 -0.3708  0.1127
 7339SOL    HW133476   1.977   0.623   2.744  1.0543 -1.7834 -0.5755
 7339SOL    HW233477   1.888   0.576   2.851 -1.1172 -0.4452 -0.0874
 7340SOL     OW33478   4.285   4.082   0.250 -0.0443 -0.1353 -0.0158
 7340SOL    HW133479   4.210   4.086   0.190 -1.9545 -1.6134  2.2997
 7340SOL    HW233480   4.284   4.173   0.280 -0.3585 -0.8805  2.2202
 7341SOL     OW33481   0.468   3.728  16.349 -0.3001 -0.3408 -0.0843
 7341SOL    HW133482   0.395   3.783  16.379 -0.1336  0.0474 -0.3825
 7341SOL    HW233483   0.521   3.782  16.290 -2.0199  1.2285 -0.1926
 7342SOL     OW33484   2.901   1.752   3.490  0.0492  0.1702  0.0701
 7342SOL    HW133485   2.923   1.671   3.535  1.4961 -0.4814 -1.7776
 7342SOL    HW233486   2.936   1.820   3.548 -1.5144  0.4348  0.6751
 7343SOL     OW33487   4.666   3.104   8.189 -0.1072 -0.5956  0.7009
 7343SOL    HW133488   4.577   3.134   8.175 -0.2747 -0.9737  0.9597
 7343SOL    HW233489   4.686   3.157   8.266 -1.4258  1.1336 -0.1654
 7344SOL     OW33490   0.836   0.106  15.311  0.0544 -0.8659  0.0912
 7344SOL    HW133491   0.839   0.011  15.299 -1.4714 -0.8286 -0.6126
 7344SOL    HW233492   0.920   0.121  15.266 -0.6345 -0.4538 -1.0547
 7345SOL     OW33493   2.858   1.525   3.644 -0.3922 -0.4468  0.2744
 7345SOL    HW133494   2.771   1.530   3.604 -0.6299 -0.9618  0.7265
 7345SOL    HW233495   2.847   1.590   3.712 -0.6674 -1.6253  1.3538
 7346SOL     OW33496   0.941   3.101  16.820 -0.2842  0.4611  0.4786
 7346SOL    HW133497   0.921   3.194  16.808 -0.8817  0.0698 -1.5749
 7346SOL    HW233498   0.971   3.097  16.911  1.0197 -0.6849 -0.0107
 7347SOL     OW33499   4.522   4.120   7.294  0.4206  0.3220 -0.4046
 7347SOL    HW133500   4.572   4.188   7.339  0.9748  0.8854 -1.9083
 7347SOL    HW233501   4.500   4.160   7.210 -0.4090 -0.4373 -0.5529
 7348SOL     OW33502   0.203   2.146  13.711 -0.1444 -0.4225 -0.6056
 7348SOL    HW133503   0.173   2.237  13.719  0.4704 -0.5494  3.3802
 7348SOL    HW233504   0.203   2.147  13.615 -0.6570  2.2300 -0.5821
 7349SOL     OW33505   0.417   1.733   4.566 -0.5983 -0.1573 -0.0480
 7349SOL    HW133506   0.358   1.756   4.495  1.8671  1.0713 -1.7112
 7349SOL    HW233507   0.346   1.726   4.629  0.6477 -0.5617  1.3210
 7350SOL     OW33508   4.089   3.320   9.570  0.2338  0.4140  0.2480
 7350SOL    HW133509   3.999   3.306   9.543 -0.9333  2.6001  3.0874
 7350SOL    HW233510   4.074   3.371   9.649  1.9205 -1.2416  1.6429
 7351SOL     OW33511   3.104   2.301   5.401  0.1016  0.5563 -0.3052
 7351SOL    HW133512   3.013   2.317   5.427  0.7719  1.0497  1.7377
 7351SOL    HW233513   3.143   2.296   5.488  1.1837 -0.7564 -0.8719
 7352SOL     OW33514   3.257   2.604   4.038 -0.5039 -0.2098  0.3646
 7352SOL    HW133515   3.187   2.610   4.103 -1.8519 -1.5578 -0.9858
 7352SOL    HW233516   3.334   2.621   4.093 -0.4996  0.3933  0.1744
 7353SOL     OW33517   0.929   1.777   5.849 -1.0143  0.0690 -0.5387
 7353SOL    HW133518   0.908   1.686   5.870 -0.1277  0.3237  1.3830
 7353SOL    HW233519   0.915   1.782   5.754 -4.2752  1.7890  0.0140
 7354SOL     OW33520   3.705   0.041   8.807  0.2896  0.5646  0.2072
 7354SOL    HW133521   3.712   0.056   8.901 -1.0771  2.4267  0.0116
 7354SOL    HW233522   3.633   0.103   8.794 -0.8573 -0.8017  0.0086
 7355SOL     OW33523   4.460   1.862   9.702 -0.3014  0.0259 -0.6732
 7355SOL    HW133524   4.507   1.780   9.717  2.0505  1.6397  0.8093
 7355SOL    HW233525   4.519   1.918   9.754 -2.2074 -0.8029  2.3857
 7356SOL     OW33526   3.748   4.177   4.459 -0.2036  0.5269 -0.1775
 7356SOL    HW133527   3.676   4.236   4.435 -0.2451  0.7500  0.4921
 7356SOL    HW233528   3.698   4.156   4.539 -0.1851  1.9095  0.1944
 7357SOL     OW33529   4.526   3.221   6.333 -0.2878  0.5657  0.3447
 7357SOL    HW133530   4.465   3.234   6.261 -0.4721 -2.0418  0.0221
 7357SOL    HW233531   4.482   3.162   6.395  0.7146 -0.3098  0.2411
 7358SOL     OW33532   2.491   0.281   3.931  0.1420 -0.4900 -0.3476
 7358SOL    HW133533   2.568   0.298   3.876  0.9691 -1.3199  0.5635
 7358SOL    HW233534   2.455   0.370   3.927  1.5535  0.1477  1.2705
 7359SOL     OW33535   2.369   2.620   8.361  0.1944 -0.4124 -0.3307
 7359SOL    HW133536   2.404   2.666   8.438 -0.0430  0.9184 -1.0152
 7359SOL    HW233537   2.426   2.544   8.360  0.0917 -0.5127  0.8873
 7360SOL     OW33538   0.359   0.941   0.740  0.5592 -0.0457 -0.4768
 7360SOL    HW133539   0.430   0.976   0.685  0.6440  2.2524  1.1031
 7360SOL    HW233540   0.398   0.888   0.810  1.7785  1.9317  0.3460
 7361SOL     OW33541   1.635   1.504  14.755  0.1874 -0.0291 -0.0256
 7361SOL    HW133542   1.719   1.531  14.718  1.2502 -0.0359  2.4152
 7361SOL    HW233543   1.579   1.537  14.684  1.9979  0.1209 -1.3730
 7362SOL     OW33544   2.044   1.996   8.601  0.6097 -0.7384  0.0793
 7362SOL    HW133545   1.960   1.988   8.556 -0.4720  0.0977  1.9922
 7362SOL    HW233546   2.078   1.907   8.601  1.5828 -0.3723 -1.4139
 7363SOL     OW33547   0.972   1.611   3.014  0.1674  0.6020 -0.5150
 7363SOL    HW133548   0.995   1.519   3.024 -0.7762  0.2745 -1.2789
 7363SOL    HW233549   1.058   1.647   2.996 -0.3433  1.2096 -1.7434
 7364SOL     OW33550   2.807   4.031  16.314 -0.6111 -0.2982  0.4294
 7364SOL    HW133551   2.806   4.018  16.409 -2.2693 -2.3812  0.1082
 7364SOL    HW233552   2.855   4.114  16.318 -1.5726  0.1543  2.6801
 7365SOL     OW33553   4.379   2.308   5.555  0.1658  0.6306  0.4003
 7365SOL    HW133554   4.424   2.313   5.471  0.7810  1.0213  0.7525
 7365SOL    HW233555   4.420   2.376   5.609  0.2195  1.4917 -0.7243
 7366SOL     OW33556   0.528   1.791   6.587  0.0710 -0.3495 -0.0287
 7366SOL    HW133557   0.485   1.837   6.515  0.3651 -1.0720 -0.6626
 7366SOL    HW233558   0.560   1.713   6.542  1.3726 -0.4297  1.0232
 7367SOL     OW33559   1.810   4.551   5.892  0.0138 -0.2972  0.1063
 7367SOL    HW133560   1.805   4.459   5.866  0.1538 -0.5951  1.1262
 7367SOL    HW233561   1.898   4.556   5.930  0.5623  0.8954 -1.3734
 7368SOL     OW33562   3.170   3.254   8.608  0.7696 -0.3742 -0.4050
 7368SOL    HW133563   3.104   3.285   8.546  1.1055  0.9414 -0.1142
 7368SOL    HW233564   3.200   3.334   8.652 -0.1977 -0.0503 -0.3464
 7369SOL     OW33565   4.432   3.216   6.080 -0.0134 -0.2108 -0.0911
 7369SOL    HW133566   4.343   3.194   6.052  1.0504  0.0546 -3.7261
 7369SOL    HW233567   4.476   3.136   6.051 -1.5307 -1.0130 -0.1771
 7370SOL     OW33568   3.182   2.179  17.136  0.2675 -0.7409 -0.7555
 7370SOL    HW133569   3.276   2.190  17.126  0.4572 -1.4437  0.3266
 7370SOL    HW233570   3.167   2.218  17.222  1.7036  0.1325 -0.9144
 7371SOL     OW33571   3.743   4.284   1.746  0.2884 -0.1320 -0.2431
 7371SOL    HW133572   3.709   4.197   1.769 -1.5415  0.1450 -1.9160
 7371SOL    HW233573   3.836   4.275   1.767  0.5882 -0.1347 -1.5861
 7372SOL     OW33574   0.343   0.088   1.920 -0.1901 -0.2710  0.1967
 7372SOL    HW133575   0.346   0.144   1.842 -2.8382  0.8374  0.8957
 7372SOL    HW233576   0.426   0.041   1.915  0.1086  0.3103 -0.3114
 7373SOL     OW33577   1.561   4.102   7.084  0.1427  0.9400  0.4854
 7373SOL    HW133578   1.501   4.176   7.097 -0.6377  0.2014  1.1268
 7373SOL    HW233579   1.497   4.031   7.088  0.6828  0.3879 -0.7480
 7374SOL     OW33580   1.580   3.519  15.190 -0.3105  0.4128  0.1978
 7374SOL    HW133581   1.546   3.481  15.108 -1.7936  0.5235  0.7700
 7374SOL    HW233582   1.662   3.471  15.196  0.1994  1.1043 -1.3319
 7375SOL     OW33583   3.567   0.307  10.864  0.8248 -0.0668  0.2406
 7375SOL    HW133584   3.570   0.261  10.780  0.8247 -1.8642  1.2275
 7375SOL    HW233585   3.472   0.318  10.870  0.8492  0.3956 -0.2686
 7376SOL     OW33586   1.172   1.527  16.052 -0.1112 -0.4831 -0.0245
 7376SOL    HW133587   1.129   1.587  16.114  0.4418  0.1333 -0.2399
 7376SOL    HW233588   1.208   1.587  15.987 -0.8137  0.0528  0.0853
 7377SOL     OW33589   3.647   3.426  13.872 -1.4376  0.1284  0.3115
 7377SOL    HW133590   3.614   3.514  13.851 -1.0396  0.9545  3.1228
 7377SOL    HW233591   3.720   3.411  13.812 -1.8658 -1.0095  0.0794
 7378SOL     OW33592   1.780   3.141  15.331 -0.0608 -0.6809 -0.1208
 7378SOL    HW133593   1.805   3.143  15.424  1.4598 -0.1935 -0.5476
 7378SOL    HW233594   1.708   3.079  15.319  0.5435 -1.4178  0.0713
 7379SOL     OW33595   4.539   1.656   7.531 -0.1601 -0.1539 -0.2587
 7379SOL    HW133596   4.563   1.648   7.439  1.2445  1.1220  0.0005
 7379SOL    HW233597   4.487   1.578   7.550 -0.9686  0.3225 -0.4951
 7380SOL     OW33598   0.173   2.238  10.549 -0.1631  0.0422 -0.8291
 7380SOL    HW133599   0.177   2.323  10.505  1.1720  2.3403  3.7105
 7380SOL    HW233600   0.091   2.241  10.598  0.1469  0.8428 -0.3632
 7381SOL     OW33601   0.327   1.672  17.674 -0.3917 -0.5061  0.2319
 7381SOL    HW133602   0.259   1.735  17.649 -1.9812 -1.5494  1.8620
 7381SOL    HW233603   0.298   1.649   0.069 -0.9900 -2.0061 -0.3410
 7382SOL     OW33604   0.528   0.546   4.060 -0.0943  0.5942  0.1209
 7382SOL    HW133605   0.475   0.572   4.135  0.4180 -4.0119  2.0813
 7382SOL    HW233606   0.591   0.485   4.097 -3.4217 -2.5081  0.7568
 7383SOL     OW33607   2.481   3.696  14.572 -0.1980  0.5081  0.3559
 7383SOL    HW133608   2.572   3.699  14.600  0.4231  1.7895 -1.8128
 7383SOL    HW233609   2.497   3.680  14.479 -1.6822  0.4459  0.0997
 7384SOL     OW33610   0.394   2.787   0.486 -0.8264  0.1438  0.5225
 7384SOL    HW133611   0.477   2.746   0.508  0.3732  1.7569 -1.0219
 7384SOL    HW233612   0.378   2.780   0.392 -0.2836 -2.2093  0.6069
 7385SOL     OW33613   2.247   3.969   8.926 -0.5813 -0.3345  0.1122
 7385SOL    HW133614   2.217   3.878   8.918 -0.0699 -0.2254 -2.9279
 7385SOL    HW233615   2.300   3.982   8.848 -0.1557 -2.2737  0.0723
 7386SOL     OW33616   1.293   3.734   0.684 -0.0470 -0.0006  0.0132
 7386SOL    HW133617   1.331   3.788   0.754  1.1679 -2.1638  0.9996
 7386SOL    HW233618   1.369   3.731   0.625 -0.6060 -0.3073 -0.6982
 7387SOL     OW33619   3.250   1.622   8.976 -0.1788 -0.3015  0.4215
 7387SOL    HW133620   3.208   1.661   8.899 -0.8006 -1.0056  0.4074
 7387SOL    HW233621   3.318   1.689   8.989 -1.1829  1.0371 -1.2692
 7388SOL     OW33622   0.923   4.272  15.390 -0.0912 -0.0291  0.2836
 7388SOL    HW133623   0.998   4.234  15.343  0.6083  1.8516 -0.1198
 7388SOL    HW233624   0.854   4.255  15.325  0.2259 -2.0064  0.4404
 7389SOL     OW33625   1.048   4.678   5.820 -0.3418 -0.3064 -0.1065
 7389SOL    HW133626   1.041   4.696   5.726  0.1616  0.1346 -0.0566
 7389SOL    HW233627   0.975   4.616   5.825 -0.5992  0.0994  1.0747
 7390SOL     OW33628   0.344   4.284   2.166 -0.4931  0.3730  0.4050
 7390SOL    HW133629   0.350   4.233   2.086 -2.4786  0.9136 -0.0883
 7390SOL    HW233630   0.371   4.221   2.233 -2.5230  0.3369  1.2024
 7391SOL     OW33631   3.293   0.620   7.298  0.3644 -0.9320 -0.4486
 7391SOL    HW133632   3.291   0.525   7.309 -0.9563 -0.1926  5.4655
 7391SOL    HW233633   3.334   0.627   7.212  0.6254 -1.4763 -0.3701
 7392SOL     OW33634   0.219   1.439   5.312  0.4507 -0.5492  0.3890
 7392SOL    HW133635   0.236   1.495   5.236 -4.1171 -1.5120 -1.3473
 7392SOL    HW233636   0.302   1.433   5.359  1.2048  1.3750 -0.7005
 7393SOL     OW33637   3.945   3.130   3.238  0.1423  0.0261  0.4926
 7393SOL    HW133638   3.855   3.118   3.270  1.2347 -0.3942  3.3951
 7393SOL    HW233639   3.958   3.062   3.171 -1.4430  0.5503 -0.3480
 7394SOL     OW33640   2.998   4.643   4.467  0.2916 -0.1441  0.2702
 7394SOL    HW133641   2.903   4.647   4.483 -0.0206  1.9419 -2.2473
 7394SOL    HW233642   3.026   4.552   4.473  0.8501  0.0318  0.3340
 7395SOL     OW33643   2.351   4.138   2.943  0.2267 -0.2593  0.0549
 7395SOL    HW133644   2.332   4.072   2.876 -0.9487 -0.9234  1.0359
 7395SOL    HW233645   2.264   4.178   2.941  0.0198 -0.6364  1.6061
 7396SOL     OW33646   2.126   3.204  14.449 -1.0052 -0.3920 -0.2027
 7396SOL    HW133647   2.171   3.120  14.442  0.3949  0.4341 -0.9010
 7396SOL    HW233648   2.085   3.185  14.534  0.4780 -2.3449  0.0807
 7397SOL     OW33649   1.258   3.594   8.693  0.1873 -0.1978 -0.5795
 7397SOL    HW133650   1.284   3.625   8.607  2.1159 -0.9473 -0.2715
 7397SOL    HW233651   1.332   3.534   8.704  0.7808  0.7117  0.4377
 7398SOL     OW33652   4.236   1.945   9.580  0.0788  0.0587 -0.2663
 7398SOL    HW133653   4.315   1.914   9.626 -1.0998 -0.7830  1.2076
 7398SOL    HW233654   4.258   1.912   9.493  1.5703 -0.5726  0.3355
 7399SOL     OW33655   3.197   2.986   2.706  0.4780 -0.3572 -0.2851
 7399SOL    HW133656   3.203   2.929   2.630 -0.9417 -1.2442  0.2622
 7399SOL    HW233657   3.279   2.966   2.750  0.8817 -0.2686 -1.0041
 7400SOL     OW33658   1.438   2.213   4.858  0.2837 -0.3969  0.8681
 7400SOL    HW133659   1.366   2.159   4.824 -0.5535  0.6620  0.9659
 7400SOL    HW233660   1.506   2.184   4.798 -0.4049 -0.9108  0.3330
 7401SOL     OW33661   3.823   0.042   2.778 -0.9400  0.1480 -0.2484
 7401SOL    HW133662   3.851   0.107   2.714  1.3359  1.1959  1.7969
 7401SOL    HW233663   3.901   0.043   2.833 -1.3527  2.0567  0.3244
 7402SOL     OW33664   4.363   3.519   2.742 -0.1099  0.0693  0.1181
 7402SOL    HW133665   4.320   3.548   2.662  0.8843  1.7437  0.1806
 7402SOL    HW233666   4.359   3.599   2.793  1.6079 -0.4359  1.0789
 7403SOL     OW33667   4.684   0.536   7.322 -0.5034 -0.2942 -0.6336
 7403SOL    HW133668   4.623   0.567   7.389 -0.7425 -0.9915 -0.5291
 7403SOL    HW233669   0.033   0.599   7.324  1.3247 -2.4709  1.1544
 7404SOL     OW33670   3.964   1.189   6.199 -0.6082 -0.1788 -0.3145
 7404SOL    HW133671   4.004   1.115   6.154 -3.8389 -1.6980 -0.6742
 7404SOL    HW233672   3.977   1.255   6.131  2.7547 -0.7915 -0.3080
 7405SOL     OW33673   4.006   1.996   9.058  0.0061  0.3549  0.3165
 7405SOL    HW133674   3.911   2.006   9.047  0.1301  2.8050  1.4409
 7405SOL    HW233675   4.025   2.058   9.128 -0.4410  1.0915 -0.2159
 7406SOL     OW33676   3.670   3.544   6.839  0.4462 -0.3836  0.2854
 7406SOL    HW133677   3.723   3.611   6.881  1.4785 -1.3702  0.5514
 7406SOL    HW233678   3.689   3.468   6.894  0.4859 -0.9093 -0.4478
 7407SOL     OW33679   4.098   1.815   3.716  0.2770 -0.0067 -0.2249
 7407SOL    HW133680   4.173   1.847   3.666 -1.7992  0.7742 -2.8332
 7407SOL    HW233681   4.088   1.728   3.677  0.0990  0.3073 -0.8700
 7408SOL     OW33682   0.642   0.755  11.216 -0.2093  0.7127  0.8270
 7408SOL    HW133683   0.659   0.660  11.215 -1.9929  0.4335 -1.5229
 7408SOL    HW233684   0.732   0.779  11.197  0.0082  0.7485  1.8712
 7409SOL     OW33685   2.539   4.706   7.612 -0.0312 -0.9715  0.2709
 7409SOL    HW133686   2.555   4.691   7.705 -1.6716 -0.7993  0.5870
 7409SOL    HW233687   2.448   4.680   7.596 -0.5250  1.4053 -0.8232
 7410SOL     OW33688   2.927   2.497  11.110  0.2784  0.4445  0.1626
 7410SOL    HW133689   2.840   2.458  11.110  1.0694 -1.2895  0.2765
 7410SOL    HW233690   2.904   2.585  11.080  0.3539  0.1664 -0.7025
 7411SOL     OW33691   1.533   1.397   0.264 -0.0166 -0.1332 -0.6226
 7411SOL    HW133692   1.619   1.440   0.257 -0.3018  0.3302 -1.2229
 7411SOL    HW233693   1.556   1.314   0.223 -0.7350  0.0135 -1.3057
 7412SOL     OW33694   1.516   2.819   3.605 -0.2051  0.1638  0.2380
 7412SOL    HW133695   1.429   2.780   3.606  0.3294 -0.9907  1.1146
 7412SOL    HW233696   1.522   2.896   3.547 -0.8831 -0.1770 -0.2886
 7413SOL     OW33697   3.445   1.354  11.722 -0.2931 -0.4271  0.1670
 7413SOL    HW133698   3.444   1.440  11.682 -1.6409  0.0273  1.1760
 7413SOL    HW233699   3.354   1.338  11.745  0.4813  0.1130  3.6993
 7414SOL     OW33700   0.532   0.089  17.134  0.2786  0.3150 -0.1841
 7414SOL    HW133701   0.454   0.123  17.179  0.3608 -0.2327  0.3811
 7414SOL    HW233702   0.497   0.000  17.127  1.7143 -0.2664  0.0440
 7415SOL     OW33703   2.982   1.750  11.568  0.1530  0.3591 -0.2040
 7415SOL    HW133704   2.953   1.724  11.480 -0.9709 -0.9386  0.5477
 7415SOL    HW233705   3.078   1.755  11.561  0.0250 -0.5073 -2.6274
 7416SOL     OW33706   3.625   2.679   3.954  1.2030  0.5444 -0.1966
 7416SOL    HW133707   3.718   2.656   3.954  1.7517  2.7651  2.0885
 7416SOL    HW233708   3.617   2.718   3.867  0.9029  0.7330 -0.0865
 7417SOL     OW33709   1.550   2.457  14.582 -0.4742  0.1020 -0.5822
 7417SOL    HW133710   1.604   2.472  14.504  0.3566 -0.0008 -0.0295
 7417SOL    HW233711   1.499   2.538  14.579  0.8293  1.0003  1.1282
 7418SOL     OW33712   3.530   3.844   1.245 -0.3935  0.0046 -0.1480
 7418SOL    HW133713   3.615   3.806   1.225 -0.2914 -0.7475  1.7121
 7418SOL    HW233714   3.475   3.775   1.283  0.1445 -1.0898 -1.3557
 7419SOL     OW33715   0.322   1.299  15.708  0.2963  0.1845 -0.0832
 7419SOL    HW133716   0.233   1.262  15.711  1.1138 -1.8574 -0.9107
 7419SOL    HW233717   0.331   1.334  15.619 -0.2997 -1.3274 -0.7413
 7420SOL     OW33718   3.962   1.995  15.160  0.1712 -0.8156 -0.2323
 7420SOL    HW133719   3.910   2.031  15.232 -0.7658  1.9496 -2.2741
 7420SOL    HW233720   3.969   2.083  15.122 -1.4299  0.2447  1.8877
 7421SOL     OW33721   3.066   0.702  11.334  0.3646  0.1844 -0.0931
 7421SOL    HW133722   3.097   0.647  11.406 -2.0576 -1.1633 -0.0689
 7421SOL    HW233723   3.001   0.763  11.369  0.0093  0.3594 -1.0708
 7422SOL     OW33724   2.763   1.692   2.256  0.0883  0.6562 -0.0174
 7422SOL    HW133725   2.840   1.729   2.299 -0.3021 -1.0868  2.1945
 7422SOL    HW233726   2.709   1.770   2.248 -0.6553  0.1566  0.1012
 7423SOL     OW33727   0.552   2.054  14.520 -0.2467  0.0627  0.0050
 7423SOL    HW133728   0.534   1.992  14.449 -0.1765 -0.0021  0.0433
 7423SOL    HW233729   0.507   2.131  14.487 -1.2883 -1.4209 -2.0632
 7424SOL     OW33730   1.410   4.620  11.005 -0.4283 -0.4317  0.2103
 7424SOL    HW133731   1.417   4.715  11.021 -0.6108 -0.4093  0.1515
 7424SOL    HW233732   1.483   4.611  10.944 -0.8303 -0.0076 -0.3355
 7425SOL     OW33733   0.214   2.755   2.899  0.1409 -0.0838 -0.5813
 7425SOL    HW133734   0.240   2.817   2.831  1.0520 -0.2727 -0.4086
 7425SOL    HW233735   0.286   2.693   2.885 -1.3863 -2.0443  0.2426
 7426SOL     OW33736   2.065   0.640   5.390 -0.2379 -0.2218  0.1644
 7426SOL    HW133737   2.017   0.697   5.330  0.5630  0.4564  0.1669
 7426SOL    HW233738   2.082   0.701   5.461 -1.5963 -0.6290  0.8394
 7427SOL     OW33739   0.144   0.724   4.785  0.0689  1.0004 -0.1516
 7427SOL    HW133740   0.218   0.778   4.814  0.6618  0.3007 -0.3661
 7427SOL    HW233741   0.073   0.781   4.815  0.7391  1.5495  0.3871
 7428SOL     OW33742   1.447   0.033   8.629 -0.0076 -0.1215  0.4411
 7428SOL    HW133743   1.391   4.681   8.615  0.3781  0.1986 -2.9912
 7428SOL    HW233744   1.507   4.719   8.694 -0.2592 -0.8095  0.2731
 7429SOL     OW33745   0.737   0.863   7.364  0.9522  0.0249  0.4444
 7429SOL    HW133746   0.709   0.940   7.315  0.6409  0.1720  0.8530
 7429SOL    HW233747   0.656   0.832   7.403  1.2875  0.2363  1.3083
 7430SOL     OW33748   1.469   4.574   4.606 -0.4949 -0.0541  0.3248
 7430SOL    HW133749   1.523   4.618   4.671 -1.0167 -1.4876  1.7261
 7430SOL    HW233750   1.420   4.650   4.573 -0.5525 -0.6813 -1.0512
 7431SOL     OW33751   3.383   3.570   8.154  0.0243 -0.5867  0.6435
 7431SOL    HW133752   3.388   3.498   8.091 -2.6227 -2.0868  2.1675
 7431SOL    HW233753   3.395   3.519   8.234 -1.5345 -0.8789  0.6938
 7432SOL     OW33754   1.530   1.794   5.120  0.4190 -0.2152 -0.3578
 7432SOL    HW133755   1.585   1.718   5.096 -0.9411 -0.7553 -1.8033
 7432SOL    HW233756   1.481   1.813   5.039  0.6512  1.9631  0.0404
 7433SOL     OW33757   4.709   1.055   4.984 -0.2182  0.2805  0.0495
 7433SOL    HW133758   4.717   1.145   4.952 -2.1486  0.2527 -0.5104
 7433SOL    HW233759   4.614   1.068   4.987 -0.3405 -0.6034 -0.1098
 7434SOL     OW33760   4.471   2.250   2.107  0.2241 -0.4442 -0.2842
 7434SOL    HW133761   4.452   2.339   2.078  1.0744 -0.4980 -0.9695
 7434SOL    HW233762   4.546   2.228   2.053 -2.1448 -0.4411 -3.5734
 7435SOL     OW33763   3.529   4.411   3.493  0.5013 -0.1799 -0.5584
 7435SOL    HW133764   3.470   4.374   3.428  0.9098 -2.5234  0.4145
 7435SOL    HW233765   3.509   4.505   3.492  0.6582 -0.1285  1.0256
 7436SOL     OW33766   2.540   1.880   7.890 -0.1164  0.2254 -0.3852
 7436SOL    HW133767   2.457   1.874   7.842 -0.8609 -2.5421  1.2391
 7436SOL    HW233768   2.520   1.829   7.968 -2.6233  0.6940 -0.7157
 7437SOL     OW33769   2.903   2.110   6.379 -0.1339 -0.1572 -0.5124
 7437SOL    HW133770   2.880   2.022   6.348 -1.1690 -0.3017  0.6660
 7437SOL    HW233771   2.893   2.155   6.295  0.8704 -1.0338 -1.0953
 7438SOL     OW33772   3.604   2.413  14.395  0.0504 -0.3660 -0.3011
 7438SOL    HW133773   3.518   2.373  14.411 -1.5334  2.8199 -0.8528
 7438SOL    HW233774   3.660   2.349  14.440  3.6214  2.7292 -0.3741
 7439SOL     OW33775   4.221   2.092   5.222 -0.3905 -0.5477 -0.7090
 7439SOL    HW133776   4.139   2.059   5.260 -0.0298 -0.8591 -0.2112
 7439SOL    HW233777   4.201   2.126   5.134 -0.4123  1.1322 -0.0496
 7440SOL     OW33778   2.073   2.703   5.603 -0.0279  0.6444 -0.1965
 7440SOL    HW133779   2.161   2.665   5.613  0.3901  1.1510 -1.9364
 7440SOL    HW233780   2.086   2.798   5.613 -0.9761  0.4460  3.0971
 7441SOL     OW33781   0.319   0.103  17.280 -0.0608 -0.2937 -0.5739
 7441SOL    HW133782   0.299   0.194  17.259  2.1858  0.6679  1.4393
 7441SOL    HW233783   0.236   0.080  17.322  0.1517 -1.2920 -0.7066
 7442SOL     OW33784   2.174   2.924   7.278 -0.6046 -0.1655 -0.5183
 7442SOL    HW133785   2.124   2.974   7.213  1.5917  0.9809 -1.3153
 7442SOL    HW233786   2.105   2.919   7.345 -2.0584 -0.1848 -2.0141
 7443SOL     OW33787   1.957   2.038   5.636  0.2812 -0.1555  0.3112
 7443SOL    HW133788   2.003   2.007   5.558 -2.1065 -2.2002 -0.3229
 7443SOL    HW233789   1.884   1.976   5.638 -0.6462  0.8525 -3.2890
 7444SOL     OW33790   4.634   3.100   9.138  0.0423 -0.3898 -0.1971
 7444SOL    HW133791   4.586   3.083   9.219  1.6861  0.7925  1.0341
 7444SOL    HW233792   4.566   3.109   9.072  1.1597  0.4569 -1.2430
 7445SOL     OW33793   1.424   2.321   7.195 -0.7376 -0.1414 -0.2062
 7445SOL    HW133794   1.353   2.349   7.253  1.2523  1.3053  1.5032
 7445SOL    HW233795   1.430   2.228   7.216  0.9098 -0.1472 -0.7404
 7446SOL     OW33796   2.482   3.804   9.037  0.2959 -0.3969  0.5597
 7446SOL    HW133797   2.556   3.861   9.060 -0.4639  0.1768  1.5575
 7446SOL    HW233798   2.405   3.854   9.062 -0.3155 -0.8550 -0.4153
 7447SOL     OW33799   2.461   2.509   3.163 -0.4376  0.0114  0.2305
 7447SOL    HW133800   2.527   2.556   3.215 -1.2706  0.5668  0.7726
 7447SOL    HW233801   2.473   2.546   3.076  1.7548  0.6440  0.7836
 7448SOL     OW33802   3.112   3.116   5.008  0.5532  0.1912 -0.0510
 7448SOL    HW133803   3.059   3.075   5.076 -2.0874  2.8762 -0.5292
 7448SOL    HW233804   3.144   3.179   5.072  0.1697 -1.0540  1.3639
 7449SOL     OW33805   0.897   3.911   6.465  0.0508  0.0422 -0.2697
 7449SOL    HW133806   0.864   3.857   6.536 -1.3115 -0.0296 -0.9780
 7449SOL    HW233807   0.836   3.984   6.458  0.0364  0.1522  1.1139
 7450SOL     OW33808   4.657   3.905   6.004  0.1820 -0.5800  0.0927
 7450SOL    HW133809   4.581   3.861   5.967  0.1058  0.6122 -1.1560
 7450SOL    HW233810   4.722   3.835   6.013  0.0256 -0.4772  2.0060
 7451SOL     OW33811   2.943   0.562   1.272 -0.1246 -0.3061  0.4804
 7451SOL    HW133812   2.944   0.655   1.251  0.4208 -0.3721  0.2227
 7451SOL    HW233813   3.015   0.568   1.335  0.5944  0.6496 -0.4416
 7452SOL     OW33814   1.611   0.901   5.236 -0.1300  0.9723  0.4375
 7452SOL    HW133815   1.608   0.981   5.184 -0.0541  1.3924  1.0766
 7452SOL    HW233816   1.565   0.841   5.177  1.8481  0.8734 -0.9776
 7453SOL     OW33817   2.512   3.367   1.033  0.1832 -0.0114  0.3441
 7453SOL    HW133818   2.545   3.325   0.953 -2.6146  0.2748 -0.9684
 7453SOL    HW233819   2.593   3.377   1.081 -0.8174 -2.9076  2.6258
 7454SOL     OW33820   2.333   1.273   2.763  0.6610  0.0035 -0.1072
 7454SOL    HW133821   2.273   1.305   2.696  2.0168 -1.1076 -1.8788
 7454SOL    HW233822   2.277   1.240   2.833  0.4011 -0.3130 -0.4692
 7455SOL     OW33823   1.915   4.561   3.959  0.2841  0.2552  0.4327
 7455SOL    HW133824   1.859   4.522   3.892 -2.0877  2.0357  1.3888
 7455SOL    HW233825   1.996   4.567   3.909  0.7296 -1.1546  0.9798
 7456SOL     OW33826   4.104   1.736   3.023  0.4030  0.2389  0.1520
 7456SOL    HW133827   4.195   1.766   3.015  0.7207 -0.4980  1.0036
 7456SOL    HW233828   4.120   1.642   3.010  1.2929  0.4091  0.0087
 7457SOL     OW33829   0.462   3.714   5.860 -0.2867 -0.3061  0.1245
 7457SOL    HW133830   0.495   3.724   5.949  0.1210  0.3557 -0.1057
 7457SOL    HW233831   0.417   3.798   5.852 -0.3413 -0.0975  2.6750
 7458SOL     OW33832   2.614   0.871  12.583  0.1472  0.2469 -0.5255
 7458SOL    HW133833   2.674   0.880  12.656 -0.3009  0.4011 -0.1793
 7458SOL    HW233834   2.643   0.785  12.553  0.1163  0.5748 -1.4962
 7459SOL     OW33835   4.182   1.801  15.202 -0.0195  0.2256 -0.1546
 7459SOL    HW133836   4.252   1.816  15.265  2.1078  0.2288 -2.4990
 7459SOL    HW233837   4.139   1.885  15.184 -2.2163 -0.5122  1.6138
 7460SOL     OW33838   0.123   3.543   3.498 -0.0149 -0.6502  0.3968
 7460SOL    HW133839   0.102   3.524   3.407  1.5732 -0.9551  0.0910
 7460SOL    HW233840   0.154   3.462   3.538 -0.6829 -0.6990  0.8110
 7461SOL     OW33841   2.248   0.219  10.416  0.8948  0.1540 -0.1640
 7461SOL    HW133842   2.180   0.223  10.484  2.0269 -0.0007  0.9700
 7461SOL    HW233843   2.283   0.130  10.408 -1.2590 -0.9025  2.1478
 7462SOL     OW33844   4.568   1.400  15.591  0.2239  0.1666 -0.6140
 7462SOL    HW133845   4.543   1.474  15.536 -0.7557  0.3800  0.1344
 7462SOL    HW233846   4.661   1.389  15.571  0.3195 -1.1905  0.6198
 7463SOL     OW33847   0.171   4.103   5.704  0.0694  0.5824  0.4380
 7463SOL    HW133848   0.212   4.161   5.768  0.2412  1.5085 -0.5231
 7463SOL    HW233849   0.104   4.155   5.659  1.3107  1.9958  0.2449
 7464SOL     OW33850   0.820   1.369   3.260 -0.0362 -1.0313  0.1167
 7464SOL    HW133851   0.849   1.304   3.197 -0.0925  0.7192 -1.7138
 7464SOL    HW233852   0.905   1.411   3.271 -0.3813 -0.3942  0.3335
 7465SOL     OW33853   1.021   3.162  15.652  0.2085 -0.0508 -0.2983
 7465SOL    HW133854   1.042   3.069  15.656  0.9312  0.1073 -0.3549
 7465SOL    HW233855   1.083   3.193  15.718 -0.8580  3.8842 -1.1491
 7466SOL     OW33856   2.075   4.089   3.739  0.5843 -0.1346 -0.4898
 7466SOL    HW133857   2.094   4.144   3.663  2.9065 -3.2582 -2.2090
 7466SOL    HW233858   2.070   4.152   3.810 -3.6906 -0.5176 -0.4939
 7467SOL     OW33859   0.407   2.813   7.826 -0.6413  0.3523 -0.0318
 7467SOL    HW133860   0.423   2.723   7.797  0.2021  0.2972  0.5836
 7467SOL    HW233861   0.351   2.794   7.901 -1.1020  2.6197  0.1800
 7468SOL     OW33862   0.817   0.438  13.987  0.2758 -0.0921  0.2269
 7468SOL    HW133863   0.798   0.471  13.899 -0.4627 -0.2580  0.3234
 7468SOL    HW233864   0.873   0.507  14.023 -1.9312  1.3663  0.8502
 7469SOL     OW33865   0.775   2.506   5.750  0.2440 -0.6084  0.5338
 7469SOL    HW133866   0.764   2.600   5.738 -0.6007 -0.8185 -0.3579
 7469SOL    HW233867   0.823   2.486   5.670 -1.2090  1.3329 -0.8137
 7470SOL     OW33868   2.576   2.874   0.455 -0.0921  0.6724 -0.3321
 7470SOL    HW133869   2.561   2.836   0.369  1.9558 -1.9990  0.5046
 7470SOL    HW233870   2.517   2.824   0.511  1.9523 -1.9868 -0.5188
 7471SOL     OW33871   3.177   3.777  17.561 -0.4698 -0.3335 -0.3005
 7471SOL    HW133872   3.111   3.755  17.627  0.6974 -0.4535  0.8232
 7471SOL    HW233873   3.129   3.784  17.478 -3.4273  1.4346  1.5530
 7472SOL     OW33874   0.056   0.545   6.679  0.2725  0.3525 -0.3311
 7472SOL    HW133875   0.028   0.508   6.595 -0.6189  1.2333 -0.4257
 7472SOL    HW233876   0.102   0.621   6.644  0.5999 -1.1785 -3.2478
 7473SOL     OW33877   4.164   2.274   5.007 -0.1574  0.0953  0.4338
 7473SOL    HW133878   4.249   2.285   4.964  1.2235  0.1683  3.1542
 7473SOL    HW233879   4.103   2.304   4.940 -0.0697 -2.5611 -0.8168
 7474SOL     OW33880   4.123   3.087   2.901  0.4309 -0.2775 -0.1997
 7474SOL    HW133881   4.188   3.157   2.888 -1.0611  1.2223  0.3956
 7474SOL    HW233882   4.146   3.043   2.819  1.5804  1.2977 -0.7290
 7475SOL     OW33883   3.662   2.966   3.409 -0.3067  0.1683  0.4722
 7475SOL    HW133884   3.640   3.056   3.383  0.6787  1.1425  2.9697
 7475SOL    HW233885   3.753   2.973   3.438  0.0881  1.2681 -1.0482
 7476SOL     OW33886   2.829   3.085   8.704 -0.2320  0.6356 -0.2932
 7476SOL    HW133887   2.916   3.095   8.741  0.1065 -3.1537 -0.0933
 7476SOL    HW233888   2.814   2.994   8.730  2.7066  0.2878  0.0945
 7477SOL     OW33889   4.148   3.894   1.244  0.4304  0.3487  0.4197
 7477SOL    HW133890   4.205   3.867   1.316  1.1659 -0.2159 -0.3760
 7477SOL    HW233891   4.083   3.941   1.297 -0.3885  0.6282 -0.8451
 7478SOL     OW33892   3.290   3.860  12.827  0.4814  0.1056 -0.1233
 7478SOL    HW133893   3.212   3.897  12.868 -0.0310  0.4920 -1.4624
 7478SOL    HW233894   3.335   3.837  12.908 -2.7940  1.4091  2.0776
 7479SOL     OW33895   3.067   1.322   8.516  0.0199  0.1880 -0.0260
 7479SOL    HW133896   3.108   1.406   8.497  0.1933  0.0213 -0.3859
 7479SOL    HW233897   2.997   1.321   8.450  0.4590 -0.5172 -0.4834
 7480SOL     OW33898   3.300   2.115   3.773 -0.2961  0.4682 -0.1416
 7480SOL    HW133899   3.261   2.181   3.831  2.4480 -0.0930  2.3392
 7480SOL    HW233900   3.252   2.122   3.690  2.4925  0.1985 -1.7959
 7481SOL     OW33901   4.212   3.362   7.987 -0.7423 -0.2142 -0.0836
 7481SOL    HW133902   4.186   3.449   8.016  2.3421  0.0875  1.8142
 7481SOL    HW233903   4.224   3.377   7.893 -0.3216  1.7377  0.2804
 7482SOL     OW33904   1.415   1.332   4.152  0.4915 -0.2556  0.6933
 7482SOL    HW133905   1.476   1.283   4.097  3.5906  1.5814  2.4587
 7482SOL    HW233906   1.353   1.262   4.170  1.6465 -1.6171 -0.6436
 7483SOL     OW33907   3.566   3.794   4.623 -0.6236  0.1615 -0.5656
 7483SOL    HW133908   3.509   3.721   4.647 -2.7021  1.8519 -0.4201
 7483SOL    HW233909   3.651   3.768   4.659 -1.1201  3.0845  2.7356
 7484SOL     OW33910   1.549   3.762  13.526  0.0143  0.1277  0.2256
 7484SOL    HW133911   1.545   3.674  13.564  0.7060 -0.3941 -0.9042
 7484SOL    HW233912   1.501   3.809  13.594 -0.9610  0.3689 -0.6291
 7485SOL     OW33913   0.913   3.452  14.956 -0.7330  0.1555  0.2402
 7485SOL    HW133914   0.988   3.447  15.015 -1.6525  1.4934  1.5624
 7485SOL    HW233915   0.960   3.510  14.896  1.0782 -2.1640 -0.5432
 7486SOL     OW33916   0.086   1.918   2.691 -0.8583 -0.0545 -0.1196
 7486SOL    HW133917   0.075   1.996   2.637  1.2119 -0.1462 -0.6780
 7486SOL    HW233918   0.005   1.920   2.742 -0.5579  3.2029  0.2294
 7487SOL     OW33919   3.542   3.975   0.817  0.2444 -0.0498 -0.0461
 7487SOL    HW133920   3.569   4.064   0.795 -1.2524  0.3419 -0.2612
 7487SOL    HW233921   3.593   3.963   0.897 -2.0380 -1.4386  1.2060
 7488SOL     OW33922   3.206   3.965   6.994 -0.7073 -0.2329  0.5019
 7488SOL    HW133923   3.284   4.019   6.990 -1.0174  0.2501  0.8870
 7488SOL    HW233924   3.156   4.004   6.922 -1.0122  0.5210  1.1133
 7489SOL     OW33925   0.551   3.300  14.954 -0.5908  0.1160  0.4867
 7489SOL    HW133926   0.599   3.374  14.918  0.1117  0.5894  2.3523
 7489SOL    HW233927   0.490   3.272  14.886 -2.1573  0.8064  1.6030
 7490SOL     OW33928   2.262   3.142  12.733  0.1027 -0.2328  1.1030
 7490SOL    HW133929   2.187   3.156  12.675 -0.4093 -0.8545  1.6156
 7490SOL    HW233930   2.326   3.164  12.665  0.0513 -0.4614  0.9792
 7491SOL     OW33931   2.255   2.979  14.379 -0.1177  0.2962 -0.2582
 7491SOL    HW133932   2.236   2.972  14.285 -0.9365  0.9250 -0.1462
 7491SOL    HW233933   2.255   2.887  14.406  2.0629  0.2878 -0.3247
 7492SOL     OW33934   3.083   3.957  15.298  0.5079  0.2955 -0.3632
 7492SOL    HW133935   3.111   3.872  15.266 -0.4241 -0.3151  0.4451
 7492SOL    HW233936   3.169   3.998  15.291  1.1737 -1.2660 -1.2403
 7493SOL     OW33937   1.900   0.692  15.505 -0.2906  0.1513  0.2315
 7493SOL    HW133938   1.891   0.674  15.598 -0.6950 -3.5677 -0.5630
 7493SOL    HW233939   1.878   0.607  15.466 -0.5616 -1.1307  3.2443
 7494SOL     OW33940   1.600   2.448   1.480 -0.1910 -0.8595 -1.0355
 7494SOL    HW133941   1.569   2.420   1.566 -0.6694  0.8115 -0.6571
 7494SOL    HW233942   1.644   2.374   1.440  0.2825 -0.2675 -1.6207
 7495SOL     OW33943   4.480   0.716   0.823  0.0588 -0.1943 -0.0536
 7495SOL    HW133944   4.510   0.804   0.842 -1.2837  0.2326  0.1298
 7495SOL    HW233945   4.477   0.664   0.903  0.1997  1.1179  0.7936
 7496SOL     OW33946   3.349   0.727   5.963  0.5090  0.4171 -0.6171
 7496SOL    HW133947   3.357   0.754   6.054 -0.7387  2.0079 -0.9669
 7496SOL    HW233948   3.405   0.651   5.951 -0.0656 -0.1489  0.2928
 7497SOL     OW33949   2.203   0.722   7.409 -0.4066 -0.0362 -0.2899
 7497SOL    HW133950   2.227   0.659   7.477 -0.7214  1.8357  1.5707
 7497SOL    HW233951   2.289   0.759   7.390 -0.9466  1.2075 -0.3047
 7498SOL     OW33952   2.716   2.221   8.492 -0.0215  0.4908 -0.1034
 7498SOL    HW133953   2.755   2.304   8.463 -0.0752  0.5296 -0.0649
 7498SOL    HW233954   2.782   2.196   8.556  1.6321  0.9864 -1.6293
 7499SOL     OW33955   2.711   4.718   5.094 -0.1634 -0.3036  0.6579
 7499SOL    HW133956   2.652   0.016   5.167 -0.2636 -0.9967  0.7736
 7499SOL    HW233957   2.790   4.690   5.139  0.4996  1.9818  0.9345
 7500SOL     OW33958   0.083   2.806  13.389  0.0973 -0.2006 -0.3614
 7500SOL    HW133959   0.081   2.902  13.380 -3.3478 -0.2668 -0.5890
 7500SOL    HW233960   0.175   2.787  13.373  0.1809  0.6021 -0.8485
 7501SOL     OW33961   2.535   0.702   8.194 -0.0418 -0.1046  0.5003
 7501SOL    HW133962   2.577   0.626   8.156 -1.2765 -1.1308  1.1960
 7501SOL    HW233963   2.444   0.674   8.202  1.0611 -4.4128 -2.5005
 7502SOL     OW33964   4.364   2.524  11.653 -0.5480 -0.1183 -0.2293
 7502SOL    HW133965   4.344   2.573  11.732 -0.4994 -0.3288 -0.0876
 7502SOL    HW233966   4.275   2.517  11.619 -0.4072 -4.1343  0.2775
 7503SOL     OW33967   4.501   1.769   4.359  0.0035  0.0989  0.2930
 7503SOL    HW133968   4.575   1.812   4.316  0.2715 -1.8586 -1.2073
 7503SOL    HW233969   4.517   1.799   4.449 -0.1287 -0.7742  0.6035
 7504SOL     OW33970   2.178   0.716   0.640 -0.4997 -0.0080 -0.0631
 7504SOL    HW133971   2.257   0.756   0.602  0.6021 -2.6321 -0.5047
 7504SOL    HW233972   2.191   0.711   0.735 -1.5547 -0.6507  0.0425
 7505SOL     OW33973   1.986   3.040   8.624  0.3021 -0.2938 -0.2198
 7505SOL    HW133974   2.066   3.045   8.571  0.7025  0.3643  0.4494
 7505SOL    HW233975   2.017   2.983   8.695 -0.9311  1.2555  1.5578
 7506SOL     OW33976   0.861   0.251   6.637  0.6059 -0.4081 -0.5328
 7506SOL    HW133977   0.857   0.343   6.663  0.9874 -1.0541  1.8085
 7506SOL    HW233978   0.947   0.226   6.669  0.3874 -1.4792 -0.7822
 7507SOL     OW33979   4.546   2.506   7.141  0.1783 -0.7290  0.3199
 7507SOL    HW133980   4.573   2.439   7.204 -0.2303 -0.4395  0.8014
 7507SOL    HW233981   4.453   2.520   7.162  0.4624 -1.7083  2.2823
 7508SOL     OW33982   0.382   0.790  11.052 -0.1305 -0.1857 -0.1472
 7508SOL    HW133983   0.410   0.699  11.042  2.4565  0.6347 -0.5359
 7508SOL    HW233984   0.473   0.816  11.065 -0.8087  2.0128  0.1454
 7509SOL     OW33985   3.182   1.109   3.114 -0.2837  0.4694  0.9226
 7509SOL    HW133986   3.200   1.126   3.021 -0.1589  0.7831  1.0059
 7509SOL    HW233987   3.124   1.180   3.139  0.0790  0.2889  2.2761
 7510SOL     OW33988   0.707   4.217   4.483 -0.1089 -0.2180  0.6890
 7510SOL    HW133989   0.669   4.209   4.396 -0.7411  2.3582  0.7278
 7510SOL    HW233990   0.635   4.232   4.545 -0.3151  2.1305 -0.1085
 7511SOL     OW33991   2.218   4.413   5.981 -0.3875  0.0719 -0.1601
 7511SOL    HW133992   2.172   4.497   5.978  1.3374  1.0639  1.0617
 7511SOL    HW233993   2.169   4.380   6.056  1.8987 -1.3290  0.7287
 7512SOL     OW33994   4.662   1.565   8.406  0.2658 -0.2106 -0.3186
 7512SOL    HW133995   4.666   1.473   8.429 -1.0793 -0.3325 -0.5471
 7512SOL    HW233996   0.031   1.575   8.381 -0.3462 -1.0588 -2.9749
 7513SOL     OW33997   3.738   2.619   2.087 -0.2839 -0.1203  0.3119
 7513SOL    HW133998   3.656   2.668   2.096 -0.5608 -0.5358  0.0296
 7513SOL    HW233999   3.768   2.658   2.005 -0.6939  2.1572  1.2171
 7514SOL     OW34000   0.217   1.075  16.780  0.4997  0.4866  0.1315
 7514SOL    HW134001   0.210   0.996  16.726  0.8188 -0.3895  1.3605
 7514SOL    HW234002   0.229   1.146  16.717 -2.6535  1.5737  0.7555
 7515SOL     OW34003   4.516   1.339   3.183  0.5441 -0.5481  0.5977
 7515SOL    HW134004   4.508   1.335   3.278 -2.2890 -0.3646  0.3631
 7515SOL    HW234005   4.578   1.410   3.167  2.4121 -1.6784  2.7694
 7516SOL     OW34006   3.768   1.759   7.291  0.1454 -0.0489  0.8277
 7516SOL    HW134007   3.827   1.694   7.253  0.4545  0.4389  0.4797
 7516SOL    HW234008   3.718   1.798   7.219  1.2528  0.9324  0.5946
 7517SOL     OW34009   1.448   3.982   5.510  0.6304  0.1401  0.5211
 7517SOL    HW134010   1.496   3.992   5.428  1.0448 -2.9954  0.3825
 7517SOL    HW234011   1.379   3.922   5.483 -0.8066  2.9899 -2.1528
 7518SOL     OW34012   0.808   1.583   4.676 -0.1492  0.6314 -0.5719
 7518SOL    HW134013   0.756   1.639   4.618 -0.3624  0.3823 -0.6212
 7518SOL    HW234014   0.826   1.653   4.738  0.7259  0.2856 -0.4264
 7519SOL     OW34015   1.479   2.382   1.731 -0.1296 -0.0533  0.5414
 7519SOL    HW134016   1.485   2.290   1.757  0.6056 -0.3726 -0.7183
 7519SOL    HW234017   1.406   2.417   1.782 -0.4076 -0.5438  0.4788
 7520SOL     OW34018   2.716   2.506   3.741  0.6005  0.5952  0.1707
 7520SOL    HW134019   2.626   2.531   3.761  0.4163 -2.1730  2.8099
 7520SOL    HW234020   2.753   2.570   3.680  0.4343  0.6651  0.1436
 7521SOL     OW34021   0.868   4.477  13.781 -0.0414  0.4564 -0.1161
 7521SOL    HW134022   0.805   4.406  13.772  1.0782 -0.9310  2.9465
 7521SOL    HW234023   0.860   4.493  13.875  3.6245 -0.8452  0.4358
 7522SOL     OW34024   4.081   0.575   7.184  0.1800  0.0765 -0.1467
 7522SOL    HW134025   4.054   0.638   7.117  0.9416  0.8525  0.2710
 7522SOL    HW234026   3.998   0.533   7.203  0.0171 -0.2092 -1.5107
 7523SOL     OW34027   4.658   4.218   1.359  0.2863  0.1305  0.4587
 7523SOL    HW134028   4.703   4.287   1.309  0.3893  0.2165  0.6678
 7523SOL    HW234029   4.682   4.248   1.447  0.3786 -1.8821  1.1096
 7524SOL     OW34030   2.481   3.165  16.108 -0.4230  0.0089  0.0733
 7524SOL    HW134031   2.433   3.248  16.106 -1.5992 -0.6475  1.3982
 7524SOL    HW234032   2.570   3.187  16.137 -0.8254  1.0501  0.5304
 7525SOL     OW34033   0.717   2.841  11.291 -0.3506  0.0210 -0.6429
 7525SOL    HW134034   0.771   2.903  11.242  1.7848 -1.6359 -0.3810
 7525SOL    HW234035   0.670   2.801  11.218  1.5484 -0.3227 -1.6865
 7526SOL     OW34036   0.243   4.203   3.402 -0.2397 -0.3778 -0.3403
 7526SOL    HW134037   0.194   4.182   3.322  1.7659  1.1741 -1.9524
 7526SOL    HW234038   0.199   4.150   3.468  0.3911  0.1327  0.4760
 7527SOL     OW34039   3.122   1.944  13.443 -0.1469 -0.0934  0.0034
 7527SOL    HW134040   3.067   1.988  13.507 -1.2070 -0.9548 -0.3097
 7527SOL    HW234041   3.087   1.970  13.358  0.4606 -2.2252 -0.8959
 7528SOL     OW34042   2.458   1.101  15.553 -0.4813  0.2591  0.1098
 7528SOL    HW134043   2.364   1.112  15.559 -0.3213  0.9341  1.4118
 7528SOL    HW234044   2.492   1.189  15.535 -1.3569  0.4683 -0.5030
 7529SOL     OW34045   0.987   3.192   4.533  0.3468 -0.9753 -0.9431
 7529SOL    HW134046   0.948   3.107   4.517 -1.4315 -0.4188  0.4851
 7529SOL    HW234047   1.004   3.232   4.448  1.3823 -1.4081 -0.9444
 7530SOL     OW34048   0.904   3.058   5.235 -0.1936  0.2030 -0.3293
 7530SOL    HW134049   0.863   3.032   5.317 -1.0546 -1.1142 -1.1574
 7530SOL    HW234050   0.834   3.042   5.171 -0.7276  0.5060  0.1874
 7531SOL     OW34051   2.194   1.379   9.711  0.1619  0.1024 -0.1310
 7531SOL    HW134052   2.177   1.418   9.625 -1.2090  2.4695  1.2234
 7531SOL    HW234053   2.252   1.444   9.749 -1.1398  0.0866  1.8886
 7532SOL     OW34054   4.684   1.761   4.048  0.0752  0.2470  0.2079
 7532SOL    HW134055   0.011   1.734   4.124 -0.5528  1.7625  1.1564
 7532SOL    HW234056   4.722   1.848   4.037  0.3764  0.0284 -0.5305
 7533SOL     OW34057   3.739   0.896   5.827 -0.3329 -0.7219  0.2186
 7533SOL    HW134058   3.646   0.909   5.811 -0.9540 -3.5788  1.3726
 7533SOL    HW234059   3.774   0.985   5.820  0.2974 -0.7592  2.7573
 7534SOL     OW34060   1.035   4.683   8.926 -0.1152 -0.1960 -0.6161
 7534SOL    HW134061   0.945   4.680   8.960 -0.5244  0.7244 -1.6325
 7534SOL    HW234062   1.088   4.627   8.982  0.0376  1.1685  0.6114
 7535SOL     OW34063   0.115   0.464  11.532  0.3494  0.1738  0.1338
 7535SOL    HW134064   0.100   0.548  11.574 -0.5313  0.9080 -1.6593
 7535SOL    HW234065   0.163   0.420  11.602  1.6368 -0.0725 -0.9060
 7536SOL     OW34066   2.629   4.646  14.433  0.2506  0.3053 -0.7352
 7536SOL    HW134067   2.535   4.654  14.417  0.5909 -1.0548 -3.4843
 7536SOL    HW234068   2.643   0.009  14.472 -0.2821  0.7380 -1.4926
 7537SOL     OW34069   4.580   3.916   8.908  0.2578  0.1985 -0.1910
 7537SOL    HW134070   4.492   3.941   8.880  0.4171 -0.6325 -1.4142
 7537SOL    HW234071   4.557   3.834   8.951 -1.2684  1.2385  0.9744
 7538SOL     OW34072   0.656   2.962   9.079 -0.3732  0.2053 -0.2099
 7538SOL    HW134073   0.643   3.021   9.153 -0.9803 -1.2679  0.8642
 7538SOL    HW234074   0.722   2.899   9.106  0.2153  0.6456 -0.6302
 7539SOL     OW34075   2.943   1.831   2.396  0.2512 -0.1109  0.3740
 7539SOL    HW134076   2.984   1.905   2.352 -2.1877  0.5701 -0.7426
 7539SOL    HW234077   3.016   1.770   2.412  0.2435 -0.7787 -2.1631
 7540SOL     OW34078   0.225   0.595  13.405  0.7978  0.0035 -0.3639
 7540SOL    HW134079   0.243   0.505  13.431  0.5897  0.5360  1.6005
 7540SOL    HW234080   0.165   0.617  13.476 -0.6240 -2.5368 -0.7659
 7541SOL     OW34081   1.820   0.214  15.528  0.3148 -0.8906  0.0093
 7541SOL    HW134082   1.899   0.194  15.578  0.6356 -0.9936 -0.5496
 7541SOL    HW234083   1.798   0.133  15.483 -2.8681 -0.7610  1.3435
 7542SOL     OW34084   3.322   4.634   4.254  0.5550 -0.1955  0.4950
 7542SOL    HW134085   3.315   4.540   4.241  1.2097 -0.2854  0.8213
 7542SOL    HW234086   3.304   4.646   4.347  0.8708 -2.2914  0.8170
 7543SOL     OW34087   3.680   1.445   9.449  0.1254 -0.2495 -0.2723
 7543SOL    HW134088   3.724   1.407   9.525  0.2230 -1.0713 -0.7297
 7543SOL    HW234089   3.726   1.418   9.369 -1.4534  0.1693 -1.3244
 7544SOL     OW34090   1.059   4.618   7.565  0.3230 -0.4327 -0.4515
 7544SOL    HW134091   1.097   4.538   7.531 -0.8632 -0.2244 -2.2297
 7544SOL    HW234092   0.989   4.575   7.615  1.2829 -0.3672  0.9661
 7545SOL     OW34093   1.826   3.256  14.517  0.4318 -0.2065  0.0283
 7545SOL    HW134094   1.875   3.317  14.463 -0.3987 -0.6797 -1.2549
 7545SOL    HW234095   1.789   3.210  14.442  0.0379 -0.2776  0.2619
 7546SOL     OW34096   1.271   2.385   2.331 -0.1966  0.0433  0.0497
 7546SOL    HW134097   1.191   2.411   2.285  0.5877 -0.7888 -1.7753
 7546SOL    HW234098   1.338   2.383   2.263  0.5006 -0.2014  0.7439
 7547SOL     OW34099   1.434   2.120   2.124  0.2603  0.2780 -0.3975
 7547SOL    HW134100   1.447   2.201   2.075  1.3772  0.1682 -0.2911
 7547SOL    HW234101   1.420   2.052   2.058  0.2986  0.1107 -0.2334
 7548SOL     OW34102   2.827   4.658   3.447 -0.4202 -0.2469 -0.2969
 7548SOL    HW134103   2.856   4.567   3.445  1.9574  0.4680  0.6870
 7548SOL    HW234104   2.734   4.646   3.428 -0.4482 -1.8148  0.7956
 7549SOL     OW34105   1.218   4.085   6.629  0.3454  0.1917  0.4640
 7549SOL    HW134106   1.143   4.118   6.580  1.8855 -0.0441 -2.0295
 7549SOL    HW234107   1.182   4.061   6.715 -0.3654 -0.9715 -0.1515
 7550SOL     OW34108   3.200   0.901   8.931 -0.2257  0.1566  0.0508
 7550SOL    HW134109   3.189   0.909   9.026  0.5496  0.5410  0.0993
 7550SOL    HW234110   3.293   0.910   8.914 -0.2518  0.8280  0.2768
 7551SOL     OW34111   4.295   3.539  13.834  0.0252  0.2129  0.2733
 7551SOL    HW134112   4.228   3.561  13.770  0.4266 -0.4517 -0.3799
 7551SOL    HW234113   4.278   3.581  13.918  3.3173  1.6411  0.2344
 7552SOL     OW34114   2.029   2.568   8.460  0.0393  0.0170 -0.1392
 7552SOL    HW134115   1.975   2.500   8.418  1.3764 -1.0887 -0.0702
 7552SOL    HW234116   1.968   2.641   8.468 -1.5649 -1.2737 -0.4540
 7553SOL     OW34117   1.932   2.261   8.681  0.4381 -0.1267 -0.2834
 7553SOL    HW134118   1.986   2.198   8.634  0.8750  0.5844 -0.7290
 7553SOL    HW234119   1.863   2.200   8.708  1.7693 -0.7946  1.6474
 7554SOL     OW34120   0.343   1.634  17.382  0.7256 -0.0529  0.0090
 7554SOL    HW134121   0.327   1.611  17.473 -2.9533 -1.4858 -1.0176
 7554SOL    HW234122   0.360   1.551  17.338  0.2729  0.9259 -1.9981
 7555SOL     OW34123   2.207   3.696   8.848  0.1042  0.2875  0.3605
 7555SOL    HW134124   2.290   3.650   8.839 -0.6677 -0.3786 -3.3422
 7555SOL    HW234125   2.141   3.627   8.848 -0.4043  0.8006 -3.4170
 7556SOL     OW34126   0.467   1.844   5.114 -0.1450 -0.3154  0.4959
 7556SOL    HW134127   0.439   1.813   5.028  0.2905  1.4402 -0.2856
 7556SOL    HW234128   0.476   1.770   5.174 -2.9118 -0.3314  0.9312
 7557SOL     OW34129   2.506   0.144   3.100 -0.0340 -0.1218 -0.1135
 7557SOL    HW134130   2.420   0.179   3.126 -0.7226 -1.9063  0.0260
 7557SOL    HW234131   2.527   0.184   3.016  1.4480 -1.1031 -0.1937
 7558SOL     OW34132   1.950   4.157   1.729 -0.1143  0.2247 -0.3322
 7558SOL    HW134133   2.015   4.221   1.700 -0.4358  1.2239  1.1042
 7558SOL    HW234134   2.000   4.077   1.720  2.5578  1.6978  1.4057
 7559SOL     OW34135   3.169   4.109   7.835 -0.1461 -0.4975 -0.1553
 7559SOL    HW134136   3.252   4.144   7.868 -0.1791 -1.2832  0.7487
 7559SOL    HW234137   3.113   4.100   7.912  3.2058 -2.8819  2.0156
 7560SOL     OW34138   3.916   2.509   6.771 -0.2315  0.3670  0.2082
 7560SOL    HW134139   3.876   2.491   6.686 -1.5694  0.6444  0.7789
 7560SOL    HW234140   3.856   2.462   6.828 -0.0242  0.6486  0.6602
 7561SOL     OW34141   2.079   2.442   3.923 -0.6090  0.1240  0.1173
 7561SOL    HW134142   2.003   2.457   3.867 -0.1358 -0.1552 -0.5986
 7561SOL    HW234143   2.089   2.347   3.922  0.8939  0.3076 -1.9378
 7562SOL     OW34144   2.833   4.213   4.396 -0.4652 -0.1054 -0.1033
 7562SOL    HW134145   2.829   4.120   4.374  0.6409 -0.4828  1.3021
 7562SOL    HW234146   2.742   4.226   4.425 -0.8989  1.6079 -2.2346
 7563SOL     OW34147   1.271   4.645  11.366 -0.4393  0.0419 -0.2154
 7563SOL    HW134148   1.189   4.596  11.361  0.4421 -1.3742 -0.7064
 7563SOL    HW234149   1.342   4.584  11.344 -0.5345 -0.7039  1.4832
 7564SOL     OW34150   3.625   3.996  11.124 -0.1634 -0.3518 -0.1455
 7564SOL    HW134151   3.719   3.982  11.133 -0.5249 -0.7046  3.3023
 7564SOL    HW234152   3.588   3.983  11.211  0.2662 -0.5235  0.0109
 7565SOL     OW34153   3.180   3.661   8.457  0.0572  0.1533  0.2355
 7565SOL    HW134154   3.232   3.617   8.524 -1.0188 -0.2272  0.8233
 7565SOL    HW234155   3.188   3.752   8.484  0.6587 -0.2459  1.4082
 7566SOL     OW34156   2.690   2.497  14.092 -0.4151 -0.2868 -0.0032
 7566SOL    HW134157   2.781   2.504  14.119 -0.1404 -0.9194 -0.7556
 7566SOL    HW234158   2.692   2.422  14.033  3.2674 -1.6490  1.8842
 7567SOL     OW34159   3.890   1.276  11.969 -0.2430 -0.7453  0.0593
 7567SOL    HW134160   3.853   1.327  11.897  1.8110  1.2223  0.3801
 7567SOL    HW234161   3.942   1.214  11.919 -0.6136 -0.9067 -0.1250
 7568SOL     OW34162   0.283   3.529   8.415  0.0557 -0.6277 -0.4792
 7568SOL    HW134163   0.278   3.436   8.440  2.1027 -0.4116  0.6881
 7568SOL    HW234164   0.358   3.561   8.465 -0.9862 -0.6507  1.0986
 7569SOL     OW34165   3.405   4.427   6.561  0.2744 -0.1750  0.3516
 7569SOL    HW134166   3.482   4.421   6.617  0.2050  0.2005  0.4847
 7569SOL    HW234167   3.376   4.335   6.561 -2.9834  0.8807  3.0899
 7570SOL     OW34168   1.391   2.272   5.334 -0.1868 -0.5207 -0.3428
 7570SOL    HW134169   1.484   2.253   5.324 -0.2923 -0.1594 -2.0365
 7570SOL    HW234170   1.363   2.192   5.291 -0.5235 -0.5306 -0.1109
 7571SOL     OW34171   0.203   3.436   2.158 -0.5565 -0.5094 -0.2817
 7571SOL    HW134172   0.174   3.490   2.085 -1.4773 -0.2179  0.3072
 7571SOL    HW234173   0.177   3.485   2.236 -0.3626 -0.0987 -0.4768
 7572SOL     OW34174   2.992   2.804   4.481  0.7187 -0.4049 -0.0312
 7572SOL    HW134175   3.086   2.789   4.466  0.9635  0.7554  0.2874
 7572SOL    HW234176   3.000   2.898   4.500 -0.5601 -0.2052 -0.5305
 7573SOL     OW34177   1.067   1.833  14.101 -0.6127 -0.0244  0.7067
 7573SOL    HW134178   0.979   1.855  14.070 -0.5671 -0.5111  0.2433
 7573SOL    HW234179   1.052   1.786  14.182 -3.1217  1.8309  1.3198
 7574SOL     OW34180   1.432   3.517  12.861 -0.0345 -0.1393  0.4380
 7574SOL    HW134181   1.427   3.422  12.863  0.3162 -0.1707 -0.1738
 7574SOL    HW234182   1.475   3.546  12.780 -2.1411  0.0682 -0.6094
 7575SOL     OW34183   4.212   2.996   4.830 -0.1228  0.2104 -0.1328
 7575SOL    HW134184   4.195   3.018   4.738  0.8918 -0.6395 -0.5285
 7575SOL    HW234185   4.279   2.928   4.826  0.0749  0.3433  0.9840
 7576SOL     OW34186   2.499   3.339  15.459  0.2980 -0.4650  0.4509
 7576SOL    HW134187   2.502   3.244  15.446 -1.6412 -0.3148 -1.0730
 7576SOL    HW234188   2.590   3.364  15.441 -0.1598  1.0801  0.2324
 7577SOL     OW34189   4.166   3.223   3.578 -0.0830 -0.4112  0.1878
 7577SOL    HW134190   4.215   3.157   3.628  2.6724  0.6894 -1.0552
 7577SOL    HW234191   4.169   3.182   3.491  1.1494 -0.2065  0.1297
 7578SOL     OW34192   3.833   2.564  14.708 -0.4318  0.0961  1.2123
 7578SOL    HW134193   3.849   2.550  14.615  0.3849  0.9266  1.2280
 7578SOL    HW234194   3.903   2.627  14.727  0.2570  0.1851 -1.6135
 7579SOL     OW34195   0.747   4.291  15.806 -0.1424  0.1287 -0.9508
 7579SOL    HW134196   0.784   4.308  15.892 -1.3015 -1.1967 -0.1943
 7579SOL    HW234197   0.802   4.334  15.740  0.0515 -0.9792 -1.5046
 7580SOL     OW34198   0.392   2.177   4.616  0.3217  0.3236 -0.4926
 7580SOL    HW134199   0.390   2.131   4.700 -0.2803 -0.5882 -1.0155
 7580SOL    HW234200   0.360   2.109   4.557  1.0180 -0.0729 -0.4161
 7581SOL     OW34201   4.491   4.086   8.194 -0.5576 -0.7967 -0.0953
 7581SOL    HW134202   4.448   4.027   8.132 -0.5378 -1.8380  0.8869
 7581SOL    HW234203   4.418   4.141   8.224 -0.1276 -0.2955  0.0371
 7582SOL     OW34204   1.730   1.721   9.705  0.4489  0.6632 -0.1784
 7582SOL    HW134205   1.784   1.646   9.681  1.5739  1.7795 -1.1932
 7582SOL    HW234206   1.764   1.790   9.647  0.1028 -0.5494 -1.8232
 7583SOL     OW34207   3.368   4.415   5.612 -0.4271 -0.1383 -0.0113
 7583SOL    HW134208   3.282   4.374   5.617 -0.5151 -0.1929 -2.0826
 7583SOL    HW234209   3.422   4.337   5.619  0.3502  0.3870 -0.1819
 7584SOL     OW34210   0.620   3.672   4.081 -0.2556 -0.8287  0.2392
 7584SOL    HW134211   0.537   3.702   4.043  0.2046  0.6643  0.4030
 7584SOL    HW234212   0.590   3.610   4.147 -0.4210  0.3635  1.2698
 7585SOL     OW34213   4.649   1.835   7.919 -0.1618  0.1707  0.1610
 7585SOL    HW134214   4.694   1.783   7.853 -0.7357  0.0513 -0.1329
 7585SOL    HW234215   4.656   1.779   7.996  0.7463  1.3828  0.9787
 7586SOL     OW34216   0.836   0.477  17.067 -0.0127 -0.3540 -0.1180
 7586SOL    HW134217   0.894   0.541  17.026 -0.8397  1.5047  1.6549
 7586SOL    HW234218   0.890   0.399  17.051  0.4886 -0.2816  1.2396
 7587SOL     OW34219   0.790   1.828  13.170 -0.0682 -0.4529  0.4464
 7587SOL    HW134220   0.809   1.751  13.223 -2.6382 -2.4243 -1.5449
 7587SOL    HW234221   0.800   1.791  13.082  0.8319 -0.7573  0.6777
 7588SOL     OW34222   4.209   3.713   5.418  0.0370 -0.3124  0.0636
 7588SOL    HW134223   4.222   3.750   5.331 -1.3690 -0.6071 -0.2719
 7588SOL    HW234224   4.237   3.622   5.416 -0.8048 -0.4550 -4.4562
 7589SOL     OW34225   0.353   2.344  17.471  0.3408 -0.0169 -0.2035
 7589SOL    HW134226   0.273   2.313  17.512  0.1122  1.5994  0.5920
 7589SOL    HW234227   0.405   2.263  17.474  2.4715  1.4185  1.7616
 7590SOL     OW34228   2.738   3.395   8.748  0.1295 -0.1111  0.3969
 7590SOL    HW134229   2.785   3.395   8.831 -0.6071  0.5614  0.8164
 7590SOL    HW234230   2.773   3.480   8.719  1.9291 -1.4747 -1.4276
 7591SOL     OW34231   1.331   1.272   7.591  0.1175  0.4286 -0.1194
 7591SOL    HW134232   1.341   1.317   7.507 -1.6480 -0.1902 -0.6636
 7591SOL    HW234233   1.383   1.192   7.581 -1.7833 -0.7361 -0.7009
 7592SOL     OW34234   3.741   4.566   2.369  0.4604  0.0043  0.2333
 7592SOL    HW134235   3.679   4.542   2.438 -1.2916 -1.8435 -2.0039
 7592SOL    HW234236   3.761   4.656   2.394 -0.3411 -0.1129  1.3076
 7593SOL     OW34237   2.935   1.916   3.718 -0.0115  0.2626  0.6347
 7593SOL    HW134238   2.968   1.855   3.784  0.0584 -0.7543 -0.3479
 7593SOL    HW234239   2.927   1.997   3.770 -0.2451 -1.1984  2.8919
 7594SOL     OW34240   3.093   3.434   8.041 -0.3294 -0.2574  0.6050
 7594SOL    HW134241   3.186   3.411   8.033 -0.7954 -1.5750 -1.0758
 7594SOL    HW234242   3.092   3.478   8.126  3.3147 -0.3958  0.7213
 7595SOL     OW34243   1.494   1.097   9.255  0.7235  0.1068  0.2178
 7595SOL    HW134244   1.577   1.144   9.242  1.1246 -0.0396  2.2961
 7595SOL    HW234245   1.526   1.019   9.299  0.8429  0.3927  0.6419
 7596SOL     OW34246   1.316   2.647  14.064  0.3368 -0.2438 -0.3984
 7596SOL    HW134247   1.354   2.703  13.996 -0.2625  0.2678 -0.3133
 7596SOL    HW234248   1.249   2.595  14.020 -1.3549  1.9447 -0.4212
 7597SOL     OW34249   4.074   2.868   7.018 -0.7323 -0.2309 -0.0792
 7597SOL    HW134250   4.031   2.952   7.001 -1.4623 -0.3697  1.1227
 7597SOL    HW234251   4.006   2.811   6.983  0.3969 -0.0990 -2.4794
 7598SOL     OW34252   4.236   2.914   3.976 -0.3368  0.4118  0.5320
 7598SOL    HW134253   4.169   2.885   4.038 -1.3482 -1.3356 -1.3778
 7598SOL    HW234254   4.196   2.998   3.953  1.0377  0.7068 -0.8042
 7599SOL     OW34255   3.821   3.243   1.746  0.0133  0.6767  0.0071
 7599SOL    HW134256   3.916   3.250   1.753  0.2052 -1.1292 -0.5789
 7599SOL    HW234257   3.795   3.209   1.832 -0.7349 -0.0534 -0.4982
 7600SOL     OW34258   4.579   1.443   2.480 -0.2057  0.1945  0.2819
 7600SOL    HW134259   4.585   1.441   2.384  0.2064 -3.6016  0.4073
 7600SOL    HW234260   4.529   1.524   2.494  0.1164  0.2887  0.8850
 7601SOL     OW34261   0.883   2.524   2.992 -0.4856  0.5524 -0.3267
 7601SOL    HW134262   0.974   2.493   2.990 -0.1527  1.4370  1.0285
 7601SOL    HW234263   0.848   2.520   2.903  0.5993 -1.1785 -0.6939
 7602SOL     OW34264   1.577   1.226   8.541 -0.0356 -0.3372 -0.7368
 7602SOL    HW134265   1.496   1.200   8.497 -0.8904  0.5935  0.2937
 7602SOL    HW234266   1.550   1.239   8.632 -1.2515  0.0441 -1.1487
 7603SOL     OW34267   3.394   1.311  10.655 -0.2155 -0.5289 -0.0656
 7603SOL    HW134268   3.421   1.275  10.740  0.5775  3.8817  1.5349
 7603SOL    HW234269   3.383   1.405  10.671  0.8312 -0.0389 -2.1831
 7604SOL     OW34270   1.209   2.696  13.656  0.5717  0.1748  0.3374
 7604SOL    HW134271   1.297   2.734  13.659  0.9314 -0.6112 -0.1134
 7604SOL    HW234272   1.209   2.668  13.748 -2.2552 -3.8616 -0.8837
 7605SOL     OW34273   2.657   0.778   5.924 -0.7909  0.0951  0.0128
 7605SOL    HW134274   2.656   0.692   5.882  1.2138 -1.1076  2.4612
 7605SOL    HW234275   2.749   0.802   5.915 -0.5022 -0.9691  0.1177
 7606SOL     OW34276   3.130   2.633   3.426 -0.1489 -0.6901  0.0969
 7606SOL    HW134277   3.213   2.610   3.468  1.0865  4.9027  0.8039
 7606SOL    HW234278   3.134   2.729   3.428  2.1072 -0.7168 -2.7442
 7607SOL     OW34279   2.347   3.097   3.149  0.3792  0.5723 -0.3434
 7607SOL    HW134280   2.364   3.044   3.227  0.6430  2.8884  1.1515
 7607SOL    HW234281   2.369   3.041   3.074  0.9464 -2.5668  2.1731
 7608SOL     OW34282   0.936   4.483   1.934  0.1119  0.6167 -0.6276
 7608SOL    HW134283   0.949   4.573   1.906 -1.7277  1.1411  0.1761
 7608SOL    HW234284   1.026   4.453   1.942 -0.2292 -1.3276 -4.2425
 7609SOL     OW34285   0.758   0.274   4.299 -0.0328  0.0354 -0.1010
 7609SOL    HW134286   0.744   0.326   4.219 -0.8632 -0.8000 -0.4984
 7609SOL    HW234287   0.839   0.300   4.343 -0.0326  1.3786 -0.8786
 7610SOL     OW34288   1.045   0.675   5.719  0.4456 -0.2639 -0.6678
 7610SOL    HW134289   1.068   0.675   5.812 -3.0887 -1.9325  0.2217
 7610SOL    HW234290   1.119   0.623   5.688  0.5675 -0.9156  0.7002
 7611SOL     OW34291   4.153   4.436   3.378 -0.1699  0.3972 -0.4393
 7611SOL    HW134292   4.156   4.344   3.351  2.1755  0.0146  1.1983
 7611SOL    HW234293   4.203   4.471   3.304  0.9207 -1.3879 -0.5350
 7612SOL     OW34294   4.367   3.450   5.023 -0.2164  0.6051 -0.6698
 7612SOL    HW134295   4.337   3.514   5.087 -1.3924 -0.6344  0.0297
 7612SOL    HW234296   4.279   3.426   4.991 -0.2257  0.0435 -0.2229
 7613SOL     OW34297   2.507   3.405   9.221  0.0859  0.4750  0.0777
 7613SOL    HW134298   2.511   3.478   9.284 -2.4305 -0.3449  1.1975
 7613SOL    HW234299   2.494   3.452   9.139 -1.2585 -2.2378 -1.2526
 7614SOL     OW34300   3.569   1.989   3.692  0.3903  0.0265 -0.7136
 7614SOL    HW134301   3.507   2.061   3.687 -1.7432 -1.7596 -0.2013
 7614SOL    HW234302   3.602   1.974   3.604  2.3438 -1.2757  0.2312
 7615SOL     OW34303   3.436   2.588   5.731 -0.3759  0.3585 -0.0224
 7615SOL    HW134304   3.346   2.617   5.723 -0.8276 -0.6065  1.4749
 7615SOL    HW234305   3.489   2.652   5.684 -0.2830 -1.7210 -2.7174
 7616SOL     OW34306   0.894   3.901   4.997  0.7232 -0.0970 -0.7581
 7616SOL    HW134307   0.851   3.817   5.010 -1.5781  0.9246 -1.7022
 7616SOL    HW234308   0.823   3.963   4.981 -0.5254 -1.4083 -0.2856
 7617SOL     OW34309   0.134   4.189  15.823  0.1853 -0.3343  0.3109
 7617SOL    HW134310   0.184   4.114  15.790  0.3973  0.1382 -0.4460
 7617SOL    HW234311   0.051   4.149  15.849  0.0518 -0.4954 -0.3642
 7618SOL     OW34312   2.395   1.354   5.020  0.4103 -0.0142  0.0596
 7618SOL    HW134313   2.358   1.437   5.051 -1.7509 -1.1686  0.5524
 7618SOL    HW234314   2.358   1.347   4.932 -1.3530 -1.7269  0.9618
 7619SOL     OW34315   0.383   4.632  13.679 -0.4825  0.1404 -0.2748
 7619SOL    HW134316   0.471   4.656  13.709  0.0587  1.3702 -2.9159
 7619SOL    HW234317   0.369   4.537  13.684  0.1133 -0.0206 -1.6621
 7620SOL     OW34318   2.072   0.329   2.202 -0.0958 -0.1198  0.2502
 7620SOL    HW134319   2.024   0.289   2.129  0.7244 -1.2456  0.3306
 7620SOL    HW234320   2.017   0.301   2.276 -3.1753  1.5762 -1.3929
 7621SOL     OW34321   4.433   1.143   3.597  0.1802  0.6836  0.1171
 7621SOL    HW134322   4.435   1.227   3.642 -1.2996 -1.2727  3.8550
 7621SOL    HW234323   4.510   1.097   3.631  0.3444  0.4968 -0.5068
 7622SOL     OW34324   0.761   2.821   8.639  0.8158 -0.1665 -0.2081
 7622SOL    HW134325   0.790   2.905   8.603  0.8587  0.0968  0.4464
 7622SOL    HW234326   0.703   2.784   8.573  0.5007  0.3020 -0.1941
 7623SOL     OW34327   4.686   0.803  13.388 -0.2386 -0.4342  0.0521
 7623SOL    HW134328   4.685   0.875  13.325 -0.8022 -1.4673 -1.1256
 7623SOL    HW234329   4.610   0.749  13.367 -2.2956  1.4006  2.7779
 7624SOL     OW34330   4.696   4.552   2.715 -0.2226 -0.4797  0.7601
 7624SOL    HW134331   4.645   4.583   2.790  1.2357 -1.1033  2.0196
 7624SOL    HW234332   4.664   4.607   2.645 -0.7211 -3.1892 -1.1527
 7625SOL     OW34333   2.096   2.265  12.107 -0.0028 -0.0297 -0.4012
 7625SOL    HW134334   2.054   2.275  12.193 -0.6299  1.1565 -0.8509
 7625SOL    HW234335   2.069   2.349  12.069  1.2308  1.1993  1.4174
 7626SOL     OW34336   1.236   3.525  16.583 -0.2086 -0.7896  0.1007
 7626SOL    HW134337   1.163   3.547  16.526 -0.7178  0.5310  1.2619
 7626SOL    HW234338   1.312   3.555  16.532 -0.8002 -1.9746 -1.4679
 7627SOL     OW34339   1.521   3.905  10.277 -0.1238 -0.2012 -0.8261
 7627SOL    HW134340   1.494   3.861  10.197  0.2150 -0.3769 -0.8437
 7627SOL    HW234341   1.549   3.991  10.244 -0.3090  0.7537  1.5031
 7628SOL     OW34342   0.551   1.321   4.183 -0.1203 -0.0391  0.3304
 7628SOL    HW134343   0.460   1.330   4.152 -0.4180 -0.8166  0.9693
 7628SOL    HW234344   0.595   1.261   4.123  0.1302  1.5226 -1.0255
 7629SOL     OW34345   2.796   2.815   6.573 -0.4592 -0.1681  0.4035
 7629SOL    HW134346   2.753   2.829   6.658  0.9257  0.0733  1.0735
 7629SOL    HW234347   2.747   2.739   6.541 -0.2509  0.3150 -1.0383
 7630SOL     OW34348   1.888   2.792   1.070 -0.1551 -0.3831  0.1138
 7630SOL    HW134349   1.857   2.849   0.999  2.1034 -0.8897 -1.2973
 7630SOL    HW234350   1.901   2.850   1.145 -1.0624 -1.1322  0.8385
 7631SOL     OW34351   0.029   1.640   9.241  0.0053  0.0724  0.2310
 7631SOL    HW134352   0.066   1.680   9.320 -0.9366 -0.0874  0.7423
 7631SOL    HW234353   0.102   1.584   9.213 -0.5820 -1.2606  1.3668
 7632SOL     OW34354   1.998   0.820  13.656 -0.2289  0.1047  0.4121
 7632SOL    HW134355   2.021   0.867  13.576 -1.1201  0.6665  0.4793
 7632SOL    HW234356   1.976   0.731  13.628  0.2008 -0.2952  1.3519
 7633SOL     OW34357   2.140   4.603   0.407 -0.1621  0.4357 -0.7346
 7633SOL    HW134358   2.100   4.661   0.472  2.5277 -0.9211  2.1611
 7633SOL    HW234359   2.232   4.595   0.434 -0.7081  1.0514  1.3058
 7634SOL     OW34360   3.160   1.913   7.108  0.1298  0.5597 -0.2583
 7634SOL    HW134361   3.254   1.927   7.116  0.2418  0.3966 -1.3281
 7634SOL    HW234362   3.149   1.821   7.130  1.1879  0.9870  2.0575
 7635SOL     OW34363   3.487   0.771   4.449 -0.4120 -0.0138 -0.2387
 7635SOL    HW134364   3.488   0.675   4.445 -1.6682  0.0843 -2.8686
 7635SOL    HW234365   3.565   0.789   4.502 -1.6855 -0.6993  1.8710
 7636SOL     OW34366   4.022   1.388  10.905  0.3238  0.1857  0.1508
 7636SOL    HW134367   4.060   1.425  10.985  0.5924  1.7980 -0.7308
 7636SOL    HW234368   3.993   1.303  10.937  0.2576 -0.1996 -0.9599
 7637SOL     OW34369   3.600   4.451   2.180 -0.0372  0.1709 -0.1094
 7637SOL    HW134370   3.638   4.507   2.248  1.5319  0.2398 -1.0180
 7637SOL    HW234371   3.675   4.446   2.120  0.1781 -2.2076  0.3401
 7638SOL     OW34372   0.865   1.722   3.983 -0.2726  0.4239  0.2108
 7638SOL    HW134373   0.849   1.657   4.052  0.4224  1.5497  1.4222
 7638SOL    HW234374   0.779   1.723   3.940  1.3386 -2.5586 -3.1594
 7639SOL     OW34375   1.807   0.089   8.964  0.6496  0.5577 -1.0007
 7639SOL    HW134376   1.823   0.008   9.012  0.5688  1.4049  0.4472
 7639SOL    HW234377   1.863   0.153   9.008 -0.9558 -0.2836  2.2263
 7640SOL     OW34378   2.568   3.954  16.197  0.0110  0.7324 -0.3564
 7640SOL    HW134379   2.581   4.036  16.149 -1.0449  1.6818  0.9709
 7640SOL    HW234380   2.624   3.963  16.275 -2.0957  0.0068  1.2269
 7641SOL     OW34381   0.854   1.552  15.796  0.3855 -0.2762 -0.5546
 7641SOL    HW134382   0.881   1.486  15.860 -2.5681  0.1733  1.1411
 7641SOL    HW234383   0.760   1.535  15.796  0.3554 -0.1144 -0.4257
 7642SOL     OW34384   1.942   0.821   9.670 -0.3587  0.0220 -0.0222
 7642SOL    HW134385   1.854   0.785   9.664 -0.0479 -0.5781 -1.0836
 7642SOL    HW234386   1.980   0.806   9.583  0.9236 -0.2942  0.5782
 7643SOL     OW34387   0.979   3.846   7.817 -0.1850  0.6015 -0.2019
 7643SOL    HW134388   1.044   3.915   7.805  1.8407 -1.1269  1.0270
 7643SOL    HW234389   0.931   3.873   7.896  0.3069 -0.0630  0.3178
 7644SOL     OW34390   1.646   3.897   2.866  0.3831  0.0032  0.2770
 7644SOL    HW134391   1.690   3.982   2.865  0.6442 -0.1180  0.8819
 7644SOL    HW234392   1.683   3.872   2.781  0.9506  0.1316  0.4861
 7645SOL     OW34393   2.017   0.926  15.376 -0.4280 -0.0120 -0.5470
 7645SOL    HW134394   1.967   0.862  15.426  1.3116  0.3243  1.6431
 7645SOL    HW234395   1.952   0.966  15.318  0.4280 -1.6146 -2.5991
 7646SOL     OW34396   1.112   0.545  15.819 -0.3208  0.4022 -0.4912
 7646SOL    HW134397   1.178   0.491  15.863  1.7808  1.6250 -2.1222
 7646SOL    HW234398   1.050   0.540  15.892 -0.0197 -0.4444 -0.2916
 7647SOL     OW34399   4.704   0.643   9.885 -0.2818  0.3123 -0.4779
 7647SOL    HW134400   0.036   0.711   9.846  0.0442  1.1027  1.3799
 7647SOL    HW234401   4.637   0.697   9.926 -0.8770 -2.0380  1.6072
 7648SOL     OW34402   4.106   2.852   1.202  0.3324 -0.2402 -0.2855
 7648SOL    HW134403   4.020   2.864   1.242 -0.4295 -2.8698 -1.1276
 7648SOL    HW234404   4.126   2.761   1.225 -2.6170 -0.9638 -0.6464
 7649SOL     OW34405   0.598   1.623   6.051 -0.4849  0.0206  0.1245
 7649SOL    HW134406   0.639   1.709   6.062 -2.2116  0.7267  1.2060
 7649SOL    HW234407   0.538   1.635   5.978 -0.4476 -0.4318  0.0208
 7650SOL     OW34408   0.683   3.486  14.777 -0.0584 -0.3891 -0.4724
 7650SOL    HW134409   0.703   3.556  14.715 -2.6402 -1.6867 -2.7752
 7650SOL    HW234410   0.740   3.500  14.853 -2.5740  0.2056  1.3220
 7651SOL     OW34411   2.228   1.162   9.126 -0.6423 -0.1108  1.1887
 7651SOL    HW134412   2.255   1.237   9.073 -1.3655 -2.3295 -2.3164
 7651SOL    HW234413   2.251   1.086   9.073  1.0450  1.2768 -0.0968
 7652SOL     OW34414   3.263   3.441  11.856 -0.0135  0.1372  0.2128
 7652SOL    HW134415   3.282   3.369  11.795  1.3482 -0.4746  1.3524
 7652SOL    HW234416   3.234   3.504  11.791  1.3046 -1.4484 -1.9338
 7653SOL     OW34417   1.054   3.389  12.444 -0.2825 -0.2223 -0.3520
 7653SOL    HW134418   1.007   3.320  12.491 -1.0126  0.0410 -0.7044
 7653SOL    HW234419   1.005   3.463  12.478  2.4781  2.3988 -2.0536
 7654SOL     OW34420   3.921   2.407   2.103 -0.0630  0.4481 -0.2660
 7654SOL    HW134421   3.891   2.317   2.094 -1.2839  1.0843 -2.4590
 7654SOL    HW234422   3.838   2.453   2.104  0.6143  1.6791 -0.6366
 7655SOL     OW34423   4.642   0.679   6.011 -0.5377 -0.0212 -0.4655
 7655SOL    HW134424   4.638   0.608   6.076  0.2426  0.5692  0.2210
 7655SOL    HW234425   4.557   0.716   6.036 -0.5315 -2.0450  2.5214
 7656SOL     OW34426   0.552   3.258   5.514 -0.4396 -0.0954 -0.3047
 7656SOL    HW134427   0.630   3.283   5.463 -0.7169  2.0180  0.3109
 7656SOL    HW234428   0.586   3.237   5.601 -0.5935 -0.7836 -0.4176
 7657SOL     OW34429   0.191   1.481   8.375  0.3136 -0.3308  0.7475
 7657SOL    HW134430   0.244   1.406   8.401  0.8614  0.4269  1.8429
 7657SOL    HW234431   0.235   1.517   8.298  0.5636  0.1922  1.1318
 7658SOL     OW34432   3.334   2.386   4.499  0.1885 -0.0021 -0.0943
 7658SOL    HW134433   3.378   2.301   4.498  0.9916  0.3637  2.2735
 7658SOL    HW234434   3.412   2.442   4.506  1.9226 -1.8060 -5.2024
 7659SOL     OW34435   3.989   4.667   7.795 -0.5444 -0.0206 -0.4415
 7659SOL    HW134436   3.979   4.611   7.872 -1.3626  1.1576  0.2947
 7659SOL    HW234437   3.964   0.032   7.821  0.0232 -0.2482  0.8936
 7660SOL     OW34438   0.808   1.376   6.361  0.5831 -0.2904 -0.1043
 7660SOL    HW134439   0.727   1.407   6.402 -0.2487 -0.5349 -1.5505
 7660SOL    HW234440   0.780   1.378   6.269 -1.0842 -3.4600  0.3476
 7661SOL     OW34441   4.590   1.360   6.380 -0.0205 -0.2948  0.5471
 7661SOL    HW134442   4.651   1.423   6.419  0.7616 -1.2636  0.8959
 7661SOL    HW234443   4.567   1.311   6.459 -2.0325 -0.1600  0.0371
 7662SOL     OW34444   1.286   3.492   5.091  0.0077  0.0104  0.7289
 7662SOL    HW134445   1.252   3.403   5.087 -0.3270  0.1799 -0.2863
 7662SOL    HW234446   1.210   3.542   5.063 -0.4500  0.1703  2.2512
 7663SOL     OW34447   2.511   3.309  10.816  0.1426  0.0041 -0.0848
 7663SOL    HW134448   2.485   3.233  10.764  0.0288 -0.3202  0.4451
 7663SOL    HW234449   2.602   3.284  10.833 -0.6100  0.5913  4.9713
 7664SOL     OW34450   4.505   0.002   1.002 -0.3665 -0.1828  0.3498
 7664SOL    HW134451   4.534   0.036   1.087 -2.7879  0.1761  1.0224
 7664SOL    HW234452   4.589   4.706   0.960 -0.8417  0.4199 -0.8536
 7665SOL     OW34453   2.179   4.374   2.543  0.3162  0.1222 -0.4796
 7665SOL    HW134454   2.120   4.395   2.470  1.1343  0.2005 -1.1147
 7665SOL    HW234455   2.249   4.337   2.489 -0.4643  0.0564 -1.4670
 7666SOL     OW34456   4.598   1.882   2.092  0.1262  0.5142  0.3571
 7666SOL    HW134457   4.623   1.971   2.069 -0.4047  0.4204 -0.5776
 7666SOL    HW234458   4.527   1.897   2.154 -0.9362  2.6703 -1.4495
 7667SOL     OW34459   1.171   2.434   5.308  0.0674 -0.4471  0.0477
 7667SOL    HW134460   1.172   2.495   5.382  3.0109  0.1707 -0.5276
 7667SOL    HW234461   1.250   2.383   5.323  0.5562 -0.1806 -1.5888
 7668SOL     OW34462   0.327   1.358   3.895 -0.2522  0.5430  0.4915
 7668SOL    HW134463   0.317   1.287   3.959  0.6929 -1.5866 -1.7069
 7668SOL    HW234464   0.384   1.313   3.832 -1.4670 -0.3571  0.0374
 7669SOL     OW34465   3.477   1.388   1.608  0.1084 -0.2564  0.1746
 7669SOL    HW134466   3.542   1.317   1.602 -1.3102 -1.4669 -0.8765
 7669SOL    HW234467   3.408   1.376   1.543 -0.7137  1.3881  0.7732
 7670SOL     OW34468   1.867   2.649  15.868  0.0205  0.0113 -0.0034
 7670SOL    HW134469   1.947   2.667  15.818 -0.8716  2.5963 -0.4802
 7670SOL    HW234470   1.800   2.634  15.801 -1.5747  3.7822  0.7749
 7671SOL     OW34471   4.567   1.957   2.819 -0.0024  0.0210 -0.1665
 7671SOL    HW134472   4.556   2.000   2.904  1.5160  0.6801 -0.2933
 7671SOL    HW234473   4.514   2.020   2.770 -0.1718  0.1545  0.1921
 7672SOL     OW34474   0.737   1.393  13.818 -0.1752 -0.4203  0.1823
 7672SOL    HW134475   0.693   1.436  13.892 -0.2688 -0.7819  0.3386
 7672SOL    HW234476   0.770   1.470  13.771  0.4494 -0.0930  1.1608
 7673SOL     OW34477   3.738   2.069   9.828  0.5034 -0.0920  0.4343
 7673SOL    HW134478   3.822   2.115   9.835 -0.1530  1.1249  0.4375
 7673SOL    HW234479   3.688   2.138   9.783  1.0121  0.7590  1.1642
 7674SOL     OW34480   2.342   1.271   3.913  0.4565 -0.1183 -0.2387
 7674SOL    HW134481   2.342   1.333   3.840  0.5564 -0.3559 -0.4405
 7674SOL    HW234482   2.247   1.274   3.922  0.2919  1.9986 -2.4823
 7675SOL     OW34483   3.925   3.115   7.012 -0.2224  0.4799  0.3242
 7675SOL    HW134484   3.877   3.116   7.095  0.5835 -1.5802  0.8205
 7675SOL    HW234485   3.865   3.160   6.953 -0.6144  1.7408  1.6873
 7676SOL     OW34486   0.124   4.206   9.150  0.0342 -0.1289 -0.8202
 7676SOL    HW134487   0.220   4.207   9.145  0.0894 -0.1344  0.3514
 7676SOL    HW234488   0.120   4.301   9.161 -0.5481 -0.1119 -1.2059
 7677SOL     OW34489   2.459   3.057  15.087  0.2367 -0.6622  0.1876
 7677SOL    HW134490   2.467   2.962  15.087 -0.2027 -0.6998 -0.0485
 7677SOL    HW234491   2.464   3.075  15.181  2.0072  1.9089 -0.3933
 7678SOL     OW34492   0.298   0.027  16.391  0.2301 -0.2966  0.3985
 7678SOL    HW134493   0.310   4.677  16.331  0.9601  0.1418  0.0146
 7678SOL    HW234494   0.377   0.080  16.380 -0.3058  0.5742  0.7326
 7679SOL     OW34495   2.973   0.886   5.245  0.1867 -0.2660  0.1162
 7679SOL    HW134496   2.955   0.928   5.161  0.6717  0.2570  0.2762
 7679SOL    HW234497   2.926   0.803   5.236  1.5713 -1.3256  2.8195
 7680SOL     OW34498   4.338   3.058   8.373  0.1410  0.4772 -0.4934
 7680SOL    HW134499   4.243   3.069   8.372  0.0317 -0.4225 -0.7105
 7680SOL    HW234500   4.352   2.965   8.389  0.6234  0.7203  0.5032
 7681SOL     OW34501   1.095   4.526   4.862  0.3281 -0.6335  0.1165
 7681SOL    HW134502   1.162   4.464   4.835  1.4676  0.9610 -0.7338
 7681SOL    HW234503   1.146   4.604   4.885  1.1379 -0.8762 -0.8923
 7682SOL     OW34504   3.147   4.407   8.865  0.6285  0.3601 -0.4038
 7682SOL    HW134505   3.205   4.481   8.886  1.7071 -0.5099 -0.3434
 7682SOL    HW234506   3.207   4.344   8.904 -1.2073 -1.6939 -0.9251
 7683SOL     OW34507   3.350   2.561   3.086  0.2176 -0.0472 -0.6542
 7683SOL    HW134508   3.436   2.571   3.047 -0.0401  1.0753 -0.9466
 7683SOL    HW234509   3.372   2.491   3.147  0.8947 -0.2895 -1.1827
 7684SOL     OW34510   4.519   0.811   0.444  0.2051  0.5985  0.1654
 7684SOL    HW134511   4.445   0.793   0.501  1.1679 -2.4332  0.4617
 7684SOL    HW234512   4.482   0.860   0.370  2.1378 -1.3329 -2.0808
 7685SOL     OW34513   0.793   0.264   3.821 -0.3486  0.1925 -0.0737
 7685SOL    HW134514   0.867   0.318   3.793 -0.5052  0.6452  0.3885
 7685SOL    HW234515   0.720   0.303   3.773  1.4513  2.2251 -1.1912
 7686SOL     OW34516   2.587   0.108  10.536 -0.2085  0.2500 -1.3379
 7686SOL    HW134517   2.618   0.115  10.446 -0.4214  1.3926 -1.3194
 7686SOL    HW234518   2.662   0.065  10.579 -0.0405 -0.1988 -2.0872
 7687SOL     OW34519   4.683   2.926   2.695 -0.6937  0.1843  0.1203
 7687SOL    HW134520   0.054   2.924   2.712 -0.7371 -4.1760  0.0431
 7687SOL    HW234521   4.671   2.982   2.618 -0.4556  0.9980  0.6818
 7688SOL     OW34522   3.790   4.040   7.301 -0.2086  0.0123 -1.0472
 7688SOL    HW134523   3.793   4.047   7.206  0.5538  4.0746 -0.7259
 7688SOL    HW234524   3.772   4.129   7.332 -0.0670 -0.8773  1.6733
 7689SOL     OW34525   4.010   0.998  17.672 -1.0432  0.3522  0.1902
 7689SOL    HW134526   3.993   1.047   0.059 -0.4676 -0.9278  1.1025
 7689SOL    HW234527   3.918   0.996  17.644 -1.1501  2.7190  0.4204
 7690SOL     OW34528   3.085   4.483   8.602 -0.2249 -0.5036 -0.4158
 7690SOL    HW134529   3.080   4.571   8.639  1.2012 -1.2233  1.4404
 7690SOL    HW234530   3.122   4.426   8.670  1.8020  1.6395  0.2823
 7691SOL     OW34531   0.819   3.126   2.560  0.8124 -0.3344  0.1407
 7691SOL    HW134532   0.747   3.066   2.575  0.5414 -0.4244 -1.5179
 7691SOL    HW234533   0.802   3.168   2.476  1.1432 -1.9683 -0.7351
 7692SOL     OW34534   1.421   0.943  16.146 -0.2974 -0.0215  0.8416
 7692SOL    HW134535   1.513   0.929  16.125 -0.5288 -2.6183  1.5286
 7692SOL    HW234536   1.399   0.875  16.210 -1.0206 -0.3230  0.2759
 7693SOL     OW34537   4.515   2.198  16.643 -0.3130  0.4243  0.2795
 7693SOL    HW134538   4.541   2.274  16.592  2.0605 -0.4727  0.1509
 7693SOL    HW234539   4.597   2.160  16.676  0.0593 -0.9688 -2.2890
 7694SOL     OW34540   2.839   0.366   1.130  0.4453  0.4351 -0.2010
 7694SOL    HW134541   2.883   0.425   1.192 -0.5100 -0.7812  1.6118
 7694SOL    HW234542   2.764   0.345   1.185  0.8188  0.7194  0.4145
 7695SOL     OW34543   4.264   1.839   6.876 -0.1653  0.6171  0.0406
 7695SOL    HW134544   4.288   1.883   6.794 -0.3925 -0.8850 -0.8385
 7695SOL    HW234545   4.171   1.862   6.883  0.0488  0.4097  3.2970
 7696SOL     OW34546   4.031   3.753   2.711 -0.0112  0.1235  0.1501
 7696SOL    HW134547   4.001   3.782   2.797  1.2206  0.7853  0.3476
 7696SOL    HW234548   3.950   3.759   2.659  1.4794 -0.7547 -2.2637
 7697SOL     OW34549   3.495   1.925   3.147 -0.6244 -0.3298 -0.6892
 7697SOL    HW134550   3.444   1.934   3.227  0.7932 -1.4592  0.3491
 7697SOL    HW234551   3.504   1.832   3.129  3.0480 -0.6852  2.8646
 7698SOL     OW34552   4.600   0.756   4.526  0.5257 -0.6498  0.1904
 7698SOL    HW134553   4.622   0.785   4.615  1.0012 -1.1436  0.2318
 7698SOL    HW234554   4.534   0.697   4.563 -2.3724  1.0967 -2.2338
 7699SOL     OW34555   4.357   0.350   6.774 -0.1508 -0.2402  0.0418
 7699SOL    HW134556   4.401   0.389   6.849 -2.2470  0.3581  0.9415
 7699SOL    HW234557   4.406   0.267   6.775  0.1210 -0.0696  0.5679
 7700SOL     OW34558   1.101   3.319  13.187 -0.2185  0.2537  0.7698
 7700SOL    HW134559   1.065   3.234  13.214  2.4415 -2.2227 -3.3176
 7700SOL    HW234560   1.191   3.289  13.171 -0.0597  1.7369 -1.0546
 7701SOL     OW34561   4.104   0.559  13.659 -0.3036  0.2550 -0.5052
 7701SOL    HW134562   4.137   0.648  13.674  0.8338  0.0706 -1.9360
 7701SOL    HW234563   4.010   0.575  13.647 -0.1311  0.6551 -1.3785
 7702SOL     OW34564   2.082   2.669  17.035  0.2196  0.5113  0.8652
 7702SOL    HW134565   2.132   2.741  16.996 -0.4788  1.4060  1.6406
 7702SOL    HW234566   2.138   2.649  17.110  0.4236  0.1791  0.6249
 7703SOL     OW34567   3.079   3.945   1.215  0.3661  0.2589 -0.2886
 7703SOL    HW134568   3.149   3.916   1.273 -1.1000 -0.7820  0.9641
 7703SOL    HW234569   3.012   3.916   1.277  0.0649  2.6753  0.5246
 7704SOL     OW34570   0.786   0.263   3.430  0.3079 -0.6428 -0.1169
 7704SOL    HW134571   0.838   0.190   3.462 -0.9431 -1.2477  0.5360
 7704SOL    HW234572   0.831   0.339   3.466 -0.2515  0.3894 -1.5972
 7705SOL     OW34573   1.826   3.437   7.874 -0.1473  0.3008  0.8386
 7705SOL    HW134574   1.815   3.511   7.934  1.2121  1.6875 -0.6137
 7705SOL    HW234575   1.831   3.483   7.790 -1.6651  0.5738  0.8943
 7706SOL     OW34576   4.698   0.710   1.723  0.0127 -0.5123 -0.2142
 7706SOL    HW134577   4.656   0.625   1.727  0.1678 -0.6523 -1.5942
 7706SOL    HW234578   0.021   0.697   1.806 -0.8330  0.6746  0.4461
 7707SOL     OW34579   4.271   2.283  14.032  0.3661  0.2693 -0.3653
 7707SOL    HW134580   4.346   2.343  14.037  0.4720  0.1703 -0.7817
 7707SOL    HW234581   4.227   2.305  13.950 -0.9722  0.0340  0.3006
 7708SOL     OW34582   0.784   3.462   2.043  0.1994  0.3034  0.2375
 7708SOL    HW134583   0.852   3.417   2.092 -0.1791 -0.1091  0.3794
 7708SOL    HW234584   0.818   3.543   2.003  2.0074 -0.1557  0.8850
 7709SOL     OW34585   3.693   4.457   1.547 -0.6046  0.2580 -0.8039
 7709SOL    HW134586   3.622   4.503   1.591 -1.4557 -0.2192 -1.6693
 7709SOL    HW234587   3.717   4.412   1.628  0.3959  1.6822 -0.2981
 7710SOL     OW34588   4.207   0.337   4.931  0.4088  0.0939 -0.1886
 7710SOL    HW134589   4.293   0.324   4.891  0.9686 -0.0604  1.0671
 7710SOL    HW234590   4.145   0.278   4.887 -0.7981 -0.6203  2.4544
 7711SOL     OW34591   2.540   4.260   2.798  0.4276 -0.1341  0.1471
 7711SOL    HW134592   2.476   4.221   2.857  0.1912 -1.0432 -0.7109
 7711SOL    HW234593   2.599   4.186   2.784 -2.3874 -2.4814  0.9035
 7712SOL     OW34594   2.926   2.490   2.652 -0.4630 -0.5229  0.1289
 7712SOL    HW134595   2.904   2.542   2.729 -0.9618 -1.3417  0.5349
 7712SOL    HW234596   2.844   2.442   2.640 -1.2209  1.2654 -1.7668
 7713SOL     OW34597   4.421   0.346   1.107 -0.0633  0.2837 -0.0343
 7713SOL    HW134598   4.332   0.378   1.098 -0.4054 -0.8066 -0.5579
 7713SOL    HW234599   4.411   0.278   1.174 -3.1524 -0.0585 -0.8732
 7714SOL     OW34600   1.639   3.451   8.769  0.0522 -0.1306  0.1073
 7714SOL    HW134601   1.635   3.450   8.674 -1.0107 -0.0498  0.1508
 7714SOL    HW234602   1.553   3.412   8.784 -1.1872  2.0590 -1.1758
 7715SOL     OW34603   0.343   2.528   0.145 -0.5924  0.4796  0.0223
 7715SOL    HW134604   0.381   2.451   0.187  0.2666  1.6616  1.4283
 7715SOL    HW234605   0.385   2.605   0.183  1.8875 -1.9419  2.2476
 7716SOL     OW34606   1.763   2.655  12.097 -0.2722 -0.3810 -0.1491
 7716SOL    HW134607   1.794   2.745  12.084 -0.9361  0.1702  2.0026
 7716SOL    HW234608   1.692   2.651  12.033 -1.8293  1.7196  1.3864
 7717SOL     OW34609   4.599   1.750  11.120 -0.1640 -0.1694 -0.3019
 7717SOL    HW134610   4.640   1.827  11.082 -0.4901  0.9574  1.6525
 7717SOL    HW234611   4.639   1.677  11.073 -0.8980 -0.3790 -0.6104
 7718SOL     OW34612   0.440   4.306  17.100 -0.1354 -0.4073  0.2300
 7718SOL    HW134613   0.444   4.255  17.182  0.4541  2.3860  1.9403
 7718SOL    HW234614   0.389   4.253  17.039  1.0511 -0.5652 -0.6202
 7719SOL     OW34615   1.147   3.375   7.517  0.4493 -0.9829  0.4495
 7719SOL    HW134616   1.128   3.455   7.469  0.7005  0.6829  3.1200
 7719SOL    HW234617   1.066   3.353   7.564 -0.1176  1.6291  0.6594
 7720SOL     OW34618   1.182   4.596   2.733  0.6086 -0.5344 -0.8407
 7720SOL    HW134619   1.088   4.580   2.738  0.8264 -2.0665 -1.6113
 7720SOL    HW234620   1.189   4.628   2.643  0.1161  0.5185 -0.5010
 7721SOL     OW34621   4.089   0.675   0.783 -0.6087  0.7408 -0.0041
 7721SOL    HW134622   4.104   0.647   0.873 -0.4325  0.4794 -0.1151
 7721SOL    HW234623   3.997   0.699   0.795 -0.7966 -0.0324  0.0960
 7722SOL     OW34624   1.573   4.308   5.711 -0.3627 -0.0474  0.3284
 7722SOL    HW134625   1.645   4.261   5.754 -0.2485 -0.0553  0.1311
 7722SOL    HW234626   1.539   4.333   5.797  0.0459  0.3088  0.3866
 7723SOL     OW34627   4.073   3.132   8.066  0.3987 -0.1591  0.1747
 7723SOL    HW134628   3.984   3.136   8.030 -0.5968  3.1256  2.9230
 7723SOL    HW234629   4.101   3.224   8.060 -0.0495 -0.0209  0.1582
 7724SOL     OW34630   1.007   2.041   9.707 -0.4914 -0.2462  0.4627
 7724SOL    HW134631   0.956   2.113   9.670 -1.3637 -1.2450 -0.2761
 7724SOL    HW234632   1.014   2.072   9.797  0.3236  0.0655  0.2891
 7725SOL     OW34633   0.249   0.643   3.036  0.6579  0.5568 -0.0213
 7725SOL    HW134634   0.227   0.699   3.111 -2.6361  0.0177 -0.5724
 7725SOL    HW234635   0.254   0.558   3.079  0.8019  0.4458 -0.2585
 7726SOL     OW34636   2.052   2.847   8.016 -0.4736 -0.8487 -0.6448
 7726SOL    HW134637   2.111   2.793   8.069 -0.5853 -1.4344 -1.1159
 7726SOL    HW234638   2.040   2.923   8.072  1.2992 -0.3899 -0.9085
 7727SOL     OW34639   0.553   4.548   5.968 -0.3288  0.0744 -0.2248
 7727SOL    HW134640   0.494   4.595   6.028  1.3424  0.6222  0.9909
 7727SOL    HW234641   0.489   4.536   5.898 -0.4896  0.4102 -0.1378
 7728SOL     OW34642   1.558   2.032   5.258  0.4037 -0.1980 -0.6265
 7728SOL    HW134643   1.573   1.955   5.203  1.1082  0.0215 -0.7434
 7728SOL    HW234644   1.590   2.095   5.193  2.6646  0.1782  0.8623
 7729SOL     OW34645   0.542   0.491   1.321  0.0420 -0.2068 -0.2299
 7729SOL    HW134646   0.470   0.438   1.285 -0.9673  1.7686 -1.1324
 7729SOL    HW234647   0.532   0.483   1.416  1.1566  0.4998 -0.0624
 7730SOL     OW34648   2.029   4.189   9.738 -0.1937 -0.3241  0.2993
 7730SOL    HW134649   2.007   4.112   9.686  0.4036  0.5402 -1.2112
 7730SOL    HW234650   1.968   4.170   9.810 -2.6717 -1.4446 -2.0807
 7731SOL     OW34651   0.699   0.270   1.737  0.0405 -0.4428 -0.2085
 7731SOL    HW134652   0.664   0.296   1.652  0.3064 -0.9045 -0.4584
 7731SOL    HW234653   0.674   0.178   1.736  0.5825 -0.6004  0.6056
 7732SOL     OW34654   3.986   1.763   2.117 -0.2528  0.6476 -0.5019
 7732SOL    HW134655   4.027   1.733   2.198  1.5199 -0.1155 -1.6794
 7732SOL    HW234656   4.020   1.687   2.070 -3.3701 -0.7001 -0.5627
 7733SOL     OW34657   4.028   4.095   2.019 -0.2247  0.2027 -0.3560
 7733SOL    HW134658   4.041   4.013   2.066  0.9242 -0.0006 -1.0469
 7733SOL    HW234659   3.982   4.139   2.091 -1.1375 -2.0505  0.4492
 7734SOL     OW34660   2.900   2.220   0.108  0.2832  0.4592 -0.2985
 7734SOL    HW134661   2.947   2.140   0.085 -0.2771 -0.2436  0.9824
 7734SOL    HW234662   2.920   2.248   0.198  0.7774 -0.8584 -0.0039
 7735SOL     OW34663   3.182   1.141   4.300  0.8125  0.7085  0.5673
 7735SOL    HW134664   3.123   1.154   4.226  0.8932 -0.1119  0.3562
 7735SOL    HW234665   3.114   1.126   4.366  0.7033  3.7216  1.1286
 7736SOL     OW34666   2.431   4.196  13.189  0.3845  0.0827 -0.3038
 7736SOL    HW134667   2.409   4.204  13.282 -0.7663 -1.3658 -0.4450
 7736SOL    HW234668   2.347   4.155  13.166 -0.8864  1.4234  1.8908
 7737SOL     OW34669   4.172   0.251   7.896 -0.0337  0.4915 -0.3742
 7737SOL    HW134670   4.243   0.305   7.932  0.5662 -0.9987  0.6563
 7737SOL    HW234671   4.126   0.220   7.973 -2.8937  2.2252 -1.3877
 7738SOL     OW34672   3.705   0.530   5.521 -0.7358  0.1183 -0.4770
 7738SOL    HW134673   3.761   0.500   5.593 -1.4418  2.5501  1.0709
 7738SOL    HW234674   3.621   0.500   5.555 -1.5521  0.7960 -1.9403
 7739SOL     OW34675   0.436   3.750  10.565 -0.0547 -0.5575  0.5508
 7739SOL    HW134676   0.506   3.810  10.589  0.6185 -0.9271 -0.5189
 7739SOL    HW234677   0.466   3.713  10.482  0.7056 -1.0509  1.0446
 7740SOL     OW34678   3.504   4.523   6.942  0.1628 -0.1641 -0.3914
 7740SOL    HW134679   3.410   4.523   6.927  0.1885  0.7078 -0.5590
 7740SOL    HW234680   3.505   4.500   7.035 -1.5588 -1.4843 -0.7073
 7741SOL     OW34681   0.257   4.173   8.086  0.2762 -0.6119 -0.1099
 7741SOL    HW134682   0.283   4.217   8.005 -1.7549  1.1336  0.2055
 7741SOL    HW234683   0.163   4.165   8.071  0.3780 -0.1449 -1.0438
 7742SOL     OW34684   0.288   1.513   9.195 -0.3542 -0.4194 -0.5442
 7742SOL    HW134685   0.244   1.433   9.167 -0.7169 -0.4104  0.0126
 7742SOL    HW234686   0.336   1.532   9.114  0.5466  0.7785  0.2654
 7743SOL     OW34687   2.877   0.895   5.794 -0.5699 -0.4994 -0.1482
 7743SOL    HW134688   2.948   0.837   5.822 -2.4751 -1.6647  2.1310
 7743SOL    HW234689   2.903   0.923   5.706 -1.1699  1.5749  0.3352
 7744SOL     OW34690   0.650   3.467  15.201  0.2992  0.2597  0.5872
 7744SOL    HW134691   0.644   3.433  15.112  1.6662  2.3671 -0.2939
 7744SOL    HW234692   0.561   3.441  15.226  0.2492 -1.8264 -1.7693
 7745SOL     OW34693   1.063   2.049  14.567  0.4295 -0.0331 -0.1925
 7745SOL    HW134694   0.999   2.036  14.496  1.8630 -0.9792 -1.2996
 7745SOL    HW234695   1.004   2.026  14.639 -0.9684 -0.3138 -1.4157
 7746SOL     OW34696   1.165   2.810   6.644  0.4652  0.4263 -1.0748
 7746SOL    HW134697   1.143   2.718   6.657  0.3056  0.4916 -0.8697
 7746SOL    HW234698   1.179   2.836   6.735 -3.5520 -0.2794 -0.2603
 7747SOL     OW34699   0.940   4.313   7.816  0.2265  0.1391  0.2359
 7747SOL    HW134700   0.946   4.385   7.753 -1.0494 -1.9473 -2.2768
 7747SOL    HW234701   0.991   4.248   7.769 -0.5184  0.1435 -0.5786
 7748SOL     OW34702   0.336   3.030   6.915  0.0950  0.4170 -0.0818
 7748SOL    HW134703   0.294   2.959   6.963  1.5253 -0.1415  0.3429
 7748SOL    HW234704   0.275   3.048   6.844  0.9669  1.2975 -0.6180
 7749SOL     OW34705   2.164   0.812  13.887  0.3632  0.2517 -0.1194
 7749SOL    HW134706   2.091   0.841  13.832  2.0879 -0.8273 -3.0242
 7749SOL    HW234707   2.119   0.800  13.971 -2.1971  1.0346 -1.3810
 7750SOL     OW34708   4.601   0.141   1.283 -0.2344  0.4271  0.3474
 7750SOL    HW134709   4.582   0.216   1.339  1.6556  0.8489  0.4067
 7750SOL    HW234710   4.583   0.061   1.332 -0.6285 -0.9356 -2.0077
 7751SOL     OW34711   2.629   1.650   9.270 -0.4808 -0.1235  0.3277
 7751SOL    HW134712   2.669   1.571   9.308  0.2903 -0.5600 -1.3791
 7751SOL    HW234713   2.690   1.720   9.292  0.4605 -0.8363 -0.0165
 7752SOL     OW34714   1.948   0.093   7.144  0.4322  0.1364  0.0445
 7752SOL    HW134715   1.879   0.151   7.112 -1.4342 -2.1979 -0.1662
 7752SOL    HW234716   1.971   0.053   7.060  1.5049 -0.9417  0.8592
 7753SOL     OW34717   4.228   2.892   8.026 -0.4374 -0.0064  0.5505
 7753SOL    HW134718   4.205   2.869   7.937  0.9020 -0.4633  0.3214
 7753SOL    HW234719   4.159   2.954   8.051 -0.3109  0.5678 -0.5410
 7754SOL     OW34720   0.438   1.020   8.104  0.3143 -0.2950 -0.3248
 7754SOL    HW134721   0.412   1.112   8.104 -0.2330 -0.4495  0.3358
 7754SOL    HW234722   0.364   0.972   8.143 -1.0679  1.1340 -1.1930
 7755SOL     OW34723   1.533   4.114   7.754 -0.0888  0.5372 -0.4241
 7755SOL    HW134724   1.516   4.181   7.687  0.5909  2.0245  0.8767
 7755SOL    HW234725   1.453   4.108   7.805  1.3995 -0.6963  1.7717
 7756SOL     OW34726   0.643   0.453  10.868 -0.7291  0.2792 -0.7490
 7756SOL    HW134727   0.672   0.362  10.866 -0.7124  0.2737 -0.2979
 7756SOL    HW234728   0.574   0.440  10.934  0.2367 -0.8840  0.0359
 7757SOL     OW34729   1.445   0.436  14.874  0.2800 -0.5762 -0.2493
 7757SOL    HW134730   1.534   0.454  14.905 -0.1953  0.1664  0.6665
 7757SOL    HW234731   1.403   0.512  14.835  1.2387  0.5056  0.8174
 7758SOL     OW34732   1.302   4.461   7.970  0.4387  0.3603  0.7845
 7758SOL    HW134733   1.340   4.433   8.053  0.9236 -1.2010  0.0140
 7758SOL    HW234734   1.275   4.377   7.935 -1.9130  1.9703 -1.3097
 7759SOL     OW34735   4.622   3.001   6.018  0.2502 -0.1300  0.3968
 7759SOL    HW134736   4.571   2.929   5.982  0.0071  1.2070 -1.8813
 7759SOL    HW234737   4.705   2.954   6.031  0.7369  0.7492  0.4591
 7760SOL     OW34738   3.479   3.967  16.010 -0.4594 -0.2764 -0.0828
 7760SOL    HW134739   3.519   3.892  15.967 -0.9726 -0.0745 -0.9174
 7760SOL    HW234740   3.550   4.023  16.041 -0.7088  0.5982 -1.0841
 7761SOL     OW34741   4.039   1.510   4.501 -0.1445 -0.1535  0.5345
 7761SOL    HW134742   3.990   1.549   4.573 -3.6458 -1.5888 -1.0839
 7761SOL    HW234743   4.129   1.535   4.525 -0.9044  0.8192  2.3282
 7762SOL     OW34744   1.480   0.240   3.147  0.0123  0.2304 -0.0679
 7762SOL    HW134745   1.405   0.185   3.125  0.6018 -1.6970  2.7341
 7762SOL    HW234746   1.461   0.247   3.241 -0.3067  0.5796 -0.1592
 7763SOL     OW34747   0.784   0.138   4.759  0.6340  1.0846 -0.2211
 7763SOL    HW134748   0.846   0.074   4.724  1.7285  2.2162 -0.3495
 7763SOL    HW234749   0.793   0.123   4.853 -0.8593  2.5498  0.1532
 7764SOL     OW34750   2.505   2.636  10.102  0.0050 -0.5301 -0.4569
 7764SOL    HW134751   2.421   2.622  10.145  1.2469 -1.0721  1.7523
 7764SOL    HW234752   2.558   2.676  10.171 -1.5347 -0.8567  0.9114
 7765SOL     OW34753   1.622   0.028   5.874  0.4671 -0.0970  0.0046
 7765SOL    HW134754   1.549   4.696   5.846  1.9914 -1.9727 -0.3003
 7765SOL    HW234755   1.691   4.688   5.854 -0.0883 -0.7242  0.0538
 7766SOL     OW34756   4.544   2.495   4.651 -0.9407 -0.0775 -0.3591
 7766SOL    HW134757   4.528   2.590   4.649 -1.7551 -0.1944  0.4561
 7766SOL    HW234758   4.634   2.500   4.683 -1.5832  1.3905  1.2534
 7767SOL     OW34759   3.204   0.360   3.669 -0.4776 -0.6279  0.2364
 7767SOL    HW134760   3.133   0.331   3.726 -0.2286  1.2566  1.4947
 7767SOL    HW234761   3.146   0.394   3.601 -0.3971 -0.3956  0.2864
 7768SOL     OW34762   2.374   2.475   6.262 -0.5774 -0.0390 -0.2567
 7768SOL    HW134763   2.297   2.424   6.237  0.3132 -1.7410  0.4603
 7768SOL    HW234764   2.375   2.457   6.356  1.2343 -4.0651 -1.0788
 7769SOL     OW34765   0.600   3.857   0.691 -0.4009  0.1121  0.0855
 7769SOL    HW134766   0.577   3.766   0.709  0.9141 -0.1293  0.5225
 7769SOL    HW234767   0.655   3.836   0.615 -0.5350  1.9527 -0.5311
 7770SOL     OW34768   4.633   3.834   8.042  0.8483  0.3479  0.0701
 7770SOL    HW134769   0.001   3.864   8.038  0.8342  0.0817 -2.0016
 7770SOL    HW234770   4.596   3.884   7.969  0.1051 -0.9991 -0.4720
 7771SOL     OW34771   0.796   0.022  17.134  0.6262 -0.2886  0.3664
 7771SOL    HW134772   0.843   0.094  17.175 -0.1038  0.8253 -0.7952
 7771SOL    HW234773   0.710   0.060  17.117  1.6745  1.4748 -0.9344
 7772SOL     OW34774   3.562   1.083   1.033 -0.1026 -0.1301 -0.2113
 7772SOL    HW134775   3.631   1.065   0.968 -0.7200 -0.0524 -0.8842
 7772SOL    HW234776   3.506   1.140   0.981 -3.8840 -2.8528  0.8496
 7773SOL     OW34777   3.231   2.272   9.988 -0.1599  0.6576  0.5720
 7773SOL    HW134778   3.137   2.287   9.979 -0.3945 -0.3179  1.3655
 7773SOL    HW234779   3.235   2.210  10.062 -0.2834 -0.1311 -0.0811
 7774SOL     OW34780   2.684   4.706   4.547 -0.6307 -0.4949 -0.1625
 7774SOL    HW134781   2.676   0.077   4.529  0.2768 -0.4298 -0.1880
 7774SOL    HW234782   2.665   4.711   4.641 -0.8858 -0.0138 -0.2379
 7775SOL     OW34783   3.789   2.696   7.250  0.4564  0.1247 -0.2527
 7775SOL    HW134784   3.838   2.736   7.177  1.1269  0.4643  0.3808
 7775SOL    HW234785   3.819   2.605   7.245 -1.9401 -0.6705  0.1548
 7776SOL     OW34786   0.881   4.692   5.290 -0.5136  0.3717 -0.1742
 7776SOL    HW134787   0.887   0.062   5.266 -3.5845  0.8558  0.9632
 7776SOL    HW234788   0.893   4.646   5.207  2.6862  1.3406 -0.2712
 7777SOL     OW34789   1.366   0.871   6.260  0.5018  0.1154  0.4279
 7777SOL    HW134790   1.313   0.947   6.235  0.9997  0.3153 -0.0423
 7777SOL    HW234791   1.438   0.887   6.198  0.8004  0.1277  0.7782
 7778SOL     OW34792   1.030   3.774   5.812 -0.1728 -0.2119  0.0741
 7778SOL    HW134793   0.986   3.690   5.795 -1.9448  0.6162  0.5734
 7778SOL    HW234794   0.955   3.828   5.837  1.2308 -0.1747  4.1682
 7779SOL     OW34795   1.284   4.366   3.453 -0.5584  0.8338 -0.0998
 7779SOL    HW134796   1.353   4.409   3.402 -0.6510  0.5824 -0.4277
 7779SOL    HW234797   1.335   4.292   3.485 -4.3634 -1.0246  1.6490
 7780SOL     OW34798   0.766   0.822  17.614 -0.3666  0.3709  0.7560
 7780SOL    HW134799   0.814   0.769  17.679  0.6680  2.4666  1.7126
 7780SOL    HW234800   0.801   0.907  17.640  0.8101 -0.1209  0.8056
 7781SOL     OW34801   2.786   1.060   1.852 -0.0728 -0.3657 -0.4235
 7781SOL    HW134802   2.719   1.074   1.919  0.3379  0.7492 -0.2452
 7781SOL    HW234803   2.776   0.972   1.817  2.5536 -1.0357  0.4814
 7782SOL     OW34804   4.390   3.169   5.043 -0.4564 -0.3470  0.0592
 7782SOL    HW134805   4.335   3.105   4.997 -2.6259  1.4808  0.1356
 7782SOL    HW234806   4.344   3.187   5.125  0.2241 -3.2150  1.0793
 7783SOL     OW34807   0.495   2.837  11.090 -0.0938  0.3527 -0.2280
 7783SOL    HW134808   0.402   2.859  11.092 -0.5136 -1.3684 -0.7441
 7783SOL    HW234809   0.498   2.741  11.090  3.1764  0.4374 -0.4838
 7784SOL     OW34810   4.600   0.064   5.202  0.2564 -0.6404  0.7069
 7784SOL    HW134811   4.581   4.712   5.145  1.6137 -1.4276  1.3011
 7784SOL    HW234812   4.695   0.059   5.197  0.2341 -0.6642  0.2942
 7785SOL     OW34813   4.335   0.687   7.467 -0.1109  0.4953  0.1915
 7785SOL    HW134814   4.427   0.681   7.495  0.3318  2.7141 -0.7309
 7785SOL    HW234815   4.315   0.768   7.515  0.2136  0.5463  0.2456
 7786SOL     OW34816   0.679   0.829   8.496 -0.2303 -0.1956  0.1140
 7786SOL    HW134817   0.683   0.737   8.523  2.0534 -0.0858  0.2068
 7786SOL    HW234818   0.592   0.820   8.456 -0.7708 -0.1321  1.2954
 7787SOL     OW34819   1.082   1.081   7.958  0.4760 -0.2910  0.1243
 7787SOL    HW134820   1.145   1.103   8.027 -1.1428 -0.7580  1.7495
 7787SOL    HW234821   1.073   0.987   7.972 -0.3443 -0.5437 -2.1003
 7788SOL     OW34822   4.548   0.738  14.266 -1.0142 -0.4384 -0.4893
 7788SOL    HW134823   4.642   0.724  14.280 -0.4089  3.3068 -0.8441
 7788SOL    HW234824   4.506   0.754  14.350  0.6257 -2.8873  0.8041
 7789SOL     OW34825   3.187   3.418  15.808  0.5601  0.2683 -0.0619
 7789SOL    HW134826   3.129   3.476  15.759  0.0681 -1.3019 -1.3548
 7789SOL    HW234827   3.209   3.340  15.757 -1.6976 -0.1985 -0.2984
 7790SOL     OW34828   3.924   2.697   9.099 -0.5272  0.1637 -0.1154
 7790SOL    HW134829   3.903   2.745   9.019 -1.4091  1.1670  0.7218
 7790SOL    HW234830   3.897   2.610   9.073 -0.1762  0.3646 -1.1343
 7791SOL     OW34831   1.749   1.909  17.577  0.6599  0.1343 -0.4371
 7791SOL    HW134832   1.712   1.970  17.641  1.1993 -0.1183  0.1127
 7791SOL    HW234833   1.738   1.957  17.495  2.6454 -2.0341 -1.9693
 7792SOL     OW34834   0.089   2.815   2.180 -0.6708 -0.3133  0.2314
 7792SOL    HW134835   0.150   2.819   2.254 -0.5386  0.3700  0.0877
 7792SOL    HW234836   0.087   2.908   2.156  0.4336 -0.7704 -1.6341
 7793SOL     OW34837   3.395   1.872  11.721 -0.1509  0.5440 -0.0248
 7793SOL    HW134838   3.401   1.861  11.815  1.5875 -0.0546 -0.2033
 7793SOL    HW234839   3.374   1.964  11.704  1.4796  0.7077 -1.2152
 7794SOL     OW34840   2.594   2.230   6.739  0.0902  0.0258 -0.0375
 7794SOL    HW134841   2.648   2.164   6.782 -0.7606  0.0940  1.1310
 7794SOL    HW234842   2.557   2.183   6.664  1.9761  0.8561 -1.4973
 7795SOL     OW34843   2.667   3.377  13.113 -0.5564  0.3749 -0.3739
 7795SOL    HW134844   2.649   3.283  13.117 -1.5757  0.6560  2.1189
 7795SOL    HW234845   2.630   3.398  13.028  1.5169 -1.4610 -1.7304
 7796SOL     OW34846   1.880   2.095   4.961 -0.8360  0.0051 -0.5752
 7796SOL    HW134847   1.799   2.068   4.916 -0.2629 -0.6453 -1.2202
 7796SOL    HW234848   1.854   2.187   4.971  0.6512  0.1253  2.0932
 7797SOL     OW34849   0.111   1.820   8.995  0.1413 -0.9322  0.4835
 7797SOL    HW134850   0.090   1.853   9.082 -0.7017  1.0262 -0.4443
 7797SOL    HW234851   0.202   1.804   9.020  0.7031 -0.3244 -1.1455
 7798SOL     OW34852   1.076   2.184   7.182 -0.8079 -0.2339  0.3523
 7798SOL    HW134853   1.148   2.232   7.222 -1.0016 -0.7368  1.3194
 7798SOL    HW234854   1.104   2.154   7.096  0.5403 -2.0648  1.4292
 7799SOL     OW34855   4.373   0.534   1.580 -0.3720 -0.0846  0.5379
 7799SOL    HW134856   4.350   0.625   1.599  0.0897 -0.1162  1.2486
 7799SOL    HW234857   4.340   0.481   1.652 -2.1524 -0.1073 -0.2990
 7800SOL     OW34858   0.443   2.336   5.227  0.1610 -0.2522 -0.0451
 7800SOL    HW134859   0.453   2.266   5.162  0.7559  0.4475 -0.7061
 7800SOL    HW234860   0.503   2.393   5.179  0.8109 -0.4560  0.5107
 7801SOL     OW34861   1.994   0.401   1.842  0.5406  0.4353  0.0473
 7801SOL    HW134862   2.002   0.495   1.860  0.7597  0.5969 -0.8701
 7801SOL    HW234863   2.014   0.394   1.748  1.1216  1.6551  0.0777
 7802SOL     OW34864   4.264   0.362   0.085  0.2947 -0.5616  0.0584
 7802SOL    HW134865   4.171   0.385   0.094 -0.0435 -2.3569  1.0110
 7802SOL    HW234866   4.294   0.387   0.173  0.0931 -0.7150  0.1698
 7803SOL     OW34867   1.878   4.183   5.213 -0.6508 -0.2813 -0.2721
 7803SOL    HW134868   1.785   4.194   5.194 -0.8440 -2.2347 -0.4555
 7803SOL    HW234869   1.897   4.091   5.195  0.5486 -0.6582  2.9523
 7804SOL     OW34870   2.702   3.108   3.112 -0.1747 -0.3468 -0.8888
 7804SOL    HW134871   2.673   3.033   3.164  1.6109 -0.5059 -0.1274
 7804SOL    HW234872   2.664   3.084   3.028 -2.2171 -0.2743  0.0134
 7805SOL     OW34873   1.738   0.098   8.468  0.4339 -0.2540  0.2994
 7805SOL    HW134874   1.708   0.115   8.557 -1.7863 -2.7171  0.0209
 7805SOL    HW234875   1.725   0.003   8.474  0.5118 -0.2051  1.1558
 7806SOL     OW34876   0.255   0.365   4.055  0.0890 -0.7963 -0.3150
 7806SOL    HW134877   0.301   0.385   3.974  0.7239 -0.3656  0.1525
 7806SOL    HW234878   0.273   0.442   4.110 -3.0789 -0.9630  0.9478
 7807SOL     OW34879   0.519   3.062  15.084 -0.3592  0.0390  0.1569
 7807SOL    HW134880   0.542   3.149  15.051  0.6812 -0.5090 -0.5642
 7807SOL    HW234881   0.437   3.053  15.035  0.3031  1.6118 -1.2340
 7808SOL     OW34882   2.723   2.133   5.503  0.0533 -0.6850  0.1988
 7808SOL    HW134883   2.735   2.225   5.482 -1.2572 -0.3490  0.9642
 7808SOL    HW234884   2.726   2.095   5.415 -0.3863  3.7530 -1.7299
 7809SOL     OW34885   0.222   1.707   6.473 -0.2301 -0.6962  0.0936
 7809SOL    HW134886   0.273   1.721   6.552 -0.8024 -0.0925  0.3525
 7809SOL    HW234887   0.289   1.648   6.439 -0.8299  0.3721 -2.8781
 7810SOL     OW34888   2.245   1.529   7.808  0.5129 -0.6250 -0.1489
 7810SOL    HW134889   2.188   1.600   7.838 -0.1086 -1.4905  0.7322
 7810SOL    HW234890   2.181   1.458   7.800  0.0423 -0.1480 -0.6116
 7811SOL     OW34891   2.755   3.262  17.150  0.5619  0.0614  0.2936
 7811SOL    HW134892   2.806   3.339  17.175  0.7234 -0.4741  1.5984
 7811SOL    HW234893   2.807   3.221  17.081  1.4760  2.1383 -0.2481
 7812SOL     OW34894   2.878   3.694   0.309 -0.1681  0.2986  0.3285
 7812SOL    HW134895   2.791   3.667   0.277 -0.0585  0.0909  0.2040
 7812SOL    HW234896   2.913   3.609   0.337  0.3825  0.4197  0.0055
 7813SOL     OW34897   0.668   3.637   9.820 -0.5705 -0.2937 -0.0470
 7813SOL    HW134898   0.671   3.543   9.840  0.7697 -0.7729 -2.5427
 7813SOL    HW234899   0.576   3.658   9.808  0.1075  2.1256 -0.9332
 7814SOL     OW34900   2.272   0.249   8.717 -0.7793 -0.2003  0.0591
 7814SOL    HW134901   2.302   0.198   8.642  2.8904 -2.1021  2.8090
 7814SOL    HW234902   2.302   0.201   8.794 -0.4851 -0.8761 -0.4757
 7815SOL     OW34903   1.000   1.944  14.915  0.7266  0.2927  0.2814
 7815SOL    HW134904   0.985   2.030  14.876 -0.3333  0.3908  0.8944
 7815SOL    HW234905   1.090   1.957  14.944  1.7496 -1.4347 -2.1151
 7816SOL     OW34906   2.854   1.269   0.427  0.2774  0.2526 -0.0619
 7816SOL    HW134907   2.858   1.198   0.492 -2.1895 -1.8663 -2.2272
 7816SOL    HW234908   2.909   1.229   0.361  1.5036 -1.4550  1.9805
 7817SOL     OW34909   0.233   1.499  16.945  0.4002 -0.4948 -0.0409
 7817SOL    HW134910   0.261   1.408  16.947 -1.2376 -0.9664  1.2796
 7817SOL    HW234911   0.161   1.500  16.883  1.3406  2.7793 -1.0865
 7818SOL     OW34912   3.555   1.450   4.884 -0.2694 -0.1000 -0.0592
 7818SOL    HW134913   3.481   1.500   4.849  0.2662 -0.0289 -1.0685
 7818SOL    HW234914   3.524   1.451   4.975  0.6588  0.3058  0.2551
 7819SOL     OW34915   3.662   3.569   4.116 -0.5764 -0.3270 -0.1425
 7819SOL    HW134916   3.745   3.571   4.068  0.7855  0.4381  2.2096
 7819SOL    HW234917   3.648   3.663   4.128 -0.9210 -0.0873 -2.5032
 7820SOL     OW34918   0.746   1.214   0.639  0.5318  0.1845 -0.1740
 7820SOL    HW134919   0.676   1.229   0.576  1.2735  1.1132 -0.7683
 7820SOL    HW234920   0.714   1.142   0.694 -1.0868  0.6262 -0.5543
 7821SOL     OW34921   4.147   3.298   6.031  0.3961 -0.5813  0.0063
 7821SOL    HW134922   4.097   3.305   5.950 -1.2417  1.3850  1.1925
 7821SOL    HW234923   4.124   3.375   6.083 -0.2209 -0.4436 -0.4733
 7822SOL     OW34924   1.926   2.471   7.380  0.4870 -0.1010 -0.5902
 7822SOL    HW134925   1.976   2.534   7.328  2.3868 -0.5635  0.6675
 7822SOL    HW234926   1.982   2.395   7.363  1.0222 -0.1160  1.2253
 7823SOL     OW34927   4.409   1.838   3.701 -0.2291 -0.3925  0.3120
 7823SOL    HW134928   4.405   1.769   3.767  2.1667 -0.1847  0.6560
 7823SOL    HW234929   4.397   1.909   3.764  0.7341  1.0722 -1.1306
 7824SOL     OW34930   1.682   1.031   1.313  0.3181 -0.1204  0.6403
 7824SOL    HW134931   1.603   1.060   1.268 -0.8386  0.0683  2.7975
 7824SOL    HW234932   1.715   0.978   1.241 -0.4198  0.0020  0.2097
 7825SOL     OW34933   0.186   4.176   6.957 -0.2652 -0.5599 -0.2277
 7825SOL    HW134934   0.230   4.230   6.891 -0.1241  1.8606  1.8328
 7825SOL    HW234935   0.144   4.238   7.016  2.4191  1.0604 -0.0384
 7826SOL     OW34936   0.121   0.568  14.658  0.3553 -0.3831 -0.7051
 7826SOL    HW134937   0.190   0.524  14.610  1.0843 -0.6363  0.5967
 7826SOL    HW234938   0.153   0.595  14.744  0.3121 -1.7944 -0.2484
 7827SOL     OW34939   3.385   0.055   6.765 -0.2369  0.0024  0.0475
 7827SOL    HW134940   3.306   0.010   6.794 -0.3371 -0.5846 -1.1545
 7827SOL    HW234941   3.343   0.128   6.719 -0.2270 -0.2290 -0.3204
 7828SOL     OW34942   3.427   2.068   8.359  0.2762  0.2154  0.0431
 7828SOL    HW134943   3.479   2.146   8.340  0.9223 -0.0441  0.7431
 7828SOL    HW234944   3.434   2.028   8.272  1.8264  0.0713  0.2292
 7829SOL     OW34945   1.342   0.235   9.644 -0.2911 -0.4514 -0.4843
 7829SOL    HW134946   1.299   0.289   9.711 -1.9174 -1.1994 -0.9063
 7829SOL    HW234947   1.310   0.147   9.667  3.4868 -1.7296 -0.1774
 7830SOL     OW34948   0.011   2.104   7.935  0.6640 -0.5248  0.1036
 7830SOL    HW134949   4.708   2.143   8.019 -2.0902 -0.6323 -0.7067
 7830SOL    HW234950   4.700   2.015   7.944  1.5616 -0.9890 -1.0870
 7831SOL     OW34951   3.901   1.358  10.511 -0.4275 -0.3276 -0.1555
 7831SOL    HW134952   3.863   1.301  10.578 -2.5791  2.3164  0.8711
 7831SOL    HW234953   3.831   1.355  10.446  0.0944  0.5553 -0.7647
 7832SOL     OW34954   3.053   4.600   8.175  0.3929 -0.0092 -0.1904
 7832SOL    HW134955   2.986   4.665   8.196 -2.0614 -2.1676 -1.2140
 7832SOL    HW234956   3.004   4.541   8.117 -0.3113 -1.0977  1.5178
 7833SOL     OW34957   0.286   1.214   8.328  0.2601  0.3373 -0.1025
 7833SOL    HW134958   0.300   1.252   8.241  1.0754  0.2300 -0.0218
 7833SOL    HW234959   0.224   1.146   8.304  0.3728  0.3699 -0.4779
 7834SOL     OW34960   3.329   0.745  13.745 -0.0546 -0.2209 -0.0928
 7834SOL    HW134961   3.321   0.834  13.781  0.5991 -1.2602  2.6346
 7834SOL    HW234962   3.299   0.751  13.655  0.8660  3.1414 -0.1927
 7835SOL     OW34963   2.938   0.598   6.992 -0.6237 -0.4740 -0.4946
 7835SOL    HW134964   2.987   0.615   6.911 -0.9002  0.2447 -0.5078
 7835SOL    HW234965   2.860   0.555   6.957 -2.6515  3.4889 -0.8017
 7836SOL     OW34966   4.365   0.583   5.647  0.1150 -0.3338 -0.1833
 7836SOL    HW134967   4.458   0.560   5.653 -0.1513 -1.2947  0.1767
 7836SOL    HW234968   4.349   0.560   5.555  1.9688 -1.0051 -0.3418
 7837SOL     OW34969   3.972   1.341   8.637 -0.2049 -0.1804 -0.3742
 7837SOL    HW134970   3.930   1.261   8.605 -1.0178  1.1274 -2.5345
 7837SOL    HW234971   3.901   1.378   8.690  0.2464  0.0429  0.0702
 7838SOL     OW34972   3.332   4.497  16.100  0.4121 -0.1814 -0.6883
 7838SOL    HW134973   3.292   4.535  16.021 -0.4155 -0.0484 -0.2124
 7838SOL    HW234974   3.347   4.407  16.071 -2.7775 -0.4939 -1.4202
 7839SOL     OW34975   0.264   0.296   5.930  0.2063  0.5928 -0.9470
 7839SOL    HW134976   0.197   0.269   5.993  0.2063  2.0695 -0.3363
 7839SOL    HW234977   0.266   0.228   5.862 -1.2813  0.3534 -0.7515
 7840SOL     OW34978   1.822   2.229   3.817  0.3555 -0.5106 -0.4242
 7840SOL    HW134979   1.858   2.210   3.904  1.6752 -0.7253 -1.0124
 7840SOL    HW234980   1.855   2.153   3.769  2.3807  0.4450 -0.5550
 7841SOL     OW34981   0.317   1.632   3.924  0.0927  0.2926  0.0499
 7841SOL    HW134982   0.329   1.538   3.917  0.3281  0.0599  3.3837
 7841SOL    HW234983   0.231   1.636   3.882  1.3242  0.2630 -2.4737
 7842SOL     OW34984   0.496   0.196  16.341 -0.2733  0.4160 -0.0308
 7842SOL    HW134985   0.584   0.180  16.308 -0.8331 -1.0601 -0.7941
 7842SOL    HW234986   0.525   0.234  16.425  1.3542  0.1520 -0.4895
 7843SOL     OW34987   2.217   1.234  17.286 -0.1681  0.3165  0.2768
 7843SOL    HW134988   2.219   1.288  17.365 -1.7972  0.1855  0.3976
 7843SOL    HW234989   2.311   1.213  17.283  0.0112  1.1498  0.0579
 7844SOL     OW34990   0.457   3.062  13.805  0.5225 -0.3397  0.4399
 7844SOL    HW134991   0.473   3.121  13.879 -1.1295 -0.6306  1.0152
 7844SOL    HW234992   0.544   3.071  13.765 -0.8095  2.2682 -1.8518
 7845SOL     OW34993   0.471   4.015   0.470  0.4808  0.3776 -0.3819
 7845SOL    HW134994   0.509   3.949   0.529  1.3518 -2.5313 -4.1609
 7845SOL    HW234995   0.403   4.059   0.520  0.0318  0.3988 -1.0184
 7846SOL     OW34996   2.109   4.529  15.789  0.2626 -0.0529 -0.1479
 7846SOL    HW134997   2.150   4.472  15.723  0.9834  0.5426 -0.2193
 7846SOL    HW234998   2.117   4.471  15.864  0.2121 -1.5812 -1.3185
 7847SOL     OW34999   4.581   0.043   8.341 -0.4950  1.2466 -0.1584
 7847SOL    HW135000   4.511   0.108   8.343 -0.9870  0.6657  1.5668
 7847SOL    HW235001   4.523   4.692   8.362  1.6834 -0.6667 -0.8354
 7848SOL     OW35002   3.648   0.159   3.355  0.1615 -0.5990 -0.2400
 7848SOL    HW135003   3.599   0.240   3.344  0.8522 -0.3630 -1.6524
 7848SOL    HW235004   3.651   0.154   3.450 -1.5873 -1.9589 -0.2513
 7849SOL     OW35005   4.062   2.797   2.526 -0.5108 -0.1316 -0.1241
 7849SOL    HW135006   4.045   2.877   2.476 -0.7448  0.4713  0.9155
 7849SOL    HW235007   4.073   2.738   2.452  0.6233 -1.7823  1.3790
 7850SOL     OW35008   0.987   0.507   0.078  0.4683 -0.1211  0.6981
 7850SOL    HW135009   0.989   0.505  17.676 -1.3934 -1.4556  0.6821
 7850SOL    HW235010   0.946   0.591   0.100 -0.1580  0.2582 -1.8697
 7851SOL     OW35011   3.921   1.254   7.563 -0.3694  0.4143  0.2362
 7851SOL    HW135012   3.836   1.291   7.586 -0.0817  2.5103 -2.0099
 7851SOL    HW235013   3.904   1.212   7.479 -1.7262 -1.0409  1.2511
 7852SOL     OW35014   0.708   3.588  17.233  0.0635  0.2038 -0.0155
 7852SOL    HW135015   0.634   3.615  17.288 -0.2505 -0.6059 -0.0466
 7852SOL    HW235016   0.689   3.494  17.226 -0.2861  0.2976 -0.3355
 7853SOL     OW35017   0.653   2.522   8.397  0.9972  0.1821  0.1465
 7853SOL    HW135018   0.742   2.516   8.432  0.2315 -2.2405  1.7216
 7853SOL    HW235019   0.656   2.607   8.353 -1.2184 -0.1483 -0.6741
 7854SOL     OW35020   2.306   0.678   7.125 -0.2324  0.1575 -0.0039
 7854SOL    HW135021   2.299   0.591   7.163  1.0844  0.1553  0.2528
 7854SOL    HW235022   2.274   0.732   7.197 -2.3524  0.3606 -1.1169
 7855SOL     OW35023   3.698   4.160   7.974 -0.4478  0.1878  0.1584
 7855SOL    HW135024   3.763   4.201   8.031  0.5064  1.4736 -1.8424
 7855SOL    HW235025   3.700   4.211   7.893 -0.0295 -0.7378 -0.4139
 7856SOL     OW35026   0.300   3.400   6.079  0.1878 -0.2848 -0.0077
 7856SOL    HW135027   0.361   3.462   6.119 -1.0090  0.4082  0.7522
 7856SOL    HW235028   0.232   3.397   6.146  0.0478  1.0661 -0.0748
 7857SOL     OW35029   2.649   2.428   4.475  0.3096 -0.1428 -0.3905
 7857SOL    HW135030   2.724   2.464   4.428 -0.6917  0.9703 -1.1300
 7857SOL    HW235031   2.694   2.414   4.559 -1.0080 -0.0980  0.3308
 7858SOL     OW35032   4.466   0.654   2.534 -0.1362 -0.1788  0.0334
 7858SOL    HW135033   4.450   0.600   2.456  0.4756 -1.2530  0.6461
 7858SOL    HW235034   4.455   0.741   2.496  2.5970  0.7647  1.3971
 7859SOL     OW35035   2.907   4.450   8.013 -0.0108 -0.2048  0.1447
 7859SOL    HW135036   2.895   4.366   7.969  3.6371 -0.9372  0.6172
 7859SOL    HW235037   2.844   4.430   8.083 -1.2756 -0.8409 -1.1634
 7860SOL     OW35038   2.502   1.570   4.690 -0.4055  0.2819 -0.3030
 7860SOL    HW135039   2.422   1.621   4.706  0.1896  0.7258  1.2226
 7860SOL    HW235040   2.551   1.631   4.634 -2.1359  1.2437 -0.8015
 7861SOL     OW35041   4.634   3.007   4.931  0.1438  0.2355 -0.0040
 7861SOL    HW135042   4.633   3.032   4.838 -1.3094 -1.5242 -0.4609
 7861SOL    HW235043   4.575   3.071   4.971 -1.5545 -0.0514 -2.0403
 7862SOL     OW35044   2.733   2.245  10.591  0.1625 -0.5947 -0.3092
 7862SOL    HW135045   2.669   2.316  10.601  0.2447 -0.3842 -1.3147
 7862SOL    HW235046   2.707   2.198  10.671  2.1564 -2.2595 -0.6629
 7863SOL     OW35047   0.031   3.970   5.318 -0.3332 -0.6455 -0.4048
 7863SOL    HW135048   4.689   3.998   5.383  0.5443  1.2232 -0.3527
 7863SOL    HW235049   0.092   4.043   5.319 -0.6978 -0.3580  2.2550
 7864SOL     OW35050   2.901   4.419   4.820 -0.0603 -0.5717  0.3680
 7864SOL    HW135051   2.868   4.498   4.776  0.2764 -0.3190  0.5693
 7864SOL    HW235052   2.978   4.461   4.859  0.7000 -1.5302 -0.1168
 7865SOL     OW35053   0.629   1.690   7.401 -0.2433 -0.3901 -0.7114
 7865SOL    HW135054   0.654   1.622   7.463  1.7275  0.5691 -0.4556
 7865SOL    HW235055   0.689   1.671   7.329  0.3440 -0.2328 -0.2632
 7866SOL     OW35056   3.410   3.573   4.766 -0.0414  0.4976 -0.6228
 7866SOL    HW135057   3.399   3.481   4.740 -1.4762  0.6471 -0.5334
 7866SOL    HW235058   3.474   3.547   4.832  0.5423  1.2288 -0.9023
 7867SOL     OW35059   2.775   4.628   5.689  0.0382 -0.0636 -0.3301
 7867SOL    HW135060   2.784   4.695   5.757  0.7523 -0.1294 -0.3632
 7867SOL    HW235061   2.682   4.626   5.666  0.5056  0.2127 -2.2252
 7868SOL     OW35062   1.962   0.492  16.579  0.1650  0.0342 -0.4195
 7868SOL    HW135063   1.897   0.560  16.592 -1.5513 -2.2021  2.6467
 7868SOL    HW235064   2.027   0.529  16.638 -0.1801 -0.6200  0.3763
 7869SOL     OW35065   3.966   0.082   9.063  0.0255  0.7498 -0.0042
 7869SOL    HW135066   3.872   0.086   9.078 -0.6130  0.6954 -3.8194
 7869SOL    HW235067   3.987   4.720   9.023  0.7022  0.8848  0.0637
 7870SOL     OW35068   4.058   2.115   2.236 -0.0687  0.5482  0.3316
 7870SOL    HW135069   4.007   2.151   2.309 -3.6780 -1.7882 -1.0418
 7870SOL    HW235070   4.131   2.075   2.283  0.1226 -0.7388 -1.0844
 7871SOL     OW35071   2.346   1.607   8.798 -0.0498  0.1385  0.5829
 7871SOL    HW135072   2.391   1.678   8.752 -1.2005  0.8153  0.4818
 7871SOL    HW235073   2.273   1.650   8.843 -0.1649  1.7477 -1.1275
 7872SOL     OW35074   2.574   3.367   5.901  0.3439 -0.0252 -0.2114
 7872SOL    HW135075   2.540   3.424   5.970 -1.3482 -3.2782  1.6090
 7872SOL    HW235076   2.489   3.328   5.882 -0.0840  0.5512  0.5384
 7873SOL     OW35077   0.843   0.212  13.197  0.1781  0.0169 -0.0429
 7873SOL    HW135078   0.758   0.254  13.207 -0.1475 -0.6074 -0.1808
 7873SOL    HW235079   0.840   0.151  13.271 -0.9487 -1.5477 -1.3902
 7874SOL     OW35080   2.879   0.435   7.694  0.3608 -0.2202 -0.2751
 7874SOL    HW135081   2.927   0.361   7.732 -0.1293 -1.6056 -2.3329
 7874SOL    HW235082   2.793   0.395   7.677 -0.7615  1.5917  1.1522
 7875SOL     OW35083   4.386   2.401   4.864  0.1085 -0.2467 -0.2847
 7875SOL    HW135084   4.423   2.477   4.908 -1.7075 -0.2158  1.1693
 7875SOL    HW235085   4.407   2.419   4.772 -0.1463 -0.1907 -0.3328
 7876SOL     OW35086   2.992   2.480  16.715  0.1358 -0.6072 -0.0775
 7876SOL    HW135087   3.056   2.457  16.782  0.5917  2.3562  0.4980
 7876SOL    HW235088   2.947   2.557  16.749 -2.7982 -3.0082  1.4836
 7877SOL     OW35089   2.151   0.550  15.618 -0.1468  1.0529  0.2431
 7877SOL    HW135090   2.095   0.523  15.545 -1.0068  1.9992  0.5549
 7877SOL    HW235091   2.082   0.558  15.684  0.5796 -1.4052  1.2857
 7878SOL     OW35092   4.067   3.098   8.646 -0.3416 -0.0374  0.6670
 7878SOL    HW135093   4.132   3.166   8.659 -1.5895  1.3059 -0.0671
 7878SOL    HW235094   4.114   3.022   8.681 -0.3627 -0.1978  0.3396
 7879SOL     OW35095   2.340   0.612   6.545  1.2578 -0.3007  0.2767
 7879SOL    HW135096   2.350   0.707   6.550 -0.0148 -0.1410 -0.2364
 7879SOL    HW235097   2.433   0.586   6.543  0.6181 -2.5861  0.4212
 7880SOL     OW35098   2.027   4.620  12.570  0.1220  0.1782 -0.2254
 7880SOL    HW135099   1.959   4.626  12.502 -0.5701  1.0468  0.5497
 7880SOL    HW235100   1.971   4.575  12.633 -0.3454 -0.5041 -1.1327
 7881SOL     OW35101   3.396   1.536   3.302  0.3787 -0.0960  0.3839
 7881SOL    HW135102   3.483   1.569   3.280 -0.1183  2.3715  2.0390
 7881SOL    HW235103   3.380   1.457   3.251  0.9100  0.1175 -0.1176
 7882SOL     OW35104   1.201   2.962   3.688 -0.2150  0.7564 -0.1984
 7882SOL    HW135105   1.275   3.022   3.694 -0.1056  0.5738  0.2716
 7882SOL    HW235106   1.225   2.910   3.611  2.0537 -2.0145  2.3647
 7883SOL     OW35107   3.090   2.820   8.481 -0.5519  0.1192  0.5300
 7883SOL    HW135108   3.068   2.807   8.389  0.5397  1.0010  0.1465
 7883SOL    HW235109   3.183   2.798   8.489 -1.0473 -1.5161  1.8209
 7884SOL     OW35110   2.458   2.712   2.224 -0.5226  0.0990  0.3336
 7884SOL    HW135111   2.485   2.804   2.219  0.2446 -0.0979  0.8736
 7884SOL    HW235112   2.486   2.687   2.312  1.4296 -2.2474 -0.9393
 7885SOL     OW35113   1.603   1.256  12.704  0.3024 -0.3972 -0.2995
 7885SOL    HW135114   1.644   1.332  12.744 -0.3794 -1.1672  1.9014
 7885SOL    HW235115   1.611   1.193  12.776 -3.6262  0.3033  0.7505
 7886SOL     OW35116   2.144   1.019  11.596  0.2114  0.2438 -0.5644
 7886SOL    HW135117   2.062   0.987  11.632  1.4995 -1.7438  0.5965
 7886SOL    HW235118   2.184   0.945  11.550  1.8726  0.7598  0.0679
 7887SOL     OW35119   1.022   0.478  17.483  0.1112 -0.0903  0.2533
 7887SOL    HW135120   0.951   0.494  17.421 -0.3361 -1.3200  0.4613
 7887SOL    HW235121   1.085   0.438  17.423 -1.2619  1.5077 -2.2695
 7888SOL     OW35122   2.343   0.331   2.241 -0.1203  0.1119  0.2075
 7888SOL    HW135123   2.252   0.341   2.212 -0.0140 -0.7448 -0.4202
 7888SOL    HW235124   2.337   0.251   2.293 -1.0007 -0.1094 -0.2438
 7889SOL     OW35125   2.670   3.156   4.795 -0.5115 -0.0976 -0.4200
 7889SOL    HW135126   2.617   3.076   4.787  0.1419 -0.7049  1.4449
 7889SOL    HW235127   2.757   3.121   4.773 -0.7277 -1.3414  0.7122
 7890SOL     OW35128   3.645   4.093   2.740  0.1865 -0.0015 -0.5787
 7890SOL    HW135129   3.650   4.004   2.706  0.6168  0.0325 -0.6078
 7890SOL    HW235130   3.715   4.089   2.806 -0.4443  0.6320  0.1173
 7891SOL     OW35131   3.090   3.094   1.657  0.2088  0.6094 -0.1688
 7891SOL    HW135132   3.052   3.037   1.589  0.8054  0.3869 -0.3187
 7891SOL    HW235133   3.019   3.102   1.720 -0.5406 -0.4320 -0.8721
 7892SOL     OW35134   3.293   4.440  14.900 -0.4277  0.4794  1.1200
 7892SOL    HW135135   3.323   4.407  14.816  0.2316  3.1912  0.3202
 7892SOL    HW235136   3.332   4.527  14.893 -0.6931  0.6027  1.1598
 7893SOL     OW35137   0.736   0.449  12.708  0.2933  0.1997  0.0287
 7893SOL    HW135138   0.802   0.509  12.673  0.9939 -0.6680 -0.1022
 7893SOL    HW235139   0.775   0.431  12.794 -0.4802 -1.7601 -0.0310
 7894SOL     OW35140   1.803   3.505  13.731  0.2947  0.1648  0.1356
 7894SOL    HW135141   1.806   3.445  13.806 -1.5540  1.0902  0.9430
 7894SOL    HW235142   1.709   3.506  13.716  0.3228  3.6102  0.2070
 7895SOL     OW35143   0.001   0.171   6.393 -0.2589 -0.2597 -0.2016
 7895SOL    HW135144   4.718   0.083   6.430 -0.1794 -0.1876 -0.0182
 7895SOL    HW235145   4.640   0.212   6.411 -0.3392 -0.5611  0.1148
 7896SOL     OW35146   0.625   2.870  12.381  0.0202  0.2040  0.0098
 7896SOL    HW135147   0.703   2.836  12.337 -1.0681 -0.4825 -1.3918
 7896SOL    HW235148   0.648   2.878  12.473  1.7735 -0.0061 -0.4184
 7897SOL     OW35149   0.021   3.826   4.186  0.3278  0.1106  0.0255
 7897SOL    HW135150   4.719   3.782   4.267  0.8230  0.8689  0.5918
 7897SOL    HW235151   0.114   3.809   4.197  0.4821  1.6665  1.2697
 7898SOL     OW35152   1.477   0.928   4.895  0.1601  0.1702  0.0071
 7898SOL    HW135153   1.487   0.956   4.803 -0.1454  1.7263  0.4473
 7898SOL    HW235154   1.563   0.893   4.919 -0.1352  0.1786  1.0541
 7899SOL     OW35155   4.205   3.074   5.496  0.1120  0.2596  0.0151
 7899SOL    HW135156   4.263   3.041   5.565 -1.5757  1.8556  2.2237
 7899SOL    HW235157   4.132   3.076   5.558 -0.6507  0.4204 -0.8991
 7900SOL     OW35158   0.490   1.800   2.758  0.4674 -0.3069 -0.0462
 7900SOL    HW135159   0.470   1.707   2.767  0.1945 -0.2583 -0.1520
 7900SOL    HW235160   0.510   1.836   2.844  2.5073 -1.4832 -0.0226
 7901SOL     OW35161   0.551   1.169   8.434 -0.0134 -0.6401 -0.6870
 7901SOL    HW135162   0.525   1.188   8.524  1.4753  3.4934 -1.1185
 7901SOL    HW235163   0.473   1.208   8.395  0.8433  0.3244 -1.4240
 7902SOL     OW35164   2.521   0.278   3.402  0.0483 -0.2312 -0.2669
 7902SOL    HW135165   2.477   0.288   3.317  0.6400  2.0599 -0.2985
 7902SOL    HW235166   2.528   0.370   3.424  2.3063 -0.4794 -0.0325
 7903SOL     OW35167   1.141   2.121   5.676  0.6651  0.2362  0.3899
 7903SOL    HW135168   1.166   2.037   5.638 -1.1189  0.6521 -1.7242
 7903SOL    HW235169   1.203   2.142   5.745  1.4395 -2.9985  0.6853
 7904SOL     OW35170   1.245   3.016   7.557  0.5262  0.0439  0.4013
 7904SOL    HW135171   1.152   3.037   7.544  0.3906 -0.4398  0.5974
 7904SOL    HW235172   1.271   3.043   7.645 -1.9790  0.7493  0.9274
 7905SOL     OW35173   2.933   2.065  10.497  0.1418 -0.0716  0.1109
 7905SOL    HW135174   2.876   2.139  10.518  1.7020  1.7862 -2.1023
 7905SOL    HW235175   2.964   2.046  10.586  2.7843 -0.6135 -0.9344
 7906SOL     OW35176   1.206   1.449   1.210  0.4653 -0.0457  0.3289
 7906SOL    HW135177   1.210   1.359   1.178  2.3307  0.0871  0.1911
 7906SOL    HW235178   1.300   1.452   1.229  0.7424  2.3470 -1.4018
 7907SOL     OW35179   3.194   0.899   2.802  0.1043 -0.1639 -0.4605
 7907SOL    HW135180   3.160   0.930   2.718 -1.0841 -0.3132 -0.0346
 7907SOL    HW235181   3.283   0.876   2.776  0.0508 -0.1138 -0.6891
 7908SOL     OW35182   3.836   2.103   4.047 -0.1018  0.7746 -0.7275
 7908SOL    HW135183   3.903   2.129   3.985  0.3952  0.3005 -0.3937
 7908SOL    HW235184   3.767   2.169   4.041 -0.1793  0.7207 -0.4384
 7909SOL     OW35185   1.161   0.699   4.698  0.2115 -0.3241  0.6520
 7909SOL    HW135186   1.071   0.719   4.672  0.3294  0.9186  1.2252
 7909SOL    HW235187   1.169   0.744   4.782  2.1279  0.6453 -0.0449
 7910SOL     OW35188   1.017   2.151   1.745 -0.3045  0.0737  0.0714
 7910SOL    HW135189   0.950   2.214   1.773  0.6576  0.6598  1.0480
 7910SOL    HW235190   0.966   2.070   1.737 -3.9256  2.1265  2.0808
 7911SOL     OW35191   3.713   1.885   4.791 -0.0626 -0.2696  0.6626
 7911SOL    HW135192   3.786   1.937   4.827  0.7379 -0.0471 -1.3060
 7911SOL    HW235193   3.729   1.794   4.818 -0.7441 -0.3008  0.9625
 7912SOL     OW35194   0.398   2.989  13.244 -0.1037 -0.0611  0.2075
 7912SOL    HW135195   0.380   2.902  13.280  1.1342  0.1146  1.2551
 7912SOL    HW235196   0.491   2.992  13.223 -0.3518  1.1228 -0.7914
 7913SOL     OW35197   0.243   1.295  17.438  0.2845 -0.1040  0.1618
 7913SOL    HW135198   0.334   1.275  17.462  0.1028 -0.0113  0.9197
 7913SOL    HW235199   0.243   1.269  17.346 -1.5755 -2.9824  0.9875
 7914SOL     OW35200   2.454   2.093   0.365  0.2082  0.2255  0.5049
 7914SOL    HW135201   2.549   2.089   0.352  0.2427 -0.7356  1.0314
 7914SOL    HW235202   2.462   2.101   0.460  0.6868  0.1621  0.4722
 7915SOL     OW35203   1.636   0.681  14.280 -0.3158  0.2216 -0.6588
 7915SOL    HW135204   1.650   0.695  14.187  0.2802 -2.2837 -0.9306
 7915SOL    HW235205   1.599   0.593  14.274  0.5334 -0.0365 -1.9608
 7916SOL     OW35206   1.859   1.138   2.756 -0.6573 -0.7214  0.1661
 7916SOL    HW135207   1.772   1.113   2.788 -0.6711 -0.8798  0.0091
 7916SOL    HW235208   1.916   1.094   2.819 -1.2561 -0.9406  0.5639
 7917SOL     OW35209   1.813   2.607   8.918 -0.4048 -0.0122 -0.3091
 7917SOL    HW135210   1.908   2.593   8.921 -0.2694  0.6332 -1.4960
 7917SOL    HW235211   1.777   2.519   8.916  1.7852 -0.9196  0.0691
 7918SOL     OW35212   4.259   1.849  10.527 -0.1458  0.0168 -0.0589
 7918SOL    HW135213   4.170   1.869  10.557  0.1253 -0.2375  0.9340
 7918SOL    HW235214   4.313   1.850  10.607 -0.0713 -0.3560 -0.1073
 7919SOL     OW35215   0.810   2.634   6.714  0.3856  1.0205 -0.2146
 7919SOL    HW135216   0.845   2.659   6.800  0.7017  1.2917 -0.4224
 7919SOL    HW235217   0.824   2.721   6.676  1.8386  1.5400  1.4638
 7920SOL     OW35218   1.816   1.244  17.424  0.6112 -0.5542  0.0440
 7920SOL    HW135219   1.846   1.278  17.340 -2.3881  2.2268  0.0764
 7920SOL    HW235220   1.809   1.324  17.476  1.7433  0.6314 -1.6426
 7921SOL     OW35221   2.685   3.279   6.569 -0.3862  0.1512  0.2496
 7921SOL    HW135222   2.660   3.330   6.491 -0.9804 -1.0977 -0.3856
 7921SOL    HW235223   2.743   3.216   6.525  1.4246  0.5061  2.1713
 7922SOL     OW35224   3.317   0.054   7.502  0.0439  0.4764  0.3668
 7922SOL    HW135225   3.302   0.130   7.446  0.3601 -1.0958 -1.8777
 7922SOL    HW235226   3.303   4.706   7.439 -1.5160  0.7860  0.3899
 7923SOL     OW35227   3.213   2.857   6.251  0.3723 -0.2321 -0.5104
 7923SOL    HW135228   3.172   2.774   6.228  0.5546  0.3873 -3.1072
 7923SOL    HW235229   3.301   2.820   6.255 -0.1173 -1.5063 -1.4633
 7924SOL     OW35230   3.689   4.391  17.478 -0.3727 -0.2847  0.1562
 7924SOL    HW135231   3.711   4.393  17.571  0.0789 -0.8799  0.0571
 7924SOL    HW235232   3.605   4.347  17.466  0.2328 -1.2078 -0.6239
 7925SOL     OW35233   2.421   3.184   8.631  0.4103 -0.4750  0.1828
 7925SOL    HW135234   2.460   3.237   8.561 -1.5810  1.9318  0.9023
 7925SOL    HW235235   2.469   3.201   8.712  0.8503  0.8880 -0.3632
 7926SOL     OW35236   1.630   0.356   3.929  0.3943  0.1562 -0.3206
 7926SOL    HW135237   1.615   0.413   4.004  1.9965  1.9961 -1.4054
 7926SOL    HW235238   1.542   0.328   3.902  0.1429  0.5631  0.0864
 7927SOL     OW35239   3.510   3.405   7.299  0.3416 -0.4811 -0.6885
 7927SOL    HW135240   3.475   3.490   7.327  2.0289 -1.0946  3.3509
 7927SOL    HW235241   3.435   3.370   7.252 -0.2799 -0.3488  0.2146
 7928SOL     OW35242   0.716   2.432   8.723  0.0305 -0.0183  0.5957
 7928SOL    HW135243   0.782   2.368   8.746 -0.3687 -0.4070  0.6653
 7928SOL    HW235244   0.749   2.460   8.638  0.5745 -2.6110 -0.0181
 7929SOL     OW35245   1.620   1.225   4.015 -0.1364  0.2269  0.4552
 7929SOL    HW135246   1.694   1.285   4.012 -0.8555  1.0568 -0.7538
 7929SOL    HW235247   1.665   1.143   4.034  0.7747  0.1277 -2.2748
 7930SOL     OW35248   1.975   3.253   0.868  0.2473  0.2605  0.2028
 7930SOL    HW135249   1.880   3.258   0.864  0.1931  0.2270  1.2966
 7930SOL    HW235250   2.005   3.179   0.816  1.2268  0.8015 -0.0039
 7931SOL     OW35251   0.232   2.973   5.703  0.3143  0.0246  0.1459
 7931SOL    HW135252   0.263   3.040   5.642 -0.2712  1.9161  1.9200
 7931SOL    HW235253   0.205   2.905   5.642  0.4271 -0.8636  1.0892
 7932SOL     OW35254   0.691   2.221   5.522 -0.4127 -0.0062  0.4491
 7932SOL    HW135255   0.747   2.284   5.476  0.9791 -3.0820 -2.1114
 7932SOL    HW235256   0.746   2.169   5.581  0.4205  0.4909  0.1037
 7933SOL     OW35257   4.212   2.081   4.737 -0.0616 -0.2476 -0.0513
 7933SOL    HW135258   4.190   2.096   4.645  0.5841  1.0425 -0.0067
 7933SOL    HW235259   4.301   2.113   4.754 -0.0020 -2.2282  3.2755
 7934SOL     OW35260   1.788   2.992   4.824  0.5176 -0.0723  0.0139
 7934SOL    HW135261   1.698   2.958   4.826  0.4564  0.1769  2.0721
 7934SOL    HW235262   1.773   3.082   4.795 -1.1996 -0.6668 -0.9694
 7935SOL     OW35263   1.408   2.143   3.163  0.7678  0.1113 -0.7022
 7935SOL    HW135264   1.444   2.054   3.167 -1.7261 -0.8409  0.8986
 7935SOL    HW235265   1.424   2.156   3.069 -0.7177  1.0611 -0.8318
 7936SOL     OW35266   2.133   0.132   2.628  0.0358 -0.5705  0.0587
 7936SOL    HW135267   2.038   0.125   2.623 -0.0585  0.9453 -0.3799
 7936SOL    HW235268   2.134   0.225   2.651  3.0552 -0.5740 -0.0252
 7937SOL     OW35269   3.751   0.485   4.325  0.1272 -0.0224 -0.0221
 7937SOL    HW135270   3.793   0.442   4.251 -1.4041 -0.8204 -0.4354
 7937SOL    HW235271   3.793   0.439   4.397  0.1775 -0.2283 -0.1847
 7938SOL     OW35272   2.714   4.549  15.228  0.0765 -0.1661 -0.5480
 7938SOL    HW135273   2.748   4.570  15.315  1.0893 -1.5247 -0.6000
 7938SOL    HW235274   2.707   4.454  15.241 -0.3500 -0.0071  0.4062
 7939SOL     OW35275   4.393   0.878   2.398  0.3698  0.0841  0.2066
 7939SOL    HW135276   4.302   0.908   2.394  0.2225 -0.2127  1.2183
 7939SOL    HW235277   4.429   0.966   2.393 -0.2101  0.2960 -0.2563
 7940SOL     OW35278   0.221   4.620   0.112 -0.3097  0.5178 -0.3483
 7940SOL    HW135279   0.213   4.529   0.141  0.2795  0.1633 -1.2874
 7940SOL    HW235280   0.218   4.615   0.016 -3.7674 -0.6664 -0.1937
 7941SOL     OW35281   3.251   0.882   4.520 -0.2279 -0.0280  0.1545
 7941SOL    HW135282   3.210   0.801   4.551  1.2175 -0.4651  0.9268
 7941SOL    HW235283   3.331   0.845   4.483  1.3666  1.8749  1.7002
 7942SOL     OW35284   0.296   3.209   7.921 -0.4756 -0.5448  0.0950
 7942SOL    HW135285   0.234   3.257   7.976  1.2276  2.5584 -0.7095
 7942SOL    HW235286   0.293   3.128   7.973  0.7650 -0.5142  0.2099
 7943SOL     OW35287   4.386   0.390   4.177 -0.4025  0.2859  0.0547
 7943SOL    HW135288   4.315   0.328   4.190 -1.0570  1.2984  1.2418
 7943SOL    HW235289   4.461   0.357   4.227  0.1004  2.1236  0.5107
 7944SOL     OW35290   4.530   4.536   5.087 -0.2934  0.2702  0.2093
 7944SOL    HW135291   4.515   4.558   4.995 -3.2009 -1.1120  0.3357
 7944SOL    HW235292   4.530   4.441   5.072  1.5073  0.2719  0.2525
 7945SOL     OW35293   2.618   1.808   6.078 -0.6480 -0.0601 -0.8454
 7945SOL    HW135294   2.597   1.901   6.066  1.6030  0.6014  0.3693
 7945SOL    HW235295   2.617   1.790   6.172 -1.0156 -0.0598 -0.8468
 7946SOL     OW35296   3.949   0.680   8.642 -1.2718 -0.5027  0.0980
 7946SOL    HW135297   3.928   0.594   8.678  0.2161 -0.7592  0.3705
 7946SOL    HW235298   3.945   0.738   8.718  0.1282 -0.2936  0.0200
 7947SOL     OW35299   3.920   0.416   8.767 -0.5926  0.1632 -0.2865
 7947SOL    HW135300   4.010   0.392   8.743 -0.0814  0.7061  1.0910
 7947SOL    HW235301   3.944   0.432   8.858  2.5167 -1.1843 -0.8587
 7948SOL     OW35302   0.834   1.321   4.614 -0.2218  0.4093 -0.4525
 7948SOL    HW135303   0.767   1.299   4.549 -0.1316 -1.0635 -0.0523
 7948SOL    HW235304   0.814   1.411   4.639 -2.2418 -0.3751  0.7314
 7949SOL     OW35305   4.704   3.104   3.441 -0.0307  0.5257 -0.3625
 7949SOL    HW135306   4.675   3.151   3.520  1.6712  1.1036 -0.0774
 7949SOL    HW235307   0.073   3.092   3.465 -0.1748  0.6608  0.2688
 7950SOL     OW35308   3.681   2.937   1.807  0.2630 -0.3258  0.1685
 7950SOL    HW135309   3.690   2.843   1.790 -2.3075 -0.8849  1.9387
 7950SOL    HW235310   3.759   2.946   1.861  0.3705 -1.4884  0.2244
 7951SOL     OW35311   3.259   4.487   4.713 -0.3926 -0.1988  0.3949
 7951SOL    HW135312   3.322   4.476   4.785  0.3573  5.3670  0.5844
 7951SOL    HW235313   3.184   4.531   4.752 -0.5237  0.4475 -0.5981
 7952SOL     OW35314   4.202   3.599   8.129  0.2034  0.2821  0.7515
 7952SOL    HW135315   4.108   3.600   8.146  0.2305  0.5960  0.8789
 7952SOL    HW235316   4.227   3.659   8.199 -1.2225  0.8747  0.7511
 7953SOL     OW35317   3.798   4.530  11.706 -0.3530 -0.0800  0.2756
 7953SOL    HW135318   3.783   4.608  11.653  1.7720  0.7543  0.8902
 7953SOL    HW235319   3.849   4.566  11.779  0.2234  0.7943 -0.5517
 7954SOL     OW35320   1.373   0.543   9.999 -0.0578 -0.5344 -0.3561
 7954SOL    HW135321   1.395   0.614   9.939 -0.6112 -0.7794 -0.8558
 7954SOL    HW235322   1.294   0.575  10.042 -0.4106 -1.6819 -0.1274
 7955SOL     OW35323   4.042   1.195  14.288 -0.0074 -0.2977  0.0007
 7955SOL    HW135324   4.051   1.200  14.193  2.9188  1.0950  0.3880
 7955SOL    HW235325   4.088   1.270  14.324 -1.3275  0.7968 -0.5665
 7956SOL     OW35326   3.909   4.686  13.040 -0.1746  0.0395 -0.3548
 7956SOL    HW135327   3.911   0.042  13.095  1.0475  0.8839 -1.6057
 7956SOL    HW235328   3.891   4.627  13.114 -0.5533  0.1922 -0.3247
 7957SOL     OW35329   3.609   4.382   7.199 -0.2653  0.3416  0.1629
 7957SOL    HW135330   3.677   4.375   7.266  0.3978 -3.1960 -0.8522
 7957SOL    HW235331   3.532   4.378   7.255  0.6801  0.9830  1.5223
 7958SOL     OW35332   3.708   4.111   1.001 -0.2617  0.2635  0.3419
 7958SOL    HW135333   3.801   4.110   1.026 -1.1121 -1.5837  3.5073
 7958SOL    HW235334   3.655   4.135   1.077 -0.4824  0.8757 -0.0089
 7959SOL     OW35335   3.371   0.465   8.212  0.2925 -0.1389  0.6984
 7959SOL    HW135336   3.466   0.457   8.217  0.1843 -0.0476  2.7718
 7959SOL    HW235337   3.367   0.432   8.122  2.9558  0.1605  0.4894
 7960SOL     OW35338   3.023   2.550   7.198  0.6007 -0.1165  0.0631
 7960SOL    HW135339   3.046   2.551   7.291 -0.5522  2.8177  0.3178
 7960SOL    HW235340   2.933   2.516   7.196  0.1383  1.1752 -1.0373
 7961SOL     OW35341   4.231   0.810  15.839 -0.2035  0.0105  0.3593
 7961SOL    HW135342   4.255   0.790  15.749  1.0296  1.4415  0.3665
 7961SOL    HW235343   4.292   0.879  15.866 -0.8845  0.1563  1.5451
 7962SOL     OW35344   1.721   4.092   3.384  0.3661 -0.1784  0.5972
 7962SOL    HW135345   1.812   4.091   3.355  0.4345 -1.5463  0.8585
 7962SOL    HW235346   1.698   4.010   3.341  1.9080 -0.7385  0.8252
 7963SOL     OW35347   1.557   1.892   2.019 -0.4730  0.2674  0.5226
 7963SOL    HW135348   1.563   1.805   2.058 -2.0893 -0.2689 -0.4022
 7963SOL    HW235349   1.500   1.865   1.947  1.2002  0.0938 -0.7160
 7964SOL     OW35350   3.500   1.122   2.761  0.5695 -0.5722  0.0169
 7964SOL    HW135351   3.558   1.064   2.712  0.6156  0.1971 -0.8423
 7964SOL    HW235352   3.529   1.095   2.848  1.2322  1.0680  0.3020
 7965SOL     OW35353   2.278   3.701   4.635  0.5146 -0.2011  0.1443
 7965SOL    HW135354   2.315   3.613   4.623  0.8358 -0.1742  0.9249
 7965SOL    HW235355   2.183   3.692   4.627  0.6255 -0.6033 -0.7444
 7966SOL     OW35356   1.391   3.356   8.700 -0.0646  0.1318 -0.0985
 7966SOL    HW135357   1.390   3.263   8.718 -0.4505  0.5615  1.9926
 7966SOL    HW235358   1.388   3.349   8.604  0.7409  1.5714 -0.2274
 7967SOL     OW35359   2.306   2.617   0.801  0.0084  0.4389  0.1848
 7967SOL    HW135360   2.225   2.633   0.850 -0.0742  2.3227 -0.5500
 7967SOL    HW235361   2.274   2.547   0.744  1.0025 -0.2430  0.4763
 7968SOL     OW35362   0.586   1.610   9.948 -0.1803 -0.2820 -0.1399
 7968SOL    HW135363   0.667   1.634   9.994  0.3723  1.8821 -2.2340
 7968SOL    HW235364   0.586   1.515   9.952  0.3387 -0.2971 -0.4959
 7969SOL     OW35365   4.097   1.369  17.482 -0.0652 -0.2515 -0.0507
 7969SOL    HW135366   4.138   1.356  17.396 -3.0757  0.2925 -1.5815
 7969SOL    HW235367   4.153   1.440  17.514  2.7199 -1.9422 -1.1836
 7970SOL     OW35368   1.940   3.077  13.132  0.4473  0.2393  0.2020
 7970SOL    HW135369   1.953   2.984  13.150  1.0022  0.0982 -0.9439
 7970SOL    HW235370   2.024   3.100  13.093 -0.3202 -0.8498 -2.0733
 7971SOL     OW35371   1.787   0.703   8.568  0.2526 -0.1156 -0.2382
 7971SOL    HW135372   1.730   0.761   8.518 -0.7468 -1.3633 -0.5108
 7971SOL    HW235373   1.723   0.649   8.613 -0.9022  0.6514 -0.9818
 7972SOL     OW35374   0.471   2.542  17.085 -0.2892 -0.0207 -0.3778
 7972SOL    HW135375   0.395   2.524  17.141 -0.7471 -2.7869 -1.9032
 7972SOL    HW235376   0.527   2.588  17.147 -2.8929  2.7515 -0.0458
 7973SOL     OW35377   1.414   4.309  10.414  0.0506  0.4758 -0.6007
 7973SOL    HW135378   1.497   4.269  10.440 -0.5354  0.0651  0.6014
 7973SOL    HW235379   1.389   4.252  10.341  0.3795 -0.4918  0.0519
 7974SOL     OW35380   1.703   3.565  14.522  0.0670  0.0243 -0.2753
 7974SOL    HW135381   1.741   3.502  14.461 -0.9618 -0.4112 -0.4563
 7974SOL    HW235382   1.782   3.596  14.567 -0.7912  1.5344  0.2246
 7975SOL     OW35383   2.343   4.547   8.693 -0.1574  0.1136  0.4311
 7975SOL    HW135384   2.275   4.590   8.642  0.9910  0.5553 -0.7374
 7975SOL    HW235385   2.314   4.581   8.778  1.7198 -1.3870  1.6875
 7976SOL     OW35386   2.717   2.316   0.848  0.6822 -0.2302 -0.3540
 7976SOL    HW135387   2.699   2.244   0.908  0.1507 -0.9400 -1.3594
 7976SOL    HW235388   2.696   2.391   0.904 -0.0051 -1.1138  0.5834
 7977SOL     OW35389   4.040   4.560   8.886 -0.3655  0.1802  0.1524
 7977SOL    HW135390   4.043   4.471   8.850  2.0195  0.8245 -1.2134
 7977SOL    HW235391   4.116   4.560   8.944  0.2504 -0.8272 -0.6540
 7978SOL     OW35392   1.199   3.998   0.570  0.5498 -0.0659 -0.0568
 7978SOL    HW135393   1.191   3.910   0.607 -1.5879 -0.7625 -2.2225
 7978SOL    HW235394   1.130   4.042   0.620 -0.5992 -0.7659 -1.0460
 7979SOL     OW35395   0.084   2.642   7.553  0.7442 -0.6664  0.4182
 7979SOL    HW135396   0.107   2.649   7.646 -0.0018 -0.4512  0.5886
 7979SOL    HW235397   0.168   2.640   7.508 -0.3477 -0.3764 -1.6008
 7980SOL     OW35398   2.134   0.383   2.727  0.4742 -0.2178 -0.3774
 7980SOL    HW135399   2.163   0.458   2.675 -1.9157  0.7451 -0.3145
 7980SOL    HW235400   2.045   0.413   2.745  0.8845  1.5843 -1.3171
 7981SOL     OW35401   1.183   0.309   5.264 -0.2602 -0.3744  0.7130
 7981SOL    HW135402   1.240   0.241   5.298 -0.3812  0.0148  1.6805
 7981SOL    HW235403   1.127   0.255   5.208  0.9949  0.9840 -1.8926
 7982SOL     OW35404   0.447   1.306   3.377  0.0095 -0.4094  0.4851
 7982SOL    HW135405   0.513   1.340   3.316 -0.8464 -2.5567 -1.6188
 7982SOL    HW235406   0.362   1.320   3.335 -0.5841 -0.1275  1.7765
 7983SOL     OW35407   4.058   0.355   9.337 -0.2411 -0.0120  0.4129
 7983SOL    HW135408   3.981   0.329   9.287 -1.2632  2.3842  0.7447
 7983SOL    HW235409   4.034   0.440   9.373  0.4884 -1.0442  3.3229
 7984SOL     OW35410   3.026   0.669   6.090  0.0640 -0.2418 -0.1794
 7984SOL    HW135411   3.030   0.576   6.068 -2.3032 -0.6874  1.2434
 7984SOL    HW235412   3.054   0.701   6.004  0.4361  1.5774  0.6297
 7985SOL     OW35413   2.839   1.065   2.977  0.5756 -0.3849  0.4172
 7985SOL    HW135414   2.857   1.013   2.898  0.2804  1.7533 -1.0576
 7985SOL    HW235415   2.771   1.124   2.945 -0.4870 -0.1302  3.1856
 7986SOL     OW35416   3.432   4.444  11.657 -0.4946 -0.9107  0.6574
 7986SOL    HW135417   3.358   4.504  11.654  0.5728  0.4318  1.2873
 7986SOL    HW235418   3.434   4.400  11.572 -1.7037  1.4784 -0.5920
 7987SOL     OW35419   0.360   1.810   3.116 -0.2893  0.2007  0.2920
 7987SOL    HW135420   0.322   1.738   3.065  2.7604  0.5928 -2.5153
 7987SOL    HW235421   0.290   1.872   3.096 -1.2434 -1.4589 -1.5790
 7988SOL     OW35422   2.927   0.852   4.467 -0.2219 -0.2835 -0.5628
 7988SOL    HW135423   2.974   0.769   4.462  2.1056  1.0068  0.3494
 7988SOL    HW235424   2.941   0.884   4.378 -1.8987  0.2140 -0.6569
 7989SOL     OW35425   0.653   2.997  14.134  0.3289  0.1428 -0.2845
 7989SOL    HW135426   0.581   3.041  14.089 -2.2840 -3.2372  0.5609
 7989SOL    HW235427   0.729   3.055  14.129  0.3527 -0.1225 -3.4627
 7990SOL     OW35428   0.088   0.496   0.973  0.3580  0.0203 -0.5274
 7990SOL    HW135429   0.072   0.404   0.950 -0.3170 -0.6247  2.5649
 7990SOL    HW235430   0.004   0.538   0.991  0.3263 -0.0601 -0.4913
 7991SOL     OW35431   0.920   2.518   6.457 -0.1006  0.1954 -0.8066
 7991SOL    HW135432   0.935   2.554   6.544  1.0052  1.0471 -1.3570
 7991SOL    HW235433   0.869   2.442   6.486 -1.1888  0.5091 -1.8761
 7992SOL     OW35434   0.405   2.005   2.595  0.0454 -0.2404 -0.4207
 7992SOL    HW135435   0.378   1.952   2.670  1.8361  2.4901  2.1017
 7992SOL    HW235436   0.471   2.057   2.640 -1.0549 -0.2516  1.1921
 7993SOL     OW35437   4.193   4.109   8.550  0.4951  0.0872 -0.1827
 7993SOL    HW135438   4.280   4.070   8.559  1.3188  1.5862 -1.5999
 7993SOL    HW235439   4.134   4.035   8.560  1.5474 -0.4183  2.1181
 7994SOL     OW35440   1.067   4.559   8.223 -0.8010 -0.1016  0.2824
 7994SOL    HW135441   1.123   4.635   8.241 -1.2322  0.6278 -1.3933
 7994SOL    HW235442   1.135   4.503   8.187 -2.5604 -0.7488 -2.0476
 7995SOL     OW35443   0.565   4.323   7.839 -0.0128  0.1785  0.2218
 7995SOL    HW135444   0.598   4.297   7.753 -0.8179 -3.0967  0.8818
 7995SOL    HW235445   0.474   4.332   7.810  0.2536  2.3067  0.0691
 7996SOL     OW35446   1.474   1.625   3.606 -0.2509  0.2145  0.7147
 7996SOL    HW135447   1.397   1.681   3.615  0.0552  0.5483  1.2593
 7996SOL    HW235448   1.534   1.655   3.674 -0.0777  0.2105  0.5615
 7997SOL     OW35449   1.293   3.762   8.174  0.6151  0.2596  0.1062
 7997SOL    HW135450   1.207   3.722   8.161  0.9005 -0.1341 -0.6146
 7997SOL    HW235451   1.351   3.702   8.128 -2.0629 -1.3883 -1.1425
 7998SOL     OW35452   3.682   3.054   4.188 -0.0616 -0.0679  0.2049
 7998SOL    HW135453   3.608   3.096   4.232  0.3297  0.3691  0.4485
 7998SOL    HW235454   3.684   2.967   4.227  0.8229 -0.7631 -1.3749
 7999SOL     OW35455   4.356   2.853   5.095 -0.1900  0.2316 -0.5546
 7999SOL    HW135456   4.384   2.926   5.150 -2.4418  0.4981  0.2271
 7999SOL    HW235457   4.294   2.810   5.154 -0.2456 -0.4451 -1.1078
 8000SOL     OW35458   1.220   2.260   6.601 -0.3798  0.1125 -0.4334
 8000SOL    HW135459   1.207   2.215   6.518 -2.8321 -0.0134  0.0227
 8000SOL    HW235460   1.146   2.226   6.650 -0.0193 -1.0454 -0.6858
 8001SOL     OW35461   3.341   2.976   7.588  0.1083 -0.0718 -0.4248
 8001SOL    HW135462   3.395   3.053   7.607  0.1762 -0.2165 -0.0310
 8001SOL    HW235463   3.256   3.013   7.610  0.4307 -0.1121  0.9220
 8002SOL     OW35464   1.054   1.375   5.460 -0.0300  0.4831  0.0726
 8002SOL    HW135465   1.119   1.403   5.524 -0.7611  0.6015  0.7538
 8002SOL    HW235466   1.080   1.423   5.381 -1.5107  1.1823  0.0125
 8003SOL     OW35467   3.094   2.128  16.621  0.0852  0.0714 -0.3336
 8003SOL    HW135468   3.178   2.172  16.634  0.3338 -0.6595  0.5406
 8003SOL    HW235469   3.103   2.073  16.700  0.0325 -0.4155 -0.6639
 8004SOL     OW35470   3.743   4.527   5.790  0.3781 -0.1311  0.3614
 8004SOL    HW135471   3.775   4.521   5.880  1.1165 -2.9053 -0.0891
 8004SOL    HW235472   3.824   4.525   5.741  0.2719  0.7041  0.1510
 8005SOL     OW35473   2.594   3.286   3.842  0.5325 -0.1957  0.1748
 8005SOL    HW135474   2.571   3.209   3.790  0.4074  0.9895 -1.5077
 8005SOL    HW235475   2.535   3.263   3.913  1.0074  0.3905  0.7587
 8006SOL     OW35476   0.233   2.317   9.979  0.3085 -0.3669 -0.0615
 8006SOL    HW135477   0.283   2.279  10.051  0.8383 -0.4851 -0.4977
 8006SOL    HW235478   0.267   2.406   9.968  0.3085 -0.3280  0.2416
 8007SOL     OW35479   0.925   2.280   8.805 -0.5681 -0.0157 -0.1776
 8007SOL    HW135480   0.941   2.267   8.898  2.8617  1.3541 -0.5923
 8007SOL    HW235481   1.012   2.301   8.771 -1.2262  1.2085 -1.0851
 8008SOL     OW35482   3.352   3.346   8.009  0.1699 -0.8362 -0.1303
 8008SOL    HW135483   3.410   3.309   7.943  1.1395  2.7988 -1.2612
 8008SOL    HW235484   3.343   3.270   8.067 -0.1557 -0.4603  0.3171
 8009SOL     OW35485   2.207   0.958   6.963  0.0714 -0.4317 -0.0984
 8009SOL    HW135486   2.136   0.918   7.012 -0.7573  1.5976  0.3652
 8009SOL    HW235487   2.270   0.889   6.940  0.8846 -0.0200  0.9060
 8010SOL     OW35488   1.859   3.062   2.823 -0.2929 -0.1943 -0.0470
 8010SOL    HW135489   1.929   3.024   2.769  1.7564 -0.6152  2.9463
 8010SOL    HW235490   1.785   3.029   2.771  1.9643 -2.5709 -1.7229
 8011SOL     OW35491   3.028   0.605  13.129 -0.2224 -0.4683 -0.4464
 8011SOL    HW135492   3.080   0.551  13.069  0.4412 -1.5214  1.0861
 8011SOL    HW235493   3.044   0.563  13.214 -0.0334 -0.7515 -0.6229
 8012SOL     OW35494   2.134   4.053   7.502 -0.7183  0.4442 -0.2979
 8012SOL    HW135495   2.127   4.144   7.473 -0.5895  1.3636  2.5956
 8012SOL    HW235496   2.150   4.008   7.419  1.4282  0.6771 -0.0066
 8013SOL     OW35497   0.804   2.602   8.007 -0.0261  0.2675 -0.2135
 8013SOL    HW135498   0.863   2.585   8.080 -0.8894  0.5611  0.5468
 8013SOL    HW235499   0.796   2.697   8.012 -0.3152  0.2264  0.0474
 8014SOL     OW35500   0.477   4.620   0.691 -0.0364 -0.2522  0.5321
 8014SOL    HW135501   0.458   4.647   0.781 -1.6803  0.1165  0.0604
 8014SOL    HW235502   0.458   4.696   0.636 -0.1125 -1.3511 -0.9722
 8015SOL     OW35503   2.508   2.385   8.309  0.2713  0.5025  0.2438
 8015SOL    HW135504   2.555   2.304   8.291  0.9813  0.7577  0.9518
 8015SOL    HW235505   2.585   2.430   8.343  0.5669  0.6107 -0.5763
 8016SOL     OW35506   4.039   4.294   7.112 -0.5889 -0.2741  0.3257
 8016SOL    HW135507   4.057   4.296   7.206 -0.0386  1.2181  0.1755
 8016SOL    HW235508   4.073   4.208   7.088  1.0898  0.6083 -0.4806
 8017SOL     OW35509   0.652   0.853   3.073  0.5699 -0.6615  0.1557
 8017SOL    HW135510   0.654   0.866   2.978 -1.7860 -1.5022 -0.0226
 8017SOL    HW235511   0.589   0.922   3.095 -1.4228 -2.0842 -1.0262
 8018SOL     OW35512   1.012   4.453  17.475  0.4748 -0.7334  0.4616
 8018SOL    HW135513   0.946   4.424  17.537 -0.6849 -0.2627 -0.5418
 8018SOL    HW235514   1.074   4.381  17.485 -0.6321 -1.7949 -0.2893
 8019SOL     OW35515   0.720   3.170   4.643 -0.1100  0.7192 -0.1741
 8019SOL    HW135516   0.789   3.176   4.577 -2.4915  0.7357 -2.6435
 8019SOL    HW235517   0.742   3.247   4.696  1.3396  0.9578 -1.1552
 8020SOL     OW35518   4.115   4.600  10.080  0.4421 -0.1809  0.3850
 8020SOL    HW135519   4.052   4.651  10.131 -0.4666  0.1205 -1.0569
 8020SOL    HW235520   4.140   4.539  10.150  0.0834  1.6656  2.1169
 8021SOL     OW35521   0.911   0.607  12.476  0.2408  0.0465 -0.5145
 8021SOL    HW135522   0.918   0.512  12.467  2.3851  0.2376 -0.7089
 8021SOL    HW235523   0.993   0.641  12.441  2.1502 -2.6081  1.4163
 8022SOL     OW35524   1.188   1.171   1.104  0.1430  0.5607 -0.3648
 8022SOL    HW135525   1.210   1.164   1.011  0.0631 -2.5118 -0.1546
 8022SOL    HW235526   1.095   1.192   1.101  0.2403  0.9131 -1.0803
 8023SOL     OW35527   3.470   1.769   9.056  0.3983  0.0802  0.3422
 8023SOL    HW135528   3.523   1.837   9.098  1.1511 -2.5730  3.6403
 8023SOL    HW235529   3.532   1.698   9.042 -0.9830 -0.9172 -0.7533
 8024SOL     OW35530   3.364   2.379   3.591 -0.2519 -0.8769 -0.6521
 8024SOL    HW135531   3.393   2.453   3.537 -2.6765  2.3325  2.3737
 8024SOL    HW235532   3.438   2.381   3.651 -0.2034 -1.8117 -0.6871
 8025SOL     OW35533   3.668   1.661   6.906  0.0172  0.3993 -0.0839
 8025SOL    HW135534   3.711   1.725   6.850 -0.3985  0.6735 -0.0855
 8025SOL    HW235535   3.691   1.582   6.858 -1.3757  0.0067 -0.0989
 8026SOL     OW35536   2.393   1.890  10.424 -0.1129 -0.2499 -0.4783
 8026SOL    HW135537   2.485   1.906  10.445 -0.1848 -1.0146  0.3830
 8026SOL    HW235538   2.396   1.910  10.330 -0.2838 -0.5577 -0.5480
 8027SOL     OW35539   2.589   2.500  10.664 -0.0996  0.1838 -0.3675
 8027SOL    HW135540   2.667   2.556  10.659 -1.5643  2.3388  1.0947
 8027SOL    HW235541   2.567   2.509  10.757  0.4195 -2.8265  0.0377
 8028SOL     OW35542   0.458   2.504   5.692 -0.7141 -0.2733  0.6309
 8028SOL    HW135543   0.367   2.486   5.715 -1.2685  0.3294 -1.0918
 8028SOL    HW235544   0.478   2.440   5.624 -0.2386 -0.6088  1.0817
 8029SOL     OW35545   3.964   2.184  12.451 -0.0163  0.3038 -0.2082
 8029SOL    HW135546   4.001   2.096  12.461  0.1432  0.2322 -1.4087
 8029SOL    HW235547   4.034   2.225  12.502 -0.4420 -1.3735  1.7400
 8030SOL     OW35548   2.695   3.427   8.142  0.3328 -0.1550 -0.0233
 8030SOL    HW135549   2.635   3.496   8.115  0.6822 -0.9480 -2.8268
 8030SOL    HW235550   2.641   3.353   8.171  1.2061 -0.1997  1.5436
 8031SOL     OW35551   4.035   2.294   7.679  0.0179 -0.3427  0.0555
 8031SOL    HW135552   4.027   2.236   7.603  1.3782  0.2197 -0.5123
 8031SOL    HW235553   3.958   2.350   7.671 -0.7291 -1.2700  0.7557
 8032SOL     OW35554   3.262   3.803  13.324 -0.2063 -0.0905 -0.1339
 8032SOL    HW135555   3.275   3.727  13.381  0.8765  1.3864  1.6009
 8032SOL    HW235556   3.322   3.790  13.251 -0.4342 -0.4690 -0.2509
 8033SOL     OW35557   2.320   3.146   7.937  0.5056 -0.2310 -0.2494
 8033SOL    HW135558   2.232   3.132   7.902  0.1991 -1.4479  1.0068
 8033SOL    HW235559   2.294   3.167   8.027  1.1395  0.0390 -0.1327
 8034SOL     OW35560   0.619   0.250  11.423 -0.4992  0.2578  0.5335
 8034SOL    HW135561   0.627   0.164  11.381  2.5618 -0.6891  3.0641
 8034SOL    HW235562   0.594   0.221  11.510 -1.8324 -0.2538 -0.0328
 8035SOL     OW35563   1.932   3.663  14.619 -0.2477  0.0635 -0.3817
 8035SOL    HW135564   1.948   3.645  14.712 -0.7718  0.6826 -0.1740
 8035SOL    HW235565   2.008   3.712  14.590  0.9634 -0.1093  2.5823
 8036SOL     OW35566   0.641   0.672   2.067  0.0996  0.2437  0.1153
 8036SOL    HW135567   0.663   0.601   2.006  0.8945 -0.8760  1.7300
 8036SOL    HW235568   0.634   0.749   2.009 -0.7459 -0.2943 -0.4993
 8037SOL     OW35569   3.233   3.767   3.450 -0.7416  0.2477 -0.3371
 8037SOL    HW135570   3.167   3.718   3.499 -0.1921 -2.3372 -2.1738
 8037SOL    HW235571   3.308   3.709   3.459 -1.2456 -0.4468 -0.6267
 8038SOL     OW35572   0.975   0.327  15.090  0.1493  0.1790  0.4039
 8038SOL    HW135573   0.979   0.376  15.172 -0.3412 -0.6537  0.9303
 8038SOL    HW235574   0.881   0.316  15.074 -0.1150  1.1761  1.3496
 8039SOL     OW35575   0.053   4.150   0.126  0.2638 -0.3039 -0.5843
 8039SOL    HW135576   4.690   4.162   0.166  0.4045  0.9897 -0.6606
 8039SOL    HW235577   0.109   4.146   0.203  0.6653  1.3438 -0.7872
 8040SOL     OW35578   4.698   2.426   1.711 -0.3714 -0.2543 -0.0709
 8040SOL    HW135579   4.721   2.407   1.620  0.2641  1.1391 -0.2013
 8040SOL    HW235580   0.026   2.356   1.753 -3.0650 -0.4531  2.8769
 8041SOL     OW35581   3.718   0.252   5.815 -0.1938 -0.9624 -0.5043
 8041SOL    HW135582   3.669   0.219   5.890  0.4818  2.0875  1.2612
 8041SOL    HW235583   3.650   0.252   5.748  0.5281  0.8835 -1.2329
 8042SOL     OW35584   4.580   2.525   9.583 -0.3767 -0.3374  0.4127
 8042SOL    HW135585   4.490   2.557   9.573  0.7684  3.4835  2.3806
 8042SOL    HW235586   4.632   2.592   9.538 -0.7456  0.8420  1.7492
 8043SOL     OW35587   1.955   3.581  12.541 -0.2985  0.1049 -0.0466
 8043SOL    HW135588   1.989   3.653  12.595 -2.5621  0.9138  0.2993
 8043SOL    HW235589   1.945   3.512  12.607 -2.4809  0.0176 -0.4659
 8044SOL     OW35590   3.481   1.858   8.138  0.6880  0.0710  0.0294
 8044SOL    HW135591   3.497   1.841   8.045 -0.5838 -0.4499 -0.1024
 8044SOL    HW235592   3.555   1.827   8.189  0.9025  0.9100  0.2216
 8045SOL     OW35593   4.114   1.358  14.513  0.3123 -0.2339  0.1287
 8045SOL    HW135594   4.132   1.300  14.586 -2.3779  0.5682  1.4204
 8045SOL    HW235595   4.041   1.411  14.546  0.2531  0.5087 -1.1792
 8046SOL     OW35596   3.880   0.723   2.683 -0.2362  0.4821  0.2935
 8046SOL    HW135597   3.962   0.771   2.690  1.3350 -2.0624 -0.5981
 8046SOL    HW235598   3.886   0.678   2.599 -2.8704 -1.0944  0.9587
 8047SOL     OW35599   0.935   1.296   1.087 -0.5743 -0.0309 -0.6604
 8047SOL    HW135600   0.885   1.218   1.107  1.3752 -0.9402  0.6412
 8047SOL    HW235601   0.861   1.340   1.045 -0.1157 -0.1439 -1.5942
 8048SOL     OW35602   4.378   0.794  15.112 -0.6918 -0.0347  0.5923
 8048SOL    HW135603   4.291   0.789  15.074 -0.2642  1.2656 -0.5285
 8048SOL    HW235604   4.395   0.700  15.113 -0.6300 -0.0373 -0.9772
 8049SOL     OW35605   2.321   1.326   4.758  0.3858 -0.6179 -0.0719
 8049SOL    HW135606   2.244   1.282   4.722 -0.5682 -1.3189  2.7665
 8049SOL    HW235607   2.349   1.379   4.683 -0.3896 -1.5549 -1.0102
 8050SOL     OW35608   1.495   0.747   1.020 -0.2162  0.3261  0.3594
 8050SOL    HW135609   1.411   0.746   1.066 -2.0525  1.5108 -2.9855
 8050SOL    HW235610   1.473   0.697   0.942  0.3491  0.6143  0.0094
 8051SOL     OW35611   4.602   1.717   8.187 -0.8136  1.0929  0.5818
 8051SOL    HW135612   4.655   1.672   8.252 -1.8755  0.0893  0.7525
 8051SOL    HW235613   4.522   1.664   8.191 -0.4183  0.4510 -0.0476
 8052SOL     OW35614   2.079   3.483   2.603 -0.2464  0.0516 -0.1445
 8052SOL    HW135615   2.131   3.543   2.656 -0.4097  0.9178 -0.9602
 8052SOL    HW235616   1.990   3.518   2.596  0.0681  0.7308 -0.8319
 8053SOL     OW35617   0.422   3.000   1.444  0.1598 -0.0852  0.1227
 8053SOL    HW135618   0.406   2.930   1.508 -2.7156  0.3493 -0.1250
 8053SOL    HW235619   0.479   3.042   1.508 -0.2761 -0.9507  1.0977
 8054SOL     OW35620   2.557   3.474   7.117  0.4048 -0.1313  0.4614
 8054SOL    HW135621   2.509   3.433   7.046  1.1607  2.1238 -1.3325
 8054SOL    HW235622   2.580   3.561   7.084 -1.3849  0.0676 -0.2549
 8055SOL     OW35623   4.598   0.294   7.237 -0.1593  0.3944 -0.2095
 8055SOL    HW135624   4.564   0.243   7.310 -1.2843  0.8263 -0.4424
 8055SOL    HW235625   4.615   0.375   7.287 -0.9762 -0.2028  1.0163
 8056SOL     OW35626   4.628   0.942   7.425  0.3171  0.1385  0.7192
 8056SOL    HW135627   4.569   1.016   7.415 -0.3584 -0.4434  0.3641
 8056SOL    HW235628   4.602   0.892   7.347 -0.9523  0.3729  0.9922
 8057SOL     OW35629   0.971   1.044   8.302 -0.4281 -0.4125 -0.2110
 8057SOL    HW135630   0.891   1.089   8.276 -0.9352 -0.2099  1.7188
 8057SOL    HW235631   0.969   1.044   8.397 -1.5702  2.0445 -0.2415
 8058SOL     OW35632   3.411   3.561   5.091 -0.4140  0.2730  0.1060
 8058SOL    HW135633   3.490   3.538   5.043 -1.5542 -1.7437 -0.7897
 8058SOL    HW235634   3.392   3.479   5.136  0.6066 -0.8111 -1.4462
 8059SOL     OW35635   0.066   1.704   6.117  0.0990 -0.1110 -0.1548
 8059SOL    HW135636   0.150   1.666   6.090 -0.0778 -0.7559  0.2012
 8059SOL    HW235637   0.098   1.789   6.146  0.4087 -0.7089  1.2371
 8060SOL     OW35638   2.124   2.408  13.023  0.1596  0.1379 -0.3356
 8060SOL    HW135639   2.189   2.375  12.962 -1.3718 -0.8224 -1.4534
 8060SOL    HW235640   2.099   2.497  12.995 -0.6351  0.5232  1.5724
 8061SOL     OW35641   1.624   2.329   7.756 -0.2351  0.1030 -0.2183
 8061SOL    HW135642   1.581   2.390   7.815  2.1768 -0.7859  2.4952
 8061SOL    HW235643   1.581   2.343   7.671  0.6110  0.2852 -0.6193
 8062SOL     OW35644   2.934   3.422   4.927  0.4275 -0.1142 -0.7659
 8062SOL    HW135645   2.983   3.377   4.858  2.0321 -3.1270  2.3184
 8062SOL    HW235646   3.012   3.469   4.957 -1.2828 -0.4170  4.1222
 8063SOL     OW35647   3.180   4.227   3.427  0.2431  0.1138 -0.1112
 8063SOL    HW135648   3.264   4.206   3.386  0.2860 -0.7744  0.4300
 8063SOL    HW235649   3.152   4.311   3.391  0.4112  0.9399  1.7203
 8064SOL     OW35650   0.188   3.817   1.285 -0.4792  0.3426 -0.1858
 8064SOL    HW135651   0.210   3.753   1.352  1.2824  1.7932  0.6247
 8064SOL    HW235652   0.131   3.761   1.233  1.6715 -0.7650 -1.3927
 8065SOL     OW35653   0.984   0.425  10.010 -1.1311  0.3758 -0.0089
 8065SOL    HW135654   0.907   0.398  10.060 -0.6942 -0.8923 -0.0434
 8065SOL    HW235655   0.949   0.421   9.921 -0.7886 -1.6116 -0.0498
 8066SOL     OW35656   2.972   0.876  15.727  0.0303 -0.1520  0.0073
 8066SOL    HW135657   2.986   0.969  15.710 -0.0227 -0.0527  0.5241
 8066SOL    HW235658   3.015   0.838  15.650 -0.5593  0.5736 -0.6701
 8067SOL     OW35659   2.619   3.883   8.125  0.0884  0.1592  0.2815
 8067SOL    HW135660   2.697   3.937   8.121 -0.7271  1.2627 -0.7837
 8067SOL    HW235661   2.547   3.940   8.153 -0.1131  0.5559 -1.0181
 8068SOL     OW35662   0.156   3.345   8.122  0.7079  0.1790 -0.6028
 8068SOL    HW135663   0.103   3.298   8.186  0.9052  0.7352 -0.0230
 8068SOL    HW235664   0.105   3.424   8.106  0.5620  0.0621 -0.7183
 8069SOL     OW35665   2.578   1.583  11.638 -0.7199 -0.1718  0.3559
 8069SOL    HW135666   2.556   1.645  11.708 -0.7151 -0.6424  0.7774
 8069SOL    HW235667   2.489   1.549  11.623 -0.2197 -1.5175  0.3933
 8070SOL     OW35668   2.238   2.843  17.449 -0.4111 -0.1002  0.0504
 8070SOL    HW135669   2.178   2.918  17.450 -0.6009 -0.2030 -3.1793
 8070SOL    HW235670   2.318   2.874  17.492  0.6538 -2.6984 -0.0360
 8071SOL     OW35671   4.138   4.680   0.513 -0.3714 -0.6496 -0.2297
 8071SOL    HW135672   4.056   4.679   0.563 -0.5807  1.1051 -0.5324
 8071SOL    HW235673   4.140   0.048   0.483  0.6107 -0.4998  0.3224
 8072SOL     OW35674   3.175   0.217  12.309  0.0064 -0.1467 -0.1447
 8072SOL    HW135675   3.228   0.266  12.246 -0.3007 -1.0010 -1.0693
 8072SOL    HW235676   3.228   0.142  12.335  1.1147  1.2505  1.5652
 8073SOL     OW35677   2.490   3.870   7.055  0.0458 -0.5351 -0.0276
 8073SOL    HW135678   2.543   3.805   7.008 -1.0269 -0.4614 -1.3539
 8073SOL    HW235679   2.480   3.942   6.992  1.0904 -1.8859 -1.7410
 8074SOL     OW35680   2.113   4.589   8.536 -0.2529 -0.2155 -0.2340
 8074SOL    HW135681   2.108   4.602   8.442 -0.8835  2.3542  0.1747
 8074SOL    HW235682   2.022   4.578   8.563 -0.1125  0.8306  0.6624
 8075SOL     OW35683   0.900   3.023   8.528  0.0326  0.1347 -0.0513
 8075SOL    HW135684   0.931   3.107   8.561  0.2933  0.1539 -0.3512
 8075SOL    HW235685   0.963   3.027   8.457  0.6937  0.4582  0.5532
 8076SOL     OW35686   0.717   0.850   3.527 -0.8605 -0.2054  0.2056
 8076SOL    HW135687   0.729   0.938   3.563  1.4826 -0.9105  1.1622
 8076SOL    HW235688   0.698   0.856   3.434  0.3634 -0.2204 -0.0441
 8077SOL     OW35689   0.805   4.712   6.404 -0.2041  0.5375 -0.2192
 8077SOL    HW135690   0.763   0.020   6.324  4.3274 -0.3724 -2.9205
 8077SOL    HW235691   0.750   0.033   6.469 -0.2214 -1.7211  1.3158
 8078SOL     OW35692   3.660   2.409   2.535 -0.0843  0.2497 -0.1742
 8078SOL    HW135693   3.640   2.442   2.447  1.7490  0.5318 -0.4747
 8078SOL    HW235694   3.615   2.325   2.525  2.6742 -1.2132 -0.2517
 8079SOL     OW35695   3.521   4.609   3.246 -0.2096 -0.0581 -0.1534
 8079SOL    HW135696   3.492   4.633   3.334 -1.2009 -1.3692 -0.1242
 8079SOL    HW235697   3.607   4.650   3.254 -1.1392  1.6758  0.9350
 8080SOL     OW35698   1.916   0.149   3.663 -0.0024 -0.6886 -0.3360
 8080SOL    HW135699   1.957   0.067   3.635  1.5181 -0.1196  0.2144
 8080SOL    HW235700   1.829   0.122   3.634  0.0154  0.5863 -1.5445
 8081SOL     OW35701   3.074   0.143   8.448  0.3311  0.3552  0.4572
 8081SOL    HW135702   3.118   0.104   8.372  0.8856  0.6130  0.6489
 8081SOL    HW235703   3.004   0.189   8.401  0.8899 -0.0660 -0.8037
 8082SOL     OW35704   0.817   0.718  14.122  0.1845  0.0298  0.3141
 8082SOL    HW135705   0.879   0.789  14.104 -1.0426  1.0448  0.0267
 8082SOL    HW235706   0.746   0.735  14.061 -0.1372 -1.8805  0.1617
 8083SOL     OW35707   1.269   0.263  10.677  0.0643  0.0280 -0.4189
 8083SOL    HW135708   1.330   0.194  10.701  0.5528  0.7676  0.4527
 8083SOL    HW235709   1.308   0.288  10.593  1.1710  0.4237  0.2192
 8084SOL     OW35710   2.975   1.126   2.063 -0.4036 -0.3029 -0.0217
 8084SOL    HW135711   2.920   1.161   1.993 -2.2866 -1.0084  1.1225
 8084SOL    HW235712   2.908   1.107   2.129  0.7881 -2.9154  0.4237
 8085SOL     OW35713   1.938   2.613  17.608  0.0934 -0.7127  1.2406
 8085SOL    HW135714   1.950   2.553  17.535  0.0673  0.2204  0.4641
 8085SOL    HW235715   2.030   2.639  17.622  0.4436 -1.4288  0.2613
 8086SOL     OW35716   1.326   4.281   7.049  0.4442  0.2821 -0.2337
 8086SOL    HW135717   1.240   4.284   7.009 -0.2186 -1.7145  1.0230
 8086SOL    HW235718   1.392   4.299   6.982  1.0432  1.5134  0.6842
 8087SOL     OW35719   3.753   2.309   9.136  0.3526  0.1335  0.1382
 8087SOL    HW135720   3.783   2.258   9.211  4.0787  0.6099 -1.0450
 8087SOL    HW235721   3.687   2.366   9.175  0.1483 -1.2333  1.8018
 8088SOL     OW35722   4.201   1.554   3.285 -0.4349  0.7118 -0.0774
 8088SOL    HW135723   4.127   1.493   3.280 -0.1164  0.2733  0.5213
 8088SOL    HW235724   4.221   1.568   3.193  0.5796  0.2637  0.0733
 8089SOL     OW35725   1.698   3.408  17.416 -0.2230  0.4335 -0.2241
 8089SOL    HW135726   1.715   3.461  17.493 -0.4398 -2.3480  1.7339
 8089SOL    HW235727   1.789   3.383  17.402 -0.1473  0.6371 -0.0912
 8090SOL     OW35728   1.152   0.902  11.707 -0.1835 -0.2544 -0.3586
 8090SOL    HW135729   1.155   0.829  11.645 -0.4536 -0.0063 -0.6632
 8090SOL    HW235730   1.141   0.980  11.652  0.2142  0.7088  0.9421
 8091SOL     OW35731   0.811   1.967   2.349  0.1108 -0.4037  0.5145
 8091SOL    HW135732   0.830   1.920   2.268  1.4571  0.4011  0.3640
 8091SOL    HW235733   0.747   1.908   2.389  0.8327  0.2577  2.6225
 8092SOL     OW35734   2.150   1.250  17.019  0.6066 -0.3336 -0.1367
 8092SOL    HW135735   2.150   1.262  17.114 -1.3916  1.8698 -0.3940
 8092SOL    HW235736   2.114   1.162  17.011  0.5497 -0.3406  0.1998
 8093SOL     OW35737   3.953   3.487  12.676  0.0628  0.0101 -0.4459
 8093SOL    HW135738   3.880   3.461  12.621 -1.6070 -0.9616  2.2008
 8093SOL    HW235739   4.010   3.418  12.643  0.1010  0.3211 -1.0250
 8094SOL     OW35740   3.742   0.242   6.792  0.3915 -0.1410 -0.1997
 8094SOL    HW135741   3.719   0.156   6.827 -0.9473  0.2033 -0.2543
 8094SOL    HW235742   3.803   0.272   6.859  0.0130  0.7859 -0.2723
 8095SOL     OW35743   0.224   3.630  10.202  0.6602  0.1350  0.3892
 8095SOL    HW135744   0.308   3.585  10.200  0.8874  0.5516  0.5028
 8095SOL    HW235745   0.254   3.721  10.195  0.9159 -0.0587 -1.1123
 8096SOL     OW35746   4.213   1.794   4.343  0.3232 -0.1158 -0.1090
 8096SOL    HW135747   4.194   1.817   4.434  3.0866  0.0977  0.4111
 8096SOL    HW235748   4.304   1.763   4.350 -1.0169 -3.6406  1.6692
 8097SOL     OW35749   1.794   4.560   4.848  0.5690  0.4621  0.3122
 8097SOL    HW135750   1.867   4.501   4.834  1.2244  0.9712  1.5807
 8097SOL    HW235751   1.821   4.618   4.920 -1.6721  1.6151  0.2358
 8098SOL     OW35752   3.358   1.002  13.823 -0.1148  0.4218 -0.5494
 8098SOL    HW135753   3.435   1.007  13.881 -1.0308 -0.3454  0.7212
 8098SOL    HW235754   3.325   1.091  13.833 -0.6070  0.0500  1.0773
 8099SOL     OW35755   4.376   2.432   8.187 -0.0503 -0.0029  0.2376
 8099SOL    HW135756   4.384   2.457   8.279 -0.4783 -1.1450  0.5849
 8099SOL    HW235757   4.304   2.490   8.159 -1.4406 -0.9391  1.8667
 8100SOL     OW35758   0.960   3.146   7.299  0.1765 -0.1290  0.3384
 8100SOL    HW135759   0.941   3.140   7.392  0.4605 -0.3262  0.3839
 8100SOL    HW235760   1.055   3.150   7.308  0.4096 -2.0001 -1.2186
 8101SOL     OW35761   4.426   0.925   5.803 -0.1219 -0.2204  0.1029
 8101SOL    HW135762   4.522   0.919   5.801 -0.1693 -0.3914 -2.2005
 8101SOL    HW235763   4.417   0.979   5.881 -0.9567 -0.2503  0.0232
 8102SOL     OW35764   1.982   4.043   9.310  0.4907  0.0743 -0.1834
 8102SOL    HW135765   2.040   4.064   9.237  2.1083  1.4970  1.5084
 8102SOL    HW235766   1.897   4.043   9.267  0.0753  0.7075  0.6398
 8103SOL     OW35767   2.902   2.408   5.855 -0.2884 -1.1543  0.1076
 8103SOL    HW135768   2.823   2.356   5.867 -0.9136 -0.7463 -2.2285
 8103SOL    HW235769   2.856   2.492   5.847  0.5857 -0.6702  0.0551
 8104SOL     OW35770   4.562   2.141  11.976  1.0884  0.4216 -0.0916
 8104SOL    HW135771   4.611   2.153  12.058  0.8837 -1.1575  0.2689
 8104SOL    HW235772   4.623   2.092  11.921  0.0184 -1.7459  0.6212
 8105SOL     OW35773   1.605   2.403   3.034  0.1844  0.5041  0.3185
 8105SOL    HW135774   1.535   2.409   3.099 -0.5248 -0.7823 -0.3319
 8105SOL    HW235775   1.606   2.308   3.025  1.0835  0.5316  0.1519
 8106SOL     OW35776   0.598   4.391   5.020 -0.3584 -0.1690  0.3079
 8106SOL    HW135777   0.515   4.425   4.986  0.7253  1.1289 -1.0348
 8106SOL    HW235778   0.552   4.356   5.097  1.2026  0.1936  1.4025
 8107SOL     OW35779   3.585   2.801   9.013  0.2098 -0.0616  0.0626
 8107SOL    HW135780   3.607   2.816   9.105  1.0901 -3.0590  0.3299
 8107SOL    HW235781   3.538   2.884   8.998 -2.5530 -1.2400  2.1942
 8108SOL     OW35782   3.578   2.598   4.239  0.1957 -0.3986 -0.1631
 8108SOL    HW135783   3.664   2.564   4.214  0.4154 -0.4132  0.5991
 8108SOL    HW235784   3.566   2.659   4.166 -0.0479  0.1792  0.3601
 8109SOL     OW35785   2.024   0.002   8.806 -0.0344 -0.2549  0.7938
 8109SOL    HW135786   2.014   0.089   8.768 -1.3671 -0.1648  1.3624
 8109SOL    HW235787   1.945   0.018   8.857  0.8256  1.7891  1.4561
 8110SOL     OW35788   0.961   2.920   1.828 -0.5443  0.5615  0.0506
 8110SOL    HW135789   0.916   2.842   1.861  3.6956 -1.6049  0.8420
 8110SOL    HW235790   0.915   2.935   1.746 -1.8784  0.1826  0.7350
 8111SOL     OW35791   0.677   3.473  11.205  0.4983 -0.4613 -0.4136
 8111SOL    HW135792   0.656   3.393  11.254 -1.6526  1.3426  1.5588
 8111SOL    HW235793   0.612   3.537  11.235  0.9826 -0.3365  0.3768
 8112SOL     OW35794   1.473   4.164   9.087 -0.4277  0.4382 -0.1339
 8112SOL    HW135795   1.422   4.090   9.118 -1.4298  0.8066 -0.8913
 8112SOL    HW235796   1.520   4.115   9.019 -0.6194 -1.1826  0.9021
 8113SOL     OW35797   0.344   0.992  10.764 -0.2038 -0.0608 -0.2139
 8113SOL    HW135798   0.426   0.968  10.808 -1.7566 -1.9596  1.6284
 8113SOL    HW235799   0.344   0.931  10.690 -1.7895  0.6411 -0.7798
 8114SOL     OW35800   2.988   2.786   5.689 -0.4748 -0.0170 -0.1877
 8114SOL    HW135801   2.902   2.817   5.660 -1.3032 -1.0184  1.2073
 8114SOL    HW235802   2.971   2.762   5.780  0.3085  2.9613  0.7322
 8115SOL     OW35803   1.024   0.990  15.024 -0.3053  0.5796  0.1763
 8115SOL    HW135804   0.931   0.974  15.010 -0.6374  1.8215  0.9911
 8115SOL    HW235805   1.011   1.042  15.104 -1.7800  1.4960 -0.6666
 8116SOL     OW35806   2.402   1.519   6.462  0.1207  0.4490  0.2562
 8116SOL    HW135807   2.461   1.568   6.519  1.3373 -0.8548  0.0947
 8116SOL    HW235808   2.376   1.440   6.509  2.1685 -0.2301  0.2315
 8117SOL     OW35809   0.813   4.427   8.582  0.0175  0.0865  0.3956
 8117SOL    HW135810   0.823   4.486   8.506 -1.0631 -1.2868 -0.8114
 8117SOL    HW235811   0.738   4.371   8.563 -0.4009  0.6230  0.4681
 8118SOL     OW35812   3.739   0.154   2.100 -0.3331 -0.3139 -0.1888
 8118SOL    HW135813   3.824   0.111   2.088 -0.6762 -1.1981  0.5337
 8118SOL    HW235814   3.721   0.154   2.194 -2.3596 -0.6422 -0.5855
 8119SOL     OW35815   2.769   3.020   6.028  0.2956  0.9182  0.1195
 8119SOL    HW135816   2.794   3.111   6.011  2.1545  0.4517  0.4065
 8119SOL    HW235817   2.693   3.006   5.972  1.1488 -0.7911 -0.6098
 8120SOL     OW35818   0.358   2.712   5.365  0.7769 -0.1810 -0.2620
 8120SOL    HW135819   0.312   2.640   5.324 -2.0008  0.1203  2.3665
 8120SOL    HW235820   0.287   2.740   5.422 -0.4838 -0.8271 -1.5323
 8121SOL     OW35821   2.369   4.366   9.146  0.5533  0.0438  0.5030
 8121SOL    HW135822   2.452   4.407   9.120  0.4652  0.7583  1.3296
 8121SOL    HW235823   2.331   4.441   9.193 -0.9535 -1.4353  1.6333
 8122SOL     OW35824   3.281   4.224  16.049 -0.1936  0.8980 -0.2324
 8122SOL    HW135825   3.269   4.149  15.991  0.0865  0.2425  0.5636
 8122SOL    HW235826   3.283   4.174  16.131  0.7827  4.5571  1.9944
 8123SOL     OW35827   4.657   0.035  16.247 -0.2852 -0.1689 -0.8636
 8123SOL    HW135828   4.588   0.004  16.189 -1.4542  2.4054 -0.8195
 8123SOL    HW235829   4.652   0.130  16.235 -0.2065 -0.2335 -1.3981
 8124SOL     OW35830   0.231   1.459   2.177  0.5770 -0.3230  0.6355
 8124SOL    HW135831   0.264   1.513   2.248 -1.6844  0.1902  1.3155
 8124SOL    HW235832   0.191   1.526   2.120  1.2714  1.1802  1.9442
 8125SOL     OW35833   1.135   2.964  17.648  0.5522 -0.3359 -0.2457
 8125SOL    HW135834   1.219   2.990  17.611 -0.5031  4.3708  0.6398
 8125SOL    HW235835   1.162   2.880  17.685  0.9429 -0.0761  0.0667
 8126SOL     OW35836   1.749   4.205   8.225 -0.2454  0.0457 -0.4280
 8126SOL    HW135837   1.713   4.224   8.139 -5.5036 -0.0029  1.7379
 8126SOL    HW235838   1.688   4.141   8.261  2.7738 -2.0485  0.9756
 8127SOL     OW35839   4.278   4.362   1.901  1.2534  0.2330 -0.1725
 8127SOL    HW135840   4.310   4.351   1.812  3.1174  1.9119  0.2821
 8127SOL    HW235841   4.186   4.336   1.895  1.7396 -1.2067 -1.1594
 8128SOL     OW35842   4.415   2.749   1.525  0.1048  0.8785 -0.4234
 8128SOL    HW135843   4.338   2.714   1.569 -1.5013  1.6837 -2.6310
 8128SOL    HW235844   4.388   2.836   1.495 -0.5286  0.6836 -0.4176
 8129SOL     OW35845   1.718   4.425   9.632  0.4235  0.7616  0.3086
 8129SOL    HW135846   1.696   4.344   9.585  3.3288  0.0223  0.2030
 8129SOL    HW235847   1.677   4.492   9.578  0.0265  1.0729  1.0084
 8130SOL     OW35848   3.958   2.267   3.168 -0.3779  0.6674  0.3111
 8130SOL    HW135849   3.924   2.249   3.080 -1.2971  0.5214  0.6972
 8130SOL    HW235850   3.901   2.343   3.181 -1.9809 -0.4059 -0.4525
 8131SOL     OW35851   4.659   0.850   9.135 -0.2176  0.1684  0.3667
 8131SOL    HW135852   4.630   0.773   9.182 -0.9129  0.7252  0.8523
 8131SOL    HW235853   4.581   0.885   9.091 -1.7715 -0.1289  2.9162
 8132SOL     OW35854   4.639   2.222   8.438  0.5309 -0.0022 -0.2171
 8132SOL    HW135855   4.595   2.172   8.507  1.3379 -1.4164 -0.7272
 8132SOL    HW235856   0.003   2.246   8.471 -0.3944  1.8038  0.8889
 8133SOL     OW35857   4.203   3.853   2.147  0.6663 -0.2953 -0.1853
 8133SOL    HW135858   4.284   3.852   2.198 -0.6236 -1.0860  1.8528
 8133SOL    HW235859   4.140   3.817   2.210 -0.5522  0.1475 -1.1558
 8134SOL     OW35860   3.092   3.925  10.913  0.6622 -0.3147 -0.6525
 8134SOL    HW135861   3.072   3.902  10.822  3.0546  0.0508 -1.2542
 8134SOL    HW235862   3.135   4.011  10.906  0.4467 -0.1040  0.6470
 8135SOL     OW35863   2.768   4.255  15.704  0.1933  0.0419 -0.4740
 8135SOL    HW135864   2.851   4.263  15.657  0.5240  5.0328  1.0134
 8135SOL    HW235865   2.762   4.328  15.765  1.1045 -1.7332  1.7274
 8136SOL     OW35866   0.645   1.350   4.417 -0.0108 -0.0510 -0.6878
 8136SOL    HW135867   0.649   1.446   4.418 -1.0636 -0.0186 -0.0503
 8136SOL    HW235868   0.606   1.336   4.331 -0.4616 -0.9295 -0.3352
 8137SOL     OW35869   0.698   1.118   5.933  0.0783  0.0267 -0.3194
 8137SOL    HW135870   0.693   1.025   5.911  0.4558 -0.4106  1.4722
 8137SOL    HW235871   0.605   1.140   5.930 -0.1360 -0.7195  0.8201
 8138SOL     OW35872   0.148   4.066   3.192 -0.0173 -0.2295 -0.0966
 8138SOL    HW135873   0.070   4.102   3.235  0.6371  0.5547  0.4275
 8138SOL    HW235874   0.129   3.973   3.204 -1.0063 -0.1070 -0.6942
 8139SOL     OW35875   0.055   2.142   9.359 -0.1564  0.1661  0.0335
 8139SOL    HW135876   4.716   2.187   9.417 -1.4309 -0.3080 -0.9573
 8139SOL    HW235877   0.048   2.196   9.280 -0.0770  0.9998  0.5972
 8140SOL     OW35878   4.084   1.311   9.439 -0.9805  0.9571 -0.2445
 8140SOL    HW135879   4.014   1.302   9.376 -1.6797 -0.5712  0.7387
 8140SOL    HW235880   4.078   1.404   9.461  0.1341  1.1930 -0.9269
 8141SOL     OW35881   0.254   3.205   3.199  0.0238 -0.7645  0.2601
 8141SOL    HW135882   0.237   3.117   3.230 -0.2184 -0.1102  1.9730
 8141SOL    HW235883   0.349   3.197   3.203  0.0061 -1.3310 -0.4154
 8142SOL     OW35884   4.561   1.686  15.454  0.4312 -0.1652 -0.4296
 8142SOL    HW135885   4.574   1.700  15.360 -1.0317  3.2298 -0.1048
 8142SOL    HW235886   4.637   1.727  15.495 -0.5235  0.4356  0.7788
 8143SOL     OW35887   4.387   4.098   5.298  0.6171 -0.4162  0.0262
 8143SOL    HW135888   4.463   4.082   5.353  0.4810  0.9598  0.6190
 8143SOL    HW235889   4.347   4.164   5.354  0.3167 -0.9215  0.4061
 8144SOL     OW35890   2.147   0.130   5.851 -0.3344 -0.3979  0.3687
 8144SOL    HW135891   2.131   0.219   5.885  1.5945  0.6977 -1.5939
 8144SOL    HW235892   2.175   0.151   5.762 -3.5941 -0.2254 -0.6147
 8145SOL     OW35893   1.785   2.088   3.331  0.6904 -0.0102 -0.3986
 8145SOL    HW135894   1.806   2.149   3.262  2.3352  0.0807  0.1857
 8145SOL    HW235895   1.862   2.032   3.323  0.5546 -0.3280  0.5251
 8146SOL     OW35896   2.732   2.626   5.823  0.7320 -0.0476 -0.1130
 8146SOL    HW135897   2.791   2.672   5.883 -1.3841 -0.5754  2.3494
 8146SOL    HW235898   2.670   2.588   5.885 -0.3598  0.3158 -0.9687
 8147SOL     OW35899   3.934   0.082   1.130 -0.5340 -0.0780  0.2673
 8147SOL    HW135900   4.006   0.065   1.069 -1.2226  1.9688 -1.1263
 8147SOL    HW235901   3.855   0.054   1.084  0.2662 -1.0396 -0.5274
 8148SOL     OW35902   3.964   2.327   4.841 -0.2096  0.1455 -0.0590
 8148SOL    HW135903   3.882   2.338   4.793 -0.1769  1.4276  0.1797
 8148SOL    HW235904   3.979   2.416   4.874 -0.7604  0.6876 -1.2550
 8149SOL     OW35905   1.518   3.042   9.509  1.1877  0.2922 -0.0324
 8149SOL    HW135906   1.494   3.071   9.421 -0.9163 -2.2887 -0.3150
 8149SOL    HW235907   1.576   2.968   9.494  0.6451 -0.6044  2.2463
 8150SOL     OW35908   3.239   0.691   8.328 -0.0735  0.1218 -0.1502
 8150SOL    HW135909   3.306   0.760   8.333 -0.0631  0.0054  1.2714
 8150SOL    HW235910   3.271   0.624   8.268 -0.9352  0.8826 -1.4628
 8151SOL     OW35911   1.390   2.928   4.257  0.0784 -0.0524 -0.1038
 8151SOL    HW135912   1.407   2.852   4.312  0.2354 -0.1253 -0.2537
 8151SOL    HW235913   1.377   2.994   4.324  2.8117 -0.4360  0.7842
 8152SOL     OW35914   0.009   0.051   8.132 -0.3273 -0.6109  0.1873
 8152SOL    HW135915   4.683   0.025   8.211 -0.6879  0.3020  0.2699
 8152SOL    HW235916   4.662   0.099   8.087  0.5919  1.4426  0.9566
 8153SOL     OW35917   2.109   1.748   7.888  0.2998 -0.3893  0.3111
 8153SOL    HW135918   2.099   1.843   7.902  1.2000 -0.1380 -0.7646
 8153SOL    HW235919   2.019   1.721   7.871  0.8402 -0.1261 -2.8908
 8154SOL     OW35920   0.601   0.068   0.185 -0.2022  0.2842  0.4759
 8154SOL    HW135921   0.601   0.158   0.218 -0.0128  0.9392 -1.3351
 8154SOL    HW235922   0.693   0.073   0.160 -0.1993  0.0934  0.4499
 8155SOL     OW35923   4.466   2.160   5.125 -0.1679  0.4811 -0.1355
 8155SOL    HW135924   4.381   2.125   5.153 -0.7252  0.7076 -1.5674
 8155SOL    HW235925   4.460   2.245   5.169 -0.2697  0.7847 -0.7374
 8156SOL     OW35926   3.283   3.507   2.765  0.3208  0.0670 -0.3019
 8156SOL    HW135927   3.245   3.429   2.724  1.4777 -0.2250 -0.8042
 8156SOL    HW235928   3.366   3.523   2.721  0.2540 -0.6995 -0.7202
 8157SOL     OW35929   0.548   1.294  12.017 -0.2362  0.5913  0.1457
 8157SOL    HW135930   0.597   1.228  11.968 -0.9901  0.2575 -0.1766
 8157SOL    HW235931   0.588   1.297  12.103 -0.1085  0.9466  0.0718
 8158SOL     OW35932   2.716   4.263   1.774  0.8271  0.0848 -0.0028
 8158SOL    HW135933   2.733   4.207   1.698  0.3274 -2.0752  1.4618
 8158SOL    HW235934   2.782   4.332   1.766  2.2227 -1.5439 -2.9079
 8159SOL     OW35935   1.408   3.490   7.052 -0.0295 -0.5545  0.3232
 8159SOL    HW135936   1.479   3.487   7.116  1.2513  0.1339 -1.0589
 8159SOL    HW235937   1.369   3.405   7.073 -0.7129 -0.4199 -0.3924
 8160SOL     OW35938   1.294   0.172  16.109 -0.5161 -0.1894  0.5499
 8160SOL    HW135939   1.317   0.198  16.198  1.1378 -1.0467  0.3679
 8160SOL    HW235940   1.363   0.221  16.064 -0.4139 -2.9539 -2.2782
 8161SOL     OW35941   3.071   0.775   6.502 -0.4682 -0.3632  0.1194
 8161SOL    HW135942   2.998   0.747   6.447 -0.2193 -2.2178  0.7371
 8161SOL    HW235943   3.116   0.831   6.438 -0.6829  0.8396  1.0404
 8162SOL     OW35944   4.326   0.774   2.104 -1.1838 -0.1405  0.0160
 8162SOL    HW135945   4.336   0.843   2.169 -3.5091 -0.6963  0.9762
 8162SOL    HW235946   4.249   0.739   2.149 -0.9239  1.2699  1.5450
 8163SOL     OW35947   1.362   4.649   5.548 -0.3942 -0.0298 -0.5147
 8163SOL    HW135948   1.371   4.631   5.641  0.3858  0.3333 -0.5178
 8163SOL    HW235949   1.286   4.599   5.517  0.5689 -1.0941 -1.1568
 8164SOL     OW35950   0.044   0.970  12.382  0.3145 -0.3275  0.1563
 8164SOL    HW135951   4.702   1.039  12.372  0.3293 -0.5406 -1.3409
 8164SOL    HW235952   0.122   1.019  12.409 -0.0220  0.1617  0.2220
 8165SOL     OW35953   3.195   0.456   6.505  0.4110  0.9140  0.7761
 8165SOL    HW135954   3.278   0.490   6.540  0.6027  1.5977 -0.3131
 8165SOL    HW235955   3.213   0.444   6.411 -2.1383  3.0593  0.0169
 8166SOL     OW35956   3.864   2.687   6.992 -0.1368  0.2564  0.0948
 8166SOL    HW135957   3.842   2.680   6.899  0.7010  1.2920 -0.1743
 8166SOL    HW235958   3.876   2.592   7.000 -0.0172  0.4179  1.9553
 8167SOL     OW35959   2.013   0.677   6.215 -0.5828  0.3242  0.6227
 8167SOL    HW135960   2.007   0.621   6.137  1.0426  1.0382 -0.0177
 8167SOL    HW235961   2.012   0.605   6.279  1.0451  0.0386  0.3309
 8168SOL     OW35962   3.067   1.582   1.103 -0.8438  0.6044  0.1589
 8168SOL    HW135963   3.054   1.663   1.052 -1.2056 -0.4703 -1.4707
 8168SOL    HW235964   3.113   1.615   1.180 -0.4100  0.3543  0.0066
 8169SOL     OW35965   2.701   0.482   4.287 -0.1998 -0.1970 -0.1562
 8169SOL    HW135966   2.774   0.536   4.256  0.6170 -1.6420 -0.7410
 8169SOL    HW235967   2.700   0.413   4.221 -1.0746  0.3571 -0.7324
 8170SOL     OW35968   2.736   3.574   4.748  0.8205 -0.3556 -0.4438
 8170SOL    HW135969   2.810   3.524   4.782  1.5951  1.2143  0.2070
 8170SOL    HW235970   2.778   3.629   4.681 -2.3362  0.9598 -1.3405
 8171SOL     OW35971   0.848   2.703   5.445 -0.1519 -0.3365  0.1290
 8171SOL    HW135972   0.802   2.763   5.503 -1.0383  0.5922 -1.5249
 8171SOL    HW235973   0.930   2.753   5.438 -0.2417 -0.3501 -1.0313
 8172SOL     OW35974   1.591   0.342   8.412 -0.0308  0.1472  0.4976
 8172SOL    HW135975   1.646   0.272   8.449  1.3330  0.3560 -1.1167
 8172SOL    HW235976   1.540   0.284   8.356  0.9338  1.2710 -1.5267
 8173SOL     OW35977   2.278   4.437   6.340 -0.5252 -0.0117 -0.0554
 8173SOL    HW135978   2.274   4.487   6.422  0.1557 -1.2473  0.7413
 8173SOL    HW235979   2.194   4.451   6.297 -0.4902 -1.0060 -0.4363
 8174SOL     OW35980   4.020   1.428   6.375 -0.5915 -0.4379 -0.2743
 8174SOL    HW135981   3.953   1.449   6.440 -0.4405 -2.1587  0.4150
 8174SOL    HW235982   3.990   1.349   6.329  2.5284 -0.8221 -1.6079
 8175SOL     OW35983   1.027   0.995   7.295 -0.3330 -0.7343 -0.9443
 8175SOL    HW135984   1.092   1.026   7.358 -0.1631  1.9213 -2.4289
 8175SOL    HW235985   0.981   0.942   7.361  0.3042 -1.2251 -0.8888
 8176SOL     OW35986   3.038   0.762  14.863 -0.3821 -0.3305 -0.2007
 8176SOL    HW135987   3.127   0.747  14.896  0.0676  1.1285 -0.7089
 8176SOL    HW235988   2.987   0.747  14.942  0.7053 -0.2980  0.5036
 8177SOL     OW35989   0.006   0.653  17.522  0.8057  0.1177 -0.0667
 8177SOL    HW135990   0.041   0.593  17.456  2.0547  1.6951 -0.8493
 8177SOL    HW235991   4.656   0.692  17.473  1.5502 -0.6405 -1.8003
 8178SOL     OW35992   0.557   2.573   7.297 -0.0669  0.2455  0.4113
 8178SOL    HW135993   0.530   2.502   7.238 -0.6473  1.1563 -0.4108
 8178SOL    HW235994   0.649   2.550   7.312  0.2715  1.2996 -0.0834
 8179SOL     OW35995   0.249   0.411  17.507 -0.1399 -0.3975  0.2294
 8179SOL    HW135996   0.194   0.458  17.444  1.0840  1.5049  0.5965
 8179SOL    HW235997   0.332   0.433  17.465 -0.7277  0.0643 -0.6835
 8180SOL     OW35998   1.022   4.186   8.103 -0.2018  0.5169  0.0383
 8180SOL    HW135999   0.969   4.255   8.062 -2.3105 -1.4641 -0.6013
 8180SOL    HW236000   0.976   4.157   8.182  2.2956  2.1710  2.1113
 8181SOL     OW36001   1.801   3.676   8.582 -0.0471  0.0763  0.0535
 8181SOL    HW136002   1.869   3.659   8.517 -1.6575  2.4693 -2.2736
 8181SOL    HW236003   1.747   3.597   8.584 -1.1643  0.8870  1.7310
 8182SOL     OW36004   4.288   1.358   1.752 -0.0158 -0.7001 -0.4212
 8182SOL    HW136005   4.287   1.280   1.807  0.6490 -1.1581 -1.0527
 8182SOL    HW236006   4.249   1.331   1.669 -0.0429 -2.3477  0.1288
 8183SOL     OW36007   4.288   3.881  15.024  0.0777 -0.2573  0.0178
 8183SOL    HW136008   4.284   3.833  14.942  1.5750  0.2216 -0.3345
 8183SOL    HW236009   4.208   3.933  15.025  0.3077  0.0721  1.3661
 8184SOL     OW36010   0.285   0.062   9.411 -0.1556  0.1037 -0.7573
 8184SOL    HW136011   0.224   0.126   9.447  0.5149  1.0886 -1.3723
 8184SOL    HW236012   0.325   0.114   9.341  0.7951  0.6533  0.1949
 8185SOL     OW36013   2.601   1.477  15.196  0.8347 -0.4559 -0.0281
 8185SOL    HW136014   2.665   1.518  15.138  1.4396  0.0201  0.9738
 8185SOL    HW236015   2.522   1.512  15.155  2.7482  4.0640  0.1607
 8186SOL     OW36016   1.446   4.295   1.883  0.0082  0.1274 -0.0620
 8186SOL    HW136017   1.389   4.260   1.952  0.8457 -1.1538 -0.0111
 8186SOL    HW236018   1.509   4.329   1.946 -0.4279  1.1395 -0.1742
 8187SOL     OW36019   3.582   1.329   7.083  0.8222  0.5380 -0.1114
 8187SOL    HW136020   3.628   1.264   7.136 -2.0245 -1.9081 -0.6532
 8187SOL    HW236021   3.548   1.280   7.008 -1.8297  2.2352 -0.0210
 8188SOL     OW36022   0.067   0.661  14.372 -0.6094 -0.0716 -0.3226
 8188SOL    HW136023   0.135   0.602  14.339  0.5287  1.0323  0.0077
 8188SOL    HW236024   0.073   0.647  14.467  1.0496  0.5421 -0.3275
 8189SOL     OW36025   3.210   2.488   2.672 -0.7187  0.1639  0.4519
 8189SOL    HW136026   3.124   2.495   2.631 -0.0820 -1.3942 -1.1717
 8189SOL    HW236027   3.202   2.558   2.736 -1.6509  0.1172  0.3830
 8190SOL     OW36028   0.877   0.621   3.367  0.3092  0.3342  0.2335
 8190SOL    HW136029   0.931   0.545   3.390 -0.6936 -0.9979 -1.7920
 8190SOL    HW236030   0.870   0.665   3.452 -2.9862 -0.1380  0.2329
 8191SOL     OW36031   3.369   2.960   3.800  0.0990  0.2228  0.0792
 8191SOL    HW136032   3.453   2.954   3.754  0.6244  3.7703  0.5611
 8191SOL    HW236033   3.335   2.875   3.775 -0.6243  1.6219 -3.7907
 8192SOL     OW36034   4.660   1.132   0.274  0.3944 -0.4043 -0.5788
 8192SOL    HW136035   4.634   1.224   0.261  1.4764 -0.1229 -0.7217
 8192SOL    HW236036   4.632   1.121   0.365  0.9414  0.6047 -0.2955
 8193SOL     OW36037   2.425   0.845   9.361 -0.3195  0.7681  0.0186
 8193SOL    HW136038   2.433   0.850   9.456  0.2444  0.1551  0.0091
 8193SOL    HW236039   2.453   0.935   9.345 -0.1133  0.8929  1.1410
 8194SOL     OW36040   1.617   2.911  14.513 -0.5056 -0.4662  0.1837
 8194SOL    HW136041   1.618   2.878  14.423 -1.7177 -0.2745  0.0959
 8194SOL    HW236042   1.541   2.878  14.560  0.2359 -1.5310  0.6352
 8195SOL     OW36043   0.403   2.111   5.057 -0.0513 -0.5423  0.3247
 8195SOL    HW136044   0.325   2.098   5.003  1.2572 -0.1623 -1.6978
 8195SOL    HW236045   0.413   2.021   5.088  2.2433  0.1407  1.5799
 8196SOL     OW36046   0.604   2.015   5.794  0.2078 -0.0481 -0.3002
 8196SOL    HW136047   0.678   2.043   5.740  1.0969  0.9375  1.4493
 8196SOL    HW236048   0.600   1.922   5.773 -0.4961 -0.2341  0.6877
 8197SOL     OW36049   2.327   1.803  12.312 -0.5826 -0.3452 -0.5858
 8197SOL    HW136050   2.237   1.797  12.345 -0.8223  3.1169 -0.6614
 8197SOL    HW236051   2.365   1.828  12.396 -3.1431 -1.2369  0.8613
 8198SOL     OW36052   1.192   3.953   4.219 -0.0326 -0.1360  0.1588
 8198SOL    HW136053   1.110   3.943   4.170 -0.1639 -0.3305  0.4176
 8198SOL    HW236054   1.180   4.042   4.252  2.3531 -0.2558  1.3231
 8199SOL     OW36055   0.805   4.230   9.864 -0.2809 -0.2896  0.1932
 8199SOL    HW136056   0.745   4.209   9.936  1.1925  2.1687  2.1305
 8199SOL    HW236057   0.880   4.259   9.914  0.2552 -2.0262  0.3893
 8200SOL     OW36058   2.026   1.930   7.573  0.4075  0.4957 -0.1975
 8200SOL    HW136059   2.059   1.850   7.531 -0.4314 -0.8513  1.7274
 8200SOL    HW236060   2.105   1.983   7.583  1.4682 -1.2078  0.4474
 8201SOL     OW36061   4.121   3.286  13.772 -0.6330  0.7493 -0.0301
 8201SOL    HW136062   4.189   3.314  13.711 -0.1929  0.6036  0.4000
 8201SOL    HW236063   4.183   3.239  13.828 -1.6210 -1.7809 -1.0378
 8202SOL     OW36064   2.848   2.179   8.730 -0.0498  0.4064  0.0142
 8202SOL    HW136065   2.828   2.242   8.799  2.4445  1.0201  0.1457
 8202SOL    HW236066   2.898   2.113   8.777  0.4939 -0.8967 -2.3834
 8203SOL     OW36067   0.519   1.173   0.119 -0.4132 -0.9211  0.5737
 8203SOL    HW136068   0.504   1.105   0.054  0.1345  0.9102 -1.4760
 8203SOL    HW236069   0.446   1.229   0.093  1.7545  1.8549  0.3285
 8204SOL     OW36070   1.754   1.773   6.821  0.2289  0.9568 -0.0740
 8204SOL    HW136071   1.704   1.853   6.803  0.0176  0.9618  0.5156
 8204SOL    HW236072   1.717   1.756   6.908 -0.5762  0.3358 -0.5382
 8205SOL     OW36073   0.078   3.251   2.597  0.0877 -0.1409  0.1376
 8205SOL    HW136074   0.013   3.321   2.595 -2.7268 -2.8232 -1.0093
 8205SOL    HW236075   0.028   3.175   2.569  1.1725  0.1454 -2.5555
 8206SOL     OW36076   2.067   3.470   6.960 -0.3720 -0.3423 -0.1766
 8206SOL    HW136077   1.986   3.475   6.909  0.0293  0.3251 -0.7394
 8206SOL    HW236078   2.117   3.538   6.917 -0.0977 -0.8798 -0.7038
 8207SOL     OW36079   2.194   0.173  13.071  0.0206 -0.4166  0.6329
 8207SOL    HW136080   2.260   0.192  13.004 -1.2989 -0.0359 -0.5478
 8207SOL    HW236081   2.224   0.238  13.135 -0.7611  0.8093 -0.2410
 8208SOL     OW36082   2.716   2.600   5.544 -0.3594  0.2075 -0.3598
 8208SOL    HW136083   2.724   2.605   5.639  0.5032 -0.5593 -0.3910
 8208SOL    HW236084   2.706   2.694   5.526  3.3324  0.6314 -0.1683
 8209SOL     OW36085   1.071   2.494   7.095 -0.3811  0.3997  0.2502
 8209SOL    HW136086   1.033   2.561   7.153  0.2198  0.3469  0.7077
 8209SOL    HW236087   1.156   2.484   7.139  0.3841  0.9472 -1.0847
 8210SOL     OW36088   3.849   3.406   9.470  0.0639 -0.5717  0.0019
 8210SOL    HW136089   3.764   3.379   9.435 -0.2019 -1.9812  1.7082
 8210SOL    HW236090   3.837   3.408   9.565 -0.1427  1.1624 -0.0630
 8211SOL     OW36091   4.667   0.734   2.727  0.5153  0.3202 -0.0889
 8211SOL    HW136092   4.602   0.702   2.663 -0.5035  1.3316  0.4395
 8211SOL    HW236093   0.018   0.679   2.703  1.0300  1.0447 -0.1406
 8212SOL     OW36094   3.839   3.567  15.622  0.1364 -0.0513  0.2566
 8212SOL    HW136095   3.762   3.587  15.570  2.5062 -0.1086 -3.3093
 8212SOL    HW236096   3.852   3.479  15.588  1.7060 -0.1117  0.9857
 8213SOL     OW36097   2.257   3.124  16.463 -0.9623  0.1280  0.0169
 8213SOL    HW136098   2.226   3.067  16.533  1.5001 -1.1415  0.0897
 8213SOL    HW236099   2.249   3.208  16.509 -1.9554  0.3143 -0.5086
 8214SOL     OW36100   0.310   3.310  10.228 -0.2684 -0.5359  0.5943
 8214SOL    HW136101   0.349   3.396  10.210  1.2924 -1.3467  0.0286
 8214SOL    HW236102   0.344   3.297  10.317 -2.3208  2.6300  1.8498
 8215SOL     OW36103   2.951   1.246   4.850 -0.4760  0.1794  0.0696
 8215SOL    HW136104   2.869   1.245   4.799  1.7030 -1.7411 -3.4090
 8215SOL    HW236105   2.988   1.334   4.846  0.2500 -0.0929  1.0316
 8216SOL     OW36106   4.714   0.003   9.425  0.5283  0.0413  0.4068
 8216SOL    HW136107   0.054   4.671   9.378  0.5617 -0.6316  1.2324
 8216SOL    HW236108   0.053   0.049   9.481 -0.7252  1.4796  0.5834
 8217SOL     OW36109   3.217   4.638   0.558 -0.2467 -0.2703 -0.2813
 8217SOL    HW136110   3.226   4.608   0.468 -2.4911 -3.0370  0.4192
 8217SOL    HW236111   3.188   4.558   0.602  0.0279  0.9919  2.1622
 8218SOL     OW36112   1.207   1.741  14.601 -0.4421 -0.4851  0.3052
 8218SOL    HW136113   1.266   1.799  14.648 -2.1968 -0.1124  2.0712
 8218SOL    HW236114   1.169   1.694  14.675  1.0480 -3.7261 -1.0052
 8219SOL     OW36115   0.499   0.560   0.566 -0.4344  0.2643  0.2608
 8219SOL    HW136116   0.532   0.472   0.583  0.9467  0.9687  1.2559
 8219SOL    HW236117   0.428   0.573   0.629 -1.0949 -0.1549 -0.3985
 8220SOL     OW36118   4.249   4.597  13.787  0.2666  0.9059 -0.2174
 8220SOL    HW136119   4.315   4.581  13.719  0.2230  2.4270 -0.6273
 8220SOL    HW236120   4.290   4.675  13.824 -0.2985 -0.0822  2.4821
 8221SOL     OW36121   3.559   3.912   5.067 -0.0459  0.4681  0.4245
 8221SOL    HW136122   3.553   3.824   5.031 -0.1034  0.0641  1.4060
 8221SOL    HW236123   3.467   3.939   5.072  0.4346  2.0870  0.6369
 8222SOL     OW36124   0.862   0.331   4.574  0.0055 -0.3532 -0.3934
 8222SOL    HW136125   0.886   0.247   4.613  0.8878  0.8399  1.6290
 8222SOL    HW236126   0.924   0.333   4.501  1.2910  0.2367  0.7367
 8223SOL     OW36127   1.834   1.622   6.579 -0.0070  0.4532  0.0084
 8223SOL    HW136128   1.745   1.586   6.576  0.1139  0.5237 -4.6295
 8223SOL    HW236129   1.847   1.637   6.672  2.3458 -1.0817 -0.0609
 8224SOL     OW36130   2.485   3.541   8.988 -0.1854 -0.1099 -0.2893
 8224SOL    HW136131   2.478   3.634   9.006 -2.3403 -0.1367 -0.8938
 8224SOL    HW236132   2.461   3.541   8.896  1.7373  2.6009 -0.7669
 8225SOL     OW36133   1.216   1.040   6.108 -0.0455  0.0923 -0.3408
 8225SOL    HW136134   1.145   1.095   6.073 -0.3934  0.5459  1.0781
 8225SOL    HW236135   1.277   1.052   6.036 -1.5924  2.6241 -1.2144
 8226SOL     OW36136   2.335   1.153  11.746  0.0570 -0.6704  0.3694
 8226SOL    HW136137   2.343   1.244  11.718 -1.7227 -0.6149  0.1052
 8226SOL    HW236138   2.261   1.127  11.692  0.2128  0.2100 -0.2638
 8227SOL     OW36139   0.279   0.584   6.283 -0.1202 -0.0798 -0.3361
 8227SOL    HW136140   0.199   0.628   6.313 -0.1330 -0.2649 -0.0983
 8227SOL    HW236141   0.330   0.587   6.364  0.3902  0.4229 -0.6771
 8228SOL     OW36142   2.296   3.187   2.173 -0.3965 -0.2318 -0.0478
 8228SOL    HW136143   2.240   3.118   2.137  1.0967 -1.4680 -0.0017
 8228SOL    HW236144   2.228   3.234   2.222 -0.7665 -1.3912  0.5729
 8229SOL     OW36145   4.556   0.379   9.424  0.0758 -0.0776 -0.3910
 8229SOL    HW136146   4.484   0.442   9.423  2.2278  2.3961 -0.4726
 8229SOL    HW236147   4.580   0.412   9.510 -0.4811  0.4571 -0.4398
 8230SOL     OW36148   1.667   4.623  12.476  0.3715 -0.6389  0.0080
 8230SOL    HW136149   1.707   4.697  12.430 -1.8634  0.3420 -0.3747
 8230SOL    HW236150   1.643   4.668  12.557 -1.4588 -0.7813 -0.4497
 8231SOL     OW36151   3.958   3.743   2.974 -0.1712  0.1067 -0.5178
 8231SOL    HW136152   3.954   3.790   3.058 -1.1151  1.0470 -1.0871
 8231SOL    HW236153   3.867   3.724   2.954 -0.8895  2.8309  0.1767
 8232SOL     OW36154   2.384   3.765  13.406 -0.0498  0.2476  0.1294
 8232SOL    HW136155   2.442   3.692  13.383 -3.3366 -1.7700 -1.8040
 8232SOL    HW236156   2.341   3.770  13.321  1.4091 -1.4219 -0.6983
 8233SOL     OW36157   1.036   2.734   2.770 -0.0599  0.0611 -0.1780
 8233SOL    HW136158   0.997   2.652   2.742 -0.9579  0.3839  0.1514
 8233SOL    HW236159   0.953   2.778   2.786  0.2365 -0.2164  2.2105
 8234SOL     OW36160   3.267   3.366   3.152  0.1764 -0.0590 -0.4669
 8234SOL    HW136161   3.217   3.378   3.232 -2.8519  0.6269 -2.4792
 8234SOL    HW236162   3.201   3.328   3.095 -1.1366  0.2544  0.8582
 8235SOL     OW36163   0.357   1.530  16.549 -0.0298  0.8030 -0.7754
 8235SOL    HW136164   0.402   1.537  16.464 -0.8540  1.7329 -1.1266
 8235SOL    HW236165   0.267   1.523  16.518 -0.4037 -1.9873  0.9350
 8236SOL     OW36166   1.450   0.479   8.981  0.1207 -0.1241 -0.1903
 8236SOL    HW136167   1.452   0.385   9.001  0.2547  0.2158  1.3544
 8236SOL    HW236168   1.377   0.476   8.919 -0.6554 -0.4872  0.7534
 8237SOL     OW36169   2.819   0.452  17.206  0.2960  0.2184  0.3345
 8237SOL    HW136170   2.866   0.512  17.148 -0.0086 -0.3736 -0.5328
 8237SOL    HW236171   2.823   0.373  17.153  1.3494  0.9519 -0.6903
 8238SOL     OW36172   0.624   3.101   8.431  1.0334  0.3721 -0.2789
 8238SOL    HW136173   0.565   3.107   8.506  0.2585  1.7230 -0.9924
 8238SOL    HW236174   0.703   3.111   8.484  0.6223  2.1868 -0.0146
 8239SOL     OW36175   3.995   1.855   1.058  0.4095 -0.3687 -0.1734
 8239SOL    HW136176   4.014   1.946   1.077  1.4793 -0.6408  0.0644
 8239SOL    HW236177   4.073   1.827   1.009  0.4033  0.6873 -0.7792
 8240SOL     OW36178   3.899   0.033  10.207 -0.3583  0.2344 -0.8835
 8240SOL    HW136179   3.933   0.061  10.293  2.0933 -2.8505 -0.8581
 8240SOL    HW236180   3.866   0.117  10.175  2.3479  1.1264 -1.3846
 8241SOL     OW36181   4.682   3.674   9.443  0.6606 -0.4400 -0.6983
 8241SOL    HW136182   4.672   3.619   9.365 -1.3712  0.5437 -1.1148
 8241SOL    HW236183   0.036   3.721   9.410 -1.8637  2.2052 -2.7789
 8242SOL     OW36184   3.034   4.374   4.493  0.3492  0.1681  0.7845
 8242SOL    HW136185   3.058   4.330   4.574 -2.9346 -1.7897  0.7045
 8242SOL    HW236186   2.964   4.321   4.454 -0.4241  3.0391 -1.7784
 8243SOL     OW36187   1.619   3.461   9.856 -0.1092 -0.2801 -0.1145
 8243SOL    HW136188   1.640   3.380   9.903  1.9380  1.1821  1.4873
 8243SOL    HW236189   1.563   3.420   9.790 -1.0870  1.1174 -0.1445
 8244SOL     OW36190   0.451   4.457   1.078 -0.2939 -0.7913  0.4233
 8244SOL    HW136191   0.529   4.450   1.133  0.1407  2.8019  0.2651
 8244SOL    HW236192   0.450   4.536   1.024  0.2004  0.8941  2.8854
 8245SOL     OW36193   0.340   2.700   6.694 -0.1056 -0.1655  0.2748
 8245SOL    HW136194   0.274   2.767   6.715 -4.3734 -4.3894  0.2112
 8245SOL    HW236195   0.325   2.626   6.753 -0.1934 -1.7828 -1.7922
 8246SOL     OW36196   2.453   3.428  15.200 -0.4744  0.2716  0.0999
 8246SOL    HW136197   2.367   3.409  15.165 -0.9284  0.0299  1.3278
 8246SOL    HW236198   2.431   3.428  15.293  0.9458 -3.2678  0.4417
 8247SOL     OW36199   2.239   3.092   6.835  0.2957  0.3092 -0.8906
 8247SOL    HW136200   2.243   3.132   6.748  1.4182  1.1989 -0.4163
 8247SOL    HW236201   2.327   3.120   6.861  0.8259 -0.7299 -1.5892
 8248SOL     OW36202   1.256   2.476   1.819  0.0381  0.0718  0.3262
 8248SOL    HW136203   1.251   2.569   1.800  2.4695  0.3845  1.2316
 8248SOL    HW236204   1.197   2.438   1.754  1.2403  1.5564 -1.6024
 8249SOL     OW36205   3.247   0.157  16.004 -0.0906 -0.2152 -0.1510
 8249SOL    HW136206   3.258   0.175  15.910 -1.3433 -2.9487 -0.8217
 8249SOL    HW236207   3.160   0.118  16.001 -0.2297  0.2029 -1.7215
 8250SOL     OW36208   1.375   2.920   8.048  0.2625  0.8032  0.3775
 8250SOL    HW136209   1.283   2.916   8.023 -0.7522  1.9960  3.9092
 8250SOL    HW236210   1.417   2.939   7.965 -0.0963 -0.6281 -0.1261
 8251SOL     OW36211   3.681   0.749  14.678 -0.6689  0.0308 -0.4051
 8251SOL    HW136212   3.661   0.656  14.665 -0.0474 -0.1965  0.2342
 8251SOL    HW236213   3.738   0.774  14.605  0.1011  0.7901  0.4639
 8252SOL     OW36214   3.194   3.855   4.425 -0.1720  0.2073  0.0984
 8252SOL    HW136215   3.112   3.863   4.377 -0.7845 -3.3599  0.5348
 8252SOL    HW236216   3.202   3.762   4.448  2.4693  0.7401  1.3368
 8253SOL     OW36217   3.954   0.133   5.068 -0.0650  1.0173  0.6305
 8253SOL    HW136218   3.952   0.228   5.057  1.1525  0.8081 -1.6113
 8253SOL    HW236219   3.862   0.113   5.082  0.5244 -1.2526  1.2937
 8254SOL     OW36220   2.189   2.138   0.652  0.5089  0.4934 -0.2596
 8254SOL    HW136221   2.282   2.157   0.663  0.3097  0.4332  1.5483
 8254SOL    HW236222   2.195   2.102   0.564  2.9364  0.2068  0.0306
 8255SOL     OW36223   4.465   0.233   2.587 -0.2260 -0.4936  0.4765
 8255SOL    HW136224   4.536   0.297   2.590 -2.0714  1.6037 -0.3947
 8255SOL    HW236225   4.391   0.294   2.588  0.7198  0.6608 -0.9968
 8256SOL     OW36226   3.065   4.556   3.733  0.2497 -0.4654  0.2612
 8256SOL    HW136227   3.108   4.600   3.659  0.0158  0.3242  0.5907
 8256SOL    HW236228   3.120   4.478   3.735 -1.7800 -1.9161 -0.2043
 8257SOL     OW36229   3.808   0.903   6.120  0.1202 -0.7284  0.2604
 8257SOL    HW136230   3.862   0.975   6.088 -0.3833 -0.9870 -1.1742
 8257SOL    HW236231   3.788   0.853   6.041 -0.4371 -3.5590  2.1937
 8258SOL     OW36232   0.116   1.115   4.016  0.5563 -0.4949  0.3902
 8258SOL    HW136233   0.172   1.115   4.094  0.1937 -0.4063  0.6507
 8258SOL    HW236234   0.028   1.107   4.052  0.6646  1.8163  1.1539
 8259SOL     OW36235   3.688   2.540   3.444 -0.4870 -0.4825  0.1627
 8259SOL    HW136236   3.732   2.546   3.529 -0.9878 -1.8155  0.5210
 8259SOL    HW236237   3.759   2.506   3.390  0.5124  0.1351  1.0735
 8260SOL     OW36238   3.115   1.150   1.483 -0.8778  0.4087  0.4067
 8260SOL    HW136239   3.169   1.095   1.539 -0.8646 -0.4181 -0.4042
 8260SOL    HW236240   3.047   1.085   1.466  1.2408 -1.6300 -0.2522
 8261SOL     OW36241   4.659   3.496   7.807 -0.3564  0.1660  0.0214
 8261SOL    HW136242   4.573   3.518   7.842 -0.7963 -0.5096 -0.6581
 8261SOL    HW236243   4.658   3.407   7.843  1.1365 -0.7010 -2.0824
 8262SOL     OW36244   0.275   4.125  15.489  0.2274  0.3930  0.7407
 8262SOL    HW136245   0.367   4.133  15.467 -0.3881  0.8346 -1.6272
 8262SOL    HW236246   0.262   4.128  15.584 -0.3458 -0.2909  0.6900
 8263SOL     OW36247   4.417   1.858   0.676  0.4173 -0.2996  0.1466
 8263SOL    HW136248   4.437   1.767   0.700  0.4831 -0.3781 -0.1944
 8263SOL    HW236249   4.440   1.890   0.763 -1.6732  0.2908  0.4712
 8264SOL     OW36250   3.601   2.373   5.457 -0.2984  0.3257  0.2372
 8264SOL    HW136251   3.516   2.411   5.477 -0.4690 -0.2885  0.6948
 8264SOL    HW236252   3.581   2.318   5.381 -2.6164  0.4893  0.7145
 8265SOL     OW36253   2.198   4.390  17.448  0.6652  0.3016  0.1904
 8265SOL    HW136254   2.184   4.471  17.398  1.2299  0.1658 -0.1887
 8265SOL    HW236255   2.231   4.421  17.532  1.5111 -0.8390  0.2702
 8266SOL     OW36256   3.121   0.126   2.231 -0.2394  0.6133 -0.0397
 8266SOL    HW136257   3.105   0.197   2.169 -0.4891  1.1230  0.6065
 8266SOL    HW236258   3.141   0.062   2.163 -0.8652  0.4522 -0.0763
 8267SOL     OW36259   0.664   3.871   2.218 -0.0954 -0.2582 -0.0043
 8267SOL    HW136260   0.635   3.953   2.179 -0.8023  0.5001  2.1239
 8267SOL    HW236261   0.654   3.876   2.313  1.8004 -0.2845  0.2087
 8268SOL     OW36262   2.579   3.433   6.369 -0.4850 -0.6044 -0.0657
 8268SOL    HW136263   2.493   3.476   6.373  0.4219  1.2483 -0.7567
 8268SOL    HW236264   2.588   3.448   6.275  1.9860 -0.1294  0.2523
 8269SOL     OW36265   1.011   4.671   3.896  0.1523  0.3974  0.5093
 8269SOL    HW136266   1.034   0.024   3.949  2.4435 -0.5228  0.8637
 8269SOL    HW236267   1.017   4.607   3.968 -0.1156  0.8576  0.9396
 8270SOL     OW36268   2.037   2.949  12.807  0.2680 -0.8489  0.3344
 8270SOL    HW136269   2.032   3.022  12.869  1.3160 -0.3599 -0.1600
 8270SOL    HW236270   1.968   2.971  12.743 -1.9760 -1.9154  2.3938
 8271SOL     OW36271   2.050   0.734   4.470  0.0634  0.3812  0.0609
 8271SOL    HW136272   2.105   0.689   4.407 -0.2373 -1.0123  0.7989
 8271SOL    HW236273   2.100   0.733   4.552 -0.7748 -0.3500  0.5623
 8272SOL     OW36274   1.014   3.354  16.664 -0.5022  0.3105 -0.8226
 8272SOL    HW136275   0.975   3.290  16.606 -0.0144 -0.9182  0.2101
 8272SOL    HW236276   1.037   3.420  16.598  0.6793 -1.8056 -2.5260
 8273SOL     OW36277   3.518   1.003   6.933 -0.3580  0.0175 -0.1557
 8273SOL    HW136278   3.508   1.022   7.026 -0.0506 -0.1696 -0.0830
 8273SOL    HW236279   3.477   1.082   6.897 -2.0766 -0.9250 -0.2111
 8274SOL     OW36280   1.354   1.870   3.305 -0.3841 -0.0801 -0.2613
 8274SOL    HW136281   1.416   1.880   3.233  1.0860  0.6657  1.1000
 8274SOL    HW236282   1.342   1.776   3.322 -0.9570  0.5397  2.7213
 8275SOL     OW36283   3.323   4.073  16.283  0.8113 -0.0984 -0.3014
 8275SOL    HW136284   3.349   3.991  16.240 -0.0326  1.0002 -2.8394
 8275SOL    HW236285   3.378   4.076  16.362  0.3005 -0.3145  0.0583
 8276SOL     OW36286   4.385   1.980   6.247 -0.4568  0.3982  0.0980
 8276SOL    HW136287   4.329   2.018   6.314 -1.7266 -1.4478  0.0970
 8276SOL    HW236288   4.313   1.960   6.187 -0.6232 -3.2336  1.5049
 8277SOL     OW36289   2.950   2.024   2.012  0.5250 -0.5844  0.0576
 8277SOL    HW136290   2.977   2.115   2.008 -0.8678 -0.1125  1.5871
 8277SOL    HW236291   3.010   1.985   1.948 -1.3817 -3.3240 -0.0987
 8278SOL     OW36292   1.880   2.617   5.797  0.0124  0.4686  0.7962
 8278SOL    HW136293   1.953   2.599   5.738  1.4654  1.3685  2.3117
 8278SOL    HW236294   1.910   2.590   5.884 -1.2234  0.6093  1.2685
 8279SOL     OW36295   2.011   4.509   7.989 -0.3796 -0.3846  0.3546
 8279SOL    HW136296   1.994   4.456   8.067 -0.8859 -1.0865 -0.2442
 8279SOL    HW236297   1.926   4.506   7.945 -0.0066 -0.2519 -0.3580
 8280SOL     OW36298   0.362   4.347  13.726  0.0565 -0.2493  0.6265
 8280SOL    HW136299   0.287   4.362  13.783  0.2815  1.8692  0.3837
 8280SOL    HW236300   0.322   4.345  13.639  3.1308  0.7379 -0.8209
 8281SOL     OW36301   2.165   2.778   3.714  0.0198  0.5929  0.2813
 8281SOL    HW136302   2.223   2.707   3.742  0.9180  0.8629 -0.9518
 8281SOL    HW236303   2.083   2.731   3.701 -0.4688  1.8017 -0.9781
 8282SOL     OW36304   1.064   0.430   5.455  0.0197  0.4829 -0.1208
 8282SOL    HW136305   1.100   0.395   5.373  0.1408 -1.3986  0.7406
 8282SOL    HW236306   1.140   0.471   5.496  1.7227 -0.5861 -2.2125
 8283SOL     OW36307   1.258   4.345   5.222 -0.0398  0.0817  0.0434
 8283SOL    HW136308   1.297   4.258   5.229  1.5128  0.6662 -1.3810
 8283SOL    HW236309   1.201   4.325   5.148 -0.4441 -0.7558  0.5683
 8284SOL     OW36310   4.405   1.533   4.252 -0.6155  0.5693 -0.5845
 8284SOL    HW136311   4.446   1.610   4.292  0.7834  0.4828 -1.8082
 8284SOL    HW236312   4.478   1.503   4.197  0.3822 -0.2961  1.1987
 8285SOL     OW36313   2.494   3.405  12.103  0.1650  0.1333 -0.0364
 8285SOL    HW136314   2.484   3.334  12.039  0.3635  0.6004 -0.5837
 8285SOL    HW236315   2.409   3.404  12.146  0.3972 -0.2105  0.4229
 8286SOL     OW36316   1.309   4.106   6.155  0.0894 -0.3930 -0.1290
 8286SOL    HW136317   1.261   4.041   6.206 -0.9809  0.5267  0.0253
 8286SOL    HW236318   1.234   4.163   6.137  0.2951 -0.1641 -0.2688
 8287SOL     OW36319   1.366   3.413  11.488  0.6538 -0.0804 -0.3015
 8287SOL    HW136320   1.459   3.399  11.467  0.6854  1.0563 -0.8630
 8287SOL    HW236321   1.372   3.427  11.583  1.3092 -0.2835 -0.3067
 8288SOL     OW36322   3.176   2.367   3.924  0.2873  0.1826 -0.2729
 8288SOL    HW136323   3.144   2.388   3.836 -1.9141  3.0563  1.2056
 8288SOL    HW236324   3.194   2.448   3.972 -0.2625 -0.0451  0.3260
 8289SOL     OW36325   0.239   0.587   1.179 -0.6551 -0.0391  0.6800
 8289SOL    HW136326   0.184   0.586   1.101  2.3351 -0.9460 -1.4227
 8289SOL    HW236327   0.245   0.492   1.189  0.8257 -0.2082 -1.8674
 8290SOL     OW36328   4.703   0.320  17.008 -0.1475  0.1818  0.1563
 8290SOL    HW136329   0.043   0.282  16.947 -0.6781  1.7225 -1.3612
 8290SOL    HW236330   4.721   0.414  16.999 -0.4514  0.2528  0.2895
 8291SOL     OW36331   1.518   3.272   2.045 -0.2573  0.6706 -0.1748
 8291SOL    HW136332   1.593   3.214   2.060 -1.0440 -0.0881  0.8694
 8291SOL    HW236333   1.445   3.217   2.016  0.7578 -0.5650 -0.3914
 8292SOL     OW36334   0.672   3.724   7.005  0.2354 -0.0894  0.6383
 8292SOL    HW136335   0.718   3.679   7.075  0.0267 -0.0053  0.8283
 8292SOL    HW236336   0.639   3.801   7.051  2.6060  1.1522  0.2633
 8293SOL     OW36337   4.088   0.396   5.454  0.0779  0.3007  0.6805
 8293SOL    HW136338   4.128   0.391   5.368 -0.0992  1.7268  0.4993
 8293SOL    HW236339   4.155   0.339   5.491  2.5997  0.3864 -3.7839
 8294SOL     OW36340   4.608   4.385   6.197  0.2220  0.3582 -0.4660
 8294SOL    HW136341   4.530   4.331   6.210 -0.1707  0.9946 -0.1965
 8294SOL    HW236342   4.648   4.325   6.135  0.7774  1.2452 -0.9642
 8295SOL     OW36343   1.177   0.368  17.305  0.0902  0.2387  0.2146
 8295SOL    HW136344   1.174   0.445  17.248 -2.1491 -0.2249 -0.2866
 8295SOL    HW236345   1.243   0.313  17.261  1.1187 -0.1989  2.3315
 8296SOL     OW36346   3.241   0.531   0.836 -0.4076 -0.3426 -0.3528
 8296SOL    HW136347   3.287   0.532   0.920 -0.4604 -1.4106 -0.3057
 8296SOL    HW236348   3.302   0.582   0.784  1.2433 -0.8819  1.0444
 8297SOL     OW36349   2.134   0.944   9.802  0.2731 -0.7397  0.0756
 8297SOL    HW136350   2.062   0.897   9.762 -1.2730  2.6914 -1.1140
 8297SOL    HW236351   2.166   0.990   9.725  2.2902 -1.2311  0.6232
 8298SOL     OW36352   1.952   0.207   6.144  0.7484 -0.3321 -0.0925
 8298SOL    HW136353   1.995   0.231   6.226 -0.7416 -1.2420  0.9405
 8298SOL    HW236354   1.961   0.289   6.096  0.8837  0.2400  0.9125
 8299SOL     OW36355   4.420   1.065   6.917  0.2943 -0.5951  0.2637
 8299SOL    HW136356   4.441   0.972   6.923  0.1125 -0.6318  0.3149
 8299SOL    HW236357   4.398   1.088   7.007 -1.1826  0.5338 -0.3905
 8300SOL     OW36358   0.221   0.294   4.882  0.1179 -0.9664 -0.0673
 8300SOL    HW136359   0.295   0.234   4.873  0.2746 -0.7490 -0.2397
 8300SOL    HW236360   0.193   0.299   4.791  0.5127 -0.3335 -0.1500
 8301SOL     OW36361   4.018   2.342   8.554 -0.4593  0.3326  0.1013
 8301SOL    HW136362   3.988   2.432   8.563  0.0231  0.5490 -0.4704
 8301SOL    HW236363   4.107   2.346   8.519 -0.1420 -3.2078  0.4750
 8302SOL     OW36364   0.752   0.559   5.407 -0.4795  0.2270  0.3409
 8302SOL    HW136365   0.764   0.653   5.421  0.0196  0.0324  1.2158
 8302SOL    HW236366   0.816   0.520   5.466 -1.2823  0.9672  1.7131
 8303SOL     OW36367   1.025   0.562  10.894  0.1830  0.1660  0.0110
 8303SOL    HW136368   0.998   0.500  10.826  0.3665  0.7756 -0.6190
 8303SOL    HW236369   1.119   0.544  10.892  0.4433  1.4867  0.8552
 8304SOL     OW36370   0.593   0.510   2.876  0.3918  0.3385  0.5150
 8304SOL    HW136371   0.669   0.559   2.843 -0.2223  1.5840  0.9714
 8304SOL    HW236372   0.523   0.572   2.856 -0.4417 -0.0416  2.2658
 8305SOL     OW36373   3.973   3.349   8.533  0.0233 -0.4742 -0.3920
 8305SOL    HW136374   4.038   3.356   8.463 -0.4439 -1.8920 -0.9688
 8305SOL    HW236375   3.965   3.255   8.549 -0.1004 -0.3151  0.4832
 8306SOL     OW36376   1.833   4.611   7.619  0.3587 -0.0622  0.2368
 8306SOL    HW136377   1.809   4.671   7.549  0.1732 -1.4099 -0.8507
 8306SOL    HW236378   1.798   4.531   7.580 -0.6380  1.1885 -1.4356
 8307SOL     OW36379   3.456   1.202   5.303  0.3183  1.1516 -0.1586
 8307SOL    HW136380   3.468   1.107   5.305  0.1084  1.1158 -0.5197
 8307SOL    HW236381   3.414   1.211   5.217 -0.1489  0.5145 -0.0022
 8308SOL     OW36382   2.499   0.796  15.601  0.7704 -0.7678  0.0603
 8308SOL    HW136383   2.485   0.863  15.668 -0.1424 -0.1914 -0.6945
 8308SOL    HW236384   2.460   0.716  15.637 -0.1164  0.1458  1.1410
 8309SOL     OW36385   3.680   0.196  12.095 -0.1114 -0.2358 -0.1484
 8309SOL    HW136386   3.731   0.121  12.127  0.3411 -0.0032 -0.3313
 8309SOL    HW236387   3.609   0.153  12.047  0.7340 -1.4867 -0.2686
 8310SOL     OW36388   2.163   0.511  10.574  0.3595  0.2721  0.1421
 8310SOL    HW136389   2.127   0.425  10.552  1.1849 -0.7723  2.8367
 8310SOL    HW236390   2.192   0.490  10.663  0.7473 -0.2112 -0.0926
 8311SOL     OW36391   4.680   0.399   2.601 -0.2063  0.2805  0.2695
 8311SOL    HW136392   4.719   0.459   2.537 -1.0203 -2.3236 -2.6314
 8311SOL    HW236393   0.016   0.406   2.676  0.7745 -1.8040 -0.3110
 8312SOL     OW36394   0.736   4.397   9.009  0.4900  0.2503 -0.4281
 8312SOL    HW136395   0.681   4.321   8.989 -0.3332  1.2338 -1.8864
 8312SOL    HW236396   0.666   4.456   9.034 -1.0874 -2.2677  1.0720
 8313SOL     OW36397   1.216   3.453   2.088 -0.2864 -0.6113 -0.0607
 8313SOL    HW136398   1.185   3.529   2.039  0.4688 -1.4384 -1.8299
 8313SOL    HW236399   1.309   3.448   2.069 -0.3049 -0.7147 -0.1236
 8314SOL     OW36400   4.234   3.920   2.652 -0.1287  0.3140 -0.1515
 8314SOL    HW136401   4.264   3.918   2.742 -0.6386  0.3596  0.0181
 8314SOL    HW236402   4.175   3.847   2.671  0.5477 -0.4976 -1.1446
 8315SOL     OW36403   4.127   2.506  11.561  0.5934 -0.1808 -0.4031
 8315SOL    HW136404   4.086   2.546  11.484  0.0478 -1.1087 -0.5827
 8315SOL    HW236405   4.050   2.501  11.617  1.2506 -0.2354  0.4934
 8316SOL     OW36406   2.408   2.377   2.153  0.4257  0.5893  0.1338
 8316SOL    HW136407   2.360   2.298   2.181 -2.2761  1.5175 -1.8635
 8316SOL    HW236408   2.360   2.414   2.079 -0.7441  0.6246  0.9011
 8317SOL     OW36409   2.410   3.290   4.987 -0.8691 -0.3862  0.5556
 8317SOL    HW136410   2.473   3.246   4.931  0.4402  1.6266  0.4707
 8317SOL    HW236411   2.355   3.212   4.989 -1.4780  0.0418  0.7161
 8318SOL     OW36412   4.481   3.366  13.901 -0.0244  0.3576  0.7206
 8318SOL    HW136413   4.420   3.303  13.939 -1.2516  0.3263 -1.3285
 8318SOL    HW236414   4.421   3.429  13.861 -1.1867 -1.3133 -0.1402
 8319SOL     OW36415   4.447   2.942   2.201  0.3312 -0.0537  0.6056
 8319SOL    HW136416   4.451   2.894   2.283  2.1908 -1.2111 -0.1698
 8319SOL    HW236417   4.517   2.905   2.147 -0.7051  2.8189 -2.7308
 8320SOL     OW36418   4.553   2.879   6.533  0.6690 -0.0521 -0.1700
 8320SOL    HW136419   4.489   2.901   6.464  1.7465  2.1190 -0.4743
 8320SOL    HW236420   4.622   2.849   6.473 -0.8673 -0.0859 -1.9415
 8321SOL     OW36421   0.365   2.833  12.656  0.1892 -0.0445 -0.3660
 8321SOL    HW136422   0.422   2.774  12.705  0.1561  2.0065  2.1289
 8321SOL    HW236423   0.346   2.902  12.720 -0.8741 -0.6971  0.0192
 8322SOL     OW36424   0.868   0.882   5.853  0.0175 -0.0973 -0.2519
 8322SOL    HW136425   0.936   0.838   5.801  1.2325 -1.9332  2.8968
 8322SOL    HW236426   0.884   0.972   5.824  2.7925 -0.3433  0.5426
 8323SOL     OW36427   4.165   4.408   2.399 -0.6118  0.1309  0.3671
 8323SOL    HW136428   4.086   4.432   2.447  0.7332  1.9605  1.6593
 8323SOL    HW236429   4.227   4.387   2.468  0.1728  1.1163 -0.0355
 8324SOL     OW36430   1.340   0.438   8.469  0.1528  0.2154 -0.3498
 8324SOL    HW136431   1.301   0.410   8.552  0.4664 -2.7606 -1.1972
 8324SOL    HW236432   1.424   0.391   8.470  0.7726  1.3592  2.6670
 8325SOL     OW36433   1.436   3.848  12.937  0.0501  0.0070  0.0095
 8325SOL    HW136434   1.364   3.870  12.996 -1.4672 -0.2089 -1.7580
 8325SOL    HW236435   1.494   3.805  12.999 -1.6698 -1.9496  0.2741
 8326SOL     OW36436   4.554   3.559   5.274 -0.8847 -0.1951  0.6038
 8326SOL    HW136437   4.485   3.501   5.306 -1.2326  0.1295  0.4346
 8326SOL    HW236438   4.570   3.611   5.352  0.7933  0.1413  0.0422
 8327SOL     OW36439   3.301   1.688   0.031  0.2362 -0.1299 -0.8022
 8327SOL    HW136440   3.261   1.678   0.117  0.4518  0.0385 -0.6838
 8327SOL    HW236441   3.261   1.615  17.677  2.1788 -0.5598 -1.7436
 8328SOL     OW36442   3.924   2.621   4.442 -0.2582 -0.2717 -0.1606
 8328SOL    HW136443   3.979   2.650   4.514 -0.4683 -2.4044  0.8839
 8328SOL    HW236444   3.930   2.526   4.453  0.8656 -0.4895 -2.5943
 8329SOL     OW36445   3.280   2.210   2.824 -0.0354  0.2559  0.5071
 8329SOL    HW136446   3.277   2.305   2.812  1.8228  0.2646 -0.0104
 8329SOL    HW236447   3.328   2.205   2.907  1.0422  0.1804 -0.1079
 8330SOL     OW36448   1.589   1.474   6.542  0.8207 -0.5699 -0.1087
 8330SOL    HW136449   1.559   1.546   6.486  1.7996 -1.3263 -1.5780
 8330SOL    HW236450   1.515   1.460   6.602  1.0332 -0.7006  0.1225
 8331SOL     OW36451   3.126   4.028  12.396  0.2445  0.7368  0.1515
 8331SOL    HW136452   3.158   4.085  12.325 -1.6322  1.6711  0.0688
 8331SOL    HW236453   3.210   4.010  12.439  0.0241  0.1306  0.3250
 8332SOL     OW36454   2.771   1.601  11.420  0.0886  0.5768  0.2102
 8332SOL    HW136455   2.726   1.591  11.504 -0.5057 -0.0121 -0.1787
 8332SOL    HW236456   2.694   1.592  11.363 -0.1325  2.0519  0.2899
 8333SOL     OW36457   3.258   1.519   3.676 -0.0329 -1.0448 -0.1059
 8333SOL    HW136458   3.192   1.547   3.613  0.7373  2.1140  0.4932
 8333SOL    HW236459   3.286   1.432   3.645  0.7892 -1.0754  0.7130
 8334SOL     OW36460   3.981   2.926   3.055  0.5121  0.1015 -0.3222
 8334SOL    HW136461   4.053   2.975   3.016  0.5462  0.7616  0.5839
 8334SOL    HW236462   3.988   2.853   2.993 -0.9843 -1.2651  1.0924
 8335SOL     OW36463   2.942   3.512   7.801 -0.3712 -0.0700  0.3268
 8335SOL    HW136464   2.895   3.557   7.871 -1.1330 -1.5390  0.7878
 8335SOL    HW236465   3.024   3.497   7.847 -1.4844 -2.7713  1.4776
 8336SOL     OW36466   2.002   4.277   3.931  0.5850  0.2580 -0.4668
 8336SOL    HW136467   2.014   4.372   3.942  1.3676 -0.1018  1.7305
 8336SOL    HW236468   1.983   4.253   4.021  1.8850  2.4094  0.3851
 8337SOL     OW36469   2.314   0.208   7.462 -0.2659 -0.7626 -0.3041
 8337SOL    HW136470   2.326   0.153   7.540 -1.0037 -3.9939 -2.5024
 8337SOL    HW236471   2.219   0.205   7.446 -0.3427 -4.1383  0.7349
 8338SOL     OW36472   2.923   0.333   6.194  0.3245  0.1901  0.1538
 8338SOL    HW136473   2.861   0.261   6.180 -0.9454  1.6438 -1.7109
 8338SOL    HW236474   2.896   0.366   6.279 -2.1782  1.0047 -0.9712
 8339SOL     OW36475   4.576   3.725   8.289  0.7039  0.1444  0.6651
 8339SOL    HW136476   4.499   3.783   8.289  0.5245 -0.0797 -1.4642
 8339SOL    HW236477   4.614   3.736   8.202  0.4284  1.0257  0.6524
 8340SOL     OW36478   1.628   4.154  10.439 -0.5856  0.1485 -0.4081
 8340SOL    HW136479   1.691   4.224  10.454  0.3835 -0.9606  0.6590
 8340SOL    HW236480   1.671   4.092  10.379 -1.5959 -0.6775 -0.2771
 8341SOL     OW36481   2.266   0.884   2.636  0.4754  0.4360 -0.5570
 8341SOL    HW136482   2.334   0.915   2.696 -1.4938  0.7596  1.5344
 8341SOL    HW236483   2.294   0.879   2.545  1.5269  0.0506 -0.2061
 8342SOL     OW36484   1.789   2.294   0.152  0.0166  0.3614  0.2442
 8342SOL    HW136485   1.762   2.376   0.112 -0.8334 -1.1796 -2.3229
 8342SOL    HW236486   1.882   2.298   0.131 -0.1262 -0.6751 -0.5574
 8343SOL     OW36487   0.548   1.823  17.433  0.2730 -0.5313 -0.6214
 8343SOL    HW136488   0.591   1.844  17.350  0.5210  1.5133  0.0350
 8343SOL    HW236489   0.482   1.761  17.401 -0.4370  0.9213 -1.9765
 8344SOL     OW36490   0.543   2.890   9.758  0.0981 -0.4278 -0.5192
 8344SOL    HW136491   0.638   2.899   9.772 -0.0242  0.3562 -0.1829
 8344SOL    HW236492   0.544   2.796   9.740  0.5374 -0.8279  1.6123
 8345SOL     OW36493   3.000   3.100   4.510  0.2291  0.0184  0.0330
 8345SOL    HW136494   3.048   3.175   4.475 -0.7349  0.0102 -1.3015
 8345SOL    HW236495   2.911   3.121   4.481 -0.1940 -0.0000  1.3148
 8346SOL     OW36496   2.349   0.517   1.865  0.6443  0.4241  0.7675
 8346SOL    HW136497   2.302   0.591   1.902 -1.9630 -1.6300  1.5454
 8346SOL    HW236498   2.436   0.549   1.839 -0.0763  1.6918 -0.0433
 8347SOL     OW36499   2.669   1.129   3.398 -0.0294  0.3749  0.0039
 8347SOL    HW136500   2.593   1.174   3.435 -0.4997 -1.3451  1.1254
 8347SOL    HW236501   2.683   1.054   3.456 -2.3044  1.0646  1.4262
 8348SOL     OW36502   1.090   4.712  13.791 -0.2128 -0.0004 -0.3588
 8348SOL    HW136503   1.077   4.619  13.807 -3.8853  0.6400  0.5653
 8348SOL    HW236504   1.079   4.719  13.697 -1.1551  1.5158 -0.1483
 8349SOL     OW36505   0.958   4.031  10.422 -0.3860  0.1762  0.4503
 8349SOL    HW136506   0.889   3.965  10.428 -0.9544  0.7252  0.0207
 8349SOL    HW236507   1.010   4.015  10.501 -0.6767  0.2428  0.6553
 8350SOL     OW36508   2.686   1.882   7.597 -0.4330  0.1936  0.1264
 8350SOL    HW136509   2.769   1.905   7.555 -0.1825 -1.5730 -0.3395
 8350SOL    HW236510   2.717   1.888   7.687  2.6469 -3.0187 -0.7044
 8351SOL     OW36511   1.548   3.260   2.975 -0.2222  0.2996 -0.2357
 8351SOL    HW136512   1.483   3.207   2.929  1.5256  0.0669 -2.4433
 8351SOL    HW236513   1.504   3.343   2.987  0.6262  0.7806 -0.4274
 8352SOL     OW36514   1.446   2.228  17.644 -0.3191 -0.4324 -0.5185
 8352SOL    HW136515   1.499   2.185   0.017 -0.5929 -1.2032 -0.8019
 8352SOL    HW236516   1.376   2.260   0.008  1.0378 -0.1006  0.9231
 8353SOL     OW36517   2.990   4.124   3.228 -0.2157 -0.2707  0.0186
 8353SOL    HW136518   3.050   4.135   3.302 -0.8869  1.1910  0.3571
 8353SOL    HW236519   3.030   4.043   3.198  0.6317  0.1613 -0.0102
 8354SOL     OW36520   0.217   0.216   8.986 -0.2058  0.2593 -0.3468
 8354SOL    HW136521   0.207   0.282   9.055  0.2403 -1.7163  1.5958
 8354SOL    HW236522   0.312   0.225   8.979  0.0097 -1.0104  0.9928
 8355SOL     OW36523   4.087   3.004   4.530 -0.6044 -0.6218  0.1033
 8355SOL    HW136524   4.110   2.918   4.493  0.4263 -0.3847  0.2024
 8355SOL    HW236525   4.071   3.055   4.450  0.6337 -1.1611 -0.4931
 8356SOL     OW36526   4.494   3.050   1.175  0.5245 -0.1448 -0.4138
 8356SOL    HW136527   4.512   3.008   1.091 -2.7610 -2.9955  0.2813
 8356SOL    HW236528   4.581   3.081   1.198 -0.2031 -0.5275  2.8325
 8357SOL     OW36529   4.628   4.285   7.498  0.1928  0.4301 -0.7740
 8357SOL    HW136530   4.655   4.363   7.450 -0.2569  1.3106  0.4219
 8357SOL    HW236531   4.564   4.311   7.564  1.5044 -1.0309  1.0691
 8358SOL     OW36532   0.075   3.649  13.157  0.0726 -0.0392  0.1263
 8358SOL    HW136533   0.064   3.576  13.219  0.2333  0.7187  1.0510
 8358SOL    HW236534   0.140   3.606  13.101  0.8042  0.3201  0.6892
 8359SOL     OW36535   0.136   3.853  17.389  0.6638  0.2601 -0.6108
 8359SOL    HW136536   0.158   3.783  17.327 -0.8903 -1.0139  0.2803
 8359SOL    HW236537   0.204   3.917  17.368 -0.8703  2.1074  0.0674
 8360SOL     OW36538   4.473   0.106   6.811  0.1486 -0.1381  0.2102
 8360SOL    HW136539   4.394   0.089   6.863 -0.5184  0.1479 -0.7091
 8360SOL    HW236540   4.541   0.108   6.878  0.4952 -1.3145 -0.1064
 8361SOL     OW36541   3.661   2.153   1.740 -0.2559 -0.1805 -0.7984
 8361SOL    HW136542   3.743   2.113   1.711 -0.2441  0.4040 -1.5907
 8361SOL    HW236543   3.592   2.088   1.730  0.2568 -0.8339 -0.0184
 8362SOL     OW36544   3.786   3.102  11.765  0.2256  0.3156 -0.4359
 8362SOL    HW136545   3.744   3.182  11.793 -0.3632 -0.7484  1.6919
 8362SOL    HW236546   3.707   3.050  11.750  1.1529 -1.4595  0.8719
 8363SOL     OW36547   3.075   3.838  10.269 -0.3263  0.1521 -0.1604
 8363SOL    HW136548   3.053   3.929  10.292 -1.3675  0.4231 -2.2339
 8363SOL    HW236549   3.066   3.836  10.174 -1.7646  0.8281 -0.0399
 8364SOL     OW36550   1.560   3.073   8.471  0.2798 -0.2036 -0.3485
 8364SOL    HW136551   1.624   3.123   8.521  1.4769 -1.1292 -0.9393
 8364SOL    HW236552   1.584   2.980   8.476  0.9728 -0.0069 -0.0236
 8365SOL     OW36553   2.873   3.213   4.234 -0.7203 -0.3813 -0.6221
 8365SOL    HW136554   2.948   3.249   4.282 -0.9025 -1.0722  0.1753
 8365SOL    HW236555   2.932   3.166   4.175  0.6354 -2.2782  2.2497
 8366SOL     OW36556   1.160   2.613   6.371 -0.6569  0.0640  0.8855
 8366SOL    HW136557   1.169   2.594   6.278  0.7360  2.0220  0.6155
 8366SOL    HW236558   1.070   2.582   6.384 -0.8040  1.3700  3.0522
 8367SOL     OW36559   4.340   0.574  10.887  0.4255 -0.1384 -0.2318
 8367SOL    HW136560   4.304   0.509  10.827 -0.0583  0.4033 -0.5312
 8367SOL    HW236561   4.255   0.608  10.915  0.6504 -0.9357  1.3877
 8368SOL     OW36562   3.324   2.927   2.468 -1.0321  0.6136 -0.0361
 8368SOL    HW136563   3.295   2.980   2.394 -0.4113 -1.1735 -1.5710
 8368SOL    HW236564   3.298   2.841   2.433 -2.5050  1.3587 -0.7366
 8369SOL     OW36565   1.434   3.938  15.730 -0.1611 -0.0043  0.6400
 8369SOL    HW136566   1.400   3.993  15.801 -0.3165  1.1922 -0.3502
 8369SOL    HW236567   1.464   4.011  15.675 -1.6958 -1.7508 -2.4294
 8370SOL     OW36568   1.959   4.170   7.976  0.3564  0.2821 -0.3094
 8370SOL    HW136569   2.036   4.175   8.032  1.9007 -0.5280 -2.3438
 8370SOL    HW236570   1.890   4.199   8.036  1.2549 -0.8963  1.2857
 8371SOL     OW36571   0.966   1.235  14.677 -0.1105  0.2427 -0.0772
 8371SOL    HW136572   0.957   1.285  14.595  1.5297 -0.2030 -0.5109
 8371SOL    HW236573   1.054   1.262  14.702  0.1634  0.4619 -1.2709
 8372SOL     OW36574   2.560   3.230   8.853 -0.4584  0.2452  0.3261
 8372SOL    HW136575   2.619   3.168   8.896  2.2441  2.3969 -0.2402
 8372SOL    HW236576   2.620   3.287   8.805 -3.1127  3.1405  0.4176
 8373SOL     OW36577   4.299   1.874   6.583 -0.0459  0.2290 -0.0747
 8373SOL    HW136578   4.348   1.800   6.547 -1.7318 -1.2363  0.6388
 8373SOL    HW236579   4.352   1.953   6.568  1.4753 -0.3950  2.1384
 8374SOL     OW36580   1.926   1.300   8.236  0.0444  0.1257  0.3958
 8374SOL    HW136581   2.020   1.291   8.249 -0.0729 -0.0999  1.0550
 8374SOL    HW236582   1.903   1.391   8.254  2.4326  0.6610  0.7499
 8375SOL     OW36583   4.006   4.701   6.581  0.3581 -0.0612 -0.8087
 8375SOL    HW136584   3.996   4.665   6.669 -0.2163 -0.1433 -0.9094
 8375SOL    HW236585   4.099   4.719   6.567  0.8280  1.0170  3.6194
 8376SOL     OW36586   1.637   1.675   6.048  0.3556 -0.4370  0.1695
 8376SOL    HW136587   1.720   1.683   6.095  0.2116 -2.4916  0.7610
 8376SOL    HW236588   1.643   1.586   6.013 -1.5175 -1.1067  1.5851
 8377SOL     OW36589   0.174   4.571   2.495 -0.1979  0.4200 -0.1196
 8377SOL    HW136590   0.159   4.550   2.402  1.3284  2.3083 -0.7857
 8377SOL    HW236591   0.096   4.619   2.524  0.7271  1.0852  1.2287
 8378SOL     OW36592   1.468   4.376   5.955 -0.0254  0.0449  0.4726
 8378SOL    HW136593   1.455   4.441   6.023  1.3463 -0.7881  1.5279
 8378SOL    HW236594   1.454   4.294   6.003 -0.3907 -0.3259 -0.2542
 8379SOL     OW36595   1.988   3.662  15.284  0.0387 -0.1154 -0.8550
 8379SOL    HW136596   1.910   3.677  15.337  1.7546  4.3904  0.4714
 8379SOL    HW236597   2.027   3.747  15.307 -0.3412 -0.2018  0.1221
 8380SOL     OW36598   2.211   3.664  15.570  0.1962 -0.3162  0.4860
 8380SOL    HW136599   2.184   3.745  15.614  1.1132  0.3461 -0.1672
 8380SOL    HW236600   2.241   3.709  15.491 -0.0236  0.1149  0.6446
 8381SOL     OW36601   3.312   4.077  15.303  0.0437  0.1386 -0.0862
 8381SOL    HW136602   3.369   4.153  15.291 -0.6482  0.9430  1.6917
 8381SOL    HW236603   3.372   4.009  15.333 -1.7928 -1.7138 -0.6221
 8382SOL     OW36604   0.343   2.067  10.432  0.2583 -0.1685  0.1281
 8382SOL    HW136605   0.287   2.121  10.488  1.1478  2.5873 -1.6558
 8382SOL    HW236606   0.285   2.046  10.359 -0.7560 -1.4851  1.3060
 8383SOL     OW36607   0.542   2.562  17.521 -0.7353 -0.0683  0.5050
 8383SOL    HW136608   0.456   2.547  17.482 -0.9123  2.1142  0.0232
 8383SOL    HW236609   0.586   2.479  17.505  0.9601  0.6239  1.5398
 8384SOL     OW36610   0.924   1.506   2.250 -0.1160  0.3847  0.3254
 8384SOL    HW136611   0.860   1.439   2.227  0.2204 -0.0445  0.6450
 8384SOL    HW236612   0.962   1.460   2.325  1.7793 -0.7024 -1.2987
 8385SOL     OW36613   4.537   0.548   8.558 -0.0403 -0.1231  0.6828
 8385SOL    HW136614   4.471   0.487   8.591  1.4387 -1.1554  1.7358
 8385SOL    HW236615   4.595   0.570   8.630  1.8628  0.4804 -1.0528
 8386SOL     OW36616   2.617   0.620   7.853  0.1771 -0.2204  0.3432
 8386SOL    HW136617   2.611   0.576   7.938  1.5496  1.9291  1.5566
 8386SOL    HW236618   2.564   0.568   7.794  0.3774 -0.1706  0.1211
 8387SOL     OW36619   3.453   4.115   7.002  0.5042 -0.0908 -0.2075
 8387SOL    HW136620   3.445   4.206   7.030  2.4462 -0.2163  0.7569
 8387SOL    HW236621   3.544   4.100   7.027  0.4205  0.5656  0.4987
 8388SOL     OW36622   4.176   1.888   7.892  0.6025 -0.2582 -0.0055
 8388SOL    HW136623   4.246   1.931   7.941 -2.0407  1.9680  1.8219
 8388SOL    HW236624   4.157   1.807   7.940 -1.1079  0.8992  1.2980
 8389SOL     OW36625   4.244   4.485   7.503  0.0843  0.0411 -0.0548
 8389SOL    HW136626   4.162   4.482   7.552 -0.8373 -3.5594 -1.8051
 8389SOL    HW236627   4.248   4.578   7.483 -0.6953  0.1510  0.2913
 8390SOL     OW36628   3.261   2.384   0.083  0.0519  0.4211 -0.5687
 8390SOL    HW136629   3.194   2.404   0.018  0.5664  1.0877 -0.8993
 8390SOL    HW236630   3.221   2.423   0.162 -1.6718  0.0481 -1.2658
 8391SOL     OW36631   3.337   2.544   8.454 -0.7984 -0.1726  0.1261
 8391SOL    HW136632   3.392   2.468   8.469 -0.0694  0.3202 -0.0651
 8391SOL    HW236633   3.261   2.501   8.415 -0.1349  1.0713 -2.5452
 8392SOL     OW36634   1.996   2.379  15.938 -0.0962 -0.0535 -0.0915
 8392SOL    HW136635   1.948   2.461  15.951  1.2583  0.6882  0.1383
 8392SOL    HW236636   2.081   2.410  15.908  0.6692 -0.3105  1.8084
 8393SOL     OW36637   2.626   3.740  16.904 -0.5174 -0.6683  0.1781
 8393SOL    HW136638   2.550   3.773  16.952 -0.2251 -0.3568  0.4172
 8393SOL    HW236639   2.694   3.801  16.931 -0.9308  0.8930 -2.3054
 8394SOL     OW36640   3.293   2.631   4.719 -0.7000 -0.2920 -0.0948
 8394SOL    HW136641   3.230   2.569   4.757 -0.4232  1.1394  2.6480
 8394SOL    HW236642   3.288   2.617   4.624  0.3309 -2.4510  0.1655
 8395SOL     OW36643   4.585   0.963   0.814 -0.0091 -0.0326  0.0791
 8395SOL    HW136644   4.652   0.906   0.776  0.8715  1.0517  0.0012
 8395SOL    HW236645   4.644   1.027   0.854 -1.1651  0.3541  1.1997
 8396SOL     OW36646   2.220   4.435   8.252  0.3047  0.4812  0.4004
 8396SOL    HW136647   2.173   4.518   8.255 -0.9454 -0.3065  2.4482
 8396SOL    HW236648   2.158   4.372   8.287 -0.0718  1.6507  1.8340
 8397SOL     OW36649   2.029   0.486   4.750 -0.0395  0.0164  0.3223
 8397SOL    HW136650   2.109   0.534   4.771  0.5653 -1.2770  0.9265
 8397SOL    HW236651   2.056   0.397   4.731  0.0665 -0.1390  1.1928
 8398SOL     OW36652   3.804   4.298   6.549 -0.8012 -0.1686 -0.0521
 8398SOL    HW136653   3.766   4.376   6.589  3.2817  1.4631  0.6258
 8398SOL    HW236654   3.893   4.289   6.583 -1.2065 -0.6721  0.8860
 8399SOL     OW36655   3.207   2.204   7.864 -0.0502  0.2052 -0.2077
 8399SOL    HW136656   3.155   2.276   7.830 -0.6297 -0.1922 -0.1661
 8399SOL    HW236657   3.146   2.133   7.844  1.3021 -0.6767 -1.2511
 8400SOL     OW36658   3.935   2.203  14.863  0.1912 -0.0355  0.0987
 8400SOL    HW136659   3.867   2.215  14.796  0.7156  0.2187 -0.3861
 8400SOL    HW236660   4.011   2.234  14.814  0.0367  1.4117  0.7686
 8401SOL     OW36661   2.879   4.597  12.870  0.0039  0.3188  0.9038
 8401SOL    HW136662   2.816   4.604  12.799 -1.5386 -1.0031  2.1363
 8401SOL    HW236663   2.864   4.677  12.921  0.3159 -0.1856  1.7982
 8402SOL     OW36664   2.168   0.224  17.475  0.2011 -0.5656  0.3175
 8402SOL    HW136665   2.211   0.140  17.461  2.1696  0.4104  0.5879
 8402SOL    HW236666   2.249   0.269  17.497  0.7650 -0.4535 -1.9440
 8403SOL     OW36667   0.827   0.020   4.281  0.0524  0.4520  0.5030
 8403SOL    HW136668   0.802   0.112   4.286 -0.1990  0.4177 -0.1664
 8403SOL    HW236669   0.791   4.722   4.195 -0.5422 -1.5021  1.2331
 8404SOL     OW36670   2.350   2.203  16.101 -0.1865 -0.1196 -0.0283
 8404SOL    HW136671   2.367   2.274  16.039 -0.2375 -0.9187 -0.9639
 8404SOL    HW236672   2.333   2.131  16.040 -0.3156 -1.2523  1.3298
 8405SOL     OW36673   3.772   3.503  12.973  0.5469  0.8159  0.0340
 8405SOL    HW136674   3.775   3.539  13.062  0.3545  0.9804 -0.0294
 8405SOL    HW236675   3.735   3.567  12.912  0.1363  0.5501  0.0030
 8406SOL     OW36676   4.027   1.447   5.764  0.1488  0.7910  0.3639
 8406SOL    HW136677   4.104   1.399   5.793 -1.4492 -2.7977 -1.3431
 8406SOL    HW236678   4.069   1.528   5.735 -2.1646  1.8081 -0.2241
 8407SOL     OW36679   0.439   1.375   1.983  0.6404 -0.3109 -0.5712
 8407SOL    HW136680   0.401   1.424   1.910 -1.5617  1.1227  1.5877
 8407SOL    HW236681   0.380   1.408   2.050  0.6000  0.5894 -1.0523
 8408SOL     OW36682   3.472   3.449   8.435  0.1354  0.4199 -0.5207
 8408SOL    HW136683   3.440   3.505   8.506 -1.2995  1.1285 -1.7338
 8408SOL    HW236684   3.561   3.483   8.440 -0.1541  0.8161  1.9496
 8409SOL     OW36685   3.440   4.358   7.637  0.3930 -0.4053 -0.1335
 8409SOL    HW136686   3.504   4.296   7.672  0.0874 -0.1774  0.8425
 8409SOL    HW236687   3.478   4.444   7.657  1.9626 -1.0191 -0.5214
 8410SOL     OW36688   0.594   3.438   7.021  0.0127  0.4365  0.1497
 8410SOL    HW136689   0.651   3.446   6.945  1.4436  1.0261  1.2948
 8410SOL    HW236690   0.630   3.355   7.051  0.5559  0.0662 -1.5061
 8411SOL     OW36691   1.354   0.525   6.923  0.1609 -0.4219  0.3944
 8411SOL    HW136692   1.361   0.557   7.013 -0.4178 -1.9972  1.0141
 8411SOL    HW236693   1.370   0.433   6.948  1.8421 -0.0101  0.8062
 8412SOL     OW36694   0.909   0.614  12.891 -0.6998 -0.3056 -0.5395
 8412SOL    HW136695   0.879   0.546  12.952  2.5910 -1.4660 -0.2391
 8412SOL    HW236696   0.954   0.669  12.954  0.1613 -1.2280 -0.3402
 8413SOL     OW36697   3.698   0.923   4.252 -0.6396 -0.5942 -0.2117
 8413SOL    HW136698   3.668   0.882   4.172 -0.8173 -2.8531  1.0231
 8413SOL    HW236699   3.661   1.011   4.242  1.7784  0.4116 -0.3300
 8414SOL     OW36700   0.008   3.094   1.458 -0.4540 -0.2164  0.6599
 8414SOL    HW136701   4.721   3.189   1.462  0.6134 -0.2363  3.4895
 8414SOL    HW236702   0.017   3.087   1.363 -0.4906  0.4110  0.6117
 8415SOL     OW36703   1.134   1.299  10.233  0.1044 -0.0598  0.1120
 8415SOL    HW136704   1.127   1.230  10.298  0.4002  1.0784  1.3538
 8415SOL    HW236705   1.219   1.275  10.197 -0.5637 -1.0297 -0.8041
 8416SOL     OW36706   3.428   0.760   2.749 -0.3520 -0.4548 -0.2118
 8416SOL    HW136707   3.468   0.681   2.785 -1.2763 -2.7136 -4.1068
 8416SOL    HW236708   3.508   0.810   2.729 -0.7456  0.2268 -0.0752
 8417SOL     OW36709   1.336   3.813   4.869  0.0423  0.0707 -0.0698
 8417SOL    HW136710   1.384   3.733   4.893  1.1825  0.5022 -0.9504
 8417SOL    HW236711   1.400   3.880   4.891 -0.6843  1.9349 -3.7020
 8418SOL     OW36712   2.983   3.423   4.624 -0.0807  0.4132  1.1430
 8418SOL    HW136713   3.045   3.490   4.595  1.3293 -0.4585  2.0754
 8418SOL    HW236714   3.049   3.364   4.662  1.0582  0.6589 -0.4537
 8419SOL     OW36715   1.280   3.077   2.124  0.4105 -0.5931 -0.4927
 8419SOL    HW136716   1.294   3.056   2.217  1.6886  2.6619  0.0465
 8419SOL    HW236717   1.350   3.024   2.086  0.1468 -2.2773  1.3591
 8420SOL     OW36718   1.112   1.204   2.833 -0.3529 -0.3143 -0.6138
 8420SOL    HW136719   1.150   1.116   2.841 -0.9991 -0.5589 -0.2602
 8420SOL    HW236720   1.158   1.228   2.753  0.2967  1.3174  0.2408
 8421SOL     OW36721   3.207   3.163  13.541  0.4859  0.2409  0.2172
 8421SOL    HW136722   3.156   3.090  13.506  1.6237  1.3496 -3.7964
 8421SOL    HW236723   3.249   3.127  13.619 -0.7445 -2.3476 -0.3231
 8422SOL     OW36724   4.262   4.515   3.140  0.3638 -0.3401 -0.3490
 8422SOL    HW136725   4.300   4.497   3.054  2.1772  1.5754  0.0459
 8422SOL    HW236726   4.257   4.611   3.141 -0.6427 -0.4107  1.5256
 8423SOL     OW36727   3.782   0.313   9.283 -0.0912  0.1057  0.2941
 8423SOL    HW136728   3.747   0.243   9.228  0.8081 -0.8599  0.9568
 8423SOL    HW236729   3.772   0.392   9.230  0.3900 -0.2327 -0.3045
 8424SOL     OW36730   1.295   3.911   7.523 -0.1116  0.0810 -0.6202
 8424SOL    HW136731   1.389   3.898   7.509  0.1388  0.0160  1.1749
 8424SOL    HW236732   1.263   3.922   7.433  1.4437 -0.9846 -1.3100
 8425SOL     OW36733   4.334   1.854   7.523 -0.5677 -0.6665 -0.0394
 8425SOL    HW136734   4.373   1.939   7.546 -1.1084 -0.6239  0.7314
 8425SOL    HW236735   4.404   1.789   7.532 -0.9367 -0.7179  2.4883
 8426SOL     OW36736   3.009   0.314   3.845 -0.7994  0.4651 -0.7391
 8426SOL    HW136737   2.976   0.303   3.934  1.3364 -1.7449 -0.2025
 8426SOL    HW236738   2.943   0.267   3.794 -0.1182 -2.0731  0.7006
 8427SOL     OW36739   1.423   1.554   3.009 -0.1046  0.0912  0.4424
 8427SOL    HW136740   1.472   1.609   2.947 -0.6530 -1.1280 -1.0570
 8427SOL    HW236741   1.334   1.571   2.980  0.0945 -1.1990 -0.9163
 8428SOL     OW36742   2.566   2.171  16.831  0.4386  0.2782  0.0975
 8428SOL    HW136743   2.480   2.182  16.871  0.2316 -0.3767 -0.1543
 8428SOL    HW236744   2.551   2.131  16.745 -0.1149  1.0093 -0.1422
 8429SOL     OW36745   1.241   4.439   1.689 -0.2701 -0.0730  0.2049
 8429SOL    HW136746   1.281   4.409   1.771  1.7844  1.5030 -0.2230
 8429SOL    HW236747   1.287   4.387   1.624 -2.1366 -2.1505  0.5263
 8430SOL     OW36748   4.160   0.076  12.109 -0.0175 -0.1676 -0.0832
 8430SOL    HW136749   4.138   0.136  12.180  3.5838 -0.0892  0.9621
 8430SOL    HW236750   4.213   0.119  12.043  0.9191 -0.4874  0.4511
 8431SOL     OW36751   1.636   0.779  15.767 -0.1707  0.4463 -0.2397
 8431SOL    HW136752   1.588   0.790  15.849  0.8952 -1.0544  0.5895
 8431SOL    HW236753   1.561   0.742  15.721 -0.2030 -1.0702  1.0240
 8432SOL     OW36754   2.593   2.074   6.038  0.2025 -0.0064  0.1187
 8432SOL    HW136755   2.604   2.142   6.105 -0.0928  0.1090  0.0524
 8432SOL    HW236756   2.507   2.105   6.007  0.5670 -0.0158 -0.8900
 8433SOL     OW36757   0.055   2.777   6.398  0.0746 -0.1440  0.4287
 8433SOL    HW136758   0.052   2.694   6.349 -0.4444 -0.0526  0.3081
 8433SOL    HW236759   0.105   2.839   6.344 -1.4095 -0.0917 -0.8687
 8434SOL     OW36760   0.756   4.633   8.767  0.2551  0.4353 -0.1444
 8434SOL    HW136761   0.806   4.552   8.762 -1.4286 -0.6213  0.3114
 8434SOL    HW236762   0.764   4.661   8.858 -0.8687  0.5981 -0.0918
 8435SOL     OW36763   1.913   4.306  10.231  0.7421  0.1675  0.0777
 8435SOL    HW136764   2.005   4.328  10.247  0.8727  0.5605 -1.2266
 8435SOL    HW236765   1.868   4.298  10.315  1.2456  1.4928  0.4811
 8436SOL     OW36766   1.233   3.873   4.644 -0.5377 -0.0340 -0.5106
 8436SOL    HW136767   1.297   3.859   4.714  0.1556  0.6425 -1.0148
 8436SOL    HW236768   1.154   3.828   4.675  0.7966 -1.0405  1.4190
 8437SOL     OW36769   3.575   0.964   9.164 -0.5702 -0.1788  0.6049
 8437SOL    HW136770   3.579   1.051   9.123  0.1879 -0.3086  0.4120
 8437SOL    HW236771   3.633   0.917   9.104 -3.4076  0.7521 -2.8735
 8438SOL     OW36772   0.467   3.636  11.266 -0.0953  0.3434 -0.3868
 8438SOL    HW136773   0.382   3.594  11.250 -0.2862  0.1904  0.9951
 8438SOL    HW236774   0.458   3.708  11.204  0.4661 -0.6316 -1.6025
 8439SOL     OW36775   0.558   2.853   6.732 -0.0575  0.6450  0.3402
 8439SOL    HW136776   0.594   2.862   6.644 -0.1938 -0.6916  0.1495
 8439SOL    HW236777   0.482   2.798   6.712  1.2703 -0.8177 -0.7125
 8440SOL     OW36778   1.030   4.660  15.675  0.2180  0.1949  0.3864
 8440SOL    HW136779   1.061   4.705  15.596  1.8799  1.8732  1.9876
 8440SOL    HW236780   1.089   4.699  15.740  1.3522 -1.1331  0.1694
 8441SOL     OW36781   2.702   3.529   3.349  0.0375 -0.2519  0.0611
 8441SOL    HW136782   2.676   3.615   3.384 -0.0669  0.0121 -0.6521
 8441SOL    HW236783   2.619   3.482   3.358 -0.3558  0.6566  1.2005
 8442SOL     OW36784   1.776   0.123   9.901 -0.6633 -0.0615  0.3037
 8442SOL    HW136785   1.817   0.134   9.815  0.4301  0.4676  0.8930
 8442SOL    HW236786   1.708   0.191   9.898  1.2969  1.8358 -2.0372
 8443SOL     OW36787   3.259   1.429   4.792 -0.2483  0.3326  0.2824
 8443SOL    HW136788   3.303   1.466   4.716 -0.5300 -0.0341 -0.0554
 8443SOL    HW236789   3.258   1.340   4.758  0.6260  0.5625 -0.3505
 8444SOL     OW36790   4.581   4.103  13.948  0.1166  0.6894 -0.1217
 8444SOL    HW136791   4.569   4.186  13.902 -0.5466  0.7481  0.1536
 8444SOL    HW236792   4.623   4.045  13.885  0.8936 -1.7680  2.6483
 8445SOL     OW36793   0.644   2.483  15.364 -0.9552 -0.5037 -0.2042
 8445SOL    HW136794   0.628   2.566  15.408  0.8585 -0.4144  0.2757
 8445SOL    HW236795   0.651   2.514  15.274  3.7862 -0.2957  0.2642
 8446SOL     OW36796   2.108   4.568  14.940 -0.1893  0.6014 -0.0048
 8446SOL    HW136797   2.203   4.567  14.925 -0.6502 -0.0636 -2.7808
 8446SOL    HW236798   2.075   4.582  14.852 -4.3696  2.6507  1.8900
 8447SOL     OW36799   0.192   1.942   7.576 -0.0483  0.1931 -0.2201
 8447SOL    HW136800   0.158   1.998   7.506  0.0369  1.5738  0.8460
 8447SOL    HW236801   0.254   1.883   7.533 -1.6352 -0.0165 -2.2629
 8448SOL     OW36802   2.366   3.441  15.688 -0.2419  0.0718 -0.3047
 8448SOL    HW136803   2.420   3.428  15.610 -0.3068 -1.2323 -0.1245
 8448SOL    HW236804   2.299   3.495  15.647 -1.9258 -2.3584 -0.7216
 8449SOL     OW36805   3.050   2.721   6.590  0.3034  1.2145  0.1681
 8449SOL    HW136806   3.053   2.703   6.684 -0.6902 -0.2055 -0.0748
 8449SOL    HW236807   2.958   2.747   6.580  0.0867  0.9022  1.3442
 8450SOL     OW36808   0.298   3.406   7.562 -0.2467 -0.1722  0.2100
 8450SOL    HW136809   0.273   3.473   7.626 -1.7321 -0.4140 -0.1174
 8450SOL    HW236810   0.255   3.329   7.600  1.1606  0.2669  2.6861
 8451SOL     OW36811   1.968   3.773   2.762  0.2917 -0.0318 -0.1719
 8451SOL    HW136812   1.997   3.858   2.728  1.0746 -0.2146  0.0593
 8451SOL    HW236813   1.929   3.739   2.681 -0.3758  0.0920  0.0972
 8452SOL     OW36814   0.242   0.282   6.369 -0.0936  0.1602  0.1932
 8452SOL    HW136815   0.159   0.236   6.382 -0.6267  1.1131  0.1323
 8452SOL    HW236816   0.209   0.364   6.334  0.7174  0.1458 -0.5935
 8453SOL     OW36817   0.660   0.451  11.253 -0.4529  0.3744 -0.2853
 8453SOL    HW136818   0.731   0.439  11.190 -1.1700 -2.7071 -0.5042
 8453SOL    HW236819   0.656   0.373  11.308  0.5571 -1.1127 -2.3285
 8454SOL     OW36820   1.055   3.572   0.708  0.1076  0.1249 -0.0062
 8454SOL    HW136821   1.057   3.600   0.800  1.6805  0.9613 -0.2979
 8454SOL    HW236822   1.136   3.605   0.670  0.6378 -1.7685 -0.5268
 8455SOL     OW36823   1.618   3.450   8.479  0.2746 -0.2855  0.5133
 8455SOL    HW136824   1.533   3.412   8.500 -1.1082  1.0624 -2.5792
 8455SOL    HW236825   1.653   3.380   8.425 -0.8988 -1.3514  1.1376
 8456SOL     OW36826   0.095   4.040   4.370  0.3289  0.0169 -0.2795
 8456SOL    HW136827   0.135   4.035   4.457 -0.0949 -0.7845 -0.1327
 8456SOL    HW236828   0.162   4.021   4.304  1.2670 -2.1179  1.2854
 8457SOL     OW36829   2.461   1.548  11.303 -0.0071 -0.0492  0.3502
 8457SOL    HW136830   2.424   1.487  11.369 -0.0252 -0.3356  0.0755
 8457SOL    HW236831   2.384   1.592  11.267  0.1917 -0.1590 -0.1951
 8458SOL     OW36832   4.397   0.471  14.804 -1.0217 -0.2886 -0.6027
 8458SOL    HW136833   4.478   0.429  14.832 -1.4400  0.1786  1.3130
 8458SOL    HW236834   4.434   0.527  14.736 -1.3041 -0.5709 -0.9828
 8459SOL     OW36835   4.335   4.498   5.963 -0.4819  0.0632  0.0654
 8459SOL    HW136836   4.365   4.453   5.883 -1.2803 -0.0535 -0.1608
 8459SOL    HW236837   4.317   4.586   5.932  1.0911  0.5077  0.4224
 8460SOL     OW36838   1.579   1.090   3.392 -0.1729 -0.2719  0.1589
 8460SOL    HW136839   1.593   1.181   3.417 -3.1738  0.3020 -0.2950
 8460SOL    HW236840   1.614   1.047   3.470 -0.3004 -0.2914  0.2053
 8461SOL     OW36841   4.635   0.382  14.878  0.7223  0.0965 -0.1128
 8461SOL    HW136842   4.707   0.436  14.911 -0.0718  1.5604 -0.7844
 8461SOL    HW236843   4.687   0.325  14.820  0.3865 -1.4280  1.0963
 8462SOL     OW36844   3.447   2.119  17.467  0.1144  0.7865  0.5352
 8462SOL    HW136845   3.479   2.167  17.543  1.5832  0.8025 -0.0896
 8462SOL    HW236846   3.432   2.030  17.501  0.5887 -0.2843 -2.0365
 8463SOL     OW36847   1.548   3.958   1.496 -0.6570  0.4600  0.8171
 8463SOL    HW136848   1.534   3.913   1.413 -2.7820 -2.0963  2.5838
 8463SOL    HW236849   1.477   4.022   1.493  0.5145  1.7314  0.0317
 8464SOL     OW36850   2.380   0.640  12.433  0.5334 -0.5089  0.1066
 8464SOL    HW136851   2.420   0.567  12.386  0.6501  0.5492 -1.4340
 8464SOL    HW236852   2.459   0.662  12.482  1.4542  0.3476 -1.7654
 8465SOL     OW36853   2.474   4.501  17.529 -0.0984  0.0688 -0.0942
 8465SOL    HW136854   2.421   4.460  17.597  0.1345 -0.6152 -0.3203
 8465SOL    HW236855   2.563   4.502  17.565 -0.3947 -0.9012  0.6731
 8466SOL     OW36856   0.178   0.108  11.274  0.0179 -0.2930 -0.5691
 8466SOL    HW136857   0.202   0.108  11.367 -1.3073  1.0016 -0.2361
 8466SOL    HW236858   0.187   0.014  11.257  1.4476  0.1002 -2.0188
 8467SOL     OW36859   0.001   2.175   4.528 -0.7139  0.1010 -0.0458
 8467SOL    HW136860   0.016   2.176   4.434 -0.6161 -2.0028 -0.0383
 8467SOL    HW236861   0.044   2.257   4.553 -2.4494  1.1288 -0.3715
 8468SOL     OW36862   0.544   0.074   4.322 -0.2957 -0.3492 -0.3682
 8468SOL    HW136863   0.599   0.043   4.394 -1.0247 -1.9336 -0.4925
 8468SOL    HW236864   0.592   0.156   4.309 -0.3705 -0.3243 -0.4908
 8469SOL     OW36865   1.564   0.210  17.060 -0.5119  0.0305 -0.0566
 8469SOL    HW136866   1.659   0.195  17.066 -0.1661  1.3612 -2.1437
 8469SOL    HW236867   1.565   0.298  17.098  2.1503  0.3217 -0.8121
 8470SOL     OW36868   3.114   1.237   7.298 -0.6829 -0.0220  0.5491
 8470SOL    HW136869   3.182   1.180   7.333 -0.6749 -0.2341  0.1885
 8470SOL    HW236870   3.164   1.306   7.255  0.8558 -0.7111  1.2297
 8471SOL     OW36871   2.443   4.088   9.209  0.5109 -0.1085 -0.0044
 8471SOL    HW136872   2.424   4.182   9.215 -1.7969 -0.7594  2.9558
 8471SOL    HW236873   2.395   4.067   9.129  0.6739  3.0863 -0.9657
 8472SOL     OW36874   1.806   0.497   7.108  0.0573 -0.2625 -0.0653
 8472SOL    HW136875   1.853   0.439   7.049  3.5350  2.8950 -0.3420
 8472SOL    HW236876   1.867   0.562   7.140  0.2703 -0.3432 -0.3121
 8473SOL     OW36877   4.109   0.213   7.253  0.0679  0.6910  0.2434
 8473SOL    HW136878   4.023   0.251   7.269 -0.4103 -0.2786 -0.0225
 8473SOL    HW236879   4.150   0.297   7.234  0.0924  0.9107  1.3181
 8474SOL     OW36880   0.873   1.639  13.780 -0.1729  0.6260  0.5311
 8474SOL    HW136881   0.842   1.654  13.691  1.8985 -1.4816 -0.5249
 8474SOL    HW236882   0.968   1.639  13.767  0.1123  0.9083  2.5925
 8475SOL     OW36883   1.054   2.848   3.891  0.1059  0.0575  0.0018
 8475SOL    HW136884   1.024   2.764   3.856 -0.4989  1.4883 -2.9231
 8475SOL    HW236885   1.104   2.885   3.818 -2.2670  1.0081 -1.1172
 8476SOL     OW36886   1.052   2.780   5.791 -0.0477 -0.2030  0.3575
 8476SOL    HW136887   1.042   2.761   5.698 -0.5505 -1.1455  0.6048
 8476SOL    HW236888   0.963   2.765   5.824 -0.3133  1.4194  0.3943
 8477SOL     OW36889   3.058   1.695   4.017 -0.2433 -0.5159 -0.0973
 8477SOL    HW136890   3.105   1.759   3.964  0.0455 -0.1620  0.5831
 8477SOL    HW236891   3.132   1.641   4.043  1.8664  1.6608 -1.5304
 8478SOL     OW36892   4.576   0.142  13.309 -0.0738  0.0207  0.6733
 8478SOL    HW136893   4.649   0.143  13.248 -0.2572 -0.1736  0.4471
 8478SOL    HW236894   4.520   0.190  13.248 -0.5618  4.2162  4.4611
 8479SOL     OW36895   0.366   2.239   2.748  0.0774  0.1241  0.8819
 8479SOL    HW136896   0.288   2.258   2.800 -0.1034 -0.8437  0.9677
 8479SOL    HW236897   0.401   2.328   2.749  0.6743 -0.1000 -0.1135
 8480SOL     OW36898   3.009   4.059   3.563  0.1228  0.4434 -0.6619
 8480SOL    HW136899   2.956   4.138   3.563 -0.5872 -0.0435 -2.2853
 8480SOL    HW236900   3.090   4.090   3.523  0.6676 -1.9041 -1.3950
 8481SOL     OW36901   4.681   1.428   0.178 -0.6713 -0.6725  0.2698
 8481SOL    HW136902   0.028   1.397   0.121  1.2914 -0.1478  2.3695
 8481SOL    HW236903   4.663   1.518   0.150 -0.8892 -1.9123 -3.5813
 8482SOL     OW36904   4.490   2.834  16.215 -0.3913 -0.3439  0.2847
 8482SOL    HW136905   4.497   2.819  16.309  1.5976 -0.6738  0.0835
 8482SOL    HW236906   4.439   2.915  16.215  0.6847  0.3329 -0.1368
 8483SOL     OW36907   1.877   0.762  16.540  0.3212 -0.4166 -0.0285
 8483SOL    HW136908   1.925   0.810  16.473  0.0865  0.3949  0.3920
 8483SOL    HW236909   1.823   0.719  16.473  1.1062 -0.0707 -0.8828
 8484SOL     OW36910   4.375   1.954   8.850 -0.8292  0.2088 -0.0816
 8484SOL    HW136911   4.362   1.867   8.887  0.3594  0.3797  0.7064
 8484SOL    HW236912   4.466   1.977   8.868 -0.9433  1.5278 -1.1541
 8485SOL     OW36913   4.283   0.118   0.253  0.8821  0.0402  0.0200
 8485SOL    HW136914   4.319   0.204   0.231  4.0423 -1.0337  0.9459
 8485SOL    HW236915   4.336   0.104   0.332  0.3767  0.8135  0.4926
 8486SOL     OW36916   3.476   1.611   6.643  0.9681  0.1030  0.1083
 8486SOL    HW136917   3.390   1.584   6.612 -0.2532  1.7921  2.0090
 8486SOL    HW236918   3.526   1.529   6.642  0.1327 -0.3944 -0.9718
 8487SOL     OW36919   1.229   2.249   4.251 -0.1183  0.2909 -0.0089
 8487SOL    HW136920   1.221   2.344   4.239  0.0023  0.1070 -1.4813
 8487SOL    HW236921   1.138   2.227   4.232 -0.6257  2.5165 -0.2175
 8488SOL     OW36922   0.959   2.359   7.513 -0.2618  0.6855 -0.6372
 8488SOL    HW136923   0.998   2.273   7.527  0.4784  1.1359  0.0536
 8488SOL    HW236924   0.940   2.379   7.605 -1.9923 -0.6544 -0.6860
 8489SOL     OW36925   3.888   3.786  13.702  0.0531 -0.4930 -0.1721
 8489SOL    HW136926   3.810   3.793  13.756 -0.2125  1.6382 -0.8142
 8489SOL    HW236927   3.891   3.878  13.675  2.0856 -0.5755 -0.2531
 8490SOL     OW36928   2.000   3.537   7.228 -0.0324  0.0629 -0.7158
 8490SOL    HW136929   2.015   3.493   7.145  2.4422 -0.8799  0.2202
 8490SOL    HW236930   1.906   3.551   7.231  0.0073  0.1548  0.1988
 8491SOL     OW36931   2.209   4.118   3.358 -0.0417  0.1928  0.1479
 8491SOL    HW136932   2.294   4.100   3.319  0.3724  0.4878  0.9009
 8491SOL    HW236933   2.242   4.125   3.448  2.1866  0.9546 -0.7354
 8492SOL     OW36934   4.616   3.881   3.114 -0.0746 -0.3502  0.0530
 8492SOL    HW136935   4.674   3.808   3.093  0.3729  0.1270 -0.3832
 8492SOL    HW236936   4.644   3.889   3.205  0.3847 -3.0047  0.1436
 8493SOL     OW36937   4.502   2.076  15.355 -0.1841  0.1889 -0.0421
 8493SOL    HW136938   4.429   2.126  15.319 -0.0639 -0.1662 -0.7896
 8493SOL    HW236939   4.457   1.992  15.367 -0.1690  0.4430  1.7923
 8494SOL     OW36940   0.110   3.106   7.713 -0.2621 -0.0065 -0.2678
 8494SOL    HW136941   0.166   3.144   7.780  0.1242 -1.9018  0.4704
 8494SOL    HW236942   0.024   3.143   7.735 -0.6219 -0.4597 -0.9073
 8495SOL     OW36943   2.185   2.090   3.499  0.1922 -0.4403 -0.0859
 8495SOL    HW136944   2.226   2.106   3.583  0.7843 -0.2454 -0.4114
 8495SOL    HW236945   2.171   2.183   3.482 -0.7080 -0.3246  1.2965
 8496SOL     OW36946   2.456   2.165   9.031  0.4921 -0.0247  0.3664
 8496SOL    HW136947   2.512   2.194   8.958  1.6484 -2.0356  0.4747
 8496SOL    HW236948   2.483   2.233   9.093 -0.4028 -1.1483  1.9688
 8497SOL     OW36949   2.015   3.509  12.294 -0.3701  0.2208 -0.3976
 8497SOL    HW136950   1.986   3.561  12.369 -0.6621  0.0659 -0.4017
 8497SOL    HW236951   2.030   3.581  12.233 -0.7512 -0.6376 -1.4919
 8498SOL     OW36952   3.595   2.061   5.938 -0.3223 -0.6454  0.2884
 8498SOL    HW136953   3.583   2.108   6.020 -1.5939  0.4776 -0.5426
 8498SOL    HW236954   3.604   1.969   5.964 -2.7751 -0.8512  0.3791
 8499SOL     OW36955   3.228   3.561   2.414 -0.1596 -0.2536  0.2096
 8499SOL    HW136956   3.182   3.600   2.488  0.9725 -0.3520  0.9616
 8499SOL    HW236957   3.185   3.476   2.412 -0.2484 -0.2456  1.9876
 8500SOL     OW36958   3.790   3.326   3.579  0.3735  0.2595 -0.5350
 8500SOL    HW136959   3.882   3.322   3.603 -0.0078  0.0280  0.8987
 8500SOL    HW236960   3.759   3.242   3.612  0.0626  0.9494  0.9166
 8501SOL     OW36961   4.599   2.836  12.513 -0.0686  0.2479 -0.1244
 8501SOL    HW136962   4.692   2.824  12.493 -0.7326  1.5097 -4.0290
 8501SOL    HW236963   4.597   2.931  12.498  2.8966  0.4382  0.6700
 8502SOL     OW36964   1.467   4.518   4.027  0.0945 -0.6470  0.1653
 8502SOL    HW136965   1.544   4.545   3.978  1.3625 -1.9560  1.4087
 8502SOL    HW236966   1.456   4.583   4.097  0.5447  1.1253 -1.4305
 8503SOL     OW36967   0.302   2.928   3.167 -0.0876 -0.6932  0.1753
 8503SOL    HW136968   0.220   2.884   3.145 -0.1084 -1.3818  1.6365
 8503SOL    HW236969   0.307   2.986   3.092  2.9165  0.7194  1.4563
 8504SOL     OW36970   2.327   3.375   6.965 -0.0921  0.1336  0.1083
 8504SOL    HW136971   2.233   3.391   6.963 -0.2464 -0.7216  0.5418
 8504SOL    HW236972   2.346   3.382   6.871 -2.3225  3.4327 -0.0890
 8505SOL     OW36973   3.854   0.365   5.300  0.5238  0.3954 -0.1661
 8505SOL    HW136974   3.844   0.448   5.349  0.0078 -0.9242  1.9810
 8505SOL    HW236975   3.930   0.324   5.342  0.6065 -1.1792 -1.8856
 8506SOL     OW36976   2.770   2.099   1.298 -0.4110  0.4137  0.1008
 8506SOL    HW136977   2.725   2.054   1.369  0.4613 -2.2268 -1.0221
 8506SOL    HW236978   2.765   2.192   1.319 -0.7747  0.6149 -0.8551
 8507SOL     OW36979   3.962   0.093  10.490 -0.1422 -0.3106  0.0660
 8507SOL    HW136980   4.001   0.007  10.481  0.5273 -0.1519  1.3915
 8507SOL    HW236981   4.034   0.143  10.528  1.0733 -2.2183  0.2228
 8508SOL     OW36982   0.690   2.734   6.335 -0.3352  0.9827 -0.2894
 8508SOL    HW136983   0.616   2.704   6.282 -1.4788  0.5644  1.5646
 8508SOL    HW236984   0.646   2.719   6.419  2.0359 -0.6519  0.6507
 8509SOL     OW36985   2.329   1.892   5.549 -0.1386 -0.0868 -0.4482
 8509SOL    HW136986   2.239   1.904   5.520  0.1725 -1.2961 -1.8943
 8509SOL    HW236987   2.336   1.800   5.571  2.4389 -0.2253 -1.7833
 8510SOL     OW36988   4.635   0.899   1.545 -0.1910  0.0264  0.5670
 8510SOL    HW136989   4.568   0.940   1.600 -1.7784 -1.8429  0.0112
 8510SOL    HW236990   4.651   0.822   1.599  0.2209 -0.0671  0.3122
 8511SOL     OW36991   2.927   0.705   8.744 -0.1019 -0.3289 -0.0304
 8511SOL    HW136992   2.893   0.762   8.812  1.8776 -0.0664  0.7243
 8511SOL    HW236993   2.932   0.763   8.667 -2.6590  0.2651  0.2263
 8512SOL     OW36994   2.285   0.044   5.350 -0.2176 -0.3954 -0.2111
 8512SOL    HW136995   2.236   0.042   5.432  0.0258 -0.3426 -0.0647
 8512SOL    HW236996   2.297   0.137   5.331  1.5381 -0.6699 -0.4771
 8513SOL     OW36997   0.729   3.164   2.971  0.5254  0.2832 -0.1990
 8513SOL    HW136998   0.816   3.189   2.939 -0.2394  2.0271 -0.9085
 8513SOL    HW236999   0.746   3.149   3.064  1.0763  3.5303  0.1967
 8514SOL     OW37000   0.371   4.120   9.091 -0.2541 -0.3018 -0.5681
 8514SOL    HW137001   0.448   4.087   9.138 -1.7638 -1.9186  0.8055
 8514SOL    HW237002   0.396   4.092   9.003 -2.2858 -3.4400 -0.1497
 8515SOL     OW37003   3.509   2.466   7.209  0.1097  0.0594 -0.1392
 8515SOL    HW137004   3.528   2.521   7.284 -0.4475 -0.3978  0.3336
 8515SOL    HW237005   3.426   2.508   7.189 -0.4980 -0.0943  2.1541
 8516SOL     OW37006   1.721   0.761   8.164 -0.4737 -0.1521  0.5566
 8516SOL    HW137007   1.732   0.677   8.209  2.4683 -1.2829 -2.3390
 8516SOL    HW237008   1.662   0.732   8.095  1.9652  1.1818 -2.1069
 8517SOL     OW37009   4.552   1.987   3.402 -0.3215  0.0084  0.0534
 8517SOL    HW137010   4.583   2.055   3.341 -2.2532  0.4850 -0.3876
 8517SOL    HW237011   4.457   1.991   3.389 -0.4377  1.3642  1.3532
 8518SOL     OW37012   3.295   0.938   1.573 -0.0470  0.8773 -0.1330
 8518SOL    HW137013   3.259   0.893   1.650  0.7198  1.6812  0.7038
 8518SOL    HW237014   3.384   0.909   1.593 -0.6517 -1.0143 -0.2254
 8519SOL     OW37015   2.131   1.728   8.565 -0.0963 -0.0054  0.0060
 8519SOL    HW137016   2.200   1.667   8.590  0.7693  1.0821  0.2857
 8519SOL    HW237017   2.058   1.668   8.547  0.5565 -0.4739 -1.0490
 8520SOL     OW37018   3.702   0.354   3.901 -0.7095  0.3133  0.0306
 8520SOL    HW137019   3.633   0.301   3.939 -0.5571  0.3013  0.2930
 8520SOL    HW237020   3.697   0.427   3.963 -1.4901  0.2296  0.0582
 8521SOL     OW37021   1.841   0.321   7.822 -0.3139  0.1550 -0.2201
 8521SOL    HW137022   1.843   0.272   7.741 -1.0412 -1.3685  0.6856
 8521SOL    HW237023   1.823   0.255   7.889  0.3106 -0.0483 -0.2508
 8522SOL     OW37024   4.514   3.899   6.269 -0.4365  0.7951 -0.0036
 8522SOL    HW137025   4.453   3.953   6.219  0.6953  0.2695 -1.9995
 8522SOL    HW237026   4.509   3.819   6.217  1.5723 -0.0953  1.1918
 8523SOL     OW37027   2.371   4.547   7.380  0.2559 -0.1010  0.5072
 8523SOL    HW137028   2.429   4.478   7.347  1.6612  0.4575  1.7824
 8523SOL    HW237029   2.336   4.499   7.455 -0.2049 -0.1842  0.2377
 8524SOL     OW37030   3.541   3.874   6.651 -0.1588  0.2379 -0.8333
 8524SOL    HW137031   3.610   3.921   6.606  1.2687  1.6801  2.9219
 8524SOL    HW237032   3.535   3.798   6.592  1.2392 -2.3851  2.3927
 8525SOL     OW37033   1.578   0.294  10.735 -0.0232 -0.0395  0.2350
 8525SOL    HW137034   1.564   0.314  10.828 -0.0176  1.6083 -0.1099
 8525SOL    HW237035   1.594   0.383  10.702  0.1769  0.0856  0.6737
 8526SOL     OW37036   1.394   2.489   4.786  0.0790  0.1644  0.4212
 8526SOL    HW137037   1.337   2.517   4.714 -1.1520 -1.4671  0.7558
 8526SOL    HW237038   1.422   2.401   4.761  1.2671  0.3857  0.9985
 8527SOL     OW37039   0.095   2.970   1.683 -0.9658 -0.0043 -0.5480
 8527SOL    HW137040   0.037   2.894   1.673 -1.9563  0.7237 -0.3110
 8527SOL    HW237041   0.083   3.019   1.602 -0.4902  0.7618 -0.1500
 8528SOL     OW37042   2.911   3.782   0.036 -0.1134  0.5233 -0.3803
 8528SOL    HW137043   2.938   3.787   0.127 -0.1307 -0.5456 -0.3078
 8528SOL    HW237044   2.841   3.848   0.038 -0.1456  0.4039  2.0246
 8529SOL     OW37045   2.065   1.412   5.187 -0.1019 -0.0367  0.1731
 8529SOL    HW137046   1.995   1.348   5.195  0.6557 -0.4360  3.3434
 8529SOL    HW237047   2.116   1.364   5.121 -0.8242  0.2456 -0.5926
 8530SOL     OW37048   0.266   2.990   2.736  0.0469 -0.5445  0.1284
 8530SOL    HW137049   0.249   3.005   2.643  1.4807 -0.4214 -0.1095
 8530SOL    HW237050   0.258   3.074   2.782 -0.2494  1.0777 -2.9176
 8531SOL     OW37051   4.357   0.407  10.141  0.4035 -0.2718 -0.4170
 8531SOL    HW137052   4.377   0.395  10.048  0.8938 -0.6996 -0.2605
 8531SOL    HW237053   4.445   0.383  10.170 -0.1204 -2.1390 -0.3951
 8532SOL     OW37054   2.029   3.909  15.631 -0.0579  0.2518  0.1354
 8532SOL    HW137055   2.067   3.907  15.544  0.8534 -0.8107  0.5508
 8532SOL    HW237056   2.019   4.003  15.646  0.1289  0.7459 -3.0572
 8533SOL     OW37057   3.538   4.438   3.987 -0.0881 -0.5590  0.1194
 8533SOL    HW137058   3.481   4.362   3.979 -0.1333 -0.5086 -0.0254
 8533SOL    HW237059   3.488   4.490   3.925  1.0497  0.5141  0.1015
 8534SOL     OW37060   0.870   1.474   6.661  0.1976  0.1219  0.3405
 8534SOL    HW137061   0.785   1.475   6.704  0.2518  0.9613  0.4295
 8534SOL    HW237062   0.901   1.389   6.694  1.8022  1.2114  1.6192
 8535SOL     OW37063   0.788   3.710  15.723 -0.0892  0.2264 -0.0976
 8535SOL    HW137064   0.843   3.633  15.708 -0.0230  0.4150 -0.8270
 8535SOL    HW237065   0.863   3.770  15.729 -0.3576  0.6127 -0.6394
 8536SOL     OW37066   2.449   0.569   6.089  0.0724 -0.3089  0.2103
 8536SOL    HW137067   2.480   0.488   6.129 -1.0092 -1.0910 -0.5178
 8536SOL    HW237068   2.399   0.531   6.016 -1.6269  0.6953  0.8413
 8537SOL     OW37069   4.327   0.693   2.775  0.4163 -0.2621  0.2978
 8537SOL    HW137070   4.379   0.681   2.696 -0.1636  1.5323 -0.3628
 8537SOL    HW237071   4.262   0.756   2.745 -0.4137 -0.4449  1.7079
 8538SOL     OW37072   0.153   1.605   9.703 -0.5191  0.2423 -0.1337
 8538SOL    HW137073   0.126   1.632   9.790 -1.6871 -2.3757  0.3374
 8538SOL    HW237074   0.113   1.517   9.704  1.7294 -0.7817 -0.2041
 8539SOL     OW37075   2.527   3.896   1.435 -0.0666  0.4820  0.9771
 8539SOL    HW137076   2.568   3.832   1.376 -0.2320  2.2238 -1.0272
 8539SOL    HW237077   2.571   3.888   1.519  1.1182 -0.1927  0.2913
 8540SOL     OW37078   0.544   3.522   7.578  0.0080  0.1927  0.3941
 8540SOL    HW137079   0.581   3.457   7.637  0.8506  0.2109 -0.1166
 8540SOL    HW237080   0.458   3.480   7.570  0.6549 -0.9568 -0.5500
 8541SOL     OW37081   0.855   3.757   9.316  0.4286 -0.1604 -0.3778
 8541SOL    HW137082   0.861   3.713   9.401  0.0219 -0.4933 -0.5260
 8541SOL    HW237083   0.868   3.848   9.343  4.2410 -0.5824 -0.6954
 8542SOL     OW37084   3.871   1.808   2.527  0.2558 -0.0835  0.4500
 8542SOL    HW137085   3.897   1.877   2.467  0.9947 -0.4160  0.3856
 8542SOL    HW237086   3.785   1.838   2.556 -0.4448 -1.1941 -0.4860
 8543SOL     OW37087   0.843   0.661   7.945  0.0877 -0.5586 -0.0039
 8543SOL    HW137088   0.793   0.580   7.938 -1.9211  0.5177  1.6962
 8543SOL    HW237089   0.824   0.682   8.037  0.2070  1.3513 -0.3990
 8544SOL     OW37090   3.021   2.509  12.227  0.4739 -0.0237 -0.0697
 8544SOL    HW137091   3.076   2.519  12.150 -0.6130 -1.3492 -1.0142
 8544SOL    HW237092   3.021   2.415  12.240  2.6435  0.2227  1.7932
 8545SOL     OW37093   2.206   1.780   8.265  0.3355 -0.2583  0.2414
 8545SOL    HW137094   2.136   1.837   8.233  0.5855  1.7064  3.2089
 8545SOL    HW237095   2.198   1.795   8.359 -0.2317 -0.0056  0.1572
 8546SOL     OW37096   2.847   1.134   3.750  0.6732 -0.1552  0.3429
 8546SOL    HW137097   2.920   1.188   3.719 -0.7198  2.6335  1.9423
 8546SOL    HW237098   2.819   1.183   3.827 -0.4909 -1.0511  0.4815
 8547SOL     OW37099   1.439   4.321   8.170 -0.0448 -0.1292  0.4737
 8547SOL    HW137100   1.405   4.238   8.204  0.9813 -0.6084  0.3225
 8547SOL    HW237101   1.526   4.294   8.139 -0.5329 -1.1659 -0.0026
 8548SOL     OW37102   0.972   0.975  14.742  0.2701 -0.0969 -0.6673
 8548SOL    HW137103   0.961   1.070  14.738  1.1647 -0.0061 -0.8604
 8548SOL    HW237104   0.974   0.950  14.834 -0.0260 -0.3511 -0.7269
 8549SOL     OW37105   0.669   1.924   3.356  0.0548  0.9341  0.5987
 8549SOL    HW137106   0.715   1.847   3.389 -2.7962 -0.6364  0.8217
 8549SOL    HW237107   0.712   1.916   3.271 -2.1030 -1.2364 -0.2755
 8550SOL     OW37108   2.598   1.267  15.390  0.2152  0.5083  0.2162
 8550SOL    HW137109   2.654   1.245  15.315 -2.2756  1.5276 -1.9666
 8550SOL    HW237110   2.547   1.344  15.365 -2.7279 -1.5406 -0.0369
 8551SOL     OW37111   2.761   2.736   7.390 -0.3084 -0.0473  0.5002
 8551SOL    HW137112   2.696   2.787   7.439  0.5090  1.5958 -0.1235
 8551SOL    HW237113   2.816   2.709   7.463  2.2237  0.5345 -1.2097
 8552SOL     OW37114   2.886   2.313   9.226  0.1750 -0.0043 -0.2114
 8552SOL    HW137115   2.842   2.234   9.257  2.1983 -1.4698 -1.0651
 8552SOL    HW237116   2.953   2.272   9.171 -0.4658 -1.8357  0.3756
 8553SOL     OW37117   3.892   3.313   2.591  0.1660 -0.6869  0.0155
 8553SOL    HW137118   3.902   3.254   2.665  1.3273  0.8401  1.0672
 8553SOL    HW237119   3.844   3.249   2.538  2.4330 -0.3993 -2.3820
 8554SOL     OW37120   3.864   0.158   3.797 -0.4648 -0.2535 -0.2304
 8554SOL    HW137121   3.871   0.210   3.717 -0.5098  0.5145  0.2651
 8554SOL    HW237122   3.812   0.216   3.852 -0.4647  0.6856 -1.2483
 8555SOL     OW37123   1.415   2.763   7.279  0.9003  0.2876 -0.2756
 8555SOL    HW137124   1.509   2.758   7.293  0.4115 -0.4144  2.7619
 8555SOL    HW237125   1.415   2.824   7.205  2.5218  1.2893  0.5614
 8556SOL     OW37126   2.589   3.094  15.820  0.1274  0.0379 -0.6937
 8556SOL    HW137127   2.638   3.176  15.826 -0.7365  0.5864 -1.0506
 8556SOL    HW237128   2.552   3.092  15.908  2.4640  1.4694  0.3224
 8557SOL     OW37129   1.288   0.325   3.349  0.6810  0.4632  0.1558
 8557SOL    HW137130   1.234   0.320   3.270 -0.5537  0.5447  0.9778
 8557SOL    HW237131   1.275   0.239   3.389  1.6020  0.0859 -0.3678
 8558SOL     OW37132   1.955   2.097  11.923 -0.2242  0.1175  0.2519
 8558SOL    HW137133   2.042   2.056  11.923  0.5444  1.7284  0.1055
 8558SOL    HW237134   1.951   2.136  12.010 -1.6534 -0.2209  0.3317
 8559SOL     OW37135   2.024   2.515   8.765 -0.1203  0.1842  0.2073
 8559SOL    HW137136   2.081   2.537   8.691  0.9941 -1.1706  0.6624
 8559SOL    HW237137   1.991   2.427   8.749  0.7007 -0.2278  0.7905
 8560SOL     OW37138   1.238   2.566   5.534  0.2472  0.3445  0.0616
 8560SOL    HW137139   1.190   2.510   5.595  0.0766  0.0424 -0.3508
 8560SOL    HW237140   1.324   2.525   5.543 -0.2336 -1.3994 -3.3259
 8561SOL     OW37141   3.938   2.532  15.631  0.4155  0.6924  0.2105
 8561SOL    HW137142   4.028   2.515  15.605  0.2995  1.6517 -0.8172
 8561SOL    HW237143   3.901   2.591  15.565 -0.0923  0.0620 -0.0721
 8562SOL     OW37144   2.032   2.723  14.541  0.5253  0.5466 -0.1772
 8562SOL    HW137145   1.983   2.641  14.555  1.7963 -0.1144  0.3986
 8562SOL    HW237146   2.121   2.698  14.516  0.2776  0.2002 -0.7124
 8563SOL     OW37147   0.152   0.143   0.205 -0.0079 -0.0774  0.0726
 8563SOL    HW137148   0.143   0.174   0.115 -3.4284  1.2609  0.9026
 8563SOL    HW237149   0.175   0.051   0.193 -4.6371 -1.1424 -0.3865
 8564SOL     OW37150   4.251   0.611  16.023  0.2112  0.1090 -0.0985
 8564SOL    HW137151   4.229   0.684  15.966  1.9301 -1.0093 -2.1662
 8564SOL    HW237152   4.291   0.654  16.099 -1.1209 -0.7902  1.1059
 8565SOL     OW37153   1.685   0.475   6.220 -0.0554  0.1367 -0.1863
 8565SOL    HW137154   1.772   0.467   6.258  0.8227 -0.4490 -2.2897
 8565SOL    HW237155   1.696   0.540   6.150  0.9394 -1.2589 -1.3357
 8566SOL     OW37156   1.487   1.103   1.129 -0.0027  0.2636  0.6040
 8566SOL    HW137157   1.423   1.150   1.182  0.4126  0.6796  0.7277
 8566SOL    HW237158   1.436   1.081   1.051  3.2761 -0.5596 -1.3148
 8567SOL     OW37159   0.915   4.684  16.917  0.1285 -0.1679  0.1922
 8567SOL    HW137160   0.986   4.634  16.957  2.3532  0.3955 -2.9913
 8567SOL    HW237161   0.873   4.701  17.001 -3.1990  0.4521 -1.6042
 8568SOL     OW37162   0.024   0.002   5.905  0.1352 -0.1822 -0.2434
 8568SOL    HW137163   4.656   0.030   5.895 -1.0802 -2.6669  3.6441
 8568SOL    HW237164   0.020   4.705   5.999  1.4857  0.8211  0.0300
 8569SOL     OW37165   1.131   3.176   8.666  0.3671 -0.0802  0.1987
 8569SOL    HW137166   1.114   3.216   8.752  1.2093 -0.6580  0.6393
 8569SOL    HW237167   1.222   3.148   8.675  0.5743  0.3162 -0.6495
 8570SOL     OW37168   1.763   3.234  14.989  0.1071 -0.2219  0.1430
 8570SOL    HW137169   1.783   3.289  14.914  1.2218 -1.1542 -0.2525
 8570SOL    HW237170   1.709   3.166  14.948  0.4437  0.5723 -1.6169
 8571SOL     OW37171   0.816   3.000   5.495  0.6075  0.1672 -0.1570
 8571SOL    HW137172   0.748   3.022   5.432  0.8552  2.2973  0.3091
 8571SOL    HW237173   0.794   3.045   5.577  0.6992  0.5192 -0.3264
 8572SOL     OW37174   4.623   4.180  11.200 -0.6388  0.1311 -0.3661
 8572SOL    HW137175   4.550   4.223  11.243 -0.9413 -1.4821  0.7366
 8572SOL    HW237176   4.609   4.085  11.195  0.5352 -0.0079 -1.0118
 8573SOL     OW37177   1.561   3.502   4.009  0.2376 -0.4788 -0.6245
 8573SOL    HW137178   1.499   3.527   3.940 -0.6027  0.1857  0.3826
 8573SOL    HW237179   1.527   3.545   4.087 -1.3050 -2.7140 -0.0833
 8574SOL     OW37180   0.745   4.541  17.305  0.5671  0.3473  0.1553
 8574SOL    HW137181   0.781   4.597  17.236 -0.5312  0.1158 -0.6051
 8574SOL    HW237182   0.822   4.498  17.342 -0.0049  0.2327  1.2137
 8575SOL     OW37183   0.561   2.179   3.833  0.2874 -0.6200  0.2127
 8575SOL    HW137184   0.589   2.257   3.880  1.7804 -1.1935  0.2613
 8575SOL    HW237185   0.614   2.189   3.754  1.7328  0.1736  1.2863
 8576SOL     OW37186   3.845   0.411  10.519  0.3176 -0.6594 -0.3293
 8576SOL    HW137187   3.804   0.431  10.604  0.4803  0.0237 -0.4064
 8576SOL    HW237188   3.879   0.324  10.535  0.4460 -0.7178 -0.9209
 8577SOL     OW37189   2.106   2.572   1.222  0.3577 -0.1346 -0.2511
 8577SOL    HW137190   2.054   2.581   1.142  1.7111 -2.6195 -1.4167
 8577SOL    HW237191   2.086   2.482   1.245  0.7949 -0.4649 -1.1652
 8578SOL     OW37192   4.374   2.552   8.435 -0.3018 -0.7642 -0.4489
 8578SOL    HW137193   4.346   2.515   8.519  0.1862 -1.2493 -0.5077
 8578SOL    HW237194   4.334   2.640   8.432  1.0173 -0.2112 -1.7040
 8579SOL     OW37195   3.913   0.843   7.358  0.1062  0.5772  0.0973
 8579SOL    HW137196   3.919   0.758   7.403  0.3672  1.2580  1.3359
 8579SOL    HW237197   3.838   0.876   7.408 -1.3296 -0.9861 -1.0117
 8580SOL     OW37198   0.784   2.891   6.548  0.1248 -0.3018  0.1684
 8580SOL    HW137199   0.866   2.940   6.553  0.1473 -0.1973 -1.1839
 8580SOL    HW237200   0.786   2.865   6.456  1.1649 -1.0651  0.3979
 8581SOL     OW37201   0.757   0.383   3.065  0.5883  0.3351 -0.4167
 8581SOL    HW137202   0.677   0.428   3.039  0.1311 -0.5546 -0.5509
 8581SOL    HW237203   0.825   0.425   3.013  2.2246 -0.6469  0.9405
 8582SOL     OW37204   3.670   2.291   7.336  0.2677 -0.9919  0.0851
 8582SOL    HW137205   3.653   2.362   7.274 -1.1824  0.0251  1.6557
 8582SOL    HW237206   3.592   2.289   7.392  0.3613 -0.1627  0.2385
 8583SOL     OW37207   0.726   3.500  12.128  0.1187 -0.1875  0.5637
 8583SOL    HW137208   0.814   3.535  12.115 -0.6365  1.0176 -1.4848
 8583SOL    HW237209   0.675   3.553  12.066 -0.7272 -2.0357 -0.3015
 8584SOL     OW37210   1.369   3.872   6.988  0.2158  0.0461 -0.1986
 8584SOL    HW137211   1.306   3.818   6.940 -0.3047 -1.0339  1.6926
 8584SOL    HW237212   1.387   3.940   6.923 -0.5971 -2.2484 -2.8160
 8585SOL     OW37213   1.241   1.962   9.591 -0.8926  0.1411 -0.3376
 8585SOL    HW137214   1.239   1.890   9.655  0.0189  1.1187  0.8024
 8585SOL    HW237215   1.164   2.006   9.628  0.1018  1.0048  0.6803
 8586SOL     OW37216   3.127   3.349   0.128  0.5366  0.0698 -0.3250
 8586SOL    HW137217   3.184   3.344   0.205  2.2745  1.2799 -1.5434
 8586SOL    HW237218   3.061   3.413   0.154 -0.1393 -0.2762 -1.1941
 8587SOL     OW37219   2.111   2.365   2.745  0.9142  0.3227  0.5137
 8587SOL    HW137220   2.158   2.352   2.827  1.2863  1.8275  0.5352
 8587SOL    HW237221   2.069   2.280   2.733 -1.5091  1.8541 -1.9281
 8588SOL     OW37222   0.891   2.939   4.496  0.5317 -0.2069  0.2485
 8588SOL    HW137223   0.808   2.914   4.457  0.1040  0.4214  0.7705
 8588SOL    HW237224   0.943   2.859   4.485 -1.1404 -1.4261  1.2063
 8589SOL     OW37225   1.532   4.267  16.655 -0.0285  0.1492 -0.1387
 8589SOL    HW137226   1.584   4.310  16.723  1.6157 -1.0024 -0.6580
 8589SOL    HW237227   1.457   4.234  16.705  1.7410  0.2440  2.5540
 8590SOL     OW37228   2.560   3.526  13.325 -0.1157  0.4077  0.1208
 8590SOL    HW137229   2.612   3.476  13.387  1.1673  1.5938 -0.0041
 8590SOL    HW237230   2.600   3.504  13.240 -2.5203 -2.1668 -0.3481
 8591SOL     OW37231   2.881   0.433   6.458 -0.1131 -0.5244 -0.8712
 8591SOL    HW137232   2.883   0.407   6.550  0.4858 -1.5793 -1.1789
 8591SOL    HW237233   2.968   0.472   6.454 -0.5161  0.4676  0.0033
 8592SOL     OW37234   2.760   3.990   7.634  0.5760 -0.5380  0.7569
 8592SOL    HW137235   2.820   3.937   7.581 -0.8910 -0.4238 -0.9981
 8592SOL    HW237236   2.689   3.931   7.658  0.5939 -0.1988  1.6406
 8593SOL     OW37237   2.295   1.369   5.929  0.3006 -0.1859 -0.0046
 8593SOL    HW137238   2.343   1.430   5.985 -0.5191  0.6575 -0.2233
 8593SOL    HW237239   2.337   1.288   5.957 -0.5816 -0.5193  0.3389
 8594SOL     OW37240   3.236   4.298   3.676 -0.1942 -0.5932 -0.6994
 8594SOL    HW137241   3.276   4.221   3.718  1.1607  0.0255 -0.8411
 8594SOL    HW237242   3.211   4.268   3.589  0.5137 -0.8964 -0.7963
 8595SOL     OW37243   0.593   2.551   7.610  0.0887  0.0940  0.2999
 8595SOL    HW137244   0.568   2.489   7.678  0.1369  1.3343  1.4389
 8595SOL    HW237245   0.637   2.487   7.553  1.1398  0.0375  1.1679
 8596SOL     OW37246   4.472   3.228   3.311  0.3801 -0.0214  0.1562
 8596SOL    HW137247   4.524   3.164   3.360 -0.8233 -0.8893  0.2977
 8596SOL    HW237248   4.408   3.243   3.381 -1.8033  0.5930 -1.9530
 8597SOL     OW37249   0.555   4.598   3.861 -0.3147 -0.2273 -0.1055
 8597SOL    HW137250   0.497   4.650   3.805  1.5125  1.6393 -0.2343
 8597SOL    HW237251   0.576   4.657   3.933 -0.7683  0.5680 -0.6296
 8598SOL     OW37252   0.916   1.428   8.172  0.1670 -0.4005 -0.1853
 8598SOL    HW137253   0.842   1.395   8.222  0.9442  0.1510  1.3035
 8598SOL    HW237254   0.898   1.384   8.088 -0.0348  1.2093 -0.9868
 8599SOL     OW37255   2.943   0.961   1.465 -0.3629  0.7970 -0.1153
 8599SOL    HW137256   2.857   0.933   1.496  1.2122 -2.5521  1.2860
 8599SOL    HW237257   2.993   0.887   1.430 -2.3735 -0.7911  0.4026
 8600SOL     OW37258   1.747   1.947  14.973 -0.0301  0.4513  0.1269
 8600SOL    HW137259   1.803   1.938  14.895 -0.1054 -1.6591  0.3171
 8600SOL    HW237260   1.696   2.022  14.944  0.3723  1.1555  1.2446
 8601SOL     OW37261   4.631   3.332   9.459 -0.5660  0.2762  0.3651
 8601SOL    HW137262   4.570   3.341   9.386 -0.3067  2.7552  0.4573
 8601SOL    HW237263   4.594   3.400   9.514  0.9923  0.2776  1.4139
 8602SOL     OW37264   0.070   3.099   4.291 -0.3273 -0.5928  0.5031
 8602SOL    HW137265   0.062   3.067   4.202  0.9497 -2.3889  1.0462
 8602SOL    HW237266   0.160   3.126   4.307 -0.5135  0.5807 -0.4555
 8603SOL     OW37267   4.471   1.504   1.871  0.4476 -0.5218 -0.1919
 8603SOL    HW137268   4.410   1.461   1.811 -0.2962  1.5604 -0.9376
 8603SOL    HW237269   4.420   1.582   1.894  2.7386  1.1478 -0.7836
 8604SOL     OW37270   3.772   4.262   1.325  0.4794  0.1019 -0.0067
 8604SOL    HW137271   3.715   4.291   1.396 -1.6546  1.2040 -2.1639
 8604SOL    HW237272   3.834   4.335   1.319  1.5387 -0.7945  0.1081
 8605SOL     OW37273   4.655   3.050   2.454  0.4092  0.6634 -0.1932
 8605SOL    HW137274   4.590   3.118   2.437  0.1823  0.3181 -0.6885
 8605SOL    HW237275   4.696   3.057   2.368  2.2998  0.8137  0.7148
 8606SOL     OW37276   2.391   0.126   8.939 -0.4632  0.4012 -0.2332
 8606SOL    HW137277   2.481   0.095   8.935 -0.1852  1.3578 -1.2925
 8606SOL    HW237278   2.345   0.049   8.973  0.4684  0.4877  1.1998
 8607SOL     OW37279   3.065   0.941   6.731 -0.5965  0.3054 -0.2066
 8607SOL    HW137280   3.068   0.882   6.655  0.1230  1.0640 -0.7718
 8607SOL    HW237281   3.156   0.935   6.760 -0.5832  0.4273 -0.2259
 8608SOL     OW37282   0.916   4.714   4.983 -0.3349  0.1781  0.3090
 8608SOL    HW137283   0.883   4.640   5.034 -1.5872  1.5394  1.4557
 8608SOL    HW237284   0.977   4.662   4.930 -0.5327  0.3843 -0.1186
 8609SOL     OW37285   4.407   0.710  13.575 -0.1404  0.5111 -0.5456
 8609SOL    HW137286   4.460   0.746  13.646 -1.7867  0.5050  0.6988
 8609SOL    HW237287   4.329   0.766  13.570 -0.5910 -0.0580  0.0409
 8610SOL     OW37288   0.706   4.052   5.323 -0.0011  0.1382 -0.4454
 8610SOL    HW137289   0.776   3.987   5.314  0.9162  1.1061 -0.3124
 8610SOL    HW237290   0.687   4.028   5.414  2.1545 -1.3347 -0.3697
 8611SOL     OW37291   0.105   3.900   6.610 -0.0329 -0.2063 -0.1258
 8611SOL    HW137292   0.081   3.877   6.700  3.6311  2.2644  1.4998
 8611SOL    HW237293   0.067   3.822   6.569 -1.0714  0.4683 -0.4343
 8612SOL     OW37294   0.265   0.843  17.368  0.0071  0.4455  0.2324
 8612SOL    HW137295   0.268   0.852  17.463  1.2620  2.5811 -0.0009
 8612SOL    HW237296   0.356   0.856  17.340 -0.1122  0.0172 -0.3562
 8613SOL     OW37297   4.398   1.140   7.442  0.1870 -0.1932  0.0837
 8613SOL    HW137298   4.430   1.226   7.468  0.8462 -0.6188  0.6675
 8613SOL    HW237299   4.341   1.118   7.516 -2.5237  2.0920 -1.2941
 8614SOL     OW37300   2.356   2.573   1.169 -0.0686 -0.3361 -0.2697
 8614SOL    HW137301   2.261   2.573   1.180  0.0587  1.6933  0.8711
 8614SOL    HW237302   2.388   2.568   1.259  1.3157 -2.0244 -0.8569
 8615SOL     OW37303   3.899   0.698   7.847  0.0144  0.3223  0.0742
 8615SOL    HW137304   3.910   0.790   7.822 -1.4417  0.7737  1.0367
 8615SOL    HW237305   3.804   0.693   7.834  0.0430  1.1909 -0.4406
 8616SOL     OW37306   1.715   0.261   2.955 -0.3015  0.0007  0.5486
 8616SOL    HW137307   1.627   0.265   2.993  0.6114 -0.8874  2.7362
 8616SOL    HW237308   1.732   0.167   2.946  1.4856  0.4615 -0.7883
 8617SOL     OW37309   4.252   0.823   3.913 -0.2810  0.4281  0.0084
 8617SOL    HW137310   4.321   0.826   3.979  1.3351  2.3260 -1.7965
 8617SOL    HW237311   4.201   0.753   3.956 -4.7579  2.0572 -2.6981
 8618SOL     OW37312   1.681   2.545   7.326  0.4960  0.3798  0.2588
 8618SOL    HW137313   1.627   2.487   7.379  0.9747 -0.7397 -0.4816
 8618SOL    HW237314   1.772   2.537   7.355  0.9430  1.2094 -0.8948
 8619SOL     OW37315   2.015   4.556   1.246  0.6246 -0.3176 -0.6259
 8619SOL    HW137316   2.088   4.565   1.185 -0.6329 -1.9098 -2.3955
 8619SOL    HW237317   1.980   4.467   1.239 -3.7087  1.4546 -1.3014
 8620SOL     OW37318   1.374   0.351   3.857  0.0417  0.8987 -0.3017
 8620SOL    HW137319   1.354   0.441   3.833 -1.6331  0.3147 -1.1030
 8620SOL    HW237320   1.298   0.309   3.817 -0.7776 -0.5734  2.7477
 8621SOL     OW37321   4.486   0.626  17.692 -0.2352  0.2407  0.1690
 8621SOL    HW137322   4.575   0.629  17.656 -1.8689 -0.0947 -3.8739
 8621SOL    HW237323   4.461   0.543  17.652  1.5466 -1.7794  3.1876
 8622SOL     OW37324   3.456   0.141  14.633  0.4586 -0.1293  0.0278
 8622SOL    HW137325   3.523   0.202  14.664  1.8741 -1.6500 -0.0087
 8622SOL    HW237326   3.495   0.102  14.555 -0.7165  1.0747 -1.1581
 8623SOL     OW37327   2.833   1.320  11.189  0.0232 -0.0342 -0.3996
 8623SOL    HW137328   2.780   1.273  11.125  0.3477  0.7102 -1.2055
 8623SOL    HW237329   2.845   1.241  11.243 -1.9037  0.8495  1.3089
 8624SOL     OW37330   1.984   1.434   3.521 -0.1458 -0.1691  0.2236
 8624SOL    HW137331   2.061   1.389   3.488 -0.2653 -1.3809  1.6284
 8624SOL    HW237332   2.012   1.521   3.493  1.9432 -0.6032  0.9509
 8625SOL     OW37333   4.603   1.895   8.434 -0.3860  0.5286  0.3389
 8625SOL    HW137334   4.525   1.863   8.389  0.1324 -0.0575 -0.1475
 8625SOL    HW237335   4.656   1.881   8.356  1.6161 -0.9498  1.9440
 8626SOL     OW37336   1.765   4.175   4.828 -0.0164  0.2026 -0.6556
 8626SOL    HW137337   1.700   4.240   4.799  0.6219  0.8433 -0.6487
 8626SOL    HW237338   1.784   4.133   4.745 -0.2960 -0.4536 -0.3876
 8627SOL     OW37339   1.571   4.697   9.792 -0.4974  0.5517 -0.2347
 8627SOL    HW137340   1.510   0.010   9.856 -1.3938  0.3683 -0.9825
 8627SOL    HW237341   1.651   4.712   9.843  0.6400 -0.3194 -1.7392
 8628SOL     OW37342   3.335   1.270  11.388  0.1199 -0.2712 -0.3036
 8628SOL    HW137343   3.254   1.270  11.438 -0.1085  1.0742 -0.6675
 8628SOL    HW237344   3.376   1.187  11.411 -0.8318 -0.5424  0.3908
 8629SOL     OW37345   3.834   1.223   8.155  0.5591 -0.1984 -0.5764
 8629SOL    HW137346   3.782   1.249   8.078  1.9827  0.4943 -1.2964
 8629SOL    HW237347   3.887   1.302   8.156 -2.4678  1.8000  1.0013
 8630SOL     OW37348   1.797   1.587  15.856 -0.2264  0.3806  0.0827
 8630SOL    HW137349   1.823   1.637  15.778 -0.2139 -0.4107 -0.4215
 8630SOL    HW237350   1.886   1.562  15.880 -0.0023  0.2714 -0.8579
 8631SOL     OW37351   2.468   1.812   8.686  0.4437  0.2931 -0.4760
 8631SOL    HW137352   2.481   1.797   8.593 -1.0308 -2.2922 -0.2501
 8631SOL    HW237353   2.448   1.906   8.690 -1.2695 -0.1043  0.6112
 8632SOL     OW37354   1.286   0.084   7.703 -1.2075 -0.3731 -0.8206
 8632SOL    HW137355   1.244   0.077   7.789 -0.9657 -0.6493 -0.7259
 8632SOL    HW237356   1.220   0.045   7.646  0.4408 -1.0757 -2.2166
 8633SOL     OW37357   4.641   0.134   7.017 -0.4879  0.0322  0.7363
 8633SOL    HW137358   4.629   0.207   7.078 -0.0928 -0.4248  1.3588
 8633SOL    HW237359   4.702   0.081   7.068 -0.1408  0.9599  1.2863
 8634SOL     OW37360   4.576   2.230   9.498 -0.3901 -0.2263  0.0446
 8634SOL    HW137361   4.538   2.312   9.467  0.6542  0.1911 -0.1341
 8634SOL    HW237362   4.616   2.250   9.583  1.0277 -1.5339 -0.3221
 8635SOL     OW37363   0.665   2.203   4.487 -0.2506  0.1004 -0.3874
 8635SOL    HW137364   0.589   2.192   4.544 -1.0736 -0.0182 -1.5131
 8635SOL    HW237365   0.635   2.152   4.412 -0.3144 -2.7078  1.5448
 8636SOL     OW37366   4.647   4.140   3.322 -0.4351 -0.1402  0.1802
 8636SOL    HW137367   4.588   4.098   3.385 -0.3205 -0.6977 -0.0805
 8636SOL    HW237368   4.590   4.217   3.317 -0.5789 -0.2738 -0.2818
 8637SOL     OW37369   1.483   2.198   2.892  0.3396 -0.6199 -0.2502
 8637SOL    HW137370   1.479   2.269   2.828  0.1544 -0.0965  0.3425
 8637SOL    HW237371   1.533   2.126   2.854 -2.7892 -2.5784 -0.7306
 8638SOL     OW37372   4.145   3.650   8.964 -0.2946  0.1598  0.2657
 8638SOL    HW137373   4.131   3.714   8.894 -0.8761  0.6190  0.7956
 8638SOL    HW237374   4.130   3.706   9.041  1.7799 -1.7962  2.0885
 8639SOL     OW37375   3.428   4.238  13.545 -0.4458  0.4809 -0.1863
 8639SOL    HW137376   3.505   4.281  13.508  0.6917 -1.1319  0.2964
 8639SOL    HW237377   3.448   4.239  13.638 -1.9468  0.6265  0.1335
 8640SOL     OW37378   3.507   3.682   3.558 -0.4322 -0.2928  0.2342
 8640SOL    HW137379   3.499   3.622   3.631  0.7362  0.8285  1.2949
 8640SOL    HW237380   3.584   3.644   3.515  1.6652  3.5154  0.5832
 8641SOL     OW37381   4.092   0.234  11.852  0.0628 -0.5160  0.1909
 8641SOL    HW137382   4.042   0.160  11.818  1.1521 -1.0778 -0.2179
 8641SOL    HW237383   4.030   0.266  11.916  1.6095  0.0366  1.4170
 8642SOL     OW37384   0.455   2.387   0.675 -0.1146  0.8051  0.4266
 8642SOL    HW137385   0.402   2.411   0.598 -0.9959 -2.2630  0.0624
 8642SOL    HW237386   0.377   2.384   0.731 -0.6499 -0.0794 -0.3562
 8643SOL     OW37387   1.867   0.773   7.829  0.3800 -0.0228  0.3346
 8643SOL    HW137388   1.919   0.786   7.749 -2.8616  0.4790 -1.6904
 8643SOL    HW237389   1.816   0.699   7.795 -1.4021  2.7168 -3.0187
 8644SOL     OW37390   2.477   0.297   6.198  0.4287 -0.1127  0.4264
 8644SOL    HW137391   2.449   0.335   6.281 -0.0261 -2.0163  1.1424
 8644SOL    HW237392   2.460   0.204   6.218 -1.7207  0.1632 -0.1374
 8645SOL     OW37393   1.569   2.792  11.346 -0.3934  0.3929 -0.4730
 8645SOL    HW137394   1.594   2.715  11.397 -1.7859  0.7757  0.7965
 8645SOL    HW237395   1.562   2.762  11.255  2.6542  1.0105 -0.9139
 8646SOL     OW37396   3.220   3.528   9.038  0.2428  0.1596  0.5697
 8646SOL    HW137397   3.279   3.466   9.081  0.3648 -0.5900 -0.6908
 8646SOL    HW237398   3.231   3.610   9.087 -0.2129  0.7055 -0.2466
 8647SOL     OW37399   0.952   1.901   5.287  0.1243  0.0700  0.6367
 8647SOL    HW137400   0.869   1.929   5.249 -0.2138 -0.5568  0.9176
 8647SOL    HW237401   0.979   1.982   5.331  1.4107  0.5081 -0.9921
 8648SOL     OW37402   2.171   2.787   7.781 -0.1883 -0.0448 -0.7672
 8648SOL    HW137403   2.100   2.752   7.726 -1.4293  0.6159  0.4278
 8648SOL    HW237404   2.121   2.812   7.858 -0.2441  2.4417 -1.5865
 8649SOL     OW37405   4.013   0.174   6.959  0.4974  0.7089 -0.1172
 8649SOL    HW137406   4.080   0.106   6.946  0.2792  0.3736  0.4891
 8649SOL    HW237407   3.965   0.142   7.036  1.1168 -2.2010 -0.9290
 8650SOL     OW37408   3.038   2.603   0.163  0.1933 -0.4371 -0.3302
 8650SOL    HW137409   2.999   2.679   0.207 -0.6833 -2.0944  1.7220
 8650SOL    HW237410   2.963   2.553   0.131  0.9901 -2.1990  0.5955
 8651SOL     OW37411   1.543   3.360   2.289  0.1262 -0.4376  0.3236
 8651SOL    HW137412   1.539   3.318   2.203 -1.2796  0.1912  0.0801
 8651SOL    HW237413   1.531   3.452   2.264 -1.5626 -0.8400 -0.3429
 8652SOL     OW37414   1.165   2.211   9.290 -0.4931 -0.0828 -0.6941
 8652SOL    HW137415   1.076   2.215   9.325 -1.0767  0.4163 -2.2078
 8652SOL    HW237416   1.181   2.299   9.256  2.1296 -0.4317 -0.3239
 8653SOL     OW37417   0.348   1.913   2.343  0.0571 -0.0831  0.1833
 8653SOL    HW137418   0.352   1.964   2.424 -0.1221 -1.9535  1.3680
 8653SOL    HW237419   0.410   1.961   2.288 -1.4920  0.3193 -1.2370
 8654SOL     OW37420   0.977   0.669  16.932 -0.1569 -0.0888 -0.0848
 8654SOL    HW137421   1.062   0.652  16.891 -0.6035 -0.0257 -1.0384
 8654SOL    HW237422   0.978   0.763  16.950 -0.8008  0.1199 -1.0826
 8655SOL     OW37423   0.466   4.096   6.203  0.2485 -0.2307  0.1866
 8655SOL    HW137424   0.415   4.025   6.243 -2.0938  0.5526 -1.4060
 8655SOL    HW237425   0.398   4.160   6.181 -1.3772 -2.3699 -1.1504
 8656SOL     OW37426   2.620   0.601   1.763 -0.5549  0.3652 -0.7108
 8656SOL    HW137427   2.676   0.563   1.694  0.7451  0.1873  0.4431
 8656SOL    HW237428   2.679   0.606   1.837  2.0546  0.4066 -2.7855
 8657SOL     OW37429   4.582   4.376   7.956 -0.5197 -0.2253 -0.1502
 8657SOL    HW137430   4.509   4.343   7.903 -0.6275  0.1073 -0.2068
 8657SOL    HW237431   4.532   4.403   8.033 -0.7169  0.3990 -0.4977
 8658SOL     OW37432   3.432   4.593   2.975  0.1777 -0.4839 -0.4571
 8658SOL    HW137433   3.337   4.584   2.988  0.2655 -0.8846 -0.1133
 8658SOL    HW237434   3.459   4.632   3.058  1.1454  0.9492 -1.4380
 8659SOL     OW37435   4.076   1.347  17.014 -0.3385  0.3665 -0.3582
 8659SOL    HW137436   4.017   1.277  16.986  0.7472 -1.1089  0.9599
 8659SOL    HW237437   4.120   1.368  16.931  1.9816  1.3972  1.1195
 8660SOL     OW37438   3.249   1.520   6.546 -0.5252 -0.1443  0.0510
 8660SOL    HW137439   3.182   1.499   6.611 -0.1041  1.6677  1.0529
 8660SOL    HW237440   3.199   1.493   6.469  0.9625  0.3478 -1.0838
 8661SOL     OW37441   0.325   2.224   6.845  0.2640  0.1378 -0.2343
 8661SOL    HW137442   0.318   2.129   6.853 -0.3421  0.2800  0.8627
 8661SOL    HW237443   0.343   2.233   6.751 -0.4915  0.7241 -0.3237
 8662SOL     OW37444   2.102   3.827   7.350 -0.2726 -0.6356  1.3220
 8662SOL    HW137445   2.160   3.794   7.282 -0.4298  3.5868 -0.8969
 8662SOL    HW237446   2.041   3.754   7.356  0.8864 -1.5355  2.1106
 8663SOL     OW37447   4.547   3.221   7.342  0.3727  0.1706 -0.1089
 8663SOL    HW137448   4.513   3.177   7.420  0.3931  0.1508 -0.1113
 8663SOL    HW237449   4.598   3.290   7.384 -1.9375  0.2143  2.6493
 8664SOL     OW37450   2.486   1.811   3.115 -0.0042  0.2526 -0.0591
 8664SOL    HW137451   2.552   1.817   3.046 -1.2502  2.4380 -1.0839
 8664SOL    HW237452   2.463   1.904   3.121  0.7253  0.4619 -0.4800
 8665SOL     OW37453   0.762   4.008   4.750 -0.2493 -0.1913  0.0411
 8665SOL    HW137454   0.843   4.033   4.794  1.3756 -0.6938 -2.6682
 8665SOL    HW237455   0.717   4.092   4.759 -0.8665 -0.6156  0.9379
 8666SOL     OW37456   4.477   4.268   8.619  0.3183  0.6365 -0.3298
 8666SOL    HW137457   4.409   4.218   8.574 -0.4264  0.7018  0.7202
 8666SOL    HW237458   4.467   4.262   8.714 -0.1474  1.5363 -0.3229
 8667SOL     OW37459   1.608   0.461   4.193 -0.3638 -0.0228  0.5113
 8667SOL    HW137460   1.684   0.510   4.226  0.5480 -0.5687 -0.7691
 8667SOL    HW237461   1.550   0.478   4.267  3.5014 -0.0092  3.5900
 8668SOL     OW37462   2.448   3.496   3.668 -0.1270  0.4498  0.1760
 8668SOL    HW137463   2.359   3.463   3.658  1.1818 -2.6073 -1.4335
 8668SOL    HW237464   2.491   3.429   3.721  0.8518  1.3569  0.5189
 8669SOL     OW37465   3.444   4.460   1.952  0.3006 -0.1778 -0.6639
 8669SOL    HW137466   3.396   4.540   1.971  2.5363  0.5915  1.9126
 8669SOL    HW237467   3.479   4.448   2.041  1.0650 -0.2528 -0.9802
 8670SOL     OW37468   2.192   3.447   3.671  0.0024 -0.0018  0.2508
 8670SOL    HW137469   2.161   3.491   3.592 -0.1206  0.0108  0.3063
 8670SOL    HW237470   2.175   3.513   3.737 -1.1816 -2.1704  2.1292
 8671SOL     OW37471   2.889   2.642   8.582 -0.7487  0.4717 -0.4477
 8671SOL    HW137472   2.958   2.696   8.543 -1.6546  1.3432 -0.8438
 8671SOL    HW237473   2.935   2.559   8.591  1.9199  1.7586 -2.2211
 8672SOL     OW37474   0.049   0.128   1.045 -0.4742  0.0372  0.0475
 8672SOL    HW137475   0.117   0.079   1.091 -1.2633  0.5588  1.7740
 8672SOL    HW237476   4.708   0.154   1.111 -1.0836 -0.0037 -0.5252
 8673SOL     OW37477   0.003   3.403   4.081 -0.0989 -0.2594  0.3016
 8673SOL    HW137478   4.674   3.440   4.152  2.5272  0.6647  1.7171
 8673SOL    HW237479   0.076   3.465   4.086 -0.2579  0.0187 -0.7368
 8674SOL     OW37480   2.084   0.233   6.417  0.0790  0.0608  0.0048
 8674SOL    HW137481   2.172   0.266   6.435 -0.5684  0.5471  2.2196
 8674SOL    HW237482   2.078   0.151   6.465 -1.5053 -0.0656 -0.3798
 8675SOL     OW37483   0.950   1.128   3.486  0.2071 -0.5447 -0.3698
 8675SOL    HW137484   0.896   1.102   3.412 -1.0478  0.5351  0.1752
 8675SOL    HW237485   0.943   1.221   3.506 -0.4682 -0.8613  0.8120
 8676SOL     OW37486   0.991   0.362  10.683 -0.4246  0.4047  0.1782
 8676SOL    HW137487   0.959   0.278  10.650  1.5409 -1.1560  2.2620
 8676SOL    HW237488   1.085   0.346  10.677 -0.7828 -1.3013 -0.7572
 8677SOL     OW37489   1.834   3.168   4.031 -0.5406 -0.1030 -0.1178
 8677SOL    HW137490   1.872   3.129   4.110  0.3453 -0.8680 -0.9182
 8677SOL    HW237491   1.846   3.098   3.967 -1.8337  0.6703 -1.2111
 8678SOL     OW37492   2.082   1.945   2.554 -0.9386  0.0009 -0.0660
 8678SOL    HW137493   2.162   1.964   2.504  0.2869  0.4043  2.0398
 8678SOL    HW237494   2.101   1.855   2.580  0.3404  0.3335  0.1451
 8679SOL     OW37495   2.989   0.161   0.498  0.3465  0.8854  0.0091
 8679SOL    HW137496   3.006   0.097   0.568 -2.2096 -1.2232 -1.2736
 8679SOL    HW237497   3.020   0.238   0.545  1.0090  0.9067 -0.4631
 8680SOL     OW37498   0.223   4.185  17.330 -0.5333 -0.3247  0.7404
 8680SOL    HW137499   0.159   4.196  17.259 -1.0976 -0.8102  1.1808
 8680SOL    HW237500   0.167   4.201  17.406 -0.0919  0.0397  0.9896
 8681SOL     OW37501   0.342   4.564   5.810 -0.3080  0.0245  0.2306
 8681SOL    HW137502   0.372   4.627   5.745  0.4095 -1.3855 -0.8297
 8681SOL    HW237503   0.250   4.547   5.791  0.3578 -2.9169 -0.4941
 8682SOL     OW37504   1.814   2.982  14.741  0.3591  0.1259 -0.2510
 8682SOL    HW137505   1.746   2.981  14.674  2.1313  2.6591 -2.0872
 8682SOL    HW237506   1.774   2.945  14.820 -2.9223  1.7692 -1.1398
 8683SOL     OW37507   2.984   2.360   8.584 -0.2699 -0.5342  0.3318
 8683SOL    HW137508   3.056   2.304   8.553  1.6473  1.9049  0.3743
 8683SOL    HW237509   2.940   2.298   8.642 -0.2669  0.5582  1.4880
 8684SOL     OW37510   2.985   1.842   8.124  0.1599  0.6407 -0.2204
 8684SOL    HW137511   3.065   1.882   8.156 -0.4421  1.0337  0.7702
 8684SOL    HW237512   2.920   1.856   8.192  0.4558 -1.8590  0.5861
 8685SOL     OW37513   2.384   1.221   7.678 -0.0487  0.0118 -0.1066
 8685SOL    HW137514   2.433   1.205   7.597  1.7091  0.2145  0.8950
 8685SOL    HW237515   2.301   1.244   7.639 -0.3856 -0.0618  0.5616
 8686SOL     OW37516   1.860   4.696   2.248  0.0627  0.4774  0.0253
 8686SOL    HW137517   1.918   0.009   2.182  0.6547 -0.7898 -0.1594
 8686SOL    HW237518   1.924   4.637   2.289 -0.5659 -1.3443 -1.6263
 8687SOL     OW37519   2.936   2.401   6.566  0.1898  0.3377 -0.9860
 8687SOL    HW137520   2.901   2.437   6.648 -1.1578 -0.6390 -1.1480
 8687SOL    HW237521   2.977   2.328   6.613 -0.2687  1.1576  0.7146
 8688SOL     OW37522   0.779   3.181  14.529 -0.0172 -0.1938 -0.2540
 8688SOL    HW137523   0.850   3.123  14.501  0.5156  1.1783 -1.7741
 8688SOL    HW237524   0.722   3.175  14.452 -0.5558 -1.3991  0.2466
 8689SOL     OW37525   1.721   4.509  11.619  0.7110  0.1517  0.6974
 8689SOL    HW137526   1.723   4.473  11.531 -2.8362  1.0916  0.2699
 8689SOL    HW237527   1.665   4.583  11.596 -0.5102 -0.5723  1.3243
 8690SOL     OW37528   3.247   3.365   6.450 -0.0296  0.3834 -0.1052
 8690SOL    HW137529   3.189   3.342   6.377 -0.7873  2.1203 -0.0519
 8690SOL    HW237530   3.323   3.308   6.432 -0.0512  0.0137  0.9804
 8691SOL     OW37531   1.431   1.544   4.804  0.1379  0.4829 -0.5096
 8691SOL    HW137532   1.459   1.452   4.814  0.1085  0.4570 -0.6760
 8691SOL    HW237533   1.474   1.562   4.721  2.0009 -1.3992  0.0168
 8692SOL     OW37534   2.458   0.984   5.310  0.0604  0.3202 -0.5773
 8692SOL    HW137535   2.528   0.920   5.295  1.0400  1.2637 -0.0310
 8692SOL    HW237536   2.447   0.966   5.403  2.4240 -2.8674 -0.9190
 8693SOL     OW37537   1.704   0.558   3.016  0.2310 -0.0872  0.3808
 8693SOL    HW137538   1.704   0.551   3.111  0.0586  1.6725  0.5076
 8693SOL    HW237539   1.691   0.470   2.980  1.3408 -0.7198  1.5050
 8694SOL     OW37540   1.294   4.571   6.090  0.3138 -0.6625 -0.2889
 8694SOL    HW137541   1.220   4.539   6.143 -0.8356 -0.5447 -1.8366
 8694SOL    HW237542   1.326   4.631   6.157 -0.7884 -1.0001  0.5599
 8695SOL     OW37543   0.514   1.106   3.124 -0.0707 -0.4613 -0.1395
 8695SOL    HW137544   0.527   1.187   3.174 -0.6392 -0.7727  0.5075
 8695SOL    HW237545   0.443   1.129   3.065  0.8280  0.0668 -1.0109
 8696SOL     OW37546   0.038   1.983   3.910 -0.5085  0.2893 -0.7073
 8696SOL    HW137547   0.018   1.938   3.828 -1.9524 -1.3492  0.5530
 8696SOL    HW237548   0.007   2.073   3.895  2.3306  1.6449  1.4170
 8697SOL     OW37549   0.586   2.598   4.579 -0.2546  0.0486  0.0934
 8697SOL    HW137550   0.624   2.681   4.550 -0.8330  0.4175  0.3900
 8697SOL    HW237551   0.507   2.599   4.526 -0.4098 -3.2046  0.3126
 8698SOL     OW37552   4.453   4.597   8.815 -0.5262 -0.3774  0.0350
 8698SOL    HW137553   4.491   4.678   8.849 -0.0942 -0.5915  0.0649
 8698SOL    HW237554   4.408   4.564   8.893 -0.9243 -1.3965 -0.6188
 8699SOL     OW37555   3.761   3.643   6.132 -0.2071  0.6600  0.0307
 8699SOL    HW137556   3.754   3.724   6.182  0.7544  0.7104  0.0719
 8699SOL    HW237557   3.685   3.643   6.073  1.0690 -2.2977 -1.6391
 8700SOL     OW37558   0.056   0.118  15.212  0.5979 -0.1481 -0.0378
 8700SOL    HW137559   0.014   0.168  15.283  0.7242  1.4667 -1.0951
 8700SOL    HW237560   0.123   0.183  15.189  1.9162 -1.6521 -0.4386
 8701SOL     OW37561   2.387   3.355  12.935  0.1966 -0.0915  0.0699
 8701SOL    HW137562   2.440   3.277  12.951 -0.8616 -0.1722  3.2345
 8701SOL    HW237563   2.347   3.347  12.849  0.1773  0.5401  0.0193
 8702SOL     OW37564   3.031   4.309   6.477 -0.4540 -0.0272  0.0224
 8702SOL    HW137565   2.944   4.297   6.439  0.2163  0.0809 -1.5236
 8702SOL    HW237566   3.072   4.223   6.471 -0.1420  0.2072 -1.1363
 8703SOL     OW37567   4.653   3.266   4.462  0.4525 -0.7459  0.6568
 8703SOL    HW137568   4.687   3.223   4.383 -0.7912  0.2311 -0.4054
 8703SOL    HW237569   4.611   3.340   4.419  2.7478 -0.3892 -0.9535
 8704SOL     OW37570   2.470   2.388   4.269  0.3297 -0.3348  0.2571
 8704SOL    HW137571   2.537   2.382   4.337  0.6159  2.5921  0.2276
 8704SOL    HW237572   2.392   2.423   4.312  1.0583  0.3111  1.0445
 8705SOL     OW37573   0.673   0.558   6.303  0.1618 -0.1526 -0.7480
 8705SOL    HW137574   0.735   0.598   6.242  1.3569 -0.6080  0.1823
 8705SOL    HW237575   0.618   0.500   6.249 -0.2836 -1.5695  1.2486
 8706SOL     OW37576   1.026   3.170   0.113 -0.0054  0.1669  0.6270
 8706SOL    HW137577   1.039   3.124   0.195  1.4928 -0.4327  0.0505
 8706SOL    HW237578   1.048   3.099   0.053  0.9430  1.3920 -0.4808
 8707SOL     OW37579   4.278   1.888   7.214  0.4038 -0.1936 -0.1295
 8707SOL    HW137580   4.323   1.933   7.285 -0.4041  2.3602 -1.2323
 8707SOL    HW237581   4.333   1.811   7.202  0.9748  0.4419 -1.6518
 8708SOL     OW37582   3.555   2.970   7.782 -0.3778 -0.0985  0.0821
 8708SOL    HW137583   3.496   2.981   7.857  1.5001  1.1612  1.3660
 8708SOL    HW237584   3.524   2.886   7.750 -0.4653 -0.1166  0.2112
 8709SOL     OW37585   1.688   3.392   7.053  0.5482  0.1709  0.5930
 8709SOL    HW137586   1.705   3.446   7.130 -2.4895  1.4022  0.3884
 8709SOL    HW237587   1.643   3.320   7.097 -0.9162  0.5965 -0.2234
 8710SOL     OW37588   2.118   0.173  15.522  0.1058 -0.8572  0.2347
 8710SOL    HW137589   2.157   0.099  15.474  0.5144 -0.5198  0.0406
 8710SOL    HW237590   2.092   0.153  15.611  1.4257  1.4543  1.1412
 8711SOL     OW37591   0.189   0.040   2.954  0.2903 -0.6605  0.3128
 8711SOL    HW137592   0.190   0.065   2.861 -0.9344  2.4273  1.1341
 8711SOL    HW237593   0.109   0.082   2.986  0.4601  0.0427 -0.1690
 8712SOL     OW37594   3.540   1.796   4.576  0.3137  0.4775  0.1195
 8712SOL    HW137595   3.563   1.835   4.660 -1.9182  0.0674  0.9352
 8712SOL    HW237596   3.448   1.774   4.592  0.7706 -0.5133  1.4376
 8713SOL     OW37597   2.396   4.394   4.172  0.2740 -0.1139 -0.2909
 8713SOL    HW137598   2.468   4.437   4.125 -0.4799  0.9260 -0.4783
 8713SOL    HW237599   2.402   4.422   4.263 -0.9431  0.6253 -0.4468
 8714SOL     OW37600   1.073   1.854   5.002 -0.2055  0.2001 -0.3131
 8714SOL    HW137601   1.050   1.946   5.017  1.1429  0.5831 -0.5903
 8714SOL    HW237602   1.168   1.858   4.988 -0.1070  3.7770  1.3799
 8715SOL     OW37603   3.714   3.184   2.459 -0.0251  0.0432  0.3730
 8715SOL    HW137604   3.695   3.220   2.373 -0.3405 -0.8169  0.0808
 8715SOL    HW237605   3.631   3.195   2.506 -0.2202 -1.7986  0.4797
 8716SOL     OW37606   2.915   1.150   7.454  0.2557 -0.6431  0.0116
 8716SOL    HW137607   2.901   1.243   7.472  1.2501 -0.3674 -0.7035
 8716SOL    HW237608   3.007   1.158   7.433  0.3797  0.4032  0.9255
 8717SOL     OW37609   3.377   3.279   4.746  0.0145  0.0318  0.7332
 8717SOL    HW137610   3.419   3.222   4.812  0.8039 -0.5179 -0.2400
 8717SOL    HW237611   3.284   3.258   4.745  0.4669 -1.8808 -1.2030
 8718SOL     OW37612   3.892   0.032   1.696  0.0669  0.5402  0.7789
 8718SOL    HW137613   3.906   4.662   1.708  1.3392  0.8765  1.8547
 8718SOL    HW237614   3.939   0.047   1.614 -1.4470 -3.2007 -0.7813
 8719SOL     OW37615   0.678   0.159  14.871 -0.6712  0.0996 -0.4178
 8719SOL    HW137616   0.724   0.082  14.905  1.2894  0.8785 -1.2861
 8719SOL    HW237617   0.653   0.200  14.954  0.6410  0.3243 -0.1235
 8720SOL     OW37618   3.063   0.493  13.369 -0.6686 -0.0998 -0.7689
 8720SOL    HW137619   3.026   0.405  13.377  1.5535 -1.3601 -4.3541
 8720SOL    HW237620   3.049   0.526  13.458  0.5487  3.4863 -1.8964
 8721SOL     OW37621   1.389   1.090   5.902  0.0227 -0.2348  0.6252
 8721SOL    HW137622   1.359   1.062   5.816 -1.3474 -0.2407  1.0899
 8721SOL    HW237623   1.457   1.152   5.877 -1.0732  1.0748  0.8306
 8722SOL     OW37624   0.921   3.877   5.349 -0.3728  0.4250 -0.6190
 8722SOL    HW137625   0.932   3.807   5.413 -0.4878  1.6761  0.7688
 8722SOL    HW237626   0.990   3.857   5.286  1.0854  0.0683  1.0790
 8723SOL     OW37627   2.512   3.836   1.933  0.0149 -0.1817  0.4109
 8723SOL    HW137628   2.521   3.741   1.932  2.6239  0.0709  0.2183
 8723SOL    HW237629   2.417   3.837   1.940 -0.0930  0.7258 -1.0645
 8724SOL     OW37630   2.817   2.812   8.829  0.0079  0.5251  0.1022
 8724SOL    HW137631   2.778   2.756   8.762  1.3377 -0.3903  0.0964
 8724SOL    HW237632   2.796   2.769   8.912  1.3542 -2.6805 -1.2230
 8725SOL     OW37633   0.907   1.836   2.142 -0.1228  0.0530  0.0825
 8725SOL    HW137634   0.980   1.899   2.139  1.7734 -2.1108  0.8729
 8725SOL    HW237635   0.957   1.768   2.187 -0.3969 -0.0161  0.2783
 8726SOL     OW37636   4.421   0.087   5.938  0.2052 -0.2553 -0.0141
 8726SOL    HW137637   4.456   0.162   5.986  0.2902 -0.9002  0.9223
 8726SOL    HW237638   4.341   0.120   5.897  2.0852  0.1406 -3.3815
 8727SOL     OW37639   0.278   3.003   5.284  0.1556 -0.1247  0.4210
 8727SOL    HW137640   0.265   2.972   5.194 -0.0707 -1.4137  0.8880
 8727SOL    HW237641   0.195   2.982   5.328 -1.0415  1.1816 -1.2210
 8728SOL     OW37642   1.445   4.720  12.320  0.5433 -0.3834 -0.0471
 8728SOL    HW137643   1.502   4.703  12.395  0.0771  0.8283  0.5828
 8728SOL    HW237644   1.506   0.047  12.266  0.5560 -0.2143  0.1267
 8729SOL     OW37645   1.829   3.745  15.495 -0.4668  0.2006  0.0530
 8729SOL    HW137646   1.736   3.764  15.510 -0.0694  1.8470  0.4256
 8729SOL    HW237647   1.868   3.806  15.559  0.7898 -0.3771 -0.1716
 8730SOL     OW37648   3.347   1.344   2.868 -0.0005  0.6017  0.0016
 8730SOL    HW137649   3.393   1.278   2.815  0.3519  1.5434 -0.8647
 8730SOL    HW237650   3.394   1.336   2.951  0.0618  0.8662 -0.0093
 8731SOL     OW37651   0.977   4.673   6.633 -0.3873  0.1901  0.4234
 8731SOL    HW137652   0.920   4.717   6.569  0.2782 -1.3621 -1.2106
 8731SOL    HW237653   0.961   0.003   6.711  1.2376  0.9168  0.2652
 8732SOL     OW37654   4.408   0.173   1.671  0.3428 -0.1413  0.1036
 8732SOL    HW137655   4.360   0.121   1.607 -1.8613 -0.6404  2.1794
 8732SOL    HW237656   4.466   0.110   1.715 -0.6162 -1.7591 -0.9473
 8733SOL     OW37657   2.827   3.464   3.686 -0.2587 -0.3079 -0.4186
 8733SOL    HW137658   2.764   3.401   3.654  0.1267 -0.6148 -0.5720
 8733SOL    HW237659   2.797   3.494   3.772 -2.0908 -2.3091 -0.3826
 8734SOL     OW37660   3.245   4.361   4.270 -0.3113  0.1712  0.0870
 8734SOL    HW137661   3.239   4.285   4.212  2.2489  0.6694 -0.8319
 8734SOL    HW237662   3.171   4.342   4.329  0.3570 -0.6548  0.6688
 8735SOL     OW37663   1.582   0.696   3.682 -0.3251  0.3363 -0.0713
 8735SOL    HW137664   1.507   0.673   3.627 -0.0171  2.2196 -1.2604
 8735SOL    HW237665   1.657   0.682   3.624  0.5332  2.1601  0.6236
 8736SOL     OW37666   0.696   3.907   3.034 -0.0627 -0.2140 -0.1512
 8736SOL    HW137667   0.691   3.879   3.126 -2.3408 -0.4623 -0.3430
 8736SOL    HW237668   0.612   3.873   3.004  0.3758  0.4319 -2.0518
 8737SOL     OW37669   0.551   0.751  11.740 -0.1103 -0.3105 -0.4503
 8737SOL    HW137670   0.530   0.749  11.646  0.2534 -1.8316 -0.5051
 8737SOL    HW237671   0.505   0.682  11.788 -0.8583  0.1659 -0.4832
 8738SOL     OW37672   0.985   4.225   3.264 -0.1294  0.1081 -0.2487
 8738SOL    HW137673   1.024   4.236   3.177  2.2052 -2.3905  0.4753
 8738SOL    HW237674   0.905   4.277   3.261  0.7308  1.5331  1.7544
 8739SOL     OW37675   0.525   3.634  17.453  0.5186 -0.3996 -0.1693
 8739SOL    HW137676   0.520   3.707  17.515 -3.1823  0.0562 -0.9709
 8739SOL    HW237677   0.554   3.563  17.510 -0.2196 -0.8129 -0.3091
 8740SOL     OW37678   4.383   3.799  12.777 -0.1315  0.0495  0.4276
 8740SOL    HW137679   4.422   3.871  12.728  0.9725 -1.0030 -0.2467
 8740SOL    HW237680   4.462   3.745  12.780 -0.9024 -1.1829 -1.7704
 8741SOL     OW37681   2.030   1.921   1.130  0.0615 -0.2461  0.2765
 8741SOL    HW137682   2.093   1.929   1.058 -0.2130  0.1001  0.0747
 8741SOL    HW237683   1.952   1.950   1.083  0.6848  0.9740  0.0048
 8742SOL     OW37684   1.163   1.974   2.136 -0.1503  0.1423 -0.5527
 8742SOL    HW137685   1.192   1.966   2.227 -1.8720  1.8811  0.1396
 8742SOL    HW237686   1.130   2.064   2.146  0.4795  0.5942 -2.5754
 8743SOL     OW37687   0.046   3.196  10.377  0.1339  0.1431  0.4028
 8743SOL    HW137688   0.102   3.222  10.304 -0.3621 -1.8213 -0.6664
 8743SOL    HW237689   4.720   3.276  10.397  1.0902  0.4984  1.2990
 8744SOL     OW37690   2.194   2.985  12.402  0.3996  0.2530 -0.5918
 8744SOL    HW137691   2.141   3.023  12.472  0.3712 -0.9419  0.0377
 8744SOL    HW237692   2.278   3.028  12.418  0.8168  0.0524 -2.2636
 8745SOL     OW37693   2.062   4.089   4.151  0.4984  0.6564  0.1034
 8745SOL    HW137694   2.147   4.090   4.107 -0.1983  0.9533 -1.2335
 8745SOL    HW237695   2.074   4.126   4.239 -2.0421 -1.3062  1.2803
 8746SOL     OW37696   0.709   4.365   2.049  0.2815 -0.3680 -0.2262
 8746SOL    HW137697   0.674   4.436   2.103  0.6886 -0.7634  0.5554
 8746SOL    HW237698   0.794   4.405   2.029  0.9825 -0.9625  1.5405
 8747SOL     OW37699   2.635   1.466   6.192  0.3984  0.0926  0.7030
 8747SOL    HW137700   2.604   1.390   6.144  0.6350 -1.1461  2.5048
 8747SOL    HW237701   2.720   1.485   6.153  0.4147  2.6355  1.9128
 8748SOL     OW37702   3.610   0.876   4.688 -0.0699  0.2271 -0.8351
 8748SOL    HW137703   3.630   0.962   4.652  0.6913  1.9177  3.7746
 8748SOL    HW237704   3.532   0.890   4.741  0.7000 -1.6470  0.8093
 8749SOL     OW37705   3.963   1.856   6.904 -0.5677 -0.3377  0.3331
 8749SOL    HW137706   3.929   1.945   6.893  1.4786  0.4794  0.5525
 8749SOL    HW237707   3.983   1.832   6.813  0.6664 -1.2058  0.8483
 8750SOL     OW37708   4.127   1.950  12.128  0.6693  0.5148  0.3038
 8750SOL    HW137709   4.155   2.017  12.065  0.2133  0.9855  0.5950
 8750SOL    HW237710   4.204   1.939  12.184 -0.3331  0.0865  1.5935
 8751SOL     OW37711   2.429   4.029   8.733  0.0887 -0.2417  0.6377
 8751SOL    HW137712   2.478   3.986   8.663  2.0954  1.0328  1.2607
 8751SOL    HW237713   2.498   4.026   8.798  1.6885 -1.7496 -1.1351
 8752SOL     OW37714   3.997   0.617   8.160 -0.3361  0.1042  0.1031
 8752SOL    HW137715   4.088   0.591   8.173 -0.1171 -0.5478 -2.6627
 8752SOL    HW237716   3.990   0.677   8.234 -0.3145 -0.9516  0.9656
 8753SOL     OW37717   0.532   1.340   0.818  0.1308 -0.2016  0.0616
 8753SOL    HW137718   0.522   1.387   0.901  1.4312  0.0669  0.0730
 8753SOL    HW237719   0.607   1.387   0.782 -0.1452 -1.1421 -1.7505
 8754SOL     OW37720   1.766   2.278   6.814 -0.4121 -0.2017  0.2512
 8754SOL    HW137721   1.782   2.371   6.830  0.4433 -0.4441  0.8069
 8754SOL    HW237722   1.674   2.260   6.831 -0.4538 -1.1688 -0.9399
 8755SOL     OW37723   2.750   1.090   8.169  0.9100 -0.3361 -0.6060
 8755SOL    HW137724   2.710   1.136   8.243  2.3944 -0.2342  0.1166
 8755SOL    HW237725   2.674   1.046   8.130  0.8871 -0.2233 -0.6880
 8756SOL     OW37726   1.842   2.739   5.439 -0.0169 -0.9016 -0.1710
 8756SOL    HW137727   1.908   2.709   5.501  0.0362  0.3498  0.3681
 8756SOL    HW237728   1.862   2.832   5.427 -0.4133 -0.9315 -1.0977
 8757SOL     OW37729   2.167   4.133   8.405  0.4746  0.0473 -0.7090
 8757SOL    HW137730   2.262   4.129   8.407  0.4842  0.4856 -0.3265
 8757SOL    HW237731   2.152   4.135   8.499  1.4020 -0.0016 -0.5616
 8758SOL     OW37732   2.077   2.048   6.142 -0.0089 -0.6068  0.1818
 8758SOL    HW137733   2.061   2.066   6.049 -0.9853  2.3662  0.9191
 8758SOL    HW237734   2.026   1.970   6.161 -2.1511  0.7252 -0.1270
 8759SOL     OW37735   0.540   2.983   5.015 -0.6483 -0.3564  0.2023
 8759SOL    HW137736   0.601   3.022   4.952 -0.6094 -3.5126 -1.7582
 8759SOL    HW237737   0.464   3.006   4.962 -1.7962  0.2875  2.1157
 8760SOL     OW37738   2.912   3.661  16.767  0.0662 -0.4403 -0.2453
 8760SOL    HW137739   2.818   3.659  16.749 -0.1277 -3.6429  1.1035
 8760SOL    HW237740   2.949   3.645  16.680  0.8535 -1.2431  0.2378
 8761SOL     OW37741   2.280   1.059   6.068  0.3999  0.0794 -0.4719
 8761SOL    HW137742   2.276   1.130   6.132  0.5369  0.6708 -1.1030
 8761SOL    HW237743   2.196   1.016   6.084  1.2823 -1.3790  0.1647
 8762SOL     OW37744   2.019   3.274   8.013  0.3279 -0.1633 -0.2670
 8762SOL    HW137745   1.963   3.331   7.961 -0.1165 -0.7576 -0.4487
 8762SOL    HW237746   2.105   3.315   8.011  0.5219 -0.5749 -0.4818
 8763SOL     OW37747   4.176   2.936   9.497  0.3568  0.0734 -0.3935
 8763SOL    HW137748   4.248   2.875   9.484  0.0063 -0.4526  0.1532
 8763SOL    HW237749   4.137   2.899   9.576 -3.3254  0.3883 -2.0661
 8764SOL     OW37750   0.971   3.231   2.811 -0.0704  0.0694 -0.4924
 8764SOL    HW137751   0.968   3.163   2.744 -0.5576 -1.3875  1.0143
 8764SOL    HW237752   1.056   3.270   2.791 -0.1033  1.0305  1.1572
 8765SOL     OW37753   2.024   0.384   3.547  0.1788  0.2869 -0.0406
 8765SOL    HW137754   2.050   0.356   3.634 -3.2802  3.7748  2.1279
 8765SOL    HW237755   1.977   0.306   3.519 -1.6905  0.4442  2.6521
 8766SOL     OW37756   4.691   4.501   1.847 -0.7299 -0.4083  0.1817
 8766SOL    HW137757   0.046   4.540   1.886 -0.2010 -0.8111 -0.4589
 8766SOL    HW237758   4.636   4.467   1.917 -0.8414  2.6877  1.5831
 8767SOL     OW37759   2.772   3.573   6.757  0.3557  0.4802 -0.1082
 8767SOL    HW137760   2.762   3.631   6.682 -2.0794  0.4644  0.1914
 8767SOL    HW237761   2.867   3.568   6.762  0.3413  1.8483  1.5393
 8768SOL     OW37762   4.589   1.449   3.451 -0.7496 -0.0286 -0.1449
 8768SOL    HW137763   4.517   1.438   3.514 -0.4530  1.5116  0.4586
 8768SOL    HW237764   4.568   1.532   3.410  0.6559  0.5458  0.3045
 8769SOL     OW37765   4.683   3.409   3.823 -0.6297  0.3617 -0.6888
 8769SOL    HW137766   0.043   3.377   3.788 -0.4572  1.7816 -1.5588
 8769SOL    HW237767   4.705   3.412   3.917 -3.1094 -1.6277 -0.0559
 8770SOL     OW37768   0.379   0.411   3.810 -0.1400  0.1613 -0.0563
 8770SOL    HW137769   0.425   0.351   3.750  2.1262  2.4168 -0.5695
 8770SOL    HW237770   0.436   0.488   3.810  0.6379 -0.4094 -0.8405
 8771SOL     OW37771   3.824   0.149   7.155 -0.0731  0.6758 -0.1944
 8771SOL    HW137772   3.801   0.241   7.147 -2.8623 -0.0756 -0.6662
 8771SOL    HW237773   3.770   0.134   7.232 -0.7956  1.1438 -0.6171
 8772SOL     OW37774   2.710   0.777   1.324  0.4581  0.1705 -0.3161
 8772SOL    HW137775   2.651   0.737   1.260 -1.3099  0.6723  0.9923
 8772SOL    HW237776   2.790   0.799   1.276  1.2299  1.1931  1.4240
 8773SOL     OW37777   4.681   3.932  14.129 -0.2213 -0.4566  0.3561
 8773SOL    HW137778   4.599   3.958  14.170  0.3048  1.2616  0.3361
 8773SOL    HW237779   4.675   3.995  14.057 -4.2282 -3.4343 -1.8908
 8774SOL     OW37780   1.324   3.408   4.188  0.2799  0.5640  0.6341
 8774SOL    HW137781   1.297   3.365   4.108  0.7918 -2.4258  2.0772
 8774SOL    HW237782   1.417   3.386   4.198  0.2432  1.8320  3.8712
 8775SOL     OW37783   1.372   4.162   1.026 -0.3811  0.1878  0.6823
 8775SOL    HW137784   1.281   4.183   1.009 -0.4057 -0.9673 -0.7055
 8775SOL    HW237785   1.407   4.208   0.950 -0.0618 -4.6036 -2.1294
 8776SOL     OW37786   4.383   2.384   8.921  0.1923 -0.1948  0.1883
 8776SOL    HW137787   4.420   2.330   8.991 -1.2937 -0.0678  1.0722
 8776SOL    HW237788   4.295   2.346   8.912  0.1337 -0.3213  1.2864
 8777SOL     OW37789   3.347   3.593   5.820  0.0274 -0.4628 -0.2146
 8777SOL    HW137790   3.271   3.608   5.763  1.7977 -0.1730 -2.5063
 8777SOL    HW237791   3.343   3.498   5.811  2.1471 -0.3968 -1.9810
 8778SOL     OW37792   2.822   1.249   7.065  0.5657 -0.1431  0.1322
 8778SOL    HW137793   2.770   1.169   7.051 -1.3751  0.5793  3.0795
 8778SOL    HW237794   2.911   1.216   7.056  0.6704  0.1743  0.0218
 8779SOL     OW37795   4.376   0.191   9.811  0.6063 -0.2247 -0.0563
 8779SOL    HW137796   4.300   0.135   9.828  0.0122  0.7752  0.6074
 8779SOL    HW237797   4.391   0.186   9.717 -1.4645 -0.4109 -0.3822
 8780SOL     OW37798   1.329   2.638   8.611  0.3539  0.3483 -0.1895
 8780SOL    HW137799   1.250   2.619   8.661 -1.7397  0.6249 -3.4070
 8780SOL    HW237800   1.328   2.588   8.529 -2.0078 -0.6317  0.4332
 8781SOL     OW37801   3.224   1.030   8.196 -0.0667  0.0157 -0.2935
 8781SOL    HW137802   3.136   1.001   8.220 -0.9122  1.3916 -1.7520
 8781SOL    HW237803   3.278   0.972   8.249 -0.5102 -0.2686 -0.1529
 8782SOL     OW37804   0.084   0.922  17.179 -0.0241  0.5440 -0.6480
 8782SOL    HW137805   0.125   0.893  17.261 -2.0266  0.9734  0.4983
 8782SOL    HW237806   4.722   0.940  17.219  0.1760  1.6974 -0.7410
 8783SOL     OW37807   1.412   4.656   7.287  0.1610 -0.0500  0.3710
 8783SOL    HW137808   1.469   4.720   7.329  2.3146 -2.0341  0.4673
 8783SOL    HW237809   1.331   4.695   7.320  1.2153  1.1401  1.5493
 8784SOL     OW37810   4.079   1.702  12.369 -0.1128  0.5249 -0.4213
 8784SOL    HW137811   4.018   1.643  12.413 -1.2666  2.6703  0.8585
 8784SOL    HW237812   4.091   1.667  12.281 -3.7755 -2.3290  0.2539
 8785SOL     OW37813   2.650   4.199   5.527 -0.2076 -0.5993  0.2522
 8785SOL    HW137814   2.687   4.118   5.494  1.9294  0.0186  1.1290
 8785SOL    HW237815   2.657   4.260   5.454  0.0374 -0.6961  0.1968
 8786SOL     OW37816   0.119   0.682   9.608 -0.1616 -0.2973  0.2280
 8786SOL    HW137817   0.143   0.762   9.656  0.3095 -1.2310  1.5349
 8786SOL    HW237818   0.186   0.682   9.540 -1.5436 -0.5070 -1.1093
 8787SOL     OW37819   0.532   3.078   7.134  0.2026 -0.0400 -0.3570
 8787SOL    HW137820   0.485   3.142   7.187  0.9093  0.3479 -0.1939
 8787SOL    HW237821   0.518   3.001   7.189  2.3082  0.4294  0.8210
 8788SOL     OW37822   3.611   0.127   8.493  0.5117  0.2465 -0.1472
 8788SOL    HW137823   3.629   0.034   8.506  0.8516  0.2424 -0.6948
 8788SOL    HW237824   3.525   0.141   8.533  1.6374 -0.2453  2.4577
 8789SOL     OW37825   1.578   0.327   5.940 -0.2887  0.6017  0.2107
 8789SOL    HW137826   1.573   0.231   5.933 -0.0816  0.8326 -3.4003
 8789SOL    HW237827   1.497   0.347   5.986 -0.6860 -1.8165  0.5878
 8790SOL     OW37828   0.603   1.627   3.356  0.5162 -0.0443  0.5630
 8790SOL    HW137829   0.618   1.602   3.265 -3.2514  1.0570 -0.3766
 8790SOL    HW237830   0.613   1.542   3.399  0.9165 -0.6260 -0.6603
 8791SOL     OW37831   3.632   1.928  15.153  0.4484 -0.0823  0.0858
 8791SOL    HW137832   3.717   1.897  15.120 -0.2167 -3.3520  1.3893
 8791SOL    HW237833   3.583   1.845  15.152  0.4329 -0.0709 -0.1305
 8792SOL     OW37834   0.008   3.055  15.626  0.4900  0.0778  0.2103
 8792SOL    HW137835   0.074   3.008  15.676  0.6109 -1.1108 -1.0620
 8792SOL    HW237836   0.029   3.146  15.648 -1.6856  0.6836 -0.1339
 8793SOL     OW37837   3.097   1.119   9.979 -0.1392 -0.4075  0.5308
 8793SOL    HW137838   3.073   1.052   9.915  1.6156 -0.1175 -0.4274
 8793SOL    HW237839   3.034   1.106  10.049  2.3329 -1.6686  2.5232
 8794SOL     OW37840   3.632   4.547   2.787  0.2873  0.2360  0.2501
 8794SOL    HW137841   3.688   4.625   2.784 -1.0118  1.2160  1.5329
 8794SOL    HW237842   3.558   4.581   2.837  1.8067  1.5154  1.6453
 8795SOL     OW37843   3.961   4.514   7.576  0.1313 -0.3780 -0.0214
 8795SOL    HW137844   3.882   4.556   7.543  2.1299  2.7203 -0.9021
 8795SOL    HW237845   3.964   4.559   7.661 -2.1844 -0.4790  0.1046
 8796SOL     OW37846   3.237   3.753   0.316  0.5419 -0.4117  0.0905
 8796SOL    HW137847   3.201   3.716   0.397  1.1484 -0.8605  0.1564
 8796SOL    HW237848   3.174   3.822   0.294 -0.4996 -0.8465  1.7311
 8797SOL     OW37849   3.720   1.977   9.537 -0.0763  0.5051 -0.1782
 8797SOL    HW137850   3.658   1.912   9.570  0.6999 -0.7042 -1.1282
 8797SOL    HW237851   3.768   2.009   9.614  1.3153  0.0819 -0.8604
 8798SOL     OW37852   3.569   2.527   4.484  0.8395 -0.0275  0.1412
 8798SOL    HW137853   3.626   2.598   4.515  0.6415  0.2442 -0.1224
 8798SOL    HW237854   3.559   2.558   4.394  2.4725  0.3351  0.0873
 8799SOL     OW37855   3.236   1.986   4.265  0.0078  0.4280 -0.2251
 8799SOL    HW137856   3.218   2.021   4.178  2.4406 -0.8364 -1.2336
 8799SOL    HW237857   3.312   1.929   4.254 -0.7161 -0.5578 -0.1372
 8800SOL     OW37858   4.351   1.402   7.545 -0.0178 -0.0244 -0.7148
 8800SOL    HW137859   4.425   1.391   7.605 -0.6723 -0.6398 -0.0261
 8800SOL    HW237860   4.283   1.421   7.609  0.1264 -0.4888 -0.4257
 8801SOL     OW37861   3.699   2.815   9.315  0.5131  0.2725 -0.2309
 8801SOL    HW137862   3.716   2.895   9.364 -1.8489  0.6886 -0.0844
 8801SOL    HW237863   3.790   2.807   9.286 -0.4669 -1.5513 -2.7904
 8802SOL     OW37864   3.625   0.196   7.644 -0.5906  0.1502  0.3899
 8802SOL    HW137865   3.596   0.107   7.663  0.9526 -0.5296 -0.4065
 8802SOL    HW237866   3.718   0.184   7.665 -0.3746 -1.2362 -1.3289
 8803SOL     OW37867   2.007   3.516   0.133 -0.3425 -0.3959  0.2763
 8803SOL    HW137868   2.079   3.461   0.165  0.8703  0.4594 -1.0103
 8803SOL    HW237869   1.979   3.550   0.218  1.5369  1.4530  0.1472
 8804SOL     OW37870   0.680   1.604   5.649 -0.2941  0.5417 -0.6674
 8804SOL    HW137871   0.755   1.653   5.615  0.1239  0.9464  0.8416
 8804SOL    HW237872   0.704   1.523   5.604  0.2125  0.2052  0.2003
 8805SOL     OW37873   0.488   0.987  17.612  0.3480 -0.1356  0.1975
 8805SOL    HW137874   0.505   0.901  17.651  0.3621 -0.9447 -1.6306
 8805SOL    HW237875   0.491   0.964  17.519  1.5275 -0.4299  0.2999
 8806SOL     OW37876   0.375   0.637   2.793  0.3550 -0.3739 -0.3761
 8806SOL    HW137877   0.308   0.616   2.728  0.3328 -2.3800  0.2964
 8806SOL    HW237878   0.335   0.630   2.880  1.1925 -1.6092 -0.0957
 8807SOL     OW37879   3.641   1.071   5.564 -0.6261  0.3115 -0.7423
 8807SOL    HW137880   3.546   1.063   5.559 -0.8415  2.8715 -0.5948
 8807SOL    HW237881   3.668   1.049   5.474 -1.4362 -0.7279 -0.7203
 8808SOL     OW37882   0.135   2.463  10.375 -0.3866  0.3240  0.8902
 8808SOL    HW137883   0.172   2.519  10.307 -1.4476  0.1421  0.1745
 8808SOL    HW237884   0.104   2.527  10.439  0.7430  0.3020  1.4671
 8809SOL     OW37885   1.583   1.793  11.702  0.5729  0.0020 -0.3411
 8809SOL    HW137886   1.630   1.869  11.736  1.0749  1.6324 -4.8029
 8809SOL    HW237887   1.579   1.824  11.612 -2.7885 -0.1790 -0.2669
 8810SOL     OW37888   1.860   0.793  11.855  0.3494  0.2392 -0.1986
 8810SOL    HW137889   1.821   0.715  11.896 -1.7169  0.6897 -1.2909
 8810SOL    HW237890   1.940   0.802  11.907  1.0447  1.5327 -1.5327
 8811SOL     OW37891   4.351   1.592   8.227  0.0478 -0.0404 -0.0326
 8811SOL    HW137892   4.300   1.544   8.292 -0.2504 -0.6566 -0.7224
 8811SOL    HW237893   4.378   1.525   8.164  1.2831  1.6756 -1.3317
 8812SOL     OW37894   1.189   0.027  10.465 -0.2964 -0.3070 -0.7323
 8812SOL    HW137895   1.239   0.108  10.449  2.0856 -1.9182 -1.4300
 8812SOL    HW237896   1.108   0.058  10.505 -0.2610 -0.2699 -0.6885
 8813SOL     OW37897   1.541   1.120   2.271  0.1610 -0.5457  0.2510
 8813SOL    HW137898   1.510   1.140   2.360  1.2156  0.0296  0.4818
 8813SOL    HW237899   1.523   1.026   2.270 -1.7764 -0.1831  0.9872
 8814SOL     OW37900   0.327   0.153   7.372 -0.1634 -0.3670  0.3290
 8814SOL    HW137901   0.341   0.213   7.446  0.4850 -1.8750  1.4214
 8814SOL    HW237902   0.326   0.074   7.426  0.2118  0.8921  2.1963
 8815SOL     OW37903   4.682   0.055   2.551 -0.5740 -0.6739 -0.3000
 8815SOL    HW137904   4.626   0.128   2.578 -0.1808 -0.4846 -0.0091
 8815SOL    HW237905   0.027   0.093   2.495  0.6178 -1.7959  0.4002
 8816SOL     OW37906   1.656   4.634   2.432  0.2487 -0.0627  0.0644
 8816SOL    HW137907   1.732   4.672   2.386 -0.9204  0.5362 -1.3740
 8816SOL    HW237908   1.684   4.543   2.440  2.3110  0.4978 -0.6709
 8817SOL     OW37909   3.154   2.057  14.323 -0.5927 -0.0359  0.6144
 8817SOL    HW137910   3.121   2.027  14.408 -0.3804 -0.2739  0.6159
 8817SOL    HW237911   3.248   2.068  14.342 -0.8830  2.3992  0.6611
 8818SOL     OW37912   3.029   3.536   2.940 -0.5180  0.6308  0.3013
 8818SOL    HW137913   2.942   3.523   2.977 -0.6700  1.2093  0.1379
 8818SOL    HW237914   3.035   3.631   2.949 -0.1912  0.9351 -3.1294
 8819SOL     OW37915   2.482   1.283   7.945  0.0512  0.7971 -0.6583
 8819SOL    HW137916   2.575   1.262   7.936  0.5658  2.7587  0.1194
 8819SOL    HW237917   2.451   1.265   7.856  0.7196  0.4624 -0.8289
 8820SOL     OW37918   4.430   3.442   8.721 -0.3257  0.6880 -0.0635
 8820SOL    HW137919   4.453   3.421   8.630 -0.4771 -1.3495  0.3614
 8820SOL    HW237920   4.520   3.434   8.754 -0.0185  0.9337 -0.8377
 8821SOL     OW37921   1.966   0.729   6.757 -0.3191 -0.5639  0.1087
 8821SOL    HW137922   2.053   0.722   6.796  0.4262 -1.3987 -1.7469
 8821SOL    HW237923   1.992   0.730   6.665  2.5708 -1.7425  0.9233
 8822SOL     OW37924   1.633   2.075   0.128  0.1752  0.0554  0.2327
 8822SOL    HW137925   1.706   2.136   0.117  1.1694 -1.5496 -2.2118
 8822SOL    HW237926   1.622   2.080   0.223 -0.5654 -2.6134  0.2899
 8823SOL     OW37927   3.651   3.784   5.707  0.1657  0.3318  0.3215
 8823SOL    HW137928   3.595   3.767   5.783  1.3863 -1.7353  0.7583
 8823SOL    HW237929   3.676   3.874   5.727  1.6056  0.1039 -0.4973
 8824SOL     OW37930   3.101   1.987   6.835  0.1428 -0.0738 -0.4275
 8824SOL    HW137931   3.142   1.973   6.920  1.1235 -1.8398 -1.1799
 8824SOL    HW237932   3.137   1.917   6.781  1.9315  0.2105  0.4210
 8825SOL     OW37933   0.368   1.469   6.391 -0.4071 -0.0765  0.2247
 8825SOL    HW137934   0.334   1.391   6.348 -0.9362  0.7118 -0.8075
 8825SOL    HW237935   0.454   1.484   6.351  0.3183 -0.5694  1.6067
 8826SOL     OW37936   1.088   4.119   0.953  0.7980  0.7677 -0.8799
 8826SOL    HW137937   1.046   4.197   0.918  1.8701  1.4867 -0.5785
 8826SOL    HW237938   1.060   4.052   0.892 -2.0809 -0.2947  1.6299
 8827SOL     OW37939   3.356   1.793   2.192 -0.1002  0.2810  0.3478
 8827SOL    HW137940   3.379   1.729   2.124 -1.7122  1.2833 -1.1463
 8827SOL    HW237941   3.428   1.855   2.189  0.3404 -0.3064 -1.5703
 8828SOL     OW37942   4.417   4.264   4.104 -0.4859 -0.3308  0.1072
 8828SOL    HW137943   4.491   4.240   4.160 -0.9063  0.6452  1.0964
 8828SOL    HW237944   4.420   4.189   4.044 -0.6940 -0.4118  0.1964
 8829SOL     OW37945   4.280   0.822   3.358 -0.1563 -0.2563 -0.0125
 8829SOL    HW137946   4.318   0.812   3.445 -1.7506  0.3401  0.7576
 8829SOL    HW237947   4.352   0.859   3.307 -1.8488  1.3836 -1.2032
 8830SOL     OW37948   0.130   4.196   5.009 -0.3152 -0.3142 -0.0678
 8830SOL    HW137949   0.168   4.175   5.095  1.9975 -2.8281 -1.7031
 8830SOL    HW237950   0.062   4.129   5.009 -1.1883  0.5718  0.0231
 8831SOL     OW37951   4.676   1.578   6.970 -0.2788 -0.3174 -0.1776
 8831SOL    HW137952   4.719   1.616   6.894  2.2755  1.7452  2.3262
 8831SOL    HW237953   4.647   1.494   6.933 -0.4647 -0.4868  0.3551
 8832SOL     OW37954   0.524   0.467   5.272  0.1930 -0.2765  0.0526
 8832SOL    HW137955   0.493   0.553   5.244 -0.4114 -0.7717 -0.8162
 8832SOL    HW237956   0.600   0.496   5.323 -0.3348  0.5111  0.3882
 8833SOL     OW37957   1.639   1.684   8.174 -0.1316 -0.2168 -0.5201
 8833SOL    HW137958   1.624   1.597   8.209  1.1625 -0.3283 -0.2756
 8833SOL    HW237959   1.560   1.727   8.208 -0.8734 -1.1841 -1.0141
 8834SOL     OW37960   3.491   2.573   2.681 -0.1511  0.5217 -0.4587
 8834SOL    HW137961   3.544   2.515   2.627 -2.0046 -1.0311 -0.6111
 8834SOL    HW237962   3.400   2.572   2.650 -0.6261  0.3645  0.9216
 8835SOL     OW37963   1.312   4.365   2.814 -0.3678  0.3810 -0.4003
 8835SOL    HW137964   1.274   4.451   2.795 -0.3272  0.3507 -0.6188
 8835SOL    HW237965   1.253   4.312   2.761 -2.4077 -0.1188  2.3791
 8836SOL     OW37966   1.665   2.083   4.416  0.2255 -0.2430 -0.3712
 8836SOL    HW137967   1.660   2.161   4.471 -1.5408 -1.4453  1.1793
 8836SOL    HW237968   1.579   2.070   4.377 -0.1385  1.5663 -0.2127
 8837SOL     OW37969   2.235   4.097   6.610 -0.1916 -0.2182  0.0461
 8837SOL    HW137970   2.174   4.037   6.653  1.5381 -1.0725  1.3063
 8837SOL    HW237971   2.290   4.037   6.560 -0.3468 -0.1267 -0.2334
 8838SOL     OW37972   0.568   1.246   0.404 -0.4033 -0.1139  0.7557
 8838SOL    HW137973   0.549   1.185   0.333  1.1949 -1.7642  1.7539
 8838SOL    HW237974   0.640   1.291   0.360  0.9701 -2.9083  0.1615
 8839SOL     OW37975   4.337   1.816   2.197  0.5160  0.6898 -0.4412
 8839SOL    HW137976   4.305   1.806   2.107 -0.6235  3.1802 -0.3045
 8839SOL    HW237977   4.275   1.758   2.241  1.6349  1.3591  2.0151
 8840SOL     OW37978   2.832   2.605  10.607  0.6090  0.0325  0.1230
 8840SOL    HW137979   2.848   2.690  10.649 -1.2612 -0.3093  1.5148
 8840SOL    HW237980   2.854   2.620  10.515  1.1191 -1.8594 -0.0418
 8841SOL     OW37981   3.916   3.695  17.321  0.3605  0.5775  0.3678
 8841SOL    HW137982   3.825   3.666  17.315  0.6514 -0.5783  1.5777
 8841SOL    HW237983   3.963   3.655  17.394  0.3839 -1.1772 -0.6136
 8842SOL     OW37984   2.863   1.593   6.485  0.0255 -0.0837 -0.4043
 8842SOL    HW137985   2.920   1.619   6.558 -0.1772 -0.8205  0.0150
 8842SOL    HW237986   2.797   1.546   6.535 -0.0968  0.0929 -0.4003
 8843SOL     OW37987   4.458   4.256   7.079  0.1023  0.3408 -0.3219
 8843SOL    HW137988   4.424   4.227   6.995 -0.5370 -1.6968  0.6487
 8843SOL    HW237989   4.533   4.307   7.049 -0.8695  0.8767 -1.8314
 8844SOL     OW37990   4.165   4.626  10.704  0.2865  0.7980 -0.7715
 8844SOL    HW137991   4.219   4.705  10.711 -0.5621  1.5845 -2.9486
 8844SOL    HW237992   4.160   4.607  10.610 -2.4356  2.4301 -0.9749
 8845SOL     OW37993   1.346   1.876  14.807 -0.7136 -0.0082 -0.4042
 8845SOL    HW137994   1.295   1.934  14.864  1.6863  1.3631  0.3513
 8845SOL    HW237995   1.405   1.830  14.867  1.0587  0.8656 -1.4853
 8846SOL     OW37996   1.007   4.415   2.359 -0.3748 -0.4747  0.4391
 8846SOL    HW137997   1.079   4.425   2.298 -0.8057 -0.2707 -0.0311
 8846SOL    HW237998   0.934   4.455   2.313  0.9727  3.6440  1.9177
 8847SOL     OW37999   3.412   3.514   3.750 -0.2530 -0.1902  0.2836
 8847SOL    HW138000   3.394   3.548   3.838 -0.8649  1.3113 -0.4265
 8847SOL    HW238001   3.403   3.419   3.755 -1.6226 -0.0728  0.1627
 8848SOL     OW38002   0.694   0.999   0.266 -0.4331 -0.2669  0.2643
 8848SOL    HW138003   0.638   1.046   0.204  0.3450 -2.6879 -2.2761
 8848SOL    HW238004   0.777   1.027   0.226 -1.7048  1.3034 -1.2504
 8849SOL     OW38005   3.761   1.516  11.270 -0.5709  0.3415 -0.2035
 8849SOL    HW138006   3.707   1.509  11.348  1.1843 -2.9232  0.7405
 8849SOL    HW238007   3.709   1.565  11.206 -0.2945  1.3567  0.3630
 8850SOL     OW38008   1.360   2.506   5.077  0.3084  0.3174 -0.8875
 8850SOL    HW138009   1.346   2.413   5.095  1.7581 -0.1217 -2.1035
 8850SOL    HW238010   1.361   2.499   4.982  1.0660  2.1765 -1.0162
 8851SOL     OW38011   3.063   2.820   7.249  0.1460  0.3687 -0.4653
 8851SOL    HW138012   2.989   2.786   7.198  1.5832 -1.1340 -1.5113
 8851SOL    HW238013   3.031   2.796   7.336 -0.8686 -1.5034 -1.3455
 8852SOL     OW38014   0.073   0.210  14.776  0.2467  0.2750  0.3563
 8852SOL    HW138015   0.166   0.215  14.758 -0.0305  3.1116 -0.2689
 8852SOL    HW238016   0.058   0.117  14.756 -0.9126  0.8806 -1.6512
 8853SOL     OW38017   0.732   4.449  16.523  0.3375 -0.4938  0.0021
 8853SOL    HW138018   0.666   4.445  16.593  0.0220  0.7003 -0.2391
 8853SOL    HW238019   0.677   4.499  16.462 -1.4578 -2.6125 -0.1393
 8854SOL     OW38020   3.253   0.974   3.656  0.1218  0.2160  0.4961
 8854SOL    HW138021   3.213   0.901   3.608  3.1577 -0.4411 -1.0455
 8854SOL    HW238022   3.276   1.036   3.588 -2.2740 -1.2113 -1.6405
 8855SOL     OW38023   3.630   1.651   8.562  0.2671  0.5724  0.2866
 8855SOL    HW138024   3.540   1.640   8.593  0.3238 -1.4555 -0.2510
 8855SOL    HW238025   3.683   1.660   8.641 -3.1274  0.9028  2.5262
 8856SOL     OW38026   4.383   3.117   4.207  0.1698 -0.1571  0.0575
 8856SOL    HW138027   4.380   3.026   4.178 -2.7881  0.0144 -0.1999
 8856SOL    HW238028   4.448   3.152   4.147  1.6578 -0.8325  1.2759
 8857SOL     OW38029   3.337   1.211   7.673 -0.2356  0.4999  0.0679
 8857SOL    HW138030   3.281   1.223   7.750 -0.5254  0.4711 -0.1373
 8857SOL    HW238031   3.329   1.295   7.626  1.0159  0.5478 -0.0716
 8858SOL     OW38032   2.006   3.959  10.203  0.0453 -0.4705 -0.6912
 8858SOL    HW138033   1.936   3.927  10.145 -0.3396 -1.9367  0.6146
 8858SOL    HW238034   2.010   4.050  10.172 -1.6172 -0.3015 -0.4107
 8859SOL     OW38035   4.592   0.225  17.482 -0.6936 -0.1030 -0.4444
 8859SOL    HW138036   4.545   0.284  17.541  1.1501 -1.2273  2.1415
 8859SOL    HW238037   4.595   0.284  17.406  1.8011 -1.8745 -1.7020
 8860SOL     OW38038   4.519   1.347   0.606  0.2951 -0.1852 -0.1089
 8860SOL    HW138039   4.465   1.278   0.566  0.8026 -0.8363  0.3406
 8860SOL    HW238040   4.569   1.369   0.527  0.1302  0.8735  0.0818
 8861SOL     OW38041   0.696   1.427   7.776 -0.5906 -0.0774  0.4757
 8861SOL    HW138042   0.770   1.442   7.717 -2.0385  1.3196 -0.9820
 8861SOL    HW238043   0.726   1.349   7.823 -0.8595  1.2662  2.8300
 8862SOL     OW38044   0.461   3.223   7.350 -0.0093 -0.6253  0.5344
 8862SOL    HW138045   0.379   3.178   7.370 -1.1780  0.3363 -2.1349
 8862SOL    HW238046   0.445   3.316   7.362 -1.1310 -0.5837 -1.2020
 8863SOL     OW38047   2.532   0.562   3.404 -0.3793 -0.1930 -0.1421
 8863SOL    HW138048   2.488   0.589   3.484 -2.3688 -1.1284 -0.9317
 8863SOL    HW238049   2.613   0.612   3.413 -1.6531  2.0727 -1.2571
 8864SOL     OW38050   2.883   1.521   9.341  0.8388 -0.6842 -0.2290
 8864SOL    HW138051   2.951   1.525   9.408 -0.8288 -2.5319  1.5730
 8864SOL    HW238052   2.937   1.507   9.263  3.2880  2.3824  0.9146
 8865SOL     OW38053   2.023   3.788   0.036  0.0955  0.0273 -0.0403
 8865SOL    HW138054   2.021   3.713   0.095 -0.0856  0.1572  0.1151
 8865SOL    HW238055   2.001   3.855   0.100  1.3644 -0.2295  0.6685
 8866SOL     OW38056   1.893   3.253   3.542 -0.3442  0.0818 -0.1305
 8866SOL    HW138057   1.933   3.171   3.570  0.7726  0.4807 -0.5575
 8866SOL    HW238058   1.934   3.258   3.456  0.3045 -2.6939  0.0302
 8867SOL     OW38059   2.171   1.334   8.061  0.1308 -0.4039 -0.0321
 8867SOL    HW138060   2.106   1.340   7.990  0.0736  0.7886  0.1265
 8867SOL    HW238061   2.158   1.422   8.097  0.9317 -0.6811  0.8932
 8868SOL     OW38062   0.433   0.470   6.059 -0.1386 -0.7233 -0.2774
 8868SOL    HW138063   0.371   0.418   6.007 -0.7556 -0.6485  0.3812
 8868SOL    HW238064   0.382   0.481   6.139 -1.4298 -2.5568 -0.8412
 8869SOL     OW38065   0.124   3.296   5.676 -0.6434 -0.0935 -0.0767
 8869SOL    HW138066   0.179   3.243   5.619  1.9574  1.3419  1.1002
 8869SOL    HW238067   0.181   3.363   5.714  0.1011 -1.0822  0.5712
 8870SOL     OW38068   0.960   3.926  14.582  0.6225 -0.2739  0.1548
 8870SOL    HW138069   0.947   3.925  14.487  1.7497 -0.4613  0.0041
 8870SOL    HW238070   0.968   4.020  14.598 -1.7099 -0.1857  0.7365
 8871SOL     OW38071   3.528   0.716  14.375 -0.2463 -0.7320 -0.6821
 8871SOL    HW138072   3.615   0.750  14.396  0.4486 -2.1546 -1.2536
 8871SOL    HW238073   3.525   0.637  14.431  2.4241 -0.2762  0.1090
 8872SOL     OW38074   0.980   4.425  16.643 -0.1121 -0.0374  0.0843
 8872SOL    HW138075   0.944   4.402  16.729  0.8292  2.3857  1.1095
 8872SOL    HW238076   0.900   4.443  16.595 -0.0692 -0.7639 -0.2602
 8873SOL     OW38077   2.447   2.042  16.621 -0.1557 -0.5297  0.0297
 8873SOL    HW138078   2.366   2.083  16.589 -1.3883 -2.9523  0.0431
 8873SOL    HW238079   2.513   2.079  16.563  2.5446 -2.6952  1.7436
 8874SOL     OW38080   0.656   0.269   2.774 -0.5542  0.1520  0.1768
 8874SOL    HW138081   0.679   0.331   2.842 -0.1365 -0.0315  0.2002
 8874SOL    HW238082   0.574   0.313   2.751 -0.9202  0.2067  1.5959
 8875SOL     OW38083   2.181   1.971   0.879 -0.0732 -0.1115 -0.2115
 8875SOL    HW138084   2.191   2.049   0.825 -0.4728  0.0503 -0.0539
 8875SOL    HW238085   2.134   1.915   0.816 -0.1562 -0.0363 -0.2158
 8876SOL     OW38086   0.624   0.274  15.483 -0.0583  0.1474 -0.1378
 8876SOL    HW138087   0.649   0.196  15.434  0.6443 -0.0205  0.4892
 8876SOL    HW238088   0.532   0.254  15.500  0.3722 -0.9287  1.0048
 8877SOL     OW38089   1.855   4.180   6.075 -0.0480  0.1917  0.1023
 8877SOL    HW138090   1.901   4.096   6.064  0.5011  0.1109  2.9902
 8877SOL    HW238091   1.765   4.162   6.102 -0.2890 -0.9226 -1.3949
 8878SOL     OW38092   2.742   3.955  15.066 -0.7244  0.0526 -0.5943
 8878SOL    HW138093   2.801   4.028  15.087 -1.1582  0.5829 -1.2389
 8878SOL    HW238094   2.666   4.011  15.054 -2.0503 -1.3711  1.1551
 8879SOL     OW38095   2.380   4.656   9.624  0.3321 -0.1467 -0.5587
 8879SOL    HW138096   2.406   0.019   9.592  0.2706 -0.5488 -1.7031
 8879SOL    HW238097   2.289   4.675   9.647  0.7129  0.2398  0.5818
 8880SOL     OW38098   4.441   3.239   2.471  0.6457  0.4770  0.1960
 8880SOL    HW138099   4.452   3.330   2.443  3.3878  0.4020  1.0578
 8880SOL    HW238100   4.346   3.226   2.474  0.8678 -1.0620  0.6042
 8881SOL     OW38101   1.350   0.465   8.180  0.4280 -0.4913 -0.3635
 8881SOL    HW138102   1.323   0.468   8.272  0.5118 -0.4852 -0.3389
 8881SOL    HW238103   1.268   0.449   8.132 -0.5764  2.0288  0.4920
 8882SOL     OW38104   4.387   4.003  14.659 -0.3136 -0.0281 -0.5095
 8882SOL    HW138105   4.418   3.965  14.576  4.0757  0.8508  0.7267
 8882SOL    HW238106   4.332   3.933  14.693 -0.3176  1.1203  1.8599
 8883SOL     OW38107   0.806   0.446   5.159 -0.2668 -0.0222  0.2572
 8883SOL    HW138108   0.806   0.497   5.240  2.2740 -2.1421  1.6012
 8883SOL    HW238109   0.747   0.489   5.096 -1.6521  1.2530  2.4390
 8884SOL     OW38110   1.203   1.066   4.794 -0.3336 -0.2584  0.0549
 8884SOL    HW138111   1.203   1.100   4.883  1.7182 -1.5303  0.5394
 8884SOL    HW238112   1.154   0.985   4.810  0.7897 -0.6431  1.5848
 8885SOL     OW38113   2.211   3.319  17.191 -0.4537 -0.0178  0.8390
 8885SOL    HW138114   2.279   3.386  17.188  1.6489 -2.2429 -2.0179
 8885SOL    HW238115   2.263   3.244  17.221  0.2129 -0.7605 -2.0818
 8886SOL     OW38116   2.640   4.377   7.649 -0.1647 -0.1995  0.3136
 8886SOL    HW138117   2.706   4.442   7.625  1.4447 -1.6179  0.9092
 8886SOL    HW238118   2.570   4.423   7.697  0.4940  1.1564 -0.0367
 8887SOL     OW38119   2.274   1.295   6.235  0.3999  0.2531  0.2882
 8887SOL    HW138120   2.292   1.386   6.259 -0.7317  0.1364  1.5721
 8887SOL    HW238121   2.293   1.253   6.319  0.7343  1.3926  0.7775
 8888SOL     OW38122   2.529   3.811   7.597  0.2139  0.4672  0.1751
 8888SOL    HW138123   2.543   3.821   7.503 -0.4765 -3.0836 -0.2992
 8888SOL    HW238124   2.576   3.730   7.617 -0.1174  0.6432  1.6754
 8889SOL     OW38125   0.958   2.656   7.256  0.0493  0.0787  0.5401
 8889SOL    HW138126   0.897   2.600   7.303  0.1573  2.3414  3.3595
 8889SOL    HW238127   0.926   2.743   7.279 -3.7213 -0.4170 -2.8884
 8890SOL     OW38128   3.024   0.280  15.639  0.2415  0.0862  0.4401
 8890SOL    HW138129   2.989   0.192  15.627 -1.8100  0.8247  1.0889
 8890SOL    HW238130   2.951   0.333  15.609  0.2959  0.7602  1.4986
 8891SOL     OW38131   3.720   3.600   2.576 -0.0995 -0.0817 -0.2513
 8891SOL    HW138132   3.633   3.559   2.568 -1.2566  2.5717 -1.3739
 8891SOL    HW238133   3.774   3.529   2.609  1.5116  1.0806 -0.3729
 8892SOL     OW38134   3.626   2.947   8.153  0.0378  0.3560  0.0424
 8892SOL    HW138135   3.535   2.932   8.129  1.0839 -1.3373 -2.8463
 8892SOL    HW238136   3.635   3.041   8.169 -0.0944  0.3561  0.1156
 8893SOL     OW38137   3.265   0.950   0.788 -0.4372  0.1400  0.0798
 8893SOL    HW138138   3.297   1.024   0.736  0.5753  0.5772  1.3291
 8893SOL    HW238139   3.285   0.877   0.729  0.4146  0.3548  0.1028
 8894SOL     OW38140   4.255   2.400   1.661  0.2284  0.4090 -0.3191
 8894SOL    HW138141   4.179   2.356   1.700  0.0607  2.3041  1.5364
 8894SOL    HW238142   4.290   2.327   1.611 -1.8586 -1.4742  0.9917
 8895SOL     OW38143   1.733   2.810   7.626  0.4903 -0.3811  0.2355
 8895SOL    HW138144   1.681   2.811   7.707  0.4317 -1.4095  0.2038
 8895SOL    HW238145   1.666   2.819   7.558  0.8239  2.1542  0.2405
 8896SOL     OW38146   3.845   4.512   3.709  0.1165  0.1681 -0.2117
 8896SOL    HW138147   3.826   4.569   3.783  2.0249  1.1538 -0.4716
 8896SOL    HW238148   3.937   4.487   3.722 -0.3999 -1.7966 -0.3099
 8897SOL     OW38149   0.967   2.577  16.087 -0.4318  0.0626 -0.7150
 8897SOL    HW138150   1.003   2.553  16.173 -0.7093  0.6611 -0.4300
 8897SOL    HW238151   0.894   2.515  16.085 -0.2743 -0.2093  2.1565
 8898SOL     OW38152   1.666   0.764  13.998  0.2974 -0.0353  0.6859
 8898SOL    HW138153   1.630   0.707  13.930  0.1718 -0.5823  1.2027
 8898SOL    HW238154   1.749   0.790  13.960  0.9262 -2.7492  0.2053
 8899SOL     OW38155   0.691   1.117   6.609 -0.5376  0.9903 -0.0836
 8899SOL    HW138156   0.648   1.048   6.559  0.3415 -0.0534  0.6139
 8899SOL    HW238157   0.633   1.194   6.605 -0.1335  1.2702 -0.5469
 8900SOL     OW38158   4.156   2.706   5.189 -0.0618 -0.8238 -0.0825
 8900SOL    HW138159   4.062   2.716   5.174  0.0678  0.0067 -0.3721
 8900SOL    HW238160   4.163   2.615   5.216 -0.5096 -0.6720  0.5524
 8901SOL     OW38161   2.054   3.557   3.906  0.2573  0.3247 -0.1574
 8901SOL    HW138162   2.051   3.653   3.896  4.2012  0.4609  0.0831
 8901SOL    HW238163   1.963   3.526   3.905 -0.1133  1.3851 -0.2202
 8902SOL     OW38164   1.811   3.973   1.499 -0.3503 -0.1612  0.4059
 8902SOL    HW138165   1.718   3.953   1.498 -0.2450 -0.6595  1.9902
 8902SOL    HW238166   1.838   3.993   1.588  1.1391 -0.1732 -0.0314
 8903SOL     OW38167   4.130   3.195   8.957 -0.1160 -0.2250  0.8002
 8903SOL    HW138168   4.146   3.235   8.872  2.6806 -0.6914  1.1021
 8903SOL    HW238169   4.170   3.261   9.014  0.4850  1.2271 -1.3016
 8904SOL     OW38170   3.052   1.834  11.835  0.2812 -0.4296  0.4189
 8904SOL    HW138171   3.125   1.777  11.861 -0.4105 -0.7484  1.6710
 8904SOL    HW238172   3.043   1.818  11.741  0.4676  1.4528  0.0784
 8905SOL     OW38173   3.887   2.855  17.154  0.0983  0.3042 -0.0728
 8905SOL    HW138174   3.921   2.941  17.177  0.6051  0.3047 -0.8148
 8905SOL    HW238175   3.903   2.809  17.236  0.9666 -1.0780 -1.0111
 8906SOL     OW38176   1.663   0.354  15.829 -0.3392  0.0276 -0.2093
 8906SOL    HW138177   1.575   0.354  15.792 -0.6885  0.9016  0.6319
 8906SOL    HW238178   1.685   0.262  15.838 -0.4293 -0.0910 -1.2661
 8907SOL     OW38179   2.230   2.646  17.255  0.7041 -0.3670 -0.0266
 8907SOL    HW138180   2.318   2.609  17.261  0.9485  0.0006 -1.3692
 8907SOL    HW238181   2.225   2.718  17.319  0.4841  1.3559 -1.9741
 8908SOL     OW38182   1.206   3.259  13.976 -0.6238 -0.2111 -0.6671
 8908SOL    HW138183   1.154   3.266  14.057  1.2005 -1.5058  0.6331
 8908SOL    HW238184   1.137   3.231  13.916  1.7026 -0.0036 -3.4365
 8909SOL     OW38185   3.352   0.577  16.223  0.4232  0.1717 -0.2735
 8909SOL    HW138186   3.404   0.593  16.144  2.4081  1.2047  1.2642
 8909SOL    HW238187   3.286   0.510  16.204 -0.1604  0.7851 -0.4146
 8910SOL     OW38188   0.947   0.372  11.474  0.1051 -0.4328  0.1275
 8910SOL    HW138189   0.884   0.442  11.490 -0.7227 -1.1609  0.0300
 8910SOL    HW238190   1.026   0.425  11.484  1.4130 -2.0374 -1.6695
 8911SOL     OW38191   2.752   4.306   6.399  0.2486 -0.1224 -1.1254
 8911SOL    HW138192   2.738   4.391   6.357  0.0371  0.9598  1.1645
 8911SOL    HW238193   2.718   4.244   6.333 -0.5962 -0.9354  0.0604
 8912SOL     OW38194   4.595   0.786   7.204  0.3828  0.0066  0.0118
 8912SOL    HW138195   4.637   0.749   7.126  0.9752 -1.3473  0.9812
 8912SOL    HW238196   4.520   0.726   7.211 -0.0725  0.2779 -2.5205
 8913SOL     OW38197   4.137   0.720   2.299 -0.0662  0.1607 -0.1018
 8913SOL    HW138198   4.135   0.810   2.332  2.0881  0.2447 -0.1470
 8913SOL    HW238199   4.042   0.712   2.299 -0.0001 -0.2687  3.8564
 8914SOL     OW38200   1.229   0.319   9.890 -0.7439 -0.3722 -0.1158
 8914SOL    HW138201   1.144   0.349   9.925 -1.5300 -2.1995 -0.4641
 8914SOL    HW238202   1.285   0.388   9.924 -0.7919 -0.2295 -0.3291
 8915SOL     OW38203   3.939   3.710   2.292 -0.4145  0.2235 -0.2002
 8915SOL    HW138204   3.963   3.642   2.355  0.9828  0.8952 -0.0194
 8915SOL    HW238205   3.898   3.654   2.226 -0.8637 -0.3070  0.5214
 8916SOL     OW38206   0.555   3.270  14.660  0.4708  0.3674  0.0214
 8916SOL    HW138207   0.638   3.247  14.618 -0.2769 -1.7471 -0.2863
 8916SOL    HW238208   0.570   3.355  14.701 -0.7099 -0.7758  2.8247
 8917SOL     OW38209   2.414   1.189   5.723  0.0004 -0.3330  0.3460
 8917SOL    HW138210   2.351   1.255   5.752 -3.1622 -2.8857 -0.6141
 8917SOL    HW238211   2.483   1.204   5.788  0.2071  3.4279 -0.7461
 8918SOL     OW38212   0.356   0.644   4.254 -0.0639 -0.0231  0.4318
 8918SOL    HW138213   0.326   0.676   4.339 -2.0909  1.8749 -0.9856
 8918SOL    HW238214   0.272   0.640   4.208  1.0183 -0.9880 -1.4540
 8919SOL     OW38215   1.926   0.266   6.715  0.3602 -0.4551 -0.2339
 8919SOL    HW138216   2.012   0.307   6.702  0.5940 -1.1761 -0.9250
 8919SOL    HW238217   1.878   0.337   6.758  0.5919 -0.5285  0.1520
 8920SOL     OW38218   1.477   4.155   3.921 -0.4751 -0.3640 -0.2475
 8920SOL    HW138219   1.485   4.070   3.878  0.9937 -0.5464  0.3767
 8920SOL    HW238220   1.562   4.194   3.898 -0.0756 -2.4003 -2.1997
 8921SOL     OW38221   4.423   2.380   3.025 -0.9813  0.9918 -0.2938
 8921SOL    HW138222   4.360   2.333   3.080 -2.9122  2.2946 -1.3967
 8921SOL    HW238223   4.463   2.441   3.087 -0.2612  0.6491 -0.4233
 8922SOL     OW38224   1.045   1.140   4.544 -0.4656 -0.4364  0.0181
 8922SOL    HW138225   1.074   1.112   4.630 -1.3283  3.6455  1.5964
 8922SOL    HW238226   0.971   1.193   4.574 -1.2947 -0.8833 -1.2166
 8923SOL     OW38227   4.108   1.752   9.102 -1.0995 -0.0827 -0.5802
 8923SOL    HW138228   4.075   1.832   9.061  0.2103  0.5649 -0.3995
 8923SOL    HW238229   4.188   1.739   9.052 -0.1214 -0.9896  1.1970
 8924SOL     OW38230   1.255   3.181   7.929  0.3644 -0.0570 -0.2467
 8924SOL    HW138231   1.277   3.242   7.858  2.3148 -1.6040 -0.9938
 8924SOL    HW238232   1.330   3.121   7.928 -1.3213 -2.1410 -0.0357
 8925SOL     OW38233   4.683   2.533   3.428 -0.0625 -0.1713  0.0349
 8925SOL    HW138234   4.692   2.552   3.521  0.5058 -0.7790  0.1052
 8925SOL    HW238235   4.712   2.619   3.399  2.4014 -0.7924  0.6472
 8926SOL     OW38236   1.789   2.711  16.982  0.5055  0.5882 -0.3075
 8926SOL    HW138237   1.732   2.788  16.984  0.5123  0.6248 -1.3882
 8926SOL    HW238238   1.875   2.740  17.009 -0.3615  2.7923  0.0658
 8927SOL     OW38239   2.351   2.748   0.201  0.2935 -0.2142  0.4810
 8927SOL    HW138240   2.377   2.835   0.171  0.3582 -0.3811  0.0482
 8927SOL    HW238241   2.293   2.771   0.274 -0.9168 -1.0062 -0.2249
 8928SOL     OW38242   0.173   2.946   5.960  0.0808 -0.2072  0.0861
 8928SOL    HW138243   0.133   2.862   5.938  0.5315 -0.3611 -0.1312
 8928SOL    HW238244   0.190   2.972   5.870 -1.4030 -3.7997 -1.2157
 8929SOL     OW38245   3.780   2.140   7.123  0.5090  0.6269 -0.8245
 8929SOL    HW138246   3.734   2.179   7.197 -0.8381 -0.2583 -1.1961
 8929SOL    HW238247   3.837   2.075   7.164  0.4243  1.0797  0.0058
 8930SOL     OW38248   1.252   1.266   8.520  0.1753  0.2575  0.1822
 8930SOL    HW138249   1.200   1.194   8.557 -0.7023  1.9800  2.3704
 8930SOL    HW238250   1.217   1.339   8.571 -0.8806 -2.2492  3.0274
 8931SOL     OW38251   2.252   1.000   7.888 -0.4716  0.6709  0.4519
 8931SOL    HW138252   2.334   0.993   7.841 -1.2640 -0.6145 -0.7377
 8931SOL    HW238253   2.212   0.916   7.865  2.2644 -0.3621 -0.5027
 8932SOL     OW38254   1.262   0.398  16.597 -0.4694 -0.1145  0.1143
 8932SOL    HW138255   1.331   0.336  16.621  2.8328  3.8646  0.7798
 8932SOL    HW238256   1.188   0.369  16.649 -0.6556 -2.6936 -1.5752
 8933SOL     OW38257   1.484   1.706   6.429  0.7229  0.2680  0.3005
 8933SOL    HW138258   1.422   1.755   6.484 -1.3129  1.2504 -2.8812
 8933SOL    HW238259   1.548   1.768   6.393  1.1169  0.2489  0.9726
 8934SOL     OW38260   2.156   2.157   9.063 -0.4898  0.6878  0.2330
 8934SOL    HW138261   2.227   2.163   9.126  0.5312 -1.3690 -0.7124
 8934SOL    HW238262   2.188   2.201   8.985 -1.8568  3.1690  1.0577
 8935SOL     OW38263   2.995   1.277   5.841  0.0827  0.4030  0.0073
 8935SOL    HW138264   3.051   1.287   5.918 -0.6153  0.2524  0.5361
 8935SOL    HW238265   3.039   1.333   5.777 -0.6665  0.9460 -0.0425
 8936SOL     OW38266   3.015   0.322  15.904 -0.2800 -0.0117  0.7285
 8936SOL    HW138267   3.030   0.294  15.814  0.4457  2.3012  0.1389
 8936SOL    HW238268   2.953   0.256  15.935 -1.1758  0.1423 -0.7640
 8937SOL     OW38269   2.534   3.769   3.908  0.2607 -0.6371 -0.4778
 8937SOL    HW138270   2.586   3.688   3.903  2.3757  0.7563 -0.8620
 8937SOL    HW238271   2.480   3.748   3.984 -0.1437  0.0997 -0.5616
 8938SOL     OW38272   1.612   0.334   5.537  0.8520  0.4762  0.1421
 8938SOL    HW138273   1.531   0.294   5.568  1.9211 -1.6268  0.2494
 8938SOL    HW238274   1.681   0.302   5.596  1.4246  2.2547  0.4211
 8939SOL     OW38275   3.663   2.477   8.685 -0.4611  0.8079  0.1066
 8939SOL    HW138276   3.599   2.511   8.748  1.6972 -0.1502  2.8180
 8939SOL    HW238277   3.715   2.556   8.672 -1.8714  1.4275 -1.7785
 8940SOL     OW38278   1.689   1.351  12.209  0.3289  0.0432  0.0262
 8940SOL    HW138279   1.667   1.286  12.276 -2.2776  2.0558  1.1185
 8940SOL    HW238280   1.672   1.432  12.257  0.3272  2.5384 -4.2325
 8941SOL     OW38281   2.044   1.211   9.848  0.2565  0.4028 -0.3977
 8941SOL    HW138282   2.109   1.266   9.803 -0.2147  0.9386 -0.4171
 8941SOL    HW238283   2.084   1.124   9.845  0.0420  0.3256 -1.0454
 8942SOL     OW38284   3.727   3.547   2.167 -0.8380 -0.1463  0.1539
 8942SOL    HW138285   3.751   3.514   2.081  0.8748 -1.3988  1.1207
 8942SOL    HW238286   3.685   3.471   2.208  0.9929 -1.5411 -0.5691
 8943SOL     OW38287   0.003   2.310  16.156  0.1335 -0.2508 -0.0277
 8943SOL    HW138288   0.036   2.276  16.239  1.4209 -2.3254 -1.3857
 8943SOL    HW238289   4.646   2.351  16.187  0.3387 -1.8240  2.6199
 8944SOL     OW38290   1.928   0.317   2.444 -0.0897 -0.1338 -0.0143
 8944SOL    HW138291   1.900   0.262   2.518 -0.2476  2.8985  2.1643
 8944SOL    HW238292   1.898   0.402   2.475  1.1629  0.8402 -1.4548
 8945SOL     OW38293   0.301   2.718   3.484  0.6708  0.3923  0.8179
 8945SOL    HW138294   0.286   2.679   3.571 -1.2011  0.4721  0.5317
 8945SOL    HW238295   0.238   2.791   3.486 -1.3959 -1.3855  0.0089
 8946SOL     OW38296   3.662   0.708   8.311  0.4839  0.2942  0.1073
 8946SOL    HW138297   3.613   0.700   8.393  1.2757  0.7267  0.6230
 8946SOL    HW238298   3.754   0.699   8.336  0.8398  0.3052 -1.2018
 8947SOL     OW38299   1.806   2.468  16.834 -0.6992 -0.1148 -0.4059
 8947SOL    HW138300   1.900   2.454  16.851 -0.8319  0.4800  0.7654
 8947SOL    HW238301   1.785   2.549  16.881 -1.7973 -0.1217 -0.8844
 8948SOL     OW38302   0.951   3.902   7.182  0.0411  0.0388 -0.4618
 8948SOL    HW138303   0.879   3.964   7.176 -0.1609 -0.4774 -3.3870
 8948SOL    HW238304   0.907   3.830   7.228 -0.5058  0.4086 -0.4088
 8949SOL     OW38305   2.667   2.112   2.350 -0.3942  0.3935 -0.5075
 8949SOL    HW138306   2.724   2.076   2.418 -2.1242 -0.5101  0.4878
 8949SOL    HW238307   2.665   2.050   2.277  0.5967 -0.7162  0.4049
 8950SOL     OW38308   2.588   1.630   0.750 -0.1464  0.0907 -0.7435
 8950SOL    HW138309   2.525   1.591   0.810  1.7353 -0.4839  0.8821
 8950SOL    HW238310   2.631   1.549   0.721 -0.8893  0.1694 -2.0729
 8951SOL     OW38311   1.229   2.801   1.795  0.4326 -0.6015 -0.3924
 8951SOL    HW138312   1.260   2.796   1.705  1.1338 -0.4667 -0.1583
 8951SOL    HW238313   1.144   2.844   1.784 -1.4114 -3.9231  0.8785
 8952SOL     OW38314   1.832   3.750  10.366 -0.0930  0.6544 -0.1044
 8952SOL    HW138315   1.914   3.796  10.349 -1.1159  3.0925  1.5918
 8952SOL    HW238316   1.800   3.770  10.278  0.7455  1.1592 -0.2964
 8953SOL     OW38317   2.669   1.373   8.818 -1.0287  0.1068 -0.3341
 8953SOL    HW138318   2.734   1.307   8.839 -1.1521  0.9009  2.5035
 8953SOL    HW238319   2.692   1.436   8.887  1.3801  0.1746 -1.1992
 8954SOL     OW38320   4.376   0.023   0.764 -0.0807  0.6153 -0.7230
 8954SOL    HW138321   4.419   0.021   0.849 -1.5060  1.9293  0.0300
 8954SOL    HW238322   4.307   0.082   0.794 -0.1859 -0.1417  0.4876
 8955SOL     OW38323   3.266   4.690  14.038 -0.1892 -0.2609  0.1869
 8955SOL    HW138324   3.196   0.027  14.065  1.6735  3.2434 -2.7264
 8955SOL    HW238325   3.290   0.002  13.953 -1.5454  1.0854  0.3529
 8956SOL     OW38326   2.321   2.002   2.440 -0.8009  0.0848  0.0299
 8956SOL    HW138327   2.383   2.062   2.481 -1.2427  0.0031  0.8097
 8956SOL    HW238328   2.380   1.949   2.386 -1.0763  0.3704 -0.5566
 8957SOL     OW38329   1.482   1.889  17.367  0.4586 -0.1123 -0.1087
 8957SOL    HW138330   1.572   1.863  17.389 -0.3184 -2.1715  0.6197
 8957SOL    HW238331   1.439   1.804  17.357 -0.0488  0.1842 -0.4308
 8958SOL     OW38332   0.429   0.976   1.725  0.6329  0.1316  0.2468
 8958SOL    HW138333   0.517   1.005   1.747  1.4735 -1.5282 -0.9924
 8958SOL    HW238334   0.383   0.980   1.810  0.8469 -0.5921  0.3907
 8959SOL     OW38335   3.314   1.676  10.863 -0.2169  0.5222  0.1507
 8959SOL    HW138336   3.325   1.661  10.769  1.6731  3.3321 -0.0534
 8959SOL    HW238337   3.385   1.737  10.879  0.9184 -0.5224 -0.9150
 8960SOL     OW38338   2.416   4.371   1.000 -0.1022 -0.2017  0.3769
 8960SOL    HW138339   2.457   4.409   0.922  0.5881  0.1167  0.8950
 8960SOL    HW238340   2.384   4.290   0.961  0.2596 -0.5619  0.8343
 8961SOL     OW38341   0.177   4.592   8.286  0.1545  0.0140 -0.2112
 8961SOL    HW138342   0.166   4.673   8.238 -0.9314 -0.4930 -0.8124
 8961SOL    HW238343   0.149   4.620   8.373 -0.4775  2.4893 -1.2142
 8962SOL     OW38344   3.760   1.595   4.543 -0.3846  0.1466  0.9584
 8962SOL    HW138345   3.679   1.590   4.493  0.4226  1.9715 -0.5050
 8962SOL    HW238346   3.739   1.671   4.598  0.8524  0.4070  1.0741
 8963SOL     OW38347   0.854   0.718   0.181 -0.2193 -0.7271  0.3830
 8963SOL    HW138348   0.777   0.697   0.233  1.6398 -1.0571  2.9616
 8963SOL    HW238349   0.911   0.761   0.244 -0.5662 -0.8720  0.7944
 8964SOL     OW38350   0.165   0.977   8.317  0.3046  0.0708 -0.6679
 8964SOL    HW138351   0.115   0.925   8.379  0.8987  0.2854 -0.0010
 8964SOL    HW238352   0.160   0.922   8.238 -1.3231 -0.5036 -0.1519
 8965SOL     OW38353   1.327   1.611   8.264 -0.6605 -0.3013 -0.6514
 8965SOL    HW138354   1.271   1.620   8.187  1.3042 -0.5559 -2.1295
 8965SOL    HW238355   1.262   1.573   8.323 -1.1083 -1.4875 -1.9081
 8966SOL     OW38356   4.019   4.282   8.400  0.0075 -0.0183 -0.0135
 8966SOL    HW138357   4.087   4.254   8.461  1.3419 -0.3447 -1.6405
 8966SOL    HW238358   3.961   4.339   8.451  1.1896  1.1215  0.0437
 8967SOL     OW38359   4.335   0.574   4.501  0.0862  0.2037  0.5892
 8967SOL    HW138360   4.271   0.643   4.484  0.2226  0.0157 -0.6365
 8967SOL    HW238361   4.314   0.565   4.594 -1.8502 -1.1543  0.0407
 8968SOL     OW38362   4.269   2.052  10.816 -0.2217 -0.3013 -0.0284
 8968SOL    HW138363   4.225   1.983  10.865  1.1963  0.6197  2.5493
 8968SOL    HW238364   4.348   2.000  10.800  0.9447  1.3695  0.3178
 8969SOL     OW38365   0.036   0.835  10.119 -0.4483  0.1999 -0.5316
 8969SOL    HW138366   4.683   0.893  10.120  0.7432  1.7235  0.3206
 8969SOL    HW238367   0.066   0.849  10.029  3.5305  3.9953  1.4030
 8970SOL     OW38368   3.022   0.016   6.399  0.0560  0.1660  0.1465
 8970SOL    HW138369   3.036   0.033   6.305  0.4783 -1.8052 -0.1422
 8970SOL    HW238370   3.071   4.660   6.418  1.4573  1.2309  0.9181
 8971SOL     OW38371   1.734   4.178   8.875 -0.2342 -0.5011 -0.3292
 8971SOL    HW138372   1.744   4.269   8.902  2.6755 -0.4545 -1.4623
 8971SOL    HW238373   1.814   4.160   8.826 -0.0056  1.4629 -0.6794
 8972SOL     OW38374   1.238   2.387   7.354 -0.2833  0.1395 -0.1369
 8972SOL    HW138375   1.162   2.367   7.409  0.3301  0.0861  0.7027
 8972SOL    HW238376   1.248   2.478   7.382  0.1019  0.5669 -1.6627
 8973SOL     OW38377   4.575   0.537   0.588  0.3741  0.2398 -0.3201
 8973SOL    HW138378   4.561   0.444   0.570 -1.6150  0.8351 -1.8116
 8973SOL    HW238379   4.545   0.551   0.678 -1.0403 -2.1305 -0.4183
 8974SOL     OW38380   3.746   2.500   5.031 -0.3758 -0.0461  0.4989
 8974SOL    HW138381   3.662   2.456   5.046 -1.7421  2.3264 -0.2102
 8974SOL    HW238382   3.743   2.499   4.935 -0.6452 -0.0837  0.5058
 8975SOL     OW38383   0.930   4.196  14.658  0.0663 -0.2093 -0.5284
 8975SOL    HW138384   0.837   4.207  14.637 -0.1748  3.1002  2.2433
 8975SOL    HW238385   0.965   4.234  14.578  3.4249 -0.0917  1.0143
 8976SOL     OW38386   3.703   2.422   4.764 -0.7161 -0.1110  0.3367
 8976SOL    HW138387   3.646   2.357   4.806  3.4714 -3.6231  0.5550
 8976SOL    HW238388   3.656   2.454   4.687  0.5038  1.4088  0.2285
 8977SOL     OW38389   1.352   2.194   9.499 -0.0826  0.1819  0.3490
 8977SOL    HW138390   1.292   2.195   9.424  1.8596 -0.8043 -1.2362
 8977SOL    HW238391   1.328   2.119   9.553  1.4401 -1.6899 -1.5646
 8978SOL     OW38392   4.482   0.961   8.975  0.6312 -0.1550 -0.2481
 8978SOL    HW138393   4.509   1.038   8.925 -1.7133  1.3025  0.7302
 8978SOL    HW238394   4.387   0.965   8.988  1.0665  0.9754  2.7514
 8979SOL     OW38395   2.818   1.287  11.471 -0.3871  0.2951  0.2011
 8979SOL    HW138396   2.737   1.268  11.518  0.4499 -1.6690  0.8280
 8979SOL    HW238397   2.792   1.363  11.418  1.2361  0.7983  0.1069
 8980SOL     OW38398   2.147   4.174   9.139  0.3726 -0.5516 -0.0157
 8980SOL    HW138399   2.130   4.128   9.056 -0.6683  0.8433 -0.5823
 8980SOL    HW238400   2.222   4.230   9.120  0.4030 -0.1294  1.4077
 8981SOL     OW38401   2.324   0.203   4.153 -0.3806 -0.6667 -0.7448
 8981SOL    HW138402   2.399   0.237   4.105  1.7302 -1.1495  2.1771
 8981SOL    HW238403   2.253   0.251   4.110 -0.3684  0.4612  0.4802
 8982SOL     OW38404   4.614   4.172   4.251  0.1424 -0.1110  0.6691
 8982SOL    HW138405   4.637   4.080   4.257  1.5422  0.2588  0.9826
 8982SOL    HW238406   4.643   4.184   4.341 -1.2147  1.7339  0.8509
 8983SOL     OW38407   4.608   0.703   7.543 -0.1085 -0.3345 -0.2574
 8983SOL    HW138408   4.640   0.793   7.548  2.1909 -1.2226  1.0534
 8983SOL    HW238409   4.653   0.661   7.617  2.5479 -1.6296 -2.6200
 8984SOL     OW38410   1.787   1.854   4.404  0.1553  0.8078  0.0286
 8984SOL    HW138411   1.776   1.846   4.309 -1.7279 -0.0113  0.3225
 8984SOL    HW238412   1.744   1.937   4.424  0.0653  0.6355  0.5521
 8985SOL     OW38413   2.562   2.867   1.884  0.1228 -0.2798  0.2575
 8985SOL    HW138414   2.612   2.856   1.965  0.1370  1.0599  0.4257
 8985SOL    HW238415   2.470   2.869   1.910  0.7320  2.2932  2.2040
 8986SOL     OW38416   4.420   1.140   5.468 -0.3517 -0.0399 -0.0383
 8986SOL    HW138417   4.475   1.205   5.424  0.1457 -1.1290 -1.0103
 8986SOL    HW238418   4.347   1.180   5.515 -2.1963  0.2778 -3.1477
 8987SOL     OW38419   2.457   2.128   0.641  0.4186 -0.6489  0.0049
 8987SOL    HW138420   2.461   2.213   0.686 -1.0285 -1.4328  1.6024
 8987SOL    HW238421   2.498   2.069   0.704 -1.1277  1.3384  2.8893
 8988SOL     OW38422   2.405   0.235   5.038  0.1501  0.0475 -0.4892
 8988SOL    HW138423   2.380   0.198   4.953 -0.5141  0.7637 -0.5941
 8988SOL    HW238424   2.324   0.279   5.063 -0.4327 -1.1094 -0.3404
 8989SOL     OW38425   0.235   3.224   6.501 -0.3392  0.0021 -0.3671
 8989SOL    HW138426   0.205   3.217   6.592  0.0535  0.1034 -0.2306
 8989SOL    HW238427   0.291   3.148   6.482 -1.5320 -0.9168 -0.2294
 8990SOL     OW38428   0.078   4.412  11.266  0.1877 -0.0502 -0.7219
 8990SOL    HW138429   0.103   4.484  11.208  2.6853 -0.1643  0.1997
 8990SOL    HW238430   4.714   4.384  11.239 -1.6246  4.2541  0.7676
 8991SOL     OW38431   2.269   3.442  12.676 -0.2440 -0.0680 -0.4295
 8991SOL    HW138432   2.350   3.487  12.652 -1.4021  2.1997 -0.0886
 8991SOL    HW238433   2.226   3.443  12.591 -0.8902  0.8870 -0.0988
 8992SOL     OW38434   0.464   4.353   3.499  0.0900 -0.5349 -0.2514
 8992SOL    HW138435   0.531   4.422   3.497  0.7150 -1.1528 -0.4563
 8992SOL    HW238436   0.419   4.351   3.415  0.2326 -1.7975 -0.2992
 8993SOL     OW38437   3.900   0.108   7.573 -0.0048  0.3629  0.3339
 8993SOL    HW138438   3.883   0.049   7.646  0.4069 -0.1738 -0.0082
 8993SOL    HW238439   3.972   0.161   7.606  1.2637 -0.5088 -1.0195
 8994SOL     OW38440   3.342   1.547   4.570 -0.2938 -0.0398  0.1058
 8994SOL    HW138441   3.257   1.576   4.536 -0.8719 -1.0583  0.6879
 8994SOL    HW238442   3.409   1.551   4.503  0.8563 -2.0726  1.1442
 8995SOL     OW38443   4.663   4.640   6.163 -0.0422 -0.2232 -0.0710
 8995SOL    HW138444   4.631   4.550   6.167 -1.8133  0.3467 -1.1693
 8995SOL    HW238445   4.585   4.690   6.186 -0.9317 -2.3853  1.5747
 8996SOL     OW38446   0.754   0.829   0.465  0.3455  0.1055  0.4399
 8996SOL    HW138447   0.739   0.905   0.408 -3.7488 -2.4071 -1.8626
 8996SOL    HW238448   0.748   0.870   0.551  0.0283  1.5800 -0.2752
 8997SOL     OW38449   0.828   4.582   2.263  0.2899  0.1243 -0.2382
 8997SOL    HW138450   0.826   4.644   2.190 -2.1039  0.8614  0.4336
 8997SOL    HW238451   0.735   4.579   2.285  0.3998 -1.2561  0.0721
 8998SOL     OW38452   1.736   2.113   2.717 -0.5143 -0.6912  0.0548
 8998SOL    HW138453   1.708   2.177   2.651  0.4379  0.6649  0.9720
 8998SOL    HW238454   1.828   2.140   2.713 -0.7591 -0.2465 -2.5259
 8999SOL     OW38455   3.815   3.265   4.507 -0.1270  0.0281 -0.3391
 8999SOL    HW138456   3.866   3.229   4.433 -2.5866  0.5023 -2.2544
 8999SOL    HW238457   3.796   3.351   4.467  1.1417  1.8322  2.9689
 9000SOL     OW38458   1.556   4.383   6.361  0.5225 -0.6116  0.8881
 9000SOL    HW138459   1.593   4.320   6.300  1.0813 -0.7959  1.4258
 9000SOL    HW238460   1.568   4.463   6.309  0.7204 -1.3082 -0.1452
 9001SOL     OW38461   3.164   4.614  14.408  0.0813  0.2335 -0.0526
 9001SOL    HW138462   3.188   4.707  14.407 -0.8859  0.5098  3.6237
 9001SOL    HW238463   3.241   4.586  14.358 -1.1141 -1.1624 -1.1062
 9002SOL     OW38464   2.437   1.878   4.931  0.5438 -0.5178  0.2894
 9002SOL    HW138465   2.409   1.809   4.870  1.4387 -0.4186 -0.2388
 9002SOL    HW238466   2.366   1.942   4.934  0.8170 -0.1049 -1.8058
 9003SOL     OW38467   3.707   1.171  17.426 -0.0952  0.0715 -0.1410
 9003SOL    HW138468   3.770   1.226  17.472  0.1112  1.0046 -1.5675
 9003SOL    HW238469   3.680   1.112  17.497 -1.1639 -0.6475 -1.1532
 9004SOL     OW38470   2.278   1.456  14.718  0.2621  0.2840  0.3994
 9004SOL    HW138471   2.238   1.534  14.679  0.5099  0.7474  1.0580
 9004SOL    HW238472   2.207   1.404  14.753  0.7080 -1.4307 -1.2667
 9005SOL     OW38473   3.836   4.493   6.072 -0.3289 -0.3530  0.5430
 9005SOL    HW138474   3.765   4.523   6.129 -0.1779  0.0269  0.5313
 9005SOL    HW238475   3.871   4.421   6.125 -0.9074  0.2768  1.8004
 9006SOL     OW38476   3.869   0.420  11.579 -0.2289  0.0754  0.6284
 9006SOL    HW138477   3.862   0.332  11.542  0.6048  0.5328 -0.6021
 9006SOL    HW238478   3.827   0.407  11.664 -2.2018 -1.9030 -0.6247
 9007SOL     OW38479   2.016   2.661   6.973 -0.2215 -0.1254  0.6048
 9007SOL    HW138480   2.047   2.596   7.036 -2.1695 -2.0737 -0.4329
 9007SOL    HW238481   2.098   2.709   6.958  0.5163 -1.6062 -0.1031
 9008SOL     OW38482   3.691   4.713  15.473 -0.0121 -0.3304 -0.0570
 9008SOL    HW138483   3.630   0.028  15.537 -0.6232 -0.5319 -0.5170
 9008SOL    HW238484   3.640   4.638  15.441 -1.7831  1.0236 -0.3817
 9009SOL     OW38485   4.115   3.238  16.561 -0.2668 -0.0109 -0.0470
 9009SOL    HW138486   4.027   3.230  16.525 -0.4380  0.5802  0.2428
 9009SOL    HW238487   4.115   3.333  16.550  0.6810 -0.2143 -1.8259
 9010SOL     OW38488   0.813   4.228   3.979 -0.0502  0.1169 -0.0697
 9010SOL    HW138489   0.822   4.287   4.054 -1.5707 -1.2991  1.2224
 9010SOL    HW238490   0.765   4.280   3.915 -4.6002 -3.6778  0.2885
 9011SOL     OW38491   3.200   1.268   2.079  0.2715  0.7751 -0.0952
 9011SOL    HW138492   3.121   1.214   2.086  1.0179 -0.2623  0.3625
 9011SOL    HW238493   3.214   1.287   2.172 -2.5113 -1.4555  0.7803
 9012SOL     OW38494   4.435   1.432   5.392  0.3194 -0.2936  0.3914
 9012SOL    HW138495   4.530   1.431   5.393  0.2967 -1.9165 -0.1719
 9012SOL    HW238496   4.421   1.459   5.483 -0.3497 -1.7883  0.7333
 9013SOL     OW38497   2.992   2.177  13.889  0.2895 -0.2590  0.4869
 9013SOL    HW138498   2.923   2.170  13.956  1.1434 -1.2729  1.2549
 9013SOL    HW238499   2.971   2.264  13.856 -1.6540 -0.5007  1.0796
 9014SOL     OW38500   1.780   1.856   5.547 -0.1674 -0.0391 -0.3382
 9014SOL    HW138501   1.813   1.884   5.462  1.1149 -0.5284  0.0029
 9014SOL    HW238502   1.757   1.766   5.524 -0.6107 -0.4791  1.7926
 9015SOL     OW38503   2.841   0.436   1.555  0.3396  0.4085  0.7042
 9015SOL    HW138504   2.896   0.379   1.502 -1.9774 -1.2971  0.1689
 9015SOL    HW238505   2.769   0.448   1.493  1.1321 -0.2279 -0.3437
 9016SOL     OW38506   3.945   1.034   9.134  0.2281 -0.8504 -0.5243
 9016SOL    HW138507   3.892   1.092   9.189  1.3014 -0.9942  0.6568
 9016SOL    HW238508   3.908   1.048   9.047 -0.1892 -2.5670 -0.6310
 9017SOL     OW38509   4.349   1.707  10.275 -0.1383  0.2838 -0.1934
 9017SOL    HW138510   4.305   1.627  10.303 -0.8228  0.9434  0.6431
 9017SOL    HW238511   4.335   1.756  10.356  1.5152  0.8452 -0.2483
 9018SOL     OW38512   4.360   0.056  10.548  0.1579  0.0765 -0.2676
 9018SOL    HW138513   4.422   0.086  10.614 -1.2745 -0.3802  1.2822
 9018SOL    HW238514   4.294   0.123  10.565  0.2863  0.4612 -1.3031
 9019SOL     OW38515   0.743   2.090   4.022 -0.1178  0.6003  0.5262
 9019SOL    HW138516   0.824   2.066   3.977  0.0649  2.2785 -0.0366
 9019SOL    HW238517   0.687   2.093   3.944 -0.6148  1.1908  0.9072
 9020SOL     OW38518   1.223   0.603  16.863 -0.4958  0.4360  0.4462
 9020SOL    HW138519   1.287   0.674  16.854 -0.8302  0.4960 -1.3302
 9020SOL    HW238520   1.287   0.533  16.875 -0.9474  0.2898  2.0018
 9021SOL     OW38521   2.339   0.702  12.099 -0.0747  0.0906  0.9905
 9021SOL    HW138522   2.372   0.782  12.140  2.6024 -0.7771  0.5052
 9021SOL    HW238523   2.358   0.634  12.163  1.3185 -1.4379 -1.0609
 9022SOL     OW38524   4.540   3.513   9.645 -0.1122 -0.1878  0.4508
 9022SOL    HW138525   4.605   3.503   9.714 -0.9782 -1.0094  1.1458
 9022SOL    HW238526   4.570   3.592   9.601  1.2885  0.5577  2.7465
 9023SOL     OW38527   2.927   1.939   2.861  0.6484 -0.3655  0.5380
 9023SOL    HW138528   3.008   1.936   2.911  2.1188  0.4804 -1.8079
 9023SOL    HW238529   2.955   1.976   2.777  0.3462 -1.2555  0.0402
 9024SOL     OW38530   1.847   1.728   3.925  0.4394 -0.4010  0.5998
 9024SOL    HW138531   1.815   1.774   4.003  0.4250 -0.7237  0.7815
 9024SOL    HW238532   1.939   1.755   3.926  0.4145 -0.3143  0.6467
 9025SOL     OW38533   4.509   2.198   9.076  0.2688 -0.2948 -0.3410
 9025SOL    HW138534   4.595   2.241   9.069  0.2617 -0.0516  1.1461
 9025SOL    HW238535   4.517   2.124   9.017  0.7945 -0.0141 -0.6279
 9026SOL     OW38536   3.335   1.839   5.999  0.0686 -0.2522 -0.0645
 9026SOL    HW138537   3.290   1.796   6.072  3.1720 -0.8447  1.4982
 9026SOL    HW238538   3.427   1.819   6.016  0.6854  0.4053 -2.5352
 9027SOL     OW38539   4.036   3.123   6.498  0.6546 -0.1219  0.5328
 9027SOL    HW138540   3.944   3.096   6.491  0.1770  1.2504  1.3153
 9027SOL    HW238541   4.053   3.123   6.592  0.5988 -1.4752  0.5297
 9028SOL     OW38542   2.090   1.346   3.955 -0.0273  0.4923 -0.0414
 9028SOL    HW138543   2.008   1.393   3.972  0.1973 -0.0376  2.6125
 9028SOL    HW238544   2.053   1.266   3.919  1.4522 -0.4273  0.5210
 9029SOL     OW38545   3.083   1.465   6.359  0.0471  0.4889  0.1003
 9029SOL    HW138546   2.993   1.496   6.369 -0.9039 -2.1991  0.0565
 9029SOL    HW238547   3.114   1.511   6.281  0.6976 -0.4031 -0.1666
 9030SOL     OW38548   2.683   4.473   2.692 -0.2727 -0.6781 -0.0990
 9030SOL    HW138549   2.622   4.544   2.708 -0.0493 -1.1130  2.8054
 9030SOL    HW238550   2.647   4.410   2.755  3.0502 -1.0982  1.4113
 9031SOL     OW38551   4.296   4.142   2.313 -0.0499  0.7901  0.4775
 9031SOL    HW138552   4.301   4.181   2.400 -1.8358 -1.7123  1.6902
 9031SOL    HW238553   4.201   4.143   2.304 -0.1170 -0.5832  1.0407
 9032SOL     OW38554   4.484   1.192   4.886 -0.3474 -0.2488 -0.3287
 9032SOL    HW138555   4.429   1.270   4.888  0.5462  0.3282  3.0252
 9032SOL    HW238556   4.419   1.128   4.857  0.3937 -1.3234  0.3352
 9033SOL     OW38557   2.472   1.390  12.544 -0.5470 -0.0269 -0.4651
 9033SOL    HW138558   2.408   1.421  12.480 -1.8347  1.0058  1.3274
 9033SOL    HW238559   2.495   1.313  12.492  0.2345 -1.6820  2.3375
 9034SOL     OW38560   1.583   2.041   7.767 -0.0370  0.3524  0.0889
 9034SOL    HW138561   1.604   2.133   7.752 -0.7094  0.1661 -1.8802
 9034SOL    HW238562   1.663   2.007   7.807 -0.7544 -1.0135  0.3611
 9035SOL     OW38563   2.180   0.398   6.828  0.3758 -0.1484  0.7022
 9035SOL    HW138564   2.207   0.486   6.800  1.2772  0.1803  2.5995
 9035SOL    HW238565   2.244   0.343   6.782 -0.4630 -0.1641 -0.4635
 9036SOL     OW38566   0.222   2.335   5.648  0.2470 -0.0129  0.3313
 9036SOL    HW138567   0.206   2.410   5.590 -1.5879 -0.0354  0.7896
 9036SOL    HW238568   0.250   2.269   5.585 -0.9675  0.2218 -0.4463
 9037SOL     OW38569   4.124   4.248  12.597 -1.2480  0.1698 -0.0532
 9037SOL    HW138570   4.118   4.194  12.676  0.3295 -0.5397 -0.4136
 9037SOL    HW238571   4.094   4.191  12.526  1.6449 -0.3680 -0.8586
 9038SOL     OW38572   4.722   3.841   9.656 -0.7124  0.1124  0.2729
 9038SOL    HW138573   4.697   3.929   9.627 -0.2905  0.2394  0.2866
 9038SOL    HW238574   4.701   3.785   9.582 -1.9566  1.3482 -0.3040
 9039SOL     OW38575   1.381   1.621   4.184  0.1885  0.5243  0.2609
 9039SOL    HW138576   1.295   1.621   4.225  0.6169 -0.5754  1.1689
 9039SOL    HW238577   1.413   1.533   4.203  0.4236  0.3006 -1.1562
 9040SOL     OW38578   2.029   1.086   7.737 -0.2448  0.0435  0.3320
 9040SOL    HW138579   2.099   1.045   7.789 -0.6000  1.4923  1.9513
 9040SOL    HW238580   2.069   1.075   7.651 -1.6131 -0.0980 -0.2766
 9041SOL     OW38581   2.187   2.525  15.514 -0.0473  0.2016 -0.3570
 9041SOL    HW138582   2.280   2.510  15.495  0.0055  0.2327 -0.1201
 9041SOL    HW238583   2.166   2.541  15.422 -3.1834  2.0137  0.6813
 9042SOL     OW38584   4.036   4.504  12.646 -0.2020  0.5019  0.9268
 9042SOL    HW138585   4.073   4.417  12.629 -0.2348  0.8405 -0.8526
 9042SOL    HW238586   4.011   4.521  12.555 -2.2597 -0.1995  1.3781
 9043SOL     OW38587   3.379   3.766   2.299 -0.2633 -0.8030  0.1600
 9043SOL    HW138588   3.341   3.699   2.356  0.3994  0.1665  1.7249
 9043SOL    HW238589   3.322   3.777   2.222  0.2930  1.6131  0.0814
 9044SOL     OW38590   2.682   1.031   4.177 -0.4519 -0.9224 -0.3422
 9044SOL    HW138591   2.655   1.117   4.144  1.4625 -0.5854 -1.0812
 9044SOL    HW238592   2.741   1.059   4.247 -1.9562  1.4613 -0.0440
 9045SOL     OW38593   1.290   1.437  16.938  0.2991 -0.7601  0.1524
 9045SOL    HW138594   1.353   1.504  16.962 -0.4977 -0.3237  0.9970
 9045SOL    HW238595   1.285   1.445  16.842  2.2387 -0.8446  0.0368
 9046SOL     OW38596   1.409   1.337  13.409 -0.0597 -0.7884 -0.3922
 9046SOL    HW138597   1.478   1.271  13.402 -0.2745 -0.7785 -2.6060
 9046SOL    HW238598   1.359   1.314  13.331 -1.3913 -1.0522  0.5461
 9047SOL     OW38599   0.551   1.424  16.917  0.3332 -0.3148 -0.1187
 9047SOL    HW138600   0.570   1.518  16.927 -2.7884  0.3820 -0.6381
 9047SOL    HW238601   0.602   1.405  16.839  1.0623 -0.1378  0.3200
 9048SOL     OW38602   1.814   3.387  14.756  0.6269  0.1747 -0.1176
 9048SOL    HW138603   1.901   3.376  14.719  1.7340 -2.0804  3.1752
 9048SOL    HW238604   1.764   3.346  14.685 -1.8936  2.0609  0.5590
 9049SOL     OW38605   0.675   0.036  11.275  0.6552 -0.0037  0.0302
 9049SOL    HW138606   0.698   4.692  11.338  1.4411 -0.1959 -0.4521
 9049SOL    HW238607   0.621   4.713  11.212  2.7650 -2.4452  0.0098
 9050SOL     OW38608   2.209   1.003   5.128  0.3385 -0.1293 -0.1143
 9050SOL    HW138609   2.180   0.951   5.203 -1.1651 -1.3650 -1.5532
 9050SOL    HW238610   2.299   1.016   5.159  0.0925 -3.0005  1.7656
 9051SOL     OW38611   1.680   3.103   6.833  0.5702  0.2552 -0.2398
 9051SOL    HW138612   1.684   3.190   6.793  0.4013  1.4804  2.3665
 9051SOL    HW238613   1.594   3.067   6.810  0.5106  0.9598 -1.1587
 9052SOL     OW38614   2.923   4.375   7.612  0.3155 -0.5329  0.5229
 9052SOL    HW138615   3.000   4.408   7.659  0.2542  1.8474 -1.0709
 9052SOL    HW238616   2.920   4.289   7.655  0.5832 -1.3323 -1.0847
 9053SOL     OW38617   1.357   3.253  16.713 -0.0287  0.1926  0.2056
 9053SOL    HW138618   1.367   3.219  16.624  0.1557  1.0423 -0.0958
 9053SOL    HW238619   1.443   3.236  16.750 -0.5502  0.5484  1.5659
 9054SOL     OW38620   3.982   3.361  16.308 -0.1142 -0.7364  0.2405
 9054SOL    HW138621   4.037   3.422  16.258 -2.4740  0.5860 -0.7196
 9054SOL    HW238622   3.956   3.412  16.384  1.4339  1.0526 -0.4457
 9055SOL     OW38623   0.295   4.424  10.170 -0.2854  0.4678  0.0955
 9055SOL    HW138624   0.307   4.468  10.254  1.7403  1.5068 -0.7481
 9055SOL    HW238625   0.381   4.384  10.169 -0.1600  0.6980  2.2792
 9056SOL     OW38626   0.345   0.534   4.888  0.3770 -0.1314  0.1940
 9056SOL    HW138627   0.266   0.584   4.868  0.1243  0.0200  1.5485
 9056SOL    HW238628   0.304   0.447   4.882 -1.5750  0.7626  0.6621
 9057SOL     OW38629   0.775   3.449   6.664  0.8220 -0.1756 -0.7511
 9057SOL    HW138630   0.686   3.435   6.631  0.4494  1.1127 -0.2818
 9057SOL    HW238631   0.818   3.423   6.583 -0.0805  0.9072 -1.5840
 9058SOL     OW38632   4.107   4.404  15.154 -0.1841  0.1387  0.5004
 9058SOL    HW138633   4.168   4.420  15.081  0.6138  0.7735  1.3043
 9058SOL    HW238634   4.164   4.370  15.223 -0.9235 -1.1399  0.4753
 9059SOL     OW38635   0.398   4.065   2.319 -0.1533 -0.3010  0.2281
 9059SOL    HW138636   0.493   4.072   2.326  0.0265 -1.5580 -1.0237
 9059SOL    HW238637   0.372   3.990   2.266  2.0823 -0.5769 -0.4784
 9060SOL     OW38638   1.630   4.718  15.584 -0.5118  0.3976 -0.0296
 9060SOL    HW138639   1.700   4.685  15.529 -0.7697 -1.0270  0.4873
 9060SOL    HW238640   1.552   4.716  15.529 -0.5885  3.9775 -0.0491
 9061SOL     OW38641   4.403   1.753   9.339 -0.4005 -0.2961 -0.2171
 9061SOL    HW138642   4.436   1.718   9.257  0.9760 -0.9909  0.6314
 9061SOL    HW238643   4.438   1.842   9.340 -0.3944 -0.2856 -1.4180
 9062SOL     OW38644   1.765   2.626   8.515  0.4460  0.0488  0.4485
 9062SOL    HW138645   1.825   2.660   8.581  1.8946 -0.4265 -0.6138
 9062SOL    HW238646   1.695   2.690   8.528  0.4126 -0.1096  1.0829
 9063SOL     OW38647   0.549   2.014   7.228  0.1990  0.1228 -0.0818
 9063SOL    HW138648   0.475   2.075   7.230 -0.8233 -1.1223  0.5088
 9063SOL    HW238649   0.572   2.026   7.136  0.0930  0.5544 -0.0517
 9064SOL     OW38650   4.400   1.867   5.357  0.1369 -0.6128  0.4584
 9064SOL    HW138651   4.361   1.869   5.444  0.1212  0.9190  0.4286
 9064SOL    HW238652   4.337   1.924   5.313  2.1454  2.6338  1.6854
 9065SOL     OW38653   2.772   2.790  14.891  0.2861  0.5220 -0.8525
 9065SOL    HW138654   2.707   2.758  14.828  0.6751  0.2960 -1.1327
 9065SOL    HW238655   2.796   2.708  14.935  0.2615  1.2793  0.5663
 9066SOL     OW38656   1.475   4.395   6.855  0.5421  0.7654  0.0442
 9066SOL    HW138657   1.467   4.459   6.784  1.5450 -1.3491 -1.9523
 9066SOL    HW238658   1.552   4.346   6.826  0.0040 -0.2336  0.2964
 9067SOL     OW38659   1.573   3.365  12.343  0.2352 -0.0901  0.5731
 9067SOL    HW138660   1.578   3.279  12.303 -0.1929  1.7597 -3.5335
 9067SOL    HW238661   1.484   3.376  12.375  0.1044 -0.2477  0.2567
 9068SOL     OW38662   2.547   3.962   4.222  0.3108 -0.0323  0.3611
 9068SOL    HW138663   2.617   3.954   4.157  1.9739  3.6747  1.6940
 9068SOL    HW238664   2.580   3.904   4.291  1.4706 -0.0801 -0.2237
 9069SOL     OW38665   0.795   4.531   5.844  0.7040  0.4129  0.1062
 9069SOL    HW138666   0.738   4.598   5.805 -1.1049 -0.5776  1.0463
 9069SOL    HW238667   0.726   4.520   5.910  1.0268 -2.4316 -0.0184
 9070SOL     OW38668   2.429   1.269  10.575  0.2714 -0.2748  0.3300
 9070SOL    HW138669   2.447   1.307  10.661  2.5999 -0.2712 -0.1741
 9070SOL    HW238670   2.335   1.253  10.587 -0.2843  1.6855 -1.3373
 9071SOL     OW38671   4.643   2.015   8.892 -0.3521  0.1124  0.0332
 9071SOL    HW138672   4.660   2.023   8.798  1.3329 -0.5560  0.2869
 9071SOL    HW238673   0.007   2.000   8.928  0.2304 -0.0636 -1.4828
 9072SOL     OW38674   2.504   4.336   7.275  0.1052  0.5784  0.2569
 9072SOL    HW138675   2.542   4.325   7.188  0.5749 -2.7396  0.8697
 9072SOL    HW238676   2.547   4.265   7.322 -3.0758 -0.8151  1.0862
 9073SOL     OW38677   4.061   0.529  11.407  0.0323  0.0752 -0.3558
 9073SOL    HW138678   3.987   0.517  11.467  1.3230  0.0174  1.2201
 9073SOL    HW238679   4.024   0.538  11.319  0.1901 -0.7083 -0.5099
 9074SOL     OW38680   2.928   3.977   5.534  0.5216 -0.2300 -0.2202
 9074SOL    HW138681   3.007   3.925   5.518  1.2512  0.2644  1.7384
 9074SOL    HW238682   2.901   3.962   5.624  0.3650 -0.0122 -0.2294
 9075SOL     OW38683   0.614   3.029   2.252  0.3776 -0.1890 -0.2764
 9075SOL    HW138684   0.694   3.081   2.241  0.8603 -0.9604 -0.4258
 9075SOL    HW238685   0.547   3.090   2.221  0.0848 -0.5215 -0.2925
 9076SOL     OW38686   1.819   3.445   3.959  0.0160  0.3276 -0.0423
 9076SOL    HW138687   1.732   3.448   3.999  0.3860 -0.7038  0.8417
 9076SOL    HW238688   1.834   3.352   3.979 -0.4871  0.1112 -0.6608
 9077SOL     OW38689   3.953   3.999   7.786  0.1185 -0.7085 -0.0113
 9077SOL    HW138690   3.974   3.986   7.693  0.8286  0.0009  0.0496
 9077SOL    HW238691   3.872   4.049   7.777 -0.4101 -1.8139 -1.5305
 9078SOL     OW38692   2.179   4.106  10.948  0.4001 -0.0255  0.5211
 9078SOL    HW138693   2.204   4.197  10.961  0.1860  0.1163 -0.0479
 9078SOL    HW238694   2.168   4.099  10.853  1.1901  0.8417  0.3722
 9079SOL     OW38695   1.243   2.987   5.586  0.4599 -0.0893  0.1066
 9079SOL    HW138696   1.294   3.051   5.536  1.4754  0.6808  2.1230
 9079SOL    HW238697   1.279   2.992   5.675  1.1050  0.3368 -0.1783
 9080SOL     OW38698   2.043   1.880   4.511  0.2208 -0.0708 -0.3371
 9080SOL    HW138699   1.951   1.891   4.486 -0.0497  0.1002  0.7043
 9080SOL    HW238700   2.046   1.815   4.581  0.0951  0.6910  0.3755
 9081SOL     OW38701   0.864   3.157  15.042 -0.6706  0.2360  0.3352
 9081SOL    HW138702   0.875   3.250  15.021 -0.9910  0.4119  0.9530
 9081SOL    HW238703   0.780   3.151  14.996 -0.9450 -1.7851  1.1192
 9082SOL     OW38704   2.030   3.551   4.204  0.7435  0.5905  0.0780
 9082SOL    HW138705   2.017   3.540   4.109 -1.5762 -0.4822  0.5182
 9082SOL    HW238706   2.075   3.635   4.199 -2.1928  2.1971  0.1717
 9083SOL     OW38707   3.487   2.332  10.089  0.2501  0.4362 -0.3220
 9083SOL    HW138708   3.541   2.253  10.102 -2.5309 -1.2448  1.0523
 9083SOL    HW238709   3.408   2.291  10.054 -1.3474  3.6202 -0.4357
 9084SOL     OW38710   1.595   3.370   0.089  0.4774  0.2207  0.0621
 9084SOL    HW138711   1.518   3.372   0.032 -0.1063 -0.6273  0.8329
 9084SOL    HW238712   1.652   3.440   0.057  2.0605 -0.8170  0.6073
 9085SOL     OW38713   2.243   3.424   4.299 -0.4836  0.0075  0.0693
 9085SOL    HW138714   2.233   3.335   4.265  1.2975 -0.9851  2.1038
 9085SOL    HW238715   2.168   3.463   4.255  0.9030  0.7729 -1.6267
 9086SOL     OW38716   3.098   3.803   4.787  0.0610  0.1548 -0.7142
 9086SOL    HW138717   3.023   3.801   4.727 -0.3812 -2.3306 -0.0958
 9086SOL    HW238718   3.172   3.814   4.728 -0.1112 -0.2337 -1.0005
 9087SOL     OW38719   1.297   1.590   3.312  0.0059 -0.1474 -0.1536
 9087SOL    HW138720   1.267   1.531   3.243 -1.4068  1.2551 -0.7461
 9087SOL    HW238721   1.374   1.551   3.351 -0.9815 -1.3528  0.5817
 9088SOL     OW38722   1.862   1.051  12.863  0.8518 -0.0397  0.2928
 9088SOL    HW138723   1.832   0.995  12.791 -0.3247 -0.0282  0.7804
 9088SOL    HW238724   1.776   1.083  12.889 -1.0356 -2.7016 -2.5776
 9089SOL     OW38725   1.770   4.093  14.364 -0.1306  0.2314  0.7072
 9089SOL    HW138726   1.861   4.063  14.365  0.0763  0.8865  1.3200
 9089SOL    HW238727   1.730   4.014  14.402 -1.1053  1.0261  1.3337
 9090SOL     OW38728   0.041   3.083  13.636 -0.0527  0.4055 -0.0354
 9090SOL    HW138729   0.081   3.082  13.550  0.9675  1.9464  0.4217
 9090SOL    HW238730   0.114   3.051  13.689 -0.4105 -1.6259 -0.7427
 9091SOL     OW38731   3.360   0.392   6.830 -0.4644 -0.1926  0.3630
 9091SOL    HW138732   3.289   0.437   6.876 -0.4091  0.0794  0.1816
 9091SOL    HW238733   3.400   0.453   6.768  2.1039 -1.9484  0.3208
 9092SOL     OW38734   3.153   0.769  12.919 -0.2984  0.2238 -0.4720
 9092SOL    HW138735   3.164   0.755  13.013 -2.0503 -0.4090 -0.3759
 9092SOL    HW238736   3.065   0.738  12.898  0.9002 -3.2942 -0.2859
 9093SOL     OW38737   1.648   2.910  16.794  0.8279  0.3855  0.1158
 9093SOL    HW138738   1.576   2.971  16.811 -0.5188 -0.8809 -1.0119
 9093SOL    HW238739   1.626   2.871  16.710  0.1267  0.8379  0.0814
 9094SOL     OW38740   1.079   2.396   5.661 -0.3621 -0.6864 -0.1409
 9094SOL    HW138741   1.063   2.395   5.755 -0.6710 -0.5230 -0.1909
 9094SOL    HW238742   1.101   2.305   5.643 -2.4821 -1.2081 -0.1072
 9095SOL     OW38743   1.724   1.418  13.337  0.0765 -0.7468 -0.1803
 9095SOL    HW138744   1.656   1.453  13.279 -2.3603  1.1344  3.8202
 9095SOL    HW238745   1.686   1.332  13.356  1.3205 -0.9966  1.1093
 9096SOL     OW38746   3.208   3.502   8.775 -0.0009  0.2075  0.8587
 9096SOL    HW138747   3.215   3.505   8.870  0.9045 -1.4131  0.8532
 9096SOL    HW238748   3.288   3.549   8.751  0.6361 -1.9661 -1.3151
 9097SOL     OW38749   3.048   1.186  17.099 -0.2353 -0.2452  0.0785
 9097SOL    HW138750   2.983   1.137  17.149 -0.7559  1.5336  1.1722
 9097SOL    HW238751   3.128   1.143  17.130 -0.0903 -0.0228  0.0126
 9098SOL     OW38752   3.394   0.592   8.847 -0.5190  0.1393  0.9091
 9098SOL    HW138753   3.387   0.668   8.789  0.3155 -1.5228 -1.3406
 9098SOL    HW238754   3.474   0.553   8.815 -0.3457  0.4119  1.0073
 9099SOL     OW38755   2.821   3.076   6.440 -0.1362  0.2947  0.4214
 9099SOL    HW138756   2.912   3.092   6.417  0.0017  0.5110  1.1348
 9099SOL    HW238757   2.820   2.988   6.477  0.8485  0.0971 -0.0204
 9100SOL     OW38758   3.150   0.883   6.256 -0.5111  0.0280  0.8375
 9100SOL    HW138759   3.238   0.847   6.255 -0.2818  0.6782 -1.5043
 9100SOL    HW238760   3.102   0.817   6.205  3.9647 -0.2232 -2.9992
 9101SOL     OW38761   3.430   4.155   6.440 -0.2699  0.4538 -0.3213
 9101SOL    HW138762   3.424   4.061   6.426 -2.5888  0.6390 -0.5867
 9101SOL    HW238763   3.446   4.150   6.534  2.0632  0.5636 -0.7154
 9102SOL     OW38764   3.272   4.058   5.850 -0.3187 -0.3317 -0.4627
 9102SOL    HW138765   3.326   4.001   5.905 -1.3984  0.0636  0.9791
 9102SOL    HW238766   3.309   4.145   5.865 -2.7297  0.4747  0.7230
 9103SOL     OW38767   1.263   0.228   6.699 -0.2308 -0.1861  0.3846
 9103SOL    HW138768   1.189   0.232   6.759 -0.5392 -0.3820  0.0180
 9103SOL    HW238769   1.267   0.319   6.670 -3.0788 -0.0612  0.4198
 9104SOL     OW38770   1.990   3.811   4.452  0.5089  0.5612 -0.0520
 9104SOL    HW138771   1.967   3.765   4.371  0.8432 -0.8284  0.6361
 9104SOL    HW238772   1.971   3.739   4.513  1.5055 -0.8213 -1.3645
 9105SOL     OW38773   0.217   2.368   4.514 -0.2675 -0.6959 -0.7017
 9105SOL    HW138774   0.275   2.433   4.474 -1.0258  0.6003  0.3643
 9105SOL    HW238775   0.281   2.296   4.521 -0.3614 -0.7120 -0.0918
 9106SOL     OW38776   2.911   3.400  14.253  0.4805  0.3955  0.3373
 9106SOL    HW138777   2.963   3.478  14.238  2.3074 -1.0833 -1.0028
 9106SOL    HW238778   2.862   3.391  14.171  1.1096 -1.4983  0.1690
 9107SOL     OW38779   2.975   0.021  15.984  0.0506 -0.3522 -0.4506
 9107SOL    HW138780   2.984   4.688  15.906 -0.0604 -1.5357  0.3876
 9107SOL    HW238781   3.020   4.689  16.048 -2.0693 -1.0381  0.4465
 9108SOL     OW38782   0.826   4.497   7.638 -0.2180  0.0942  0.4357
 9108SOL    HW138783   0.788   4.506   7.551 -1.2970  0.5287  0.9438
 9108SOL    HW238784   0.764   4.550   7.689  0.1862  0.7962  0.2011
 9109SOL     OW38785   4.034   0.599   6.267 -0.5108 -0.1171 -0.2921
 9109SOL    HW138786   4.068   0.656   6.337  2.1012 -0.4648 -1.2914
 9109SOL    HW238787   4.068   0.514   6.292  0.2672  0.4616  0.6059
 9110SOL     OW38788   2.621   4.586   9.731  0.5746 -0.2952 -0.4120
 9110SOL    HW138789   2.534   4.579   9.692  0.7146  2.3011 -1.1764
 9110SOL    HW238790   2.652   4.665   9.687  1.2418 -0.9698 -1.1359
 9111SOL     OW38791   1.691   2.311   2.492 -0.0064 -0.0295 -0.4871
 9111SOL    HW138792   1.667   2.257   2.417  1.6476 -0.5664 -0.6279
 9111SOL    HW238793   1.699   2.389   2.437 -0.1498 -1.1932 -2.1513
 9112SOL     OW38794   3.881   1.812   3.182  0.0255  0.8890 -0.3822
 9112SOL    HW138795   3.843   1.887   3.138  1.8881  1.0743 -1.6734
 9112SOL    HW238796   3.951   1.782   3.124 -0.8337  0.8700 -1.4055
 9113SOL     OW38797   1.502   4.631   0.585 -0.3567 -0.1970  0.1407
 9113SOL    HW138798   1.553   4.554   0.611 -0.9141 -0.7528 -0.3997
 9113SOL    HW238799   1.417   4.597   0.557 -0.6846 -0.6649  1.6952
 9114SOL     OW38800   0.646   4.189  10.082 -0.4547 -0.4266 -1.2050
 9114SOL    HW138801   0.689   4.179  10.167  0.5642  1.1186 -1.5175
 9114SOL    HW238802   0.585   4.116  10.073 -0.8884  0.2181 -3.4168
 9115SOL     OW38803   4.517   1.972  15.679  0.4472  0.1307  0.2174
 9115SOL    HW138804   4.571   1.898  15.652  1.0633  0.6423  0.0606
 9115SOL    HW238805   4.427   1.953  15.652  1.4527 -2.0966 -1.6178
 9116SOL     OW38806   2.016   0.662   1.905  0.3198  0.7484 -0.4403
 9116SOL    HW138807   1.945   0.659   1.840 -0.9563 -1.8362  1.0383
 9116SOL    HW238808   1.970   0.677   1.988  0.7914  3.1954 -0.6350
 9117SOL     OW38809   4.355   4.028   5.049 -0.1858 -0.3575 -0.0609
 9117SOL    HW138810   4.285   4.078   5.007  0.0046  0.1268  0.1989
 9117SOL    HW238811   4.341   4.043   5.143 -0.2319 -3.5260  0.4348
 9118SOL     OW38812   3.544   1.835  10.870 -0.4491 -0.3701  0.2853
 9118SOL    HW138813   3.581   1.773  10.807 -1.6946  0.5798 -1.3788
 9118SOL    HW238814   3.622   1.876  10.906  0.1564 -0.3843 -0.9898
 9119SOL     OW38815   1.618   4.135   0.292  0.1328 -0.1440 -0.0112
 9119SOL    HW138816   1.546   4.135   0.228 -0.4124  0.8065  0.6051
 9119SOL    HW238817   1.559   4.112   0.364 -0.9054 -2.4910 -1.6151
 9120SOL     OW38818   4.023   3.144  10.675 -0.1821  0.1768  0.2209
 9120SOL    HW138819   4.104   3.125  10.627 -0.1618  1.0051 -0.0628
 9120SOL    HW238820   4.055   3.215  10.732  0.5690 -0.9959  1.2602
 9121SOL     OW38821   2.356   4.400   6.808 -0.1641  0.1170 -0.1378
 9121SOL    HW138822   2.322   4.323   6.853  1.1180 -0.5556 -0.2999
 9121SOL    HW238823   2.280   4.452   6.833 -1.5636 -0.2107 -3.6182
 9122SOL     OW38824   2.298   3.989   7.699 -0.7760 -0.3940  0.1070
 9122SOL    HW138825   2.249   4.029   7.628 -2.1658 -0.3952  1.0715
 9122SOL    HW238826   2.349   3.922   7.654  0.9363  0.6678  0.4253
 9123SOL     OW38827   1.435   1.654   9.497  0.0877  0.8523  0.3993
 9123SOL    HW138828   1.462   1.746   9.504 -0.4193  0.9347  1.3194
 9123SOL    HW238829   1.397   1.670   9.411 -0.8806 -0.4665  0.5848
 9124SOL     OW38830   0.174   1.004   5.901 -0.1998  0.3959  0.2960
 9124SOL    HW138831   0.135   1.077   5.949 -0.7247 -1.4314  2.6343
 9124SOL    HW238832   0.262   0.998   5.940 -0.9033 -0.7780  1.6801
 9125SOL     OW38833   4.079   2.541   3.726  0.8564 -0.3834 -0.3193
 9125SOL    HW138834   4.119   2.549   3.813 -1.0488 -0.4031  0.5560
 9125SOL    HW238835   4.133   2.469   3.694  0.5860 -1.5305  1.8515
 9126SOL     OW38836   1.575   3.346   7.915 -0.0809 -0.0832  0.4404
 9126SOL    HW138837   1.669   3.349   7.899 -0.1278  2.7586  0.8100
 9126SOL    HW238838   1.543   3.279   7.854  3.1504 -1.2055 -0.0298
 9127SOL     OW38839   0.127   0.983   7.843 -0.2287  0.0517  0.0705
 9127SOL    HW138840   0.216   1.008   7.869  0.1002 -2.3040  1.3022
 9127SOL    HW238841   0.114   0.989   7.749  3.4068 -0.0186 -0.4369
 9128SOL     OW38842   4.559   1.282   7.637 -0.3217 -0.2413 -0.1753
 9128SOL    HW138843   4.561   1.204   7.692 -0.5793 -1.2337 -1.5807
 9128SOL    HW238844   4.646   1.279   7.598 -0.1893 -0.6645  0.1573
 9129SOL     OW38845   3.760   1.274   1.787  0.5247 -0.4297 -0.5545
 9129SOL    HW138846   3.748   1.233   1.701 -0.9659 -1.3190  0.0959
 9129SOL    HW238847   3.687   1.237   1.837  1.1716 -0.4679  0.3680
 9130SOL     OW38848   0.049   2.828   3.118  0.5994 -0.1039  0.2451
 9130SOL    HW138849   0.104   2.794   3.047 -1.0434  0.2681 -1.1861
 9130SOL    HW238850   0.052   2.916   3.081 -0.0811 -0.1560  0.0706
 9131SOL     OW38851   1.100   4.521  17.033  0.8188  0.5108  0.0212
 9131SOL    HW138852   1.111   4.570  17.115 -0.2532  0.7547  0.0296
 9131SOL    HW238853   1.174   4.560  16.987 -1.3735  0.3784 -3.6074
 9132SOL     OW38854   1.562   1.418   2.073  0.2123  0.2041 -0.0539
 9132SOL    HW138855   1.614   1.429   2.153  0.8760  1.1611 -0.6192
 9132SOL    HW238856   1.500   1.351   2.102  1.6515 -1.5113 -0.9677
 9133SOL     OW38857   1.380   1.404   7.375 -0.7993 -0.0840  0.2250
 9133SOL    HW138858   1.446   1.337   7.355 -0.5439  0.7629 -1.7363
 9133SOL    HW238859   1.378   1.453   7.293 -0.6902  0.6506  0.6632
 9134SOL     OW38860   2.024   1.972   7.159 -1.1042 -0.2262 -0.3110
 9134SOL    HW138861   1.975   1.890   7.163  0.3058 -1.0865 -0.7006
 9134SOL    HW238862   1.986   2.012   7.082 -2.2628 -1.0899 -0.1752
 9135SOL     OW38863   3.641   4.674   1.862 -0.1505  0.0083  0.6443
 9135SOL    HW138864   3.610   4.591   1.897 -2.0080  0.8478  0.9713
 9135SOL    HW238865   3.731   4.649   1.838 -0.7090 -0.2442 -1.2214
 9136SOL     OW38866   0.332   2.087   4.332  0.7243 -0.0608 -0.4909
 9136SOL    HW138867   0.408   2.091   4.274 -0.4529  2.1706 -1.8645
 9136SOL    HW238868   0.265   2.136   4.283 -0.9605 -2.1966 -0.3316
 9137SOL     OW38869   1.393   1.785   4.892  0.5531 -0.1840  0.0125
 9137SOL    HW138870   1.341   1.824   4.821  0.8283  0.6216  0.2576
 9137SOL    HW238871   1.400   1.693   4.867  2.8048 -0.1197  0.3940
 9138SOL     OW38872   1.770   3.149   9.327  0.2739  0.6387 -0.2839
 9138SOL    HW138873   1.774   3.094   9.405 -0.2329  1.6128  0.4422
 9138SOL    HW238874   1.859   3.145   9.294 -0.3283 -0.6257 -1.7334
 9139SOL     OW38875   3.658   4.403  11.305  0.2958 -0.1298  0.2637
 9139SOL    HW138876   3.616   4.377  11.223 -0.2579 -0.1935  0.5725
 9139SOL    HW238877   3.583   4.441  11.350 -0.8351 -2.3859  0.2833
 9140SOL     OW38878   0.405   0.275  14.986 -0.1392  0.2495 -0.0124
 9140SOL    HW138879   0.322   0.312  15.015 -1.8412 -1.9569 -2.0453
 9140SOL    HW238880   0.401   0.195  15.039  0.1259  0.1903 -0.0792
 9141SOL     OW38881   1.286   3.712   5.536  0.0214 -0.9691  0.3895
 9141SOL    HW138882   1.232   3.633   5.532 -1.0903 -0.1698 -0.4235
 9141SOL    HW238883   1.279   3.740   5.628  3.3297 -0.6179  0.5293
 9142SOL     OW38884   3.065   3.950  12.943 -0.5352 -0.4747  0.1501
 9142SOL    HW138885   3.030   3.885  13.004  0.8052 -1.7945 -0.4811
 9142SOL    HW238886   3.004   3.965  12.871 -1.6038 -1.2464  0.8906
 9143SOL     OW38887   3.444   4.099  11.400  0.5337 -0.1317  0.2935
 9143SOL    HW138888   3.386   4.079  11.326  0.9362  0.3652 -0.1608
 9143SOL    HW238889   3.445   4.194  11.409 -1.4879 -0.1096  0.2970
 9144SOL     OW38890   0.550   0.518  14.966  0.1688 -0.8853 -0.3511
 9144SOL    HW138891   0.616   0.531  15.035  1.2454  0.3824 -1.6382
 9144SOL    HW238892   0.529   0.426  14.986  0.2214 -0.6152  0.9753
 9145SOL     OW38893   1.674   1.059   3.138  0.4103  0.4207  0.8383
 9145SOL    HW138894   1.636   1.059   3.226 -0.6183 -0.4874  0.3927
 9145SOL    HW238895   1.673   0.966   3.116 -0.8254  0.2939  1.4150
 9146SOL     OW38896   4.429   1.493   6.728  0.1387  0.4818  0.7286
 9146SOL    HW138897   4.396   1.560   6.669 -0.5233  0.7295  1.3843
 9146SOL    HW238898   4.348   1.450   6.756  1.8747 -3.3898 -0.2279
 9147SOL     OW38899   1.043   3.317   5.257  0.9036  0.3320  0.3018
 9147SOL    HW138900   1.035   3.238   5.310  1.3936  1.6315  2.2865
 9147SOL    HW238901   1.101   3.280   5.190 -0.8792 -1.1916 -0.4229
 9148SOL     OW38902   1.910   0.975  14.893 -0.4810  0.3710  0.4613
 9148SOL    HW138903   1.857   0.971  14.813 -2.5269 -0.1756  1.8511
 9148SOL    HW238904   1.920   0.880  14.903  1.5643  0.2816 -2.2757
 9149SOL     OW38905   4.416   1.080  14.591 -0.1745 -0.1212 -0.1268
 9149SOL    HW138906   4.333   1.095  14.637 -0.5123 -0.5249 -0.6066
 9149SOL    HW238907   4.406   1.147  14.523  3.6990 -0.1561 -0.7086
 9150SOL     OW38908   1.550   0.391   1.740 -0.4919 -0.6307  0.0221
 9150SOL    HW138909   1.455   0.377   1.734 -0.5945 -1.2000  3.0994
 9150SOL    HW238910   1.589   0.316   1.695  0.8452  1.2812 -1.9652
 9151SOL     OW38911   2.958   2.486  13.675  0.2070 -0.2722 -0.0001
 9151SOL    HW138912   3.048   2.507  13.649 -0.9181  0.8856 -3.0642
 9151SOL    HW238913   2.906   2.566  13.672  0.3125 -0.2301 -0.8239
 9152SOL     OW38914   3.968   4.520  15.832 -0.3651 -0.4758  0.5128
 9152SOL    HW138915   3.930   4.523  15.745  0.0465  1.9220  0.4208
 9152SOL    HW238916   3.964   4.612  15.859 -1.2228 -0.2201 -0.4921
 9153SOL     OW38917   4.465   0.322   4.795 -0.7411 -0.0497  0.3171
 9153SOL    HW138918   4.514   0.404   4.797  0.4417 -0.7052 -2.6538
 9153SOL    HW238919   4.536   0.259   4.785 -0.0538  1.1375 -2.3077
 9154SOL     OW38920   4.589   3.817  13.100  0.1339 -0.2591  0.4155
 9154SOL    HW138921   4.675   3.777  13.095 -0.1062 -0.6455 -0.7075
 9154SOL    HW238922   4.526   3.747  13.082  0.4008 -0.2756 -0.4422
 9155SOL     OW38923   3.173   1.550   8.395  0.0815 -0.3350  0.0325
 9155SOL    HW138924   3.231   1.618   8.428  0.5886 -0.2957 -0.9528
 9155SOL    HW238925   3.214   1.542   8.309  0.6111  0.9330  0.1596
 9156SOL     OW38926   0.593   3.269  11.377  0.1855  0.4281  0.4570
 9156SOL    HW138927   0.519   3.209  11.375  1.5983 -1.2033 -2.7047
 9156SOL    HW238928   0.604   3.265  11.472 -0.8954 -0.4907  0.5426
 9157SOL     OW38929   3.739   2.660   1.793 -0.9344  0.3619  0.1448
 9157SOL    HW138930   3.712   2.568   1.797 -0.6220  0.2898  0.6150
 9157SOL    HW238931   3.833   2.643   1.791 -1.6356 -3.2319 -1.6361
 9158SOL     OW38932   4.065   2.659  16.178  0.5745 -0.5418 -0.3158
 9158SOL    HW138933   3.980   2.662  16.221  1.0309 -2.8181  0.7674
 9158SOL    HW238934   4.052   2.591  16.111  1.8025 -0.8703 -0.2185
 9159SOL     OW38935   4.625   3.903   4.624 -0.5143  0.1588  0.2916
 9159SOL    HW138936   4.609   3.834   4.688 -0.7415 -0.5800 -0.5593
 9159SOL    HW238937   4.700   3.939   4.671  1.1638 -0.1675 -2.1165
 9160SOL     OW38938   1.941   2.238   5.262 -0.1903 -0.0554 -0.0719
 9160SOL    HW138939   2.012   2.271   5.318 -0.4208  1.2060 -0.5239
 9160SOL    HW238940   1.915   2.323   5.228  0.2422  0.6155  1.2506
 9161SOL     OW38941   2.415   1.819   6.549 -0.6680 -0.1964  0.1036
 9161SOL    HW138942   2.345   1.773   6.594 -0.7899  0.6733  0.8007
 9161SOL    HW238943   2.359   1.867   6.487  0.2109 -0.7041 -1.0850
 9162SOL     OW38944   1.270   2.141   8.681 -0.1196  0.3497  0.6781
 9162SOL    HW138945   1.225   2.215   8.721 -1.3074 -0.2436  0.4371
 9162SOL    HW238946   1.224   2.123   8.599 -0.4961 -1.4832  1.2851
 9163SOL     OW38947   1.650   1.517   2.591  0.0788 -0.3079 -0.4757
 9163SOL    HW138948   1.675   1.608   2.608  0.1889 -0.4428  0.0848
 9163SOL    HW238949   1.693   1.481   2.669  0.7318 -1.8592 -1.5701
 9164SOL     OW38950   1.334   0.746   6.511  0.3628 -0.8204 -0.3411
 9164SOL    HW138951   1.310   0.816   6.451 -0.5516 -1.8911 -1.2388
 9164SOL    HW238952   1.276   0.760   6.586 -1.5036  0.7479 -2.0957
 9165SOL     OW38953   4.169   2.398   9.222  0.1181 -0.0438  0.0685
 9165SOL    HW138954   4.125   2.326   9.267 -1.6433  0.3438 -1.0244
 9165SOL    HW238955   4.163   2.472   9.282  4.3469  1.4851 -1.4118
 9166SOL     OW38956   3.802   2.846   4.327  0.0642 -0.2517 -0.1553
 9166SOL    HW138957   3.747   2.874   4.400 -1.9113 -0.2869 -1.6549
 9166SOL    HW238958   3.843   2.765   4.360  1.2202  0.3297 -0.1748
 9167SOL     OW38959   3.794   3.240   9.686 -0.3863  0.2271  0.2460
 9167SOL    HW138960   3.843   3.195   9.755 -0.9981  0.1690  0.6370
 9167SOL    HW238961   3.765   3.313   9.739 -0.3093  1.3467 -1.2407
 9168SOL     OW38962   3.513   0.488   5.976  0.6082 -0.2293  0.6333
 9168SOL    HW138963   3.605   0.514   5.979  0.9577 -1.4625  0.4660
 9168SOL    HW238964   3.514   0.403   6.020  0.5775  0.0751  1.2245
 9169SOL     OW38965   3.856   4.499   4.150  0.3830  0.2539  0.5165
 9169SOL    HW138966   3.852   4.562   4.078  0.1897  1.2451  1.4097
 9169SOL    HW238967   3.782   4.536   4.198  0.3951 -0.5897  1.1888
 9170SOL     OW38968   0.477   0.605   1.661  0.3678 -0.5638  0.1110
 9170SOL    HW138969   0.446   0.678   1.607 -1.3932 -0.5638  1.1209
 9170SOL    HW238970   0.397   0.554   1.673  0.4641 -0.2806  1.8731
 9171SOL     OW38971   0.067   0.089   7.612  0.2201  0.1234  0.1421
 9171SOL    HW138972   0.090   0.155   7.677  0.0429 -0.8989  1.2437
 9171SOL    HW238973   0.088   0.011   7.664  1.2643 -0.0111 -0.4823
 9172SOL     OW38974   1.162   1.498  14.726  0.1296 -0.2629 -0.3724
 9172SOL    HW138975   1.224   1.494  14.799  1.0837  0.1022 -1.1689
 9172SOL    HW238976   1.201   1.442  14.659  1.3653  1.9215 -1.4699
 9173SOL     OW38977   0.370   1.368   5.677  0.0731  0.4769 -0.2315
 9173SOL    HW138978   0.423   1.290   5.687  0.1413  0.3551 -1.4634
 9173SOL    HW238979   0.411   1.405   5.598  1.6773  0.6687  0.6978
 9174SOL     OW38980   0.105   0.461   2.809  0.2071  0.0067 -0.5829
 9174SOL    HW138981   0.188   0.418   2.831 -1.2685 -0.3720  4.0781
 9174SOL    HW238982   0.078   0.502   2.891 -0.4878  0.2161 -0.9163
 9175SOL     OW38983   3.883   0.902   4.440 -0.0139  0.6355 -0.3675
 9175SOL    HW138984   3.827   0.912   4.363  0.9444 -0.7685 -1.2644
 9175SOL    HW238985   3.844   0.975   4.488 -2.6327 -1.8547  1.2543
 9176SOL     OW38986   3.801   2.602   9.696  0.7209 -0.0148  0.3845
 9176SOL    HW138987   3.757   2.686   9.711 -0.3599 -0.3414 -1.0652
 9176SOL    HW238988   3.849   2.617   9.615  1.6531  0.6538  1.0490
 9177SOL     OW38989   2.254   2.174   2.206  0.4492  0.2213 -0.4919
 9177SOL    HW138990   2.158   2.179   2.202  0.4705 -0.1789 -1.5330
 9177SOL    HW238991   2.274   2.118   2.281 -0.2917  0.8028  0.1486
 9178SOL     OW38992   0.546   3.375   2.297  0.2806 -0.2693  0.1791
 9178SOL    HW138993   0.571   3.417   2.379 -0.9714  0.3386  0.2406
 9178SOL    HW238994   0.452   3.360   2.308  0.3776 -0.6655  0.4588
 9179SOL     OW38995   4.268   3.699   0.231 -0.5453 -0.0798 -0.3141
 9179SOL    HW138996   4.271   3.776   0.288  0.4448 -0.4404  0.1183
 9179SOL    HW238997   4.351   3.704   0.183  0.3279  1.1360  1.3100
 9180SOL     OW38998   3.395   0.660   0.179 -0.3631 -0.1047 -0.0899
 9180SOL    HW138999   3.385   0.736   0.237 -2.0440 -1.0432  0.8582
 9180SOL    HW239000   3.404   0.597   0.250 -1.3239 -0.5629 -0.3763
 9181SOL     OW39001   0.615   0.258   7.296  0.5683  0.1194 -1.1099
 9181SOL    HW139002   0.624   0.173   7.255 -0.9567 -0.0237 -1.1634
 9181SOL    HW239003   0.675   0.239   7.369 -1.1284  0.2204  0.3186
 9182SOL     OW39004   3.624   0.118   5.001  0.1909 -0.2271  0.1516
 9182SOL    HW139005   3.596   0.171   5.076  1.6874  0.0141  0.5401
 9182SOL    HW239006   3.619   0.184   4.931  2.9059 -2.4079 -2.0774
 9183SOL     OW39007   2.593   3.694   5.570  0.4196  0.0229  0.3417
 9183SOL    HW139008   2.505   3.657   5.578  0.4667  0.2861  2.0400
 9183SOL    HW239009   2.582   3.742   5.487 -0.8255  0.3770  0.7135
 9184SOL     OW39010   1.362   3.276   7.667  0.1593  0.5074  0.1873
 9184SOL    HW139011   1.424   3.248   7.599 -1.2048  1.2085 -1.3496
 9184SOL    HW239012   1.294   3.326   7.623 -0.9544 -1.7904 -0.6954
 9185SOL     OW39013   4.149   3.365   8.322 -0.0141  0.3427  0.0127
 9185SOL    HW139014   4.093   3.433   8.285  0.7050  1.1305  0.3626
 9185SOL    HW239015   4.172   3.320   8.240 -0.4703  0.8996 -0.4194
 9186SOL     OW39016   4.325   3.582   4.273  0.1294  0.0450 -0.6726
 9186SOL    HW139017   4.348   3.637   4.348 -1.2353 -0.7234  0.3086
 9186SOL    HW239018   4.248   3.632   4.248 -0.1201  0.9829  1.9790
 9187SOL     OW39019   4.409   2.627   3.363 -0.1491 -0.0870 -0.0525
 9187SOL    HW139020   4.341   2.646   3.298 -1.5443 -0.6943  1.2531
 9187SOL    HW239021   4.494   2.624   3.318 -0.0339  0.4583  0.1228
 9188SOL     OW39022   0.016   2.795   3.378  0.3801 -0.1720 -0.1423
 9188SOL    HW139023   0.023   2.815   3.285 -2.4867 -1.2988 -0.5884
 9188SOL    HW239024   4.705   2.875   3.418  2.2459  0.4743  0.1541
 9189SOL     OW39025   4.347   3.804   3.465 -0.4228  0.0179  0.4928
 9189SOL    HW139026   4.352   3.820   3.370 -0.9713 -0.5787  0.3619
 9189SOL    HW239027   4.412   3.869   3.491 -0.6067  0.5634 -0.3868
 9190SOL     OW39028   3.821   3.504   4.365  0.5756  0.2342  0.0687
 9190SOL    HW139029   3.896   3.462   4.323 -0.1201 -1.1099  0.1573
 9190SOL    HW239030   3.775   3.545   4.292  0.9995  0.0733 -0.2900
 9191SOL     OW39031   0.937   4.346  16.885  0.2517  0.0733 -0.3833
 9191SOL    HW139032   0.843   4.359  16.898  0.0693  0.1812 -1.8243
 9191SOL    HW239033   0.974   4.396  16.958  0.1743  0.5677 -0.6887
 9192SOL     OW39034   1.861   1.662   7.867  0.3437 -0.1700 -0.1369
 9192SOL    HW139035   1.778   1.651   7.820 -1.6448  1.9369  2.8300
 9192SOL    HW239036   1.859   1.589   7.929 -1.2379 -0.4558 -0.5260
 9193SOL     OW39037   1.921   2.255  12.302  0.4938  0.1509  0.4202
 9193SOL    HW139038   1.980   2.233  12.374 -1.4931 -3.7408  0.8528
 9193SOL    HW239039   1.836   2.249  12.345 -0.4910  1.7206 -1.2798
 9194SOL     OW39040   1.608   4.121   8.624 -0.3626  0.1459 -0.5828
 9194SOL    HW139041   1.553   4.047   8.650  1.3723 -1.1140 -0.4863
 9194SOL    HW239042   1.680   4.110   8.687  0.2072  3.8822 -0.6374
 9195SOL     OW39043   0.289   3.220  14.721 -0.1337  0.0432 -0.0568
 9195SOL    HW139044   0.233   3.289  14.684 -0.9246  0.2253  1.4849
 9195SOL    HW239045   0.371   3.236  14.675 -0.9726 -0.5603 -1.7638
 9196SOL     OW39046   4.115   4.442   3.674 -0.5722 -0.3712 -0.4091
 9196SOL    HW139047   4.180   4.435   3.604 -1.2427 -2.6300 -0.8095
 9196SOL    HW239048   4.059   4.373   3.639  1.9480 -2.4889 -0.2937
 9197SOL     OW39049   3.807   2.265  12.085  0.1033 -0.6583  0.4409
 9197SOL    HW139050   3.824   2.338  12.144  0.5630 -1.2353  1.0353
 9197SOL    HW239051   3.743   2.303  12.025  2.2150  1.4264 -0.4624
 9198SOL     OW39052   3.986   1.983   7.199 -0.3759 -0.0244  0.1932
 9198SOL    HW139053   4.002   1.905   7.252  1.8854 -1.0975 -2.0560
 9198SOL    HW239054   4.028   1.958   7.116  0.3575 -0.4451  0.6889
 9199SOL     OW39055   1.788   1.810   2.695 -0.5244 -0.4700  0.2665
 9199SOL    HW139056   1.877   1.773   2.696 -1.3283 -2.4300  0.0419
 9199SOL    HW239057   1.796   1.874   2.624 -2.8806 -1.8574 -1.2285
 9200SOL     OW39058   2.052   0.222   4.787  0.3379  0.7225  0.0288
 9200SOL    HW139059   2.045   0.152   4.721  1.6510 -0.2397  0.9108
 9200SOL    HW239060   2.114   0.191   4.853  0.3421 -0.4957 -0.5495
 9201SOL     OW39061   2.983   2.793   2.703  0.2362  0.2469 -0.4275
 9201SOL    HW139062   2.978   2.789   2.608  2.7060 -1.0175 -0.5061
 9201SOL    HW239063   3.040   2.867   2.720  0.0654  0.3217 -0.1783
 9202SOL     OW39064   4.690   2.263  10.269  0.6085 -0.0228 -0.1071
 9202SOL    HW139065   4.723   2.328  10.207  1.9292  0.2856  0.8971
 9202SOL    HW239066   0.010   2.293  10.349 -1.1251 -1.1696  1.2483
 9203SOL     OW39067   3.702   2.379   9.476 -0.0474  0.2427 -0.4219
 9203SOL    HW139068   3.690   2.391   9.570  1.4025  3.0163 -0.5732
 9203SOL    HW239069   3.665   2.459   9.439  1.9906  0.4757 -1.9905
 9204SOL     OW39070   0.154   2.231   6.245 -0.3014 -0.1329  1.1485
 9204SOL    HW139071   0.180   2.140   6.234  0.4633  0.1100  0.9216
 9204SOL    HW239072   0.060   2.215   6.239 -0.3454  0.7045 -0.5295
 9205SOL     OW39073   4.283   0.574  11.966  0.5094 -0.3942 -0.2241
 9205SOL    HW139074   4.325   0.652  11.930 -0.4327 -0.4336 -1.3914
 9205SOL    HW239075   4.251   0.533  11.885  0.8434 -0.5761 -0.2670
 9206SOL     OW39076   4.624   4.037   5.081 -0.7294 -0.7629 -0.9663
 9206SOL    HW139077   4.651   4.016   5.171 -0.9550 -2.7683 -1.3574
 9206SOL    HW239078   4.534   4.004   5.073 -1.2893  0.3349  0.7351
 9207SOL     OW39079   0.770   1.340   7.092  0.4300 -0.2086  0.1075
 9207SOL    HW139080   0.683   1.365   7.120  0.7900  2.1244 -0.8893
 9207SOL    HW239081   0.796   1.427   7.062 -0.7344  0.3849  0.8417
 9208SOL     OW39082   3.555   3.045   1.338 -1.0445  0.0366 -0.0851
 9208SOL    HW139083   3.622   3.059   1.405 -2.3761 -0.3324  1.3246
 9208SOL    HW239084   3.481   3.012   1.389 -0.9609  1.8391  1.2141
 9209SOL     OW39085   0.767   1.685  10.118  0.0826 -0.4687  0.3123
 9209SOL    HW139086   0.822   1.608  10.134 -0.2021 -0.2122  2.5118
 9209SOL    HW239087   0.769   1.726  10.204  1.0272  0.8785 -0.3393
 9210SOL     OW39088   0.855   2.435   6.132  0.6950 -0.3845  0.4880
 9210SOL    HW139089   0.871   2.362   6.192  1.8140 -1.0110 -0.5728
 9210SOL    HW239090   0.849   2.509   6.192 -1.0594 -2.0020  2.3364
 9211SOL     OW39091   3.474   2.080   6.426  0.0307  0.2385 -0.0895
 9211SOL    HW139092   3.502   1.992   6.453  2.5955  0.6927 -1.2650
 9211SOL    HW239093   3.433   2.108   6.508  1.8963  0.8905  0.6178
 9212SOL     OW39094   2.886   2.133   3.860  0.3642  0.1305  0.2012
 9212SOL    HW139095   2.878   2.165   3.771 -1.7429 -1.5974 -0.2207
 9212SOL    HW239096   2.871   2.216   3.906  1.4524  1.7003 -2.2862
 9213SOL     OW39097   3.983   1.572   6.898  0.6007  0.1731  0.0983
 9213SOL    HW139098   3.993   1.667   6.906 -3.0475  0.6750 -1.1630
 9213SOL    HW239099   3.945   1.536   6.978  2.5980 -1.9617  0.1005
 9214SOL     OW39100   1.129   0.028   2.224  0.0840 -0.6151 -0.7896
 9214SOL    HW139101   1.146   0.119   2.201  1.9229 -0.9786 -0.9110
 9214SOL    HW239102   1.045   0.030   2.270 -0.3054  1.0881 -1.5811
 9215SOL     OW39103   1.372   4.597   9.182 -0.2440  0.3580 -0.1805
 9215SOL    HW139104   1.310   4.653   9.137  0.6528  0.3533 -1.4272
 9215SOL    HW239105   1.447   4.655   9.193 -2.2383  3.2752 -2.1618
 9216SOL     OW39106   4.131   3.531   3.091 -0.2411  0.1101  0.0891
 9216SOL    HW139107   4.060   3.497   3.145  1.6759  0.3660  2.7654
 9216SOL    HW239108   4.083   3.603   3.049 -1.2784 -1.0709 -0.7601
 9217SOL     OW39109   2.478   0.705   5.149  0.1273  0.8385  0.0125
 9217SOL    HW139110   2.504   0.727   5.238  1.2710  1.0141 -0.3631
 9217SOL    HW239111   2.528   0.624   5.142  1.0719  1.5180 -1.1234
 9218SOL     OW39112   1.319   3.845  10.449  0.0105 -0.0738  0.4249
 9218SOL    HW139113   1.335   3.830  10.543  2.2587  1.1700  0.2335
 9218SOL    HW239114   1.407   3.861  10.415 -1.1900  0.6959 -2.3147
 9219SOL     OW39115   3.741   4.030   4.156 -0.3173 -0.2331 -0.1811
 9219SOL    HW139116   3.753   4.106   4.100 -0.7625  0.4849  0.7006
 9219SOL    HW239117   3.679   3.978   4.104 -0.3700 -0.3373 -0.0156
 9220SOL     OW39118   0.587   0.037  13.960  0.9367  0.5279  0.7421
 9220SOL    HW139119   0.521   0.095  13.923 -2.5383 -2.6607  1.9276
 9220SOL    HW239120   0.526   4.702  14.004  0.9546  0.0837  0.1681
 9221SOL     OW39121   2.977   0.613   0.806  0.3484 -0.6147  0.3600
 9221SOL    HW139122   3.066   0.597   0.838  0.1400 -0.0791  1.2379
 9221SOL    HW239123   2.943   0.525   0.796  1.8388 -1.2213  0.6911
 9222SOL     OW39124   0.536   1.839   8.422 -0.3658 -0.2293 -0.0775
 9222SOL    HW139125   0.448   1.845   8.384  0.0644  1.2801 -0.8376
 9222SOL    HW239126   0.575   1.773   8.365  2.5835  1.0842  0.4401
 9223SOL     OW39127   1.278   4.325   3.073  0.4589 -0.0266  0.3617
 9223SOL    HW139128   1.249   4.234   3.077 -0.5247  0.2423 -0.6623
 9223SOL    HW239129   1.297   4.331   2.979  0.2899  0.8670  0.3872
 9224SOL     OW39130   1.589   4.374   2.788 -0.5016 -0.5878 -0.3211
 9224SOL    HW139131   1.590   4.402   2.697  1.3345  1.4686  0.3331
 9224SOL    HW239132   1.495   4.360   2.799 -0.5741  0.0875 -0.0455
 9225SOL     OW39133   0.160   1.036   0.910  0.1383 -0.4946 -0.1191
 9225SOL    HW139134   0.166   0.979   0.988  1.8070  1.3037  1.0672
 9225SOL    HW239135   0.220   0.977   0.864  1.2814  0.6248 -0.0578
 9226SOL     OW39136   1.474   3.103   4.075 -0.2772 -0.1521  0.2139
 9226SOL    HW139137   1.447   3.034   4.136 -0.4423  0.5646  0.9419
 9226SOL    HW239138   1.517   3.165   4.134 -0.7707  0.6925 -0.3140
 9227SOL     OW39139   4.124   2.163  11.696  0.0046  0.0500 -0.2221
 9227SOL    HW139140   4.093   2.238  11.746  2.5889 -1.1790  3.2108
 9227SOL    HW239141   4.185   2.120  11.756  0.7987  2.3267  0.5850
 9228SOL     OW39142   2.530   0.936   2.525 -0.2089 -0.3809  0.2749
 9228SOL    HW139143   2.453   0.923   2.469  1.4002 -0.8404 -1.8229
 9228SOL    HW239144   2.592   0.876   2.484  0.5161 -0.7113  1.8582
 9229SOL     OW39145   3.451   1.396  15.002  0.4346  0.3756  0.8115
 9229SOL    HW139146   3.530   1.447  14.986 -0.3635  1.2848 -0.2873
 9229SOL    HW239147   3.445   1.384  15.096 -0.0236 -2.1431  0.4457
 9230SOL     OW39148   1.341   1.476  14.931 -0.3077  0.2157  0.0745
 9230SOL    HW139149   1.424   1.522  14.915 -1.9725  3.5430  1.0080
 9230SOL    HW239150   1.371   1.402  14.983  0.3428  1.2042  1.1289
 9231SOL     OW39151   1.238   2.072  16.353 -0.2450 -0.2317  0.3639
 9231SOL    HW139152   1.195   2.124  16.286  0.7841  2.3777  1.6964
 9231SOL    HW239153   1.186   2.095  16.430 -0.0633 -1.3131  0.8124
 9232SOL     OW39154   4.497   1.680   8.631 -0.1665  0.5784 -0.5632
 9232SOL    HW139155   4.579   1.701   8.675  0.0318 -1.0451 -0.1660
 9232SOL    HW239156   4.534   1.658   8.546 -0.4663 -3.0280  0.2489
 9233SOL     OW39157   2.215   1.526   4.508 -0.7219 -0.5470 -0.2914
 9233SOL    HW139158   2.218   1.582   4.586 -1.3022 -2.2095  0.9297
 9233SOL    HW239159   2.141   1.471   4.535 -1.8710  2.0632  1.9082
 9234SOL     OW39160   2.061   0.934   5.665 -0.0143  0.2070 -0.0102
 9234SOL    HW139161   2.132   0.985   5.704 -1.0730  0.6708  1.3405
 9234SOL    HW239162   1.986   0.975   5.710 -0.4642  0.8615 -1.3539
 9235SOL     OW39163   3.881   2.970   4.714 -0.0259 -0.1401  0.1565
 9235SOL    HW139164   3.928   2.907   4.769  0.9593 -0.1324 -0.6945
 9235SOL    HW239165   3.948   2.987   4.649  0.7100  1.1334  1.2406
 9236SOL     OW39166   3.015   3.467   0.375  0.3732  0.4570  0.0046
 9236SOL    HW139167   3.102   3.460   0.415  0.7365  0.5078 -0.7914
 9236SOL    HW239168   2.976   3.394   0.423 -2.1287 -0.2629 -3.1658
 9237SOL     OW39169   1.498   3.141   0.829 -0.0701 -0.7112  0.3543
 9237SOL    HW139170   1.578   3.192   0.839 -1.0308  0.5865  1.4386
 9237SOL    HW239171   1.523   3.095   0.748  0.0629  1.0778 -0.6243
 9238SOL     OW39172   0.429   3.435   2.685  0.1430  0.2560  0.4047
 9238SOL    HW139173   0.414   3.528   2.670  1.6801  0.4589  0.1442
 9238SOL    HW239174   0.522   3.432   2.705  0.1101  0.1849  0.5438
 9239SOL     OW39175   2.281   1.719   3.519 -0.4513  0.1785  0.4305
 9239SOL    HW139176   2.310   1.700   3.429 -2.0748  0.2034 -0.1060
 9239SOL    HW239177   2.349   1.782   3.542 -1.5017  0.7252  2.0122
 9240SOL     OW39178   2.344   4.101   3.597 -0.3926  0.1195 -0.1399
 9240SOL    HW139179   2.327   4.049   3.675  0.8681 -1.1361 -0.6911
 9240SOL    HW239180   2.360   4.186   3.638  1.5632 -0.6757  0.7481
 9241SOL     OW39181   1.263   4.160  15.820 -1.2742 -0.4144 -0.3805
 9241SOL    HW139182   1.283   4.189  15.731  0.1240  0.3215  0.1665
 9241SOL    HW239183   1.270   4.243  15.867  0.2912 -0.7953  0.0606
 9242SOL     OW39184   3.242   0.259   4.054 -0.3775  0.1214 -0.0069
 9242SOL    HW139185   3.178   0.215   3.997  0.0585 -1.7669  0.9833
 9242SOL    HW239186   3.183   0.317   4.102  1.9533  1.1550  1.6127
 9243SOL     OW39187   4.533   0.862   2.946  0.5549  0.2906  0.0030
 9243SOL    HW139188   4.460   0.812   2.911  0.1178  0.6602  0.3909
 9243SOL    HW239189   4.601   0.813   2.899  0.4556 -0.5046  0.6900
 9244SOL     OW39190   2.419   2.152  12.403  0.3411 -0.0160  0.0160
 9244SOL    HW139191   2.391   2.178  12.490  2.9883  3.2484 -0.1013
 9244SOL    HW239192   2.490   2.090  12.420  1.7936  1.4579 -0.7163
 9245SOL     OW39193   2.270   0.010  12.696 -0.6294 -0.0478  0.0694
 9245SOL    HW139194   2.324   4.657  12.673 -0.9413 -0.5632  1.0565
 9245SOL    HW239195   2.191   4.704  12.651  0.1067 -2.5357  0.3948
 9246SOL     OW39196   3.284   2.569   7.049  0.1810 -0.0200  0.0322
 9246SOL    HW139197   3.270   2.478   7.023  1.5275  0.1356 -1.2236
 9246SOL    HW239198   3.207   2.579   7.106  0.3239  0.2406  0.1816
 9247SOL     OW39199   1.064   0.889   2.972  0.3302 -0.3575  0.0556
 9247SOL    HW139200   1.069   0.847   2.886  1.9135  0.5427 -0.2865
 9247SOL    HW239201   0.995   0.836   3.012  2.1399 -1.9502  1.0283
 9248SOL     OW39202   2.362   0.867   5.865 -0.1147  0.2417  0.7227
 9248SOL    HW139203   2.452   0.844   5.887  0.0482 -0.3787 -0.5162
 9248SOL    HW239204   2.338   0.917   5.943  1.7450  0.8194  0.9110
 9249SOL     OW39205   4.367   3.473   0.312  0.1229  0.1465  0.3515
 9249SOL    HW139206   4.438   3.506   0.368 -0.0868  1.6737 -0.2873
 9249SOL    HW239207   4.326   3.557   0.289 -0.0138 -0.7694 -2.7819
 9250SOL     OW39208   2.092   3.939   4.784 -0.6985  0.7044  0.3120
 9250SOL    HW139209   2.067   4.029   4.761 -0.5516  0.3732 -1.1704
 9250SOL    HW239210   2.074   3.907   4.695  1.6334 -2.3909  0.9855
 9251SOL     OW39211   3.205   0.606   2.951  0.0936  0.2747  0.1916
 9251SOL    HW139212   3.290   0.623   2.991  0.3641  1.1047 -0.7213
 9251SOL    HW239213   3.194   0.679   2.889 -0.5369  0.6049  0.7005
 9252SOL     OW39214   1.732   3.333   2.644 -0.5055 -0.0553 -0.7038
 9252SOL    HW139215   1.786   3.284   2.706 -1.7020  0.1940  0.5322
 9252SOL    HW239216   1.691   3.407   2.691  0.3184 -0.5423  0.7902
 9253SOL     OW39217   0.633   0.451   7.079 -0.6745  0.4157 -0.8382
 9253SOL    HW139218   0.614   0.533   7.125  0.1135 -1.3612  2.6784
 9253SOL    HW239219   0.602   0.386   7.141  1.5430  0.0671 -0.0962
 9254SOL     OW39220   0.300   4.044   1.151 -0.1234 -0.2811 -0.2670
 9254SOL    HW139221   0.280   3.977   1.086  1.3948 -2.1525  1.2053
 9254SOL    HW239222   0.263   3.997   1.225  0.7290  0.4441  0.6183
 9255SOL     OW39223   1.459   1.663   9.768 -0.0148  0.1433  0.1288
 9255SOL    HW139224   1.552   1.684   9.777  0.1117  0.3873 -1.7139
 9255SOL    HW239225   1.450   1.694   9.677  1.3133  0.1920  0.0227
 9256SOL     OW39226   2.927   2.809   3.130 -0.3723  0.0820  0.0564
 9256SOL    HW139227   2.936   2.881   3.067 -0.6892 -1.2408 -1.5021
 9256SOL    HW239228   3.019   2.801   3.156  0.2985 -0.2260 -2.3943
 9257SOL     OW39229   4.472   0.682   9.314 -0.1366  0.5290  0.4608
 9257SOL    HW139230   4.501   0.689   9.405 -0.3060 -0.1817  0.5686
 9257SOL    HW239231   4.397   0.741   9.312 -0.0933  0.6274  1.5418
 9258SOL     OW39232   2.621   1.834   4.527 -0.2118  0.2010 -0.7091
 9258SOL    HW139233   2.563   1.910   4.532 -1.7331 -1.0130  0.0299
 9258SOL    HW239234   2.706   1.877   4.526 -0.2134  0.2388  2.5786
 9259SOL     OW39235   2.646   2.265  11.672  0.6593  0.2832  0.6854
 9259SOL    HW139236   2.641   2.173  11.701  1.2379 -0.1616 -0.6204
 9259SOL    HW239237   2.555   2.290  11.686  0.1350  0.8181 -3.8998
 9260SOL     OW39238   3.699   0.931  12.918  0.0256  0.1692 -0.5980
 9260SOL    HW139239   3.776   0.885  12.883 -0.0791 -0.1078 -0.4633
 9260SOL    HW239240   3.642   0.930  12.841  0.7921 -1.7531 -1.1499
 9261SOL     OW39241   0.294   2.286   8.034 -0.1159 -0.9577 -0.4302
 9261SOL    HW139242   0.271   2.245   7.950  1.6691  1.3554 -2.0400
 9261SOL    HW239243   0.265   2.219   8.096  0.5404 -1.5880 -0.7935
 9262SOL     OW39244   0.646   3.749   8.828  0.3239  0.1419 -0.3342
 9262SOL    HW139245   0.664   3.799   8.907 -1.7437  1.7442 -0.8883
 9262SOL    HW239246   0.737   3.742   8.798  0.3123  0.7189 -0.5058
 9263SOL     OW39247   0.900   1.737   5.559 -0.5920  0.2610  0.1824
 9263SOL    HW139248   0.894   1.749   5.464  3.1739  2.7232  0.2209
 9263SOL    HW239249   0.992   1.760   5.577 -0.1106 -1.2594 -0.3592
 9264SOL     OW39250   3.496   4.641   5.662  0.3697 -0.0684  0.1338
 9264SOL    HW139251   3.455   4.558   5.638  0.8960  0.4152 -2.4361
 9264SOL    HW239252   3.565   4.604   5.716 -0.5106 -2.1594 -0.1982
 9265SOL     OW39253   4.354   2.256   6.532 -0.5798 -0.4805  0.6627
 9265SOL    HW139254   4.444   2.289   6.531 -0.2387 -1.4206 -1.3557
 9265SOL    HW239255   4.317   2.299   6.609 -0.0232 -1.4827  1.4975
 9266SOL     OW39256   1.422   1.897   6.841  0.0399 -0.4583 -0.3219
 9266SOL    HW139257   1.356   1.827   6.843  1.4121 -1.7652 -1.8876
 9266SOL    HW239258   1.436   1.910   6.935  2.2247  0.2185 -0.7395
 9267SOL     OW39259   3.000   1.114   4.098 -0.2666  0.1624 -0.7880
 9267SOL    HW139260   2.980   1.021   4.105  0.8121 -0.0650 -0.7460
 9267SOL    HW239261   3.073   1.105   4.036 -0.2244 -2.2078 -0.3708
 9268SOL     OW39262   1.250   1.992  15.978 -0.0220 -0.3365  0.7075
 9268SOL    HW139263   1.237   2.075  16.025  0.2332  0.8611 -1.3618
 9268SOL    HW239264   1.296   2.024  15.901  1.0656 -1.5945  0.8461
 9269SOL     OW39265   2.403   4.476   0.708 -0.2734 -0.0135 -0.3938
 9269SOL    HW139266   2.376   4.492   0.618 -1.3686 -0.8441 -0.2132
 9269SOL    HW239267   2.332   4.415   0.728 -0.1695 -0.1335 -0.3892
 9270SOL     OW39268   0.412   0.919   2.728  0.3639 -0.0906 -0.0159
 9270SOL    HW139269   0.362   0.972   2.790  0.1769 -0.8540  0.4826
 9270SOL    HW239270   0.398   0.828   2.753 -0.4653 -0.2123 -0.9530
 9271SOL     OW39271   2.568   3.056   6.701 -0.5698  0.4560 -0.1809
 9271SOL    HW139272   2.541   2.986   6.641  0.5006 -0.9794  0.9807
 9271SOL    HW239273   2.620   3.120   6.651  0.8865 -0.3778  0.2524
 9272SOL     OW39274   3.286   1.979   4.533  0.0252  0.9537 -0.0198
 9272SOL    HW139275   3.360   2.038   4.546 -1.8543  2.9249  1.7225
 9272SOL    HW239276   3.270   1.988   4.439 -0.5751 -0.8357 -0.0776
 9273SOL     OW39277   1.303   4.663   0.772  0.1083 -0.7653 -0.4912
 9273SOL    HW139278   1.391   4.641   0.744  0.3870  0.2294 -0.3823
 9273SOL    HW239279   1.268   4.715   0.700  0.0120 -1.7801 -1.1722
 9274SOL     OW39280   2.924   0.962  15.982 -0.3419  1.3878  0.4376
 9274SOL    HW139281   2.928   0.904  15.906 -1.6142  2.9976 -0.8562
 9274SOL    HW239282   2.939   0.903  16.056  1.3554  0.4559 -0.6431
 9275SOL     OW39283   2.682   0.179   2.833  0.4797 -0.9433  0.1752
 9275SOL    HW139284   2.648   0.267   2.846  1.8365 -0.4345  0.3281
 9275SOL    HW239285   2.747   0.189   2.763 -0.6853  1.3433 -0.5759
 9276SOL     OW39286   0.632   2.275   0.880 -0.2040 -0.0471  0.0189
 9276SOL    HW139287   0.572   2.318   0.819  0.5804  0.4440 -0.4017
 9276SOL    HW239288   0.654   2.197   0.829 -0.8028  1.0725 -1.9391
 9277SOL     OW39289   2.972   3.339   8.466  0.5217 -0.1461 -0.9847
 9277SOL    HW139290   2.888   3.292   8.473  1.0234 -0.8205  0.4977
 9277SOL    HW239291   2.959   3.396   8.391 -2.6599  0.5121  0.0239
 9278SOL     OW39292   2.458   4.111  10.609  0.4134 -0.7648 -0.0369
 9278SOL    HW139293   2.456   4.125  10.515 -1.9396  3.1363  0.6084
 9278SOL    HW239294   2.426   4.022  10.628  1.0645 -1.2121 -1.0285
 9279SOL     OW39295   1.515   0.429   5.129 -0.3532  0.3851  0.0787
 9279SOL    HW139296   1.590   0.480   5.159 -0.0293 -1.1159  1.8484
 9279SOL    HW239297   1.516   0.481   5.048  1.4018  1.2716  0.6768
 9280SOL     OW39298   0.467   2.817   4.781 -0.1485  0.1770 -0.1447
 9280SOL    HW139299   0.560   2.806   4.763  0.2259  0.5892  1.5625
 9280SOL    HW239300   0.455   2.790   4.872 -0.6018  0.5076 -0.1047
 9281SOL     OW39301   4.025   4.228   1.782  0.0885  0.1551 -0.4174
 9281SOL    HW139302   4.008   4.168   1.854  2.3089  0.5942  0.4755
 9281SOL    HW239303   4.071   4.170   1.721 -0.0719 -1.7088  1.2383
 9282SOL     OW39304   2.236   2.498   2.532 -0.0230 -0.0157 -0.0710
 9282SOL    HW139305   2.313   2.510   2.587 -0.4465 -1.1172  0.7689
 9282SOL    HW239306   2.179   2.443   2.586 -3.1103  2.1578 -1.0730
 9283SOL     OW39307   0.526   0.817  13.953  0.1880 -0.3044 -0.3176
 9283SOL    HW139308   0.454   0.834  13.892 -1.5539  0.4983  1.9791
 9283SOL    HW239309   0.482   0.835  14.036 -0.5622 -3.4334 -0.0592
 9284SOL     OW39310   4.052   3.850   5.927  0.4088  0.8931  0.0116
 9284SOL    HW139311   4.002   3.927   5.899 -0.6085  0.4849  0.6853
 9284SOL    HW239312   4.025   3.856   6.019  2.0738  0.6401  0.5188
 9285SOL     OW39313   4.368   2.402   1.263 -0.4384 -0.5149  0.2287
 9285SOL    HW139314   4.371   2.342   1.337  0.3152  0.9570  1.3996
 9285SOL    HW239315   4.351   2.337   1.194 -0.4650  0.1082 -0.3570
 9286SOL     OW39316   1.553   1.693   7.899  0.2681  0.1868  0.4991
 9286SOL    HW139317   1.536   1.608   7.858 -0.8530  0.1786  0.9742
 9286SOL    HW239318   1.555   1.663   7.990 -0.2276  2.2295  1.1703
 9287SOL     OW39319   4.371   2.050   3.876  0.4083 -0.0808 -0.7104
 9287SOL    HW139320   4.396   2.141   3.891  0.2257  0.1288 -1.6642
 9287SOL    HW239321   4.307   2.046   3.948  1.8184 -2.2538  0.4206
 9288SOL     OW39322   2.069   2.934  16.560 -0.4962  0.1952 -0.7657
 9288SOL    HW139323   2.144   2.876  16.568 -0.3443  0.3975 -0.7359
 9288SOL    HW239324   2.021   2.928  16.643  0.5620 -1.0577 -0.2430
 9289SOL     OW39325   2.655   4.704   9.023 -0.5022 -0.1999 -0.0065
 9289SOL    HW139326   2.734   4.723   9.074 -1.1255 -0.0552  0.9015
 9289SOL    HW239327   2.680   4.707   8.930 -1.2193  0.6876 -0.1664
 9290SOL     OW39328   1.767   2.335   5.886  0.8354  0.4643  0.2297
 9290SOL    HW139329   1.744   2.378   5.968 -0.3683  2.8018 -1.3344
 9290SOL    HW239330   1.679   2.310   5.859  1.2264  0.5110 -1.1010
 9291SOL     OW39331   3.410   1.139   8.015 -0.7613 -0.1103  0.1241
 9291SOL    HW139332   3.343   1.188   7.966  0.3248 -1.1811 -2.3898
 9291SOL    HW239333   3.364   1.124   8.098  0.4003  1.4093  1.0646
 9292SOL     OW39334   2.757   0.971   7.797 -0.5131 -0.6025  0.2553
 9292SOL    HW139335   2.829   0.974   7.734 -1.1042  0.6041 -0.3473
 9292SOL    HW239336   2.741   1.065   7.803 -0.3143 -0.6514  1.6204
 9293SOL     OW39337   2.130   3.456   5.001  0.1010 -0.5125 -0.4543
 9293SOL    HW139338   2.070   3.423   4.935  0.1757  2.0897 -1.8334
 9293SOL    HW239339   2.209   3.431   4.952  1.1282  1.3291  0.2782
 9294SOL     OW39340   3.667   3.581  14.646  0.3897  0.1954 -0.4303
 9294SOL    HW139341   3.576   3.552  14.641 -0.4052  2.3400  1.2898
 9294SOL    HW239342   3.711   3.516  14.591  2.0813  0.6211  0.4020
 9295SOL     OW39343   3.079   3.551   7.210 -0.3936 -0.2854 -0.1929
 9295SOL    HW139344   3.126   3.577   7.289 -0.0037 -1.6546  0.0386
 9295SOL    HW239345   3.135   3.493   7.158  0.0718 -0.7756  0.8532
 9296SOL     OW39346   1.365   0.596   6.227  0.3454 -0.1520  0.3426
 9296SOL    HW139347   1.356   0.686   6.259  0.0345  0.3640 -1.2189
 9296SOL    HW239348   1.271   0.583   6.216  0.2847  0.6678 -0.1255
 9297SOL     OW39349   0.568   2.840   4.477 -0.4529  0.7036  0.5788
 9297SOL    HW139350   0.506   2.896   4.523  0.0016  1.6412  0.0370
 9297SOL    HW239351   0.578   2.892   4.398 -0.6674  2.7949  1.9312
 9298SOL     OW39352   0.360   1.248  16.969  0.2148  1.0983 -0.3081
 9298SOL    HW139353   0.331   1.192  16.897  0.9188  0.2666  0.0621
 9298SOL    HW239354   0.446   1.278  16.940  1.6032 -0.9666  1.6429
 9299SOL     OW39355   3.859   2.533   5.808 -0.0815  0.8580 -0.4086
 9299SOL    HW139356   3.876   2.544   5.715  3.0906 -0.0097  0.0488
 9299SOL    HW239357   3.771   2.496   5.809 -0.1189  0.9426 -0.6047
 9300SOL     OW39358   2.571   0.349   0.868 -0.1138 -0.5013 -0.4388
 9300SOL    HW139359   2.538   0.260   0.859 -2.2240  0.4188 -1.7939
 9300SOL    HW239360   2.501   0.409   0.842 -0.6814 -1.0454 -0.1514
 9301SOL     OW39361   0.850   3.942   5.904 -0.2684  0.5376 -0.2959
 9301SOL    HW139362   0.790   3.964   5.833  0.0147 -0.2974 -0.7877
 9301SOL    HW239363   0.794   3.948   5.982  1.2508 -3.8017  1.1641
 9302SOL     OW39364   0.195   2.172   8.518 -0.7325 -0.1640  0.5976
 9302SOL    HW139365   0.250   2.245   8.491  0.3806 -0.5031  1.9371
 9302SOL    HW239366   0.254   2.136   8.584 -0.8905 -1.5827 -0.0416
 9303SOL     OW39367   3.505   2.528   5.229  0.7006 -0.3729 -0.2342
 9303SOL    HW139368   3.438   2.493   5.287  0.1159  0.4392 -0.4158
 9303SOL    HW239369   3.505   2.469   5.154 -0.4753 -1.0622  0.3111
 9304SOL     OW39370   3.084   0.622   6.758  0.3498 -0.3833  0.0496
 9304SOL    HW139371   3.101   0.671   6.678 -3.5130  0.4415 -0.2761
 9304SOL    HW239372   3.068   0.535   6.722  0.0471 -0.4094  0.2495
 9305SOL     OW39373   1.637   0.970   6.300  0.1478 -0.9667  0.3220
 9305SOL    HW139374   1.608   0.943   6.213  0.8337  0.4278 -0.3445
 9305SOL    HW239375   1.670   1.059   6.290 -0.6086 -0.5841  1.1802
 9306SOL     OW39376   3.996   3.683   7.862  0.6664  0.6980 -0.4864
 9306SOL    HW139377   3.962   3.647   7.780  0.2691 -1.2428  0.5332
 9306SOL    HW239378   3.972   3.775   7.848 -0.6764  0.5365  0.7197
 9307SOL     OW39379   3.822   0.928  10.670 -0.0524  0.4438  0.0483
 9307SOL    HW139380   3.781   0.910  10.585  0.5840  3.9272 -0.9931
 9307SOL    HW239381   3.871   0.849  10.691 -0.1166  1.0562  2.4617
 9308SOL     OW39382   2.436   0.549   3.657 -0.2059 -0.5041 -0.1231
 9308SOL    HW139383   2.403   0.493   3.727  1.7000 -2.1965 -0.5556
 9308SOL    HW239384   2.442   0.632   3.704 -1.8384  0.5748 -1.8640
 9309SOL     OW39385   1.962   3.699  11.800 -0.1655  0.4947 -0.1542
 9309SOL    HW139386   1.925   3.781  11.834  3.0542  1.6008  0.7067
 9309SOL    HW239387   2.039   3.693  11.856 -1.1978  4.1653  1.6606
 9310SOL     OW39388   0.304   4.477   2.751  0.0204 -0.0217 -0.0468
 9310SOL    HW139389   0.397   4.484   2.727  0.0571 -2.1176 -0.5360
 9310SOL    HW239390   0.278   4.569   2.743  0.3846  0.1536  0.7671
 9311SOL     OW39391   1.516   4.406   7.319  0.2884  0.0264  0.2684
 9311SOL    HW139392   1.483   4.487   7.280  0.8375  0.9752  1.7597
 9311SOL    HW239393   1.441   4.348   7.303  1.4285 -1.3155 -0.2530
 9312SOL     OW39394   3.371   1.703   2.901 -0.4268 -0.0474  0.0818
 9312SOL    HW139395   3.460   1.673   2.882 -0.4307 -1.4583  2.3808
 9312SOL    HW239396   3.323   1.621   2.909 -1.2703  0.6796  2.4275
 9313SOL     OW39397   1.607   1.751   3.806 -0.5818  0.5126 -0.1151
 9313SOL    HW139398   1.688   1.726   3.849  0.3702 -0.1448 -2.3245
 9313SOL    HW239399   1.547   1.768   3.879  0.4060 -0.8744  1.0153
 9314SOL     OW39400   2.942   1.974   5.597  0.0325 -0.0348 -0.0266
 9314SOL    HW139401   2.875   2.033   5.563 -1.5865 -1.7609  0.1917
 9314SOL    HW239402   2.948   2.001   5.689  3.0494  0.3073 -0.3220
 9315SOL     OW39403   1.854   2.526   5.247 -0.1424  0.7425 -0.3001
 9315SOL    HW139404   1.761   2.527   5.225 -0.0805 -1.7884 -0.6020
 9315SOL    HW239405   1.851   2.585   5.323  1.4043  1.5509 -0.8583
 9316SOL     OW39406   0.554   0.880   9.706  0.1531 -0.0850  0.2236
 9316SOL    HW139407   0.459   0.875   9.697  0.5008 -1.9100 -2.4548
 9316SOL    HW239408   0.582   0.791   9.683 -1.9020 -0.4343 -0.9123
 9317SOL     OW39409   2.732   2.867   5.511 -0.5233 -0.3825 -0.2548
 9317SOL    HW139410   2.730   2.938   5.575 -1.3750 -0.5632 -0.0875
 9317SOL    HW239411   2.782   2.910   5.442 -1.3897  1.6095  0.3700
 9318SOL     OW39412   4.445   0.636  11.274 -0.0734 -0.2023 -0.4159
 9318SOL    HW139413   4.492   0.557  11.300  1.9502  1.2465  0.3324
 9318SOL    HW239414   4.525   0.686  11.257 -0.3957 -0.2863 -2.1459
 9319SOL     OW39415   0.572   2.072   8.562  0.2177 -0.5127  0.1998
 9319SOL    HW139416   0.663   2.074   8.591 -0.2700 -0.5338  1.7651
 9319SOL    HW239417   0.578   1.997   8.503 -2.2753 -2.0627  1.9447
 9320SOL     OW39418   3.090   3.603  11.677  0.7559 -0.4513 -0.0545
 9320SOL    HW139419   3.010   3.645  11.708  0.9035  0.1511 -0.4749
 9320SOL    HW239420   3.051   3.540  11.616 -0.7956 -1.0304  1.5399
 9321SOL     OW39421   3.372   4.565   6.245 -0.8092 -0.1041  0.0501
 9321SOL    HW139422   3.294   4.542   6.295 -0.8961  0.0493 -0.0145
 9321SOL    HW239423   3.435   4.511   6.292 -1.0035 -0.2043  0.1971
 9322SOL     OW39424   0.312   3.771   3.451 -0.0660  0.1277  0.5160
 9322SOL    HW139425   0.290   3.707   3.382 -1.4352  2.0809 -0.8675
 9322SOL    HW239426   0.306   3.713   3.527  0.7924 -2.2482 -1.2199
 9323SOL     OW39427   1.385   2.195   3.647  0.1696  0.2192  0.5964
 9323SOL    HW139428   1.442   2.121   3.665  0.8401 -0.1333 -2.9861
 9323SOL    HW239429   1.430   2.245   3.579 -0.3790 -1.2015 -0.7935
 9324SOL     OW39430   0.300   3.622   5.080  0.1946 -0.0070 -0.2597
 9324SOL    HW139431   0.205   3.615   5.084  0.0072  1.3822 -2.0148
 9324SOL    HW239432   0.318   3.645   5.171  0.8530 -1.8631  0.0785
 9325SOL     OW39433   3.011   0.759   2.386 -0.8149  0.0248 -0.0678
 9325SOL    HW139434   2.974   0.705   2.455 -0.1026  0.9795  1.0626
 9325SOL    HW239435   3.049   0.828   2.440  2.1247 -0.7323 -1.1500
 9326SOL     OW39436   2.106   4.062   7.163  0.0449  0.8320 -0.8767
 9326SOL    HW139437   2.130   3.970   7.177  3.4748  1.9812  0.7877
 9326SOL    HW239438   2.010   4.064   7.164  0.0423 -0.1121  0.9479
 9327SOL     OW39439   1.228   3.764   6.475 -0.4097 -0.1131  0.1336
 9327SOL    HW139440   1.192   3.681   6.504 -0.2944 -1.2687 -2.9777
 9327SOL    HW239441   1.201   3.763   6.383 -0.6051 -3.7729  0.2403
 9328SOL     OW39442   3.920   0.681  10.740  0.3474  0.1468 -1.0385
 9328SOL    HW139443   3.953   0.674  10.829  2.5076 -0.9733 -1.9286
 9328SOL    HW239444   3.833   0.642  10.747 -1.2927  4.0627  0.2261
 9329SOL     OW39445   3.626   3.060   2.898 -0.1009  0.1889 -0.2721
 9329SOL    HW139446   3.567   3.135   2.904  0.3773  0.4935  0.6573
 9329SOL    HW239447   3.563   2.999   2.859  0.3028 -0.2175 -0.2870
 9330SOL     OW39448   2.670   2.929   2.140  0.6757  0.2104  0.3315
 9330SOL    HW139449   2.680   2.841   2.177 -0.6217  1.3103  3.2991
 9330SOL    HW239450   2.764   2.939   2.123  0.8134  0.3869  1.1806
 9331SOL     OW39451   1.217   0.526   2.560 -0.2075 -0.2121 -0.2891
 9331SOL    HW139452   1.279   0.538   2.632 -2.0607  1.1550  1.1014
 9331SOL    HW239453   1.273   0.538   2.483  0.1715  2.7131  0.4105
 9332SOL     OW39454   2.377   3.573  13.961  0.4152  0.1864  0.4534
 9332SOL    HW139455   2.404   3.611  13.877 -1.8289 -2.3323 -1.3809
 9332SOL    HW239456   2.459   3.555  14.008  0.9443  0.7741 -0.2467
 9333SOL     OW39457   0.640   0.920   0.711  0.1438  0.0219 -0.1385
 9333SOL    HW139458   0.619   0.836   0.754  1.2374 -0.0818  0.1802
 9333SOL    HW239459   0.648   0.976   0.788  0.8151  1.8508 -1.5689
 9334SOL     OW39460   1.236   3.077   3.374 -0.1467  0.2359 -0.3099
 9334SOL    HW139461   1.320   3.122   3.364 -1.1376  2.3121  0.7629
 9334SOL    HW239462   1.269   2.990   3.397 -0.0461  0.4988  0.5294
 9335SOL     OW39463   0.621   4.095  17.484 -0.2168  0.2911  0.1753
 9335SOL    HW139464   0.705   4.051  17.496 -0.5624 -0.4187 -0.0296
 9335SOL    HW239465   0.624   4.187  17.511  0.0119 -0.0947  1.4752
 9336SOL     OW39466   1.073   0.924   2.139 -0.6235 -0.2685  0.2526
 9336SOL    HW139467   1.130   1.001   2.148 -0.9534 -0.0495  0.4621
 9336SOL    HW239468   1.096   0.906   2.048 -0.7873 -0.2959  0.2178
 9337SOL     OW39469   4.618   3.486   2.573  0.7032 -0.8028  0.1796
 9337SOL    HW139470   4.606   3.479   2.478 -1.2481  2.0011  0.2033
 9337SOL    HW239471   4.534   3.516   2.608  0.9759 -1.0988  1.0870
 9338SOL     OW39472   2.599   3.713   4.945 -0.2866 -0.3787  0.1542
 9338SOL    HW139473   2.649   3.681   4.870 -0.6560 -0.4040 -0.0835
 9338SOL    HW239474   2.521   3.661   4.927 -0.9446 -0.1262  2.2780
 9339SOL     OW39475   3.893   1.232   5.471 -0.3535  0.3614 -0.2380
 9339SOL    HW139476   3.814   1.287   5.472  0.3892  1.3964  1.2500
 9339SOL    HW239477   3.906   1.216   5.377  0.6639  0.0339 -0.0390
 9340SOL     OW39478   1.475   2.838   3.915  0.5277  0.0621 -0.2302
 9340SOL    HW139479   1.472   2.852   3.821  1.1613 -0.8964 -0.3932
 9340SOL    HW239480   1.497   2.925   3.949 -0.4159  0.5871 -0.9732
 9341SOL     OW39481   4.504   3.248   3.047  0.2230 -0.3275  0.7515
 9341SOL    HW139482   4.418   3.273   3.016  0.7772 -0.3671 -0.8222
 9341SOL    HW239483   4.491   3.241   3.142  1.1242  1.1480  0.9894
 9342SOL     OW39484   4.530   4.418   2.053 -0.4555  0.6722  0.0103
 9342SOL    HW139485   4.520   4.455   2.141  0.3025 -2.2497  1.3156
 9342SOL    HW239486   4.437   4.406   2.034  0.3005 -1.7143 -2.1226
 9343SOL     OW39487   2.143   1.076   8.182 -0.1157 -0.2012 -0.3475
 9343SOL    HW139488   2.078   1.053   8.116 -1.9161  0.6181  1.1441
 9343SOL    HW239489   2.096   1.062   8.265  2.2535  2.5794  1.4682
 9344SOL     OW39490   1.303   0.290   8.682  0.5871  0.0378  0.5802
 9344SOL    HW139491   1.371   0.222   8.685 -0.5418 -1.0739  0.9575
 9344SOL    HW239492   1.290   0.312   8.774  0.2244  2.4894 -0.0683
 9345SOL     OW39493   0.809   1.274  12.234  0.2129  0.2124 -0.3933
 9345SOL    HW139494   0.832   1.355  12.188 -1.8813  0.6837 -0.6394
 9345SOL    HW239495   0.773   1.308  12.316 -0.0829  2.0103 -1.2696
 9346SOL     OW39496   0.029   2.518   4.264  0.1142  0.1990  0.0481
 9346SOL    HW139497   0.125   2.516   4.270  0.0118 -0.7519  1.2140
 9346SOL    HW239498   0.009   2.570   4.186 -1.0018 -0.5738 -0.1760
 9347SOL     OW39499   0.406   0.501  15.215 -0.6640  0.1023  0.2056
 9347SOL    HW139500   0.395   0.596  15.210 -1.0758  0.1082  1.2049
 9347SOL    HW239501   0.499   0.495  15.235 -0.3965 -1.3427 -1.5077
 9348SOL     OW39502   3.480   0.039   2.168  0.6221 -0.4210 -0.1036
 9348SOL    HW139503   3.465   4.721   2.254 -1.4466 -0.8600 -0.6551
 9348SOL    HW239504   3.392   0.021   2.134  0.3412  1.0254 -0.1259
 9349SOL     OW39505   3.709   1.064  16.526  0.1934 -0.4056  0.3388
 9349SOL    HW139506   3.717   0.994  16.460 -2.6881 -0.3643 -0.0498
 9349SOL    HW239507   3.634   1.030  16.575 -1.9338  1.0365 -1.9583
 9350SOL     OW39508   1.657   1.484   5.712 -0.5724  0.3507  0.0262
 9350SOL    HW139509   1.583   1.506   5.655 -0.4392 -0.5088 -0.4697
 9350SOL    HW239510   1.726   1.481   5.646  0.2051  0.2705  0.8390
 9351SOL     OW39511   3.888   0.884   1.380 -0.3320  0.2974  0.2001
 9351SOL    HW139512   3.938   0.943   1.437 -0.0002 -1.0927  1.3797
 9351SOL    HW239513   3.801   0.924   1.380 -0.7086 -0.5206  2.0581
 9352SOL     OW39514   0.634   4.467   1.291  0.3550  0.4558  0.3000
 9352SOL    HW139515   0.717   4.496   1.330  0.1937  1.2326  0.0552
 9352SOL    HW239516   0.624   4.376   1.320 -0.5421  1.2205  2.3239
 9353SOL     OW39517   2.840   2.550   6.804 -0.0860  0.2367  0.0595
 9353SOL    HW139518   2.748   2.541   6.828  0.3948 -1.3431  1.4046
 9353SOL    HW239519   2.868   2.605   6.877  0.1484  1.1654 -0.7330
 9354SOL     OW39520   0.731   1.802  11.841 -0.0056  0.4661  0.2877
 9354SOL    HW139521   0.644   1.838  11.862 -0.6004 -1.3515  0.9162
 9354SOL    HW239522   0.737   1.725  11.897  1.2874  0.9740  0.8439
 9355SOL     OW39523   2.561   1.987   0.880  0.3055  0.3169  0.3574
 9355SOL    HW139524   2.588   2.063   0.931 -1.9887  2.5866 -1.8351
 9355SOL    HW239525   2.508   1.937   0.942 -0.8420 -0.0966 -0.9415
 9356SOL     OW39526   1.999   1.073   7.258 -0.4838  0.1923 -0.0582
 9356SOL    HW139527   2.004   1.144   7.194  1.7297 -0.4446 -0.5874
 9356SOL    HW239528   1.952   1.113   7.330 -0.5197 -0.2338  0.1586
 9357SOL     OW39529   0.614   3.231   6.453 -0.2450  0.2306 -0.1570
 9357SOL    HW139530   0.638   3.294   6.384  0.5582  1.3234  1.1216
 9357SOL    HW239531   0.577   3.161   6.400 -1.2403  0.5082  0.1791
 9358SOL     OW39532   3.794   2.138   4.577 -0.5228  0.1503  0.2102
 9358SOL    HW139533   3.796   2.059   4.523  2.6152  0.7689 -0.5482
 9358SOL    HW239534   3.803   2.094   4.662 -1.0638  3.2822  1.8898
 9359SOL     OW39535   4.180   2.919  16.210 -0.3240 -0.2028  0.2353
 9359SOL    HW139536   4.191   3.005  16.170  2.3602 -0.4870  0.3556
 9359SOL    HW239537   4.180   2.853  16.141  0.8355  0.5247 -0.4723
 9360SOL     OW39538   0.680   3.714  10.195 -0.0036 -0.2812 -0.0195
 9360SOL    HW139539   0.703   3.779  10.262  0.1177  0.5211 -0.8482
 9360SOL    HW239540   0.769   3.680  10.183 -0.4241 -1.3743  0.0279
 9361SOL     OW39541   3.153   1.817   4.718  0.0999  0.3849 -0.1383
 9361SOL    HW139542   3.147   1.744   4.656  0.1155  0.7392 -0.5567
 9361SOL    HW239543   3.203   1.877   4.661 -0.7473  0.8405 -0.4013
 9362SOL     OW39544   3.460   4.092   1.219 -0.4299  0.4863  0.4798
 9362SOL    HW139545   3.487   4.001   1.224  1.3220  1.1777  3.9156
 9362SOL    HW239546   3.461   4.112   1.313 -0.4379  0.3630  0.5063
 9363SOL     OW39547   4.561   4.049   5.506 -0.5690  0.2553 -0.5420
 9363SOL    HW139548   4.590   4.004   5.586  1.2048  0.2314 -1.1847
 9363SOL    HW239549   4.591   4.138   5.524  2.8888 -1.2099  0.8994
 9364SOL     OW39550   4.698   1.973  12.626 -1.0234 -0.3777  0.6841
 9364SOL    HW139551   4.671   2.047  12.680  0.5610  0.9763 -0.3588
 9364SOL    HW239552   4.712   1.901  12.688 -0.4441  1.1311  2.2966
 9365SOL     OW39553   1.113   0.881  14.358 -0.1234 -0.1318 -0.0944
 9365SOL    HW139554   1.095   0.829  14.279  0.3434 -2.0956  1.0922
 9365SOL    HW239555   1.200   0.918  14.347 -0.4495  0.6853  0.1159
 9366SOL     OW39556   3.889   3.331   5.259 -0.1750 -0.0672 -0.1686
 9366SOL    HW139557   3.973   3.287   5.271  0.2903  0.7628 -0.3721
 9366SOL    HW239558   3.835   3.282   5.321 -0.9751  1.4688  0.3459
 9367SOL     OW39559   2.437   0.445   7.713  0.2836  0.4905 -0.2596
 9367SOL    HW139560   2.463   0.355   7.730 -0.6337 -0.1179 -2.1522
 9367SOL    HW239561   2.343   0.443   7.696  0.5610 -0.2200 -1.7307
 9368SOL     OW39562   1.319   2.927   4.796 -0.8566  0.0627 -0.1311
 9368SOL    HW139563   1.318   2.885   4.882  2.7811  1.1031  0.4153
 9368SOL    HW239564   1.256   2.869   4.753 -0.5011  0.0269 -0.6032
 9369SOL     OW39565   3.456   4.159   0.522 -0.1888  0.5035 -0.4978
 9369SOL    HW139566   3.504   4.186   0.600 -3.1762  0.2843  1.4331
 9369SOL    HW239567   3.372   4.140   0.565 -1.5422  2.2035 -2.3694
 9370SOL     OW39568   1.541   3.453   6.563 -0.5323  0.0069  0.2317
 9370SOL    HW139569   1.531   3.501   6.645  3.8006 -0.3832  0.9768
 9370SOL    HW239570   1.569   3.512   6.493  2.6528 -1.3290  0.3581
 9371SOL     OW39571   4.352   4.037   6.119 -0.5037  0.1254  0.3288
 9371SOL    HW139572   4.397   4.041   6.035  0.9485 -0.9601  1.0564
 9371SOL    HW239573   4.340   4.130   6.138  2.0305  0.5402 -0.1213
 9372SOL     OW39574   1.851   1.611  15.116  0.8312 -0.0823 -0.2752
 9372SOL    HW139575   1.884   1.593  15.028  0.9709  1.3075 -0.5098
 9372SOL    HW239576   1.917   1.676  15.142  1.2414 -0.7842  0.4409
 9373SOL     OW39577   2.539   4.532  10.519 -0.1590  0.0028  0.0251
 9373SOL    HW139578   2.588   4.551  10.439 -1.5514  1.2174 -0.5395
 9373SOL    HW239579   2.572   4.594  10.584  1.0088 -0.3626 -0.2137
 9374SOL     OW39580   3.977   2.902   9.718 -0.7252 -0.6442  0.8493
 9374SOL    HW139581   3.987   2.978   9.775  1.6757  0.3309 -0.8631
 9374SOL    HW239582   3.967   2.832   9.782 -0.9014  2.9285  4.7163
 9375SOL     OW39583   0.525   0.002   8.048  0.1624  0.0164  0.9631
 9375SOL    HW139584   0.439   0.023   8.084 -0.8379 -1.7093 -0.4230
 9375SOL    HW239585   0.567   4.710   8.133  1.0342 -0.9627  0.3472
 9376SOL     OW39586   1.081   1.200   7.705  0.1954  0.8072  0.4982
 9376SOL    HW139587   1.101   1.157   7.789  0.9989  0.7076  0.2541
 9376SOL    HW239588   1.164   1.239   7.680  1.3175 -0.9735  1.4356
 9377SOL     OW39589   0.290   2.557   3.747 -0.1761  0.4285  0.0305
 9377SOL    HW139590   0.274   2.472   3.788  0.9175 -0.3673 -1.1814
 9377SOL    HW239591   0.197   2.573   3.733 -0.7610 -2.4035  0.6017
 9378SOL     OW39592   2.403   0.543   8.774  0.3625 -0.5299  0.4633
 9378SOL    HW139593   2.336   0.610   8.770  2.5759  1.5657 -1.5278
 9378SOL    HW239594   2.358   0.459   8.766  1.1132 -0.6200 -3.0222
 9379SOL     OW39595   0.389   1.131   4.033  0.1410  0.1683 -0.3179
 9379SOL    HW139596   0.447   1.078   3.979  0.5375  0.6737 -0.3920
 9379SOL    HW239597   0.407   1.100   4.122  1.4535 -0.8085 -0.9273
 9380SOL     OW39598   1.804   0.219   5.701 -0.1103 -0.7307 -0.4840
 9380SOL    HW139599   1.811   0.194   5.793  2.4652  1.1376 -0.1514
 9380SOL    HW239600   1.828   0.134   5.664  2.6659 -0.2968  0.3381
 9381SOL     OW39601   2.425   3.188  10.591 -0.5679 -0.3243  0.1044
 9381SOL    HW139602   2.381   3.108  10.564 -0.8651 -0.2895  0.4930
 9381SOL    HW239603   2.365   3.241  10.538 -0.1837 -0.5069 -0.5225
 9382SOL     OW39604   2.491   2.303   9.297 -0.1194 -0.2645 -1.0679
 9382SOL    HW139605   2.538   2.220   9.298  0.2261 -0.0339  0.9539
 9382SOL    HW239606   2.403   2.268   9.313  0.1576  0.7111  2.5097
 9383SOL     OW39607   3.886   4.162   8.902 -0.0996  0.2283  0.7597
 9383SOL    HW139608   3.811   4.202   8.946 -0.0224  0.6011  0.5475
 9383SOL    HW239609   3.848   4.083   8.863 -0.4534  1.7562 -1.9334
 9384SOL     OW39610   4.491   0.249   5.371 -0.0761  0.1965 -0.2105
 9384SOL    HW139611   4.525   0.198   5.297  0.0213 -0.8536  0.5652
 9384SOL    HW239612   4.501   0.337   5.334  1.2436  0.2600  0.2985
 9385SOL     OW39613   3.020   0.638   2.125  0.2042 -0.0943  0.0977
 9385SOL    HW139614   3.025   0.686   2.207  0.6352  2.4946 -1.4460
 9385SOL    HW239615   3.114   0.639   2.107 -0.3745  1.1663 -2.9162
 9386SOL     OW39616   4.680   1.097   6.344  0.2766  0.0044 -0.0277
 9386SOL    HW139617   4.607   1.134   6.294  0.3068  2.3483  1.6486
 9386SOL    HW239618   4.665   1.137   6.429 -0.6175  0.8088 -0.5639
 9387SOL     OW39619   4.679   0.032  17.664  0.1003 -0.1386 -0.2733
 9387SOL    HW139620   0.021   0.101  17.653 -0.4231  0.4578  0.3699
 9387SOL    HW239621   4.613   0.080  17.615 -0.3038  1.5410  1.8961
 9388SOL     OW39622   2.513   4.131  15.997  0.1018  0.3154  0.0109
 9388SOL    HW139623   2.460   4.079  15.937  3.1123 -1.6600 -0.8950
 9388SOL    HW239624   2.601   4.123  15.961  0.1311  0.7212 -0.0077
 9389SOL     OW39625   0.908   1.355   7.573 -0.1104  0.2097  0.0526
 9389SOL    HW139626   0.956   1.299   7.634  0.8688 -0.9652 -1.7950
 9389SOL    HW239627   0.932   1.313   7.490  0.6191  0.4654  0.1395
 9390SOL     OW39628   3.525   3.622   5.996  0.8192 -0.5487 -0.0860
 9390SOL    HW139629   3.476   3.587   6.071 -0.4347  0.1418 -0.5816
 9390SOL    HW239630   3.459   3.621   5.927 -1.9693 -1.3101  2.5681
 9391SOL     OW39631   3.702   4.704   1.042  0.3696 -0.0208  0.1280
 9391SOL    HW139632   3.631   0.020   0.990  0.1715 -1.7896 -0.9290
 9391SOL    HW239633   3.653   4.670   1.117 -0.4815 -0.3927 -0.5969
 9392SOL     OW39634   1.066   4.007   6.879 -0.3566  0.3955 -0.4026
 9392SOL    HW139635   1.053   3.968   6.966 -0.1127 -1.2765 -1.1185
 9392SOL    HW239636   0.984   3.980   6.838 -0.3141 -1.2068  0.5604
 9393SOL     OW39637   4.150   3.731   4.844 -0.1804 -0.5123  0.1915
 9393SOL    HW139638   4.172   3.818   4.813 -0.5478 -0.0649  1.1684
 9393SOL    HW239639   4.126   3.688   4.762 -0.3823  1.2852 -0.6826
 9394SOL     OW39640   2.496   3.834   5.252 -0.2585  0.1300  0.1864
 9394SOL    HW139641   2.548   3.810   5.176 -0.7868  0.1374 -0.1729
 9394SOL    HW239642   2.469   3.922   5.227  1.6345  0.3286 -1.1522
 9395SOL     OW39643   0.280   0.627   7.782  0.0038  0.1148 -0.4927
 9395SOL    HW139644   0.268   0.575   7.702  1.4298 -1.0393  0.0388
 9395SOL    HW239645   0.186   0.636   7.794  0.0973  0.9191 -0.3101
 9396SOL     OW39646   3.352   1.665  10.346 -0.6602  0.0538 -0.0317
 9396SOL    HW139647   3.312   1.752  10.349  0.3738  0.5742 -1.4962
 9396SOL    HW239648   3.369   1.646  10.254 -0.2189  1.1864 -0.1870
 9397SOL     OW39649   1.624   2.000   6.682 -0.3311  0.3752 -1.2194
 9397SOL    HW139650   1.616   2.095   6.676  3.0569  0.8522  2.1227
 9397SOL    HW239651   1.540   1.969   6.717  0.9924 -1.8616  0.0119
 9398SOL     OW39652   2.527   1.244  14.857 -0.1975 -0.4397 -0.2365
 9398SOL    HW139653   2.580   1.168  14.835  0.7798 -0.3049  1.6787
 9398SOL    HW239654   2.443   1.211  14.825 -0.1420  0.5136 -1.3717
 9399SOL     OW39655   2.400   1.932   1.092  0.2661 -0.0658  0.1906
 9399SOL    HW139656   2.317   1.946   1.047 -0.3953 -0.1352  1.3999
 9399SOL    HW239657   2.369   1.938   1.182 -0.1131 -0.9539  0.1179
 9400SOL     OW39658   3.221   0.604   6.991 -0.0307  0.2585 -0.0516
 9400SOL    HW139659   3.136   0.620   7.032 -0.7143 -1.5176 -0.7904
 9400SOL    HW239660   3.235   0.669   6.923 -0.5007 -0.6921 -1.0644
 9401SOL     OW39661   2.812   0.677   1.959 -0.6489  0.3017 -0.3320
 9401SOL    HW139662   2.864   0.716   1.888  0.9652  1.4173  1.4725
 9401SOL    HW239663   2.880   0.671   2.026  0.1489  0.3610 -1.1275
 9402SOL     OW39664   2.713   0.843   1.661 -0.3973  0.5709 -0.1216
 9402SOL    HW139665   2.650   0.895   1.611 -1.4548 -0.5687  0.0357
 9402SOL    HW239666   2.658   0.784   1.712 -2.9171  1.0977 -2.1926
 9403SOL     OW39667   3.714   3.049   1.539 -0.3556 -0.3538  0.0751
 9403SOL    HW139668   3.765   3.108   1.595  0.7729 -0.8903 -0.3801
 9403SOL    HW239669   3.660   3.007   1.606  0.4226 -0.4559  0.6326
 9404SOL     OW39670   4.380   3.632  13.007  0.2828  0.2649  0.1261
 9404SOL    HW139671   4.290   3.623  13.038  0.1257 -2.0316 -1.0254
 9404SOL    HW239672   4.355   3.688  12.934  0.0850  1.1251  0.8491
 9405SOL     OW39673   0.603   0.192   5.150 -0.3978  0.1908  0.3234
 9405SOL    HW139674   0.621   0.284   5.169 -0.7942  0.0795  1.2111
 9405SOL    HW239675   0.604   0.159   5.240 -0.7073  0.4237  0.4093
 9406SOL     OW39676   2.390   3.166  12.484 -0.4740  0.1215 -1.3256
 9406SOL    HW139677   2.370   3.212  12.403 -0.6000  1.4066 -0.5658
 9406SOL    HW239678   2.485   3.171  12.498 -0.6605 -1.0174  0.4335
 9407SOL     OW39679   3.738   0.493  11.812  0.6116  0.2380 -0.1068
 9407SOL    HW139680   3.672   0.559  11.791  1.1447  1.5494  2.3011
 9407SOL    HW239681   3.801   0.540  11.867  0.9724 -1.3354  0.8170
 9408SOL     OW39682   0.132   2.199   7.094 -0.1002  0.3764 -0.4074
 9408SOL    HW139683   0.054   2.145   7.091  0.6660 -0.7799  0.7326
 9408SOL    HW239684   0.162   2.196   7.003 -1.2513 -0.4856 -0.7392
 9409SOL     OW39685   0.764   2.119  15.066 -0.3764 -0.0259 -0.3597
 9409SOL    HW139686   0.765   2.041  15.010  1.0031 -0.5544  0.4125
 9409SOL    HW239687   0.853   2.118  15.100 -0.4120  1.7322 -0.1839
 9410SOL     OW39688   0.582   2.602   9.837 -0.2934  0.3913 -0.8980
 9410SOL    HW139689   0.492   2.609   9.867  0.0263  0.5173  0.0197
 9410SOL    HW239690   0.621   2.605   9.924 -2.6826 -2.1825  0.2395
 9411SOL     OW39691   2.280   2.305  12.617  0.0977  0.0955  0.2045
 9411SOL    HW139692   2.242   2.377  12.568  3.2191  2.1908  0.8643
 9411SOL    HW239693   2.223   2.234  12.588 -1.6394  1.7130 -0.2618
 9412SOL     OW39694   2.776   4.148   8.433 -0.3417  0.0968  0.1525
 9412SOL    HW139695   2.804   4.186   8.516  4.1199 -0.5137 -1.0229
 9412SOL    HW239696   2.779   4.056   8.460 -0.4911  0.2912  0.8130
 9413SOL     OW39697   3.811   4.515   8.409 -0.0849  0.7863 -0.1102
 9413SOL    HW139698   3.731   4.475   8.375  0.1405  0.4220 -0.2102
 9413SOL    HW239699   3.815   4.477   8.497  0.2975  0.1093 -0.4226
 9414SOL     OW39700   3.660   1.181  15.097  0.9426  0.6434 -0.3710
 9414SOL    HW139701   3.633   1.089  15.097  3.4467 -0.0925  0.9724
 9414SOL    HW239702   3.581   1.224  15.130 -0.8277 -1.2810 -2.1203
 9415SOL     OW39703   1.760   3.261  13.942 -0.1603 -0.2645 -0.0371
 9415SOL    HW139704   1.791   3.293  14.027  0.3098 -0.4274 -0.1487
 9415SOL    HW239705   1.803   3.176  13.933  1.9719  0.8286  0.0259
 9416SOL     OW39706   3.416   1.844  17.513 -0.0430 -0.5614 -0.7120
 9416SOL    HW139707   3.447   1.759  17.482  2.5458 -0.6125  1.9809
 9416SOL    HW239708   3.362   1.818  17.587 -1.8191  1.3596 -1.3401
 9417SOL     OW39709   0.790   1.678  10.877 -0.3849 -0.3237 -0.1921
 9417SOL    HW139710   0.785   1.616  10.805  1.2130  0.1501 -0.7051
 9417SOL    HW239711   0.811   1.616  10.947 -3.2222 -0.6054  0.3943
 9418SOL     OW39712   1.226   2.640  14.320 -0.9247  0.1055 -0.1206
 9418SOL    HW139713   1.260   2.648  14.231  0.0489 -0.5839  0.1910
 9418SOL    HW239714   1.132   2.656  14.316 -0.4418  2.7171 -0.9736
 9419SOL     OW39715   2.845   1.735   4.957 -0.6398 -0.3028  0.2237
 9419SOL    HW139716   2.766   1.683   4.946 -0.7836  0.1804 -1.0274
 9419SOL    HW239717   2.907   1.686   4.903 -0.5114  2.0553 -1.7643
 9420SOL     OW39718   1.982   3.085   6.644 -0.4074  0.3721  0.0226
 9420SOL    HW139719   2.056   3.146   6.651 -0.7871  1.1012 -2.2097
 9420SOL    HW239720   1.915   3.147   6.616 -0.7564  0.1949  0.4858
 9421SOL     OW39721   1.412   0.756  10.248  0.4395 -0.5646 -0.5803
 9421SOL    HW139722   1.433   0.849  10.241  0.4991 -0.6186 -1.1062
 9421SOL    HW239723   1.490   0.714  10.214  1.5164 -0.1747  1.4125
 9422SOL     OW39724   0.380   4.213   4.577 -0.2127 -0.6429 -0.1314
 9422SOL    HW139725   0.342   4.246   4.659  0.8400  0.4251 -0.0871
 9422SOL    HW239726   0.356   4.275   4.509  0.8457 -0.1832 -0.0887
 9423SOL     OW39727   3.129   4.695   4.075 -0.1592 -0.0309 -0.6327
 9423SOL    HW139728   3.195   4.668   4.138 -0.2369 -1.1103 -1.0093
 9423SOL    HW239729   3.189   4.709   4.001  0.8533 -0.9116  0.0202
 9424SOL     OW39730   2.275   2.458   8.578 -0.5084  0.3531  0.4882
 9424SOL    HW139731   2.267   2.382   8.520  1.8315  0.9816 -0.6836
 9424SOL    HW239732   2.205   2.509   8.537  0.3321  0.2964 -1.0329
 9425SOL     OW39733   2.769   4.059   9.627 -0.5395 -0.0366 -0.6142
 9425SOL    HW139734   2.691   4.101   9.665  1.0738  1.2334  1.3160
 9425SOL    HW239735   2.729   4.045   9.541 -1.8632  1.2906 -0.2144
 9426SOL     OW39736   1.529   1.880  14.463 -0.1922 -0.2830 -0.0711
 9426SOL    HW139737   1.580   1.961  14.466 -0.1249 -0.2668 -1.4592
 9426SOL    HW239738   1.467   1.901  14.533  1.4999  1.4323  0.9035
 9427SOL     OW39739   0.499   0.077   8.398 -0.0161 -0.1903 -0.1868
 9427SOL    HW139740   0.440   0.069   8.473  0.4990 -0.1385  0.2269
 9427SOL    HW239741   0.582   0.090   8.445  0.1999  1.2509 -0.9446
 9428SOL     OW39742   4.344   2.248   5.910  0.0285  0.1781 -0.2651
 9428SOL    HW139743   4.373   2.265   5.820  1.9687 -0.0382  0.3388
 9428SOL    HW239744   4.427   2.238   5.956  0.8790 -0.4294 -1.9443
 9429SOL     OW39745   2.160   2.182   3.071 -0.2703  0.0347  0.0643
 9429SOL    HW139746   2.212   2.124   3.127  4.2929  1.1511 -3.0305
 9429SOL    HW239747   2.212   2.155   2.996 -1.1287  1.3221 -0.9839
 9430SOL     OW39748   2.495   0.874   7.796  0.2520  0.0065  0.1083
 9430SOL    HW139749   2.573   0.929   7.784 -0.2398  0.9944  1.4774
 9430SOL    HW239750   2.530   0.790   7.825  1.0683  0.1659 -0.4142
 9431SOL     OW39751   1.409   2.955   0.133  0.0898 -0.1187  0.3145
 9431SOL    HW139752   1.416   2.868   0.092 -1.4684  0.9851 -2.3249
 9431SOL    HW239753   1.409   3.005   0.052  1.1504 -0.0457  0.3662
 9432SOL     OW39754   4.180   2.487  15.530  0.4415  0.1865  0.2709
 9432SOL    HW139755   4.181   2.411  15.472 -1.1975  1.0796 -0.9292
 9432SOL    HW239756   4.242   2.452  15.594 -1.8894 -0.1907  2.3157
 9433SOL     OW39757   0.774   0.186  17.524  0.7296 -0.0160  0.5337
 9433SOL    HW139758   0.827   0.147  17.594  0.9067 -1.1348 -0.2332
 9433SOL    HW239759   0.698   0.129  17.516  1.3472 -0.5569 -1.4072
 9434SOL     OW39760   0.311   4.278  11.071  0.2361 -0.0715 -0.2525
 9434SOL    HW139761   0.355   4.337  11.009 -0.6044  0.7928 -0.0157
 9434SOL    HW239762   0.302   4.339  11.144 -2.0741  0.4520 -0.9951
 9435SOL     OW39763   4.622   2.627   2.724 -0.2067  0.6554 -0.6269
 9435SOL    HW139764   4.684   2.655   2.657  1.5834 -1.5063  0.1134
 9435SOL    HW239765   4.626   2.705   2.779  0.3288  0.6510 -0.6566
 9436SOL     OW39766   0.213   1.318   4.341  0.6707 -0.4396 -0.6663
 9436SOL    HW139767   0.218   1.403   4.297 -1.5850 -0.3879 -0.7935
 9436SOL    HW239768   0.182   1.326   4.431  0.5362 -0.0514 -0.7492
 9437SOL     OW39769   2.660   2.149   1.068 -0.1396  0.6739 -0.0325
 9437SOL    HW139770   2.608   2.205   1.127  0.4573  1.0244  0.1656
 9437SOL    HW239771   2.725   2.118   1.132 -0.3030  2.2274  0.8936
 9438SOL     OW39772   2.218   2.304   0.985  0.3385  0.0252  0.5169
 9438SOL    HW139773   2.216   2.265   1.073 -1.3483 -1.5555 -0.2446
 9438SOL    HW239774   2.137   2.353   0.973  1.6036  1.4610 -2.2900
 9439SOL     OW39775   0.140   3.820  14.480  0.0857  0.4210  0.4842
 9439SOL    HW139776   0.173   3.883  14.544  2.8344 -0.5206  0.0352
 9439SOL    HW239777   0.047   3.815  14.501  0.4398  1.1548  2.2670
 9440SOL     OW39778   0.271   1.726   5.564 -0.1826 -0.3743 -0.2869
 9440SOL    HW139779   0.199   1.752   5.620 -0.7067  0.8519 -1.5129
 9440SOL    HW239780   0.245   1.635   5.549  0.2925 -0.7327  1.1273
 9441SOL     OW39781   2.672   1.392   4.562  0.0645 -0.0866 -0.2992
 9441SOL    HW139782   2.667   1.298   4.582 -1.0270 -0.0098 -0.1926
 9441SOL    HW239783   2.603   1.436   4.612  0.6162  0.5092 -0.0612
 9442SOL     OW39784   1.713   1.206   2.538  0.7421  0.3049  0.2965
 9442SOL    HW139785   1.638   1.215   2.596  1.6590  0.0340  1.5344
 9442SOL    HW239786   1.764   1.148   2.595  0.9428 -0.1726 -0.3647
 9443SOL     OW39787   1.804   2.896   8.454  0.2388  0.0345  0.3057
 9443SOL    HW139788   1.855   2.853   8.522  0.0810  1.1289  1.1204
 9443SOL    HW239789   1.833   2.985   8.475  1.1408  0.2877 -2.0779
 9444SOL     OW39790   1.794   3.212   8.536  0.7213  0.2099 -0.1143
 9444SOL    HW139791   1.860   3.199   8.604  0.0514  0.9051  0.6772
 9444SOL    HW239792   1.846   3.245   8.463  0.1664 -0.3564 -0.7621
 9445SOL     OW39793   4.241   0.605   1.318 -0.4550  0.7009  0.0093
 9445SOL    HW139794   4.238   0.535   1.384 -1.0158  1.4185  0.7422
 9445SOL    HW239795   4.229   0.687   1.365  3.1604  2.3815 -1.9826
 9446SOL     OW39796   3.646   2.272   4.198 -0.1932 -0.1395 -0.3130
 9446SOL    HW139797   3.581   2.306   4.136  1.5534  0.2102 -1.9476
 9446SOL    HW239798   3.701   2.348   4.218 -1.6210  0.8949 -0.2209
 9447SOL     OW39799   4.629   0.306  16.241 -0.3516 -0.3639  0.3755
 9447SOL    HW139800   4.640   0.300  16.336  3.8304  0.7912 -0.0611
 9447SOL    HW239801   4.631   0.401  16.233  1.2870 -0.0406  4.5918
 9448SOL     OW39802   4.474   2.649   2.052 -0.1328 -0.8796  0.0578
 9448SOL    HW139803   4.474   2.580   1.986  1.5940 -0.0857 -0.7529
 9448SOL    HW239804   4.402   2.697   2.012  1.3641  0.5124 -0.9587
 9449SOL     OW39805   3.944   0.803  10.155 -0.1801  0.2193 -0.2159
 9449SOL    HW139806   3.994   0.884  10.165  0.7728 -0.4582  0.5887
 9449SOL    HW239807   3.937   0.766  10.243 -0.3212 -0.2635 -0.4295
 9450SOL     OW39808   2.968   3.796   6.192 -1.1694  0.2349 -0.6878
 9450SOL    HW139809   2.911   3.814   6.266 -0.2101 -3.1603  0.8767
 9450SOL    HW239810   2.991   3.706   6.214  0.2461  0.4872 -1.1734
 9451SOL     OW39811   1.017   0.715   2.501  0.1854  0.6607 -0.4435
 9451SOL    HW139812   1.051   0.628   2.521 -0.2185  1.3148  3.0384
 9451SOL    HW239813   0.998   0.705   2.408  1.6831 -0.9240 -0.5875
 9452SOL     OW39814   0.132   0.660  11.014 -0.3321  0.0958  0.2445
 9452SOL    HW139815   0.224   0.664  11.040 -0.1543  2.4394 -0.7790
 9452SOL    HW239816   0.130   0.710  10.932  0.4645 -0.7404 -0.2865
 9453SOL     OW39817   1.389   3.034  17.569 -0.0859  0.2163  0.6750
 9453SOL    HW139818   1.444   3.087  17.511  1.0529 -0.8955  0.7289
 9453SOL    HW239819   1.437   2.951  17.566  0.2371  0.3827  1.2454
 9454SOL     OW39820   0.721   0.447  17.429 -0.3759  0.2743 -0.4559
 9454SOL    HW139821   0.755   0.363  17.457 -0.5228 -0.8489 -3.5834
 9454SOL    HW239822   0.669   0.473  17.504  0.9646  0.1654  0.5065
 9455SOL     OW39823   0.067   0.247   1.795 -0.5560  0.1792  0.3084
 9455SOL    HW139824   4.715   0.188   1.793 -0.8286  0.4872  1.4537
 9455SOL    HW239825   0.056   0.286   1.882 -4.3859 -1.0536  0.3606
 9456SOL     OW39826   0.404   4.434   1.831 -0.3784 -0.4816  0.0557
 9456SOL    HW139827   0.409   4.343   1.860  0.7534 -0.4658 -0.0883
 9456SOL    HW239828   0.355   4.427   1.749 -0.6341 -1.0916  0.2589
 9457SOL     OW39829   1.837   0.605   4.309 -0.1263 -0.3151 -0.4487
 9457SOL    HW139830   1.787   0.544   4.363 -1.1564 -0.4403 -1.5489
 9457SOL    HW239831   1.885   0.658   4.373 -1.5252  0.3147  0.0664
 9458SOL     OW39832   4.110   3.897  11.008  0.3840  0.2101 -0.0073
 9458SOL    HW139833   4.076   3.848  11.083 -1.0947 -1.8627 -2.0205
 9458SOL    HW239834   4.029   3.913  10.960  0.4536  0.9151  0.1060
 9459SOL     OW39835   0.812   1.759  14.061 -0.1133 -0.0083 -0.1511
 9459SOL    HW139836   0.759   1.827  14.019 -0.1958 -0.0124 -0.0553
 9459SOL    HW239837   0.834   1.711  13.981 -2.7540 -1.1372 -0.2156
 9460SOL     OW39838   3.630   1.593   2.841  0.4016 -0.4076  0.1258
 9460SOL    HW139839   3.601   1.525   2.781  0.0670  0.7066 -0.9839
 9460SOL    HW239840   3.722   1.570   2.848  0.5933 -0.4566 -2.7707
 9461SOL     OW39841   4.400   2.303  16.144 -0.6119 -0.2951 -0.6985
 9461SOL    HW139842   4.363   2.309  16.056  1.0943 -1.1056 -1.4767
 9461SOL    HW239843   4.429   2.212  16.139  2.7580  0.7871 -1.1361
 9462SOL     OW39844   0.483   2.518   1.942 -0.2002  0.5473  0.5516
 9462SOL    HW139845   0.522   2.485   2.023 -3.1014 -3.4012  0.3524
 9462SOL    HW239846   0.451   2.606   1.963  2.2685  1.6222 -0.2211
 9463SOL     OW39847   0.928   1.803   3.480  0.5302  0.8823  0.0247
 9463SOL    HW139848   1.013   1.845   3.477  0.7651  0.4291  0.3576
 9463SOL    HW239849   0.887   1.847   3.554 -2.1830  1.9509 -2.0867
 9464SOL     OW39850   1.041   4.406   9.016  0.0451 -0.4618  0.7237
 9464SOL    HW139851   1.043   4.344   8.943 -1.2802  2.2225 -1.5711
 9464SOL    HW239852   0.952   4.443   9.019 -0.2218 -1.3308  3.5299
 9465SOL     OW39853   1.717   0.025   3.229  0.3066  0.1484 -0.5107
 9465SOL    HW139854   1.702   4.684   3.159  0.8209  0.2395 -0.7025
 9465SOL    HW239855   1.628   0.029   3.265  0.4584 -1.3273  0.0421
 9466SOL     OW39856   4.440   4.300  14.188  0.7396  0.7796  0.1792
 9466SOL    HW139857   4.418   4.300  14.095 -1.1029 -0.1742  0.6192
 9466SOL    HW239858   4.446   4.396  14.192  1.3961  0.8325 -1.7101
 9467SOL     OW39859   3.048   2.726  17.097  0.1033 -0.4788  0.5434
 9467SOL    HW139860   2.992   2.667  17.148 -0.2217  1.6277  2.6031
 9467SOL    HW239861   3.012   2.719  17.008 -2.1003 -0.1127  1.3921
 9468SOL     OW39862   3.066   3.573   6.488  0.2207 -0.0172  0.2825
 9468SOL    HW139863   3.135   3.514   6.457  0.7655  1.0099 -0.4106
 9468SOL    HW239864   3.001   3.579   6.419  1.9226  1.5641 -1.1715
 9469SOL     OW39865   3.851   2.239   2.925  0.2240 -0.3782 -0.0879
 9469SOL    HW139866   3.863   2.322   2.879  0.3008 -0.7424 -0.7306
 9469SOL    HW239867   3.864   2.176   2.854 -0.4177 -1.7753  1.0066
 9470SOL     OW39868   1.881   2.010   0.803  0.0735 -0.3043  0.2472
 9470SOL    HW139869   1.942   1.939   0.823 -0.0844 -0.4058  0.3725
 9470SOL    HW239870   1.830   1.999   0.884  1.7938 -2.5930  1.0165
 9471SOL     OW39871   0.286   3.024  14.910  0.6713  0.4267 -0.3656
 9471SOL    HW139872   0.197   3.009  14.939  0.6138  2.0300  0.3157
 9471SOL    HW239873   0.281   3.086  14.836 -1.0784  1.1119  0.3344
 9472SOL     OW39874   2.691   0.357  13.369  0.2853  0.1564 -0.1117
 9472SOL    HW139875   2.745   0.418  13.419 -0.0429 -0.6432  1.2125
 9472SOL    HW239876   2.751   0.285  13.352  1.1600  0.3755  2.0563
 9473SOL     OW39877   2.389   0.201  14.366  0.6582  0.2407  0.0265
 9473SOL    HW139878   2.377   0.108  14.346  1.3004  0.0246  0.6155
 9473SOL    HW239879   2.464   0.212  14.307  0.8863 -0.2766  0.2150
 9474SOL     OW39880   0.089   3.726   3.668  0.1912  0.0772  0.3870
 9474SOL    HW139881   0.085   3.662   3.598  0.9092  0.3152  0.1361
 9474SOL    HW239882   0.017   3.712   3.730 -0.5373  1.0404 -0.2360
 9475SOL     OW39883   2.054   3.164  12.561  0.5998  0.2470  0.2936
 9475SOL    HW139884   2.001   3.216  12.500  2.0282  0.9241 -0.3621
 9475SOL    HW239885   1.988   3.097  12.577 -0.5784  1.0077 -1.3803
 9476SOL     OW39886   3.657   4.372  13.491 -0.0538 -0.1851  0.4218
 9476SOL    HW139887   3.669   4.466  13.480  2.2083 -0.5163  0.0918
 9476SOL    HW239888   3.718   4.334  13.429  1.0042  2.9680 -0.4610
 9477SOL     OW39889   4.032   1.661   2.671  0.3992  0.1602 -0.0548
 9477SOL    HW139890   3.964   1.705   2.620 -0.3650 -1.4658 -0.4321
 9477SOL    HW239891   4.095   1.729   2.648 -0.1144  0.5192 -0.4002
 9478SOL     OW39892   3.103   1.490   7.571 -0.0553  0.3748  0.3779
 9478SOL    HW139893   3.137   1.459   7.487 -3.1820 -2.7081  0.2654
 9478SOL    HW239894   3.186   1.482   7.619  0.8960 -0.3079 -1.3816
 9479SOL     OW39895   4.686   2.694  13.614  0.3216 -0.2163  0.0056
 9479SOL    HW139896   0.028   2.692  13.684 -1.0789 -0.2427  1.3042
 9479SOL    HW239897   0.013   2.737  13.544 -1.5629  2.9156  0.5832
 9480SOL     OW39898   3.623   3.825   7.342  0.4375  0.2658  0.7403
 9480SOL    HW139899   3.694   3.884   7.318  0.0170 -0.3214 -1.9064
 9480SOL    HW239900   3.582   3.880   7.408 -0.0654 -0.4495  1.0299
 9481SOL     OW39901   3.324   1.773   3.597  0.7475  0.2142  0.0540
 9481SOL    HW139902   3.320   1.679   3.616  0.0817  0.0465 -0.9118
 9481SOL    HW239903   3.282   1.808   3.676 -2.0028 -2.3137 -0.2512
 9482SOL     OW39904   0.295   0.717   8.562  0.0729 -0.5869  0.4962
 9482SOL    HW139905   0.226   0.766   8.518  2.3535  0.3242 -2.0544
 9482SOL    HW239906   0.377   0.756   8.532 -1.0724  0.6801 -0.9718
 9483SOL     OW39907   1.057   0.117  13.524 -0.2731 -0.2127 -0.2785
 9483SOL    HW139908   1.145   0.078  13.523 -0.2997 -0.2265 -1.6274
 9483SOL    HW239909   1.007   0.067  13.459  1.8953 -1.4036 -1.0378
 9484SOL     OW39910   0.587   0.704   0.858 -0.0141  0.0199  0.2906
 9484SOL    HW139911   0.494   0.686   0.841 -0.7073  1.5217  2.4599
 9484SOL    HW239912   0.611   0.616   0.885 -2.6956  0.1944  3.2715
 9485SOL     OW39913   0.008   1.955  11.357  0.1580 -0.2201  0.5346
 9485SOL    HW139914   0.047   2.019  11.298  0.4705 -0.6215  0.3000
 9485SOL    HW239915   4.662   1.913  11.305  0.2467 -1.5735  1.4893
 9486SOL     OW39916   3.577   3.907   8.518  0.2258  0.0101 -0.6583
 9486SOL    HW139917   3.598   3.830   8.466 -0.6348 -0.6256 -0.0642
 9486SOL    HW239918   3.563   3.865   8.603  0.8573 -0.6020 -0.8599
 9487SOL     OW39919   1.002   3.378   1.788 -0.1045  0.1380  0.0988
 9487SOL    HW139920   1.059   3.439   1.835 -0.2687  0.1686  0.2609
 9487SOL    HW239921   1.043   3.293   1.805  2.3774  1.3651  0.2576
 9488SOL     OW39922   3.857   4.386   2.820 -0.0248 -0.8665 -0.1186
 9488SOL    HW139923   3.769   4.423   2.814  0.0013 -0.6213  1.1355
 9488SOL    HW239924   3.838   4.316   2.883 -0.7812 -1.9377 -1.5300
 9489SOL     OW39925   1.087   4.015   6.293 -0.2155 -0.0070 -0.2330
 9489SOL    HW139926   1.019   3.957   6.328 -1.0312 -0.0005 -1.7843
 9489SOL    HW239927   1.056   4.104   6.307 -0.3159  0.1591 -1.5349
 9490SOL     OW39928   0.310   1.838   8.277 -0.1179 -0.3030  0.3426
 9490SOL    HW139929   0.264   1.919   8.258 -0.4834 -0.1921  1.6807
 9490SOL    HW239930   0.257   1.808   8.351 -0.3991 -0.2515  0.1605
 9491SOL     OW39931   2.848   1.523   8.640 -0.2895  0.0391 -0.2926
 9491SOL    HW139932   2.845   1.522   8.544  0.1470  1.2229 -0.3077
 9491SOL    HW239933   2.814   1.437   8.667  0.3132 -0.5089 -1.2339
 9492SOL     OW39934   1.080   3.447   3.590 -0.3789 -0.0830 -0.7160
 9492SOL    HW139935   1.097   3.491   3.674 -2.3181 -1.7401  0.5427
 9492SOL    HW239936   1.169   3.428   3.560 -0.3814  1.5430 -1.7548
 9493SOL     OW39937   0.891   4.533  11.317  0.2128 -0.3373  0.1748
 9493SOL    HW139938   0.945   4.544  11.239  0.6225  0.7529  0.6120
 9493SOL    HW239939   0.858   4.447  11.290 -1.1688 -0.4763  2.3450
 9494SOL     OW39940   3.314   4.421  16.352  0.1177  0.2237 -0.3246
 9494SOL    HW139941   3.299   4.329  16.328  2.4693  0.2759 -2.0195
 9494SOL    HW239942   3.317   4.458  16.263 -1.0421 -1.2155 -0.9775
 9495SOL     OW39943   1.011   0.357  16.701  0.2025  0.1094 -0.6590
 9495SOL    HW139944   1.024   0.373  16.794  0.9533  1.8699 -1.0484
 9495SOL    HW239945   0.983   0.266  16.708  0.7520  0.1463  1.8594
 9496SOL     OW39946   0.584   1.818  17.679 -0.2078  0.1570  0.1867
 9496SOL    HW139947   0.500   1.780   0.007 -0.1923  0.5563  0.9101
 9496SOL    HW239948   0.575   1.815  17.583  0.4893 -0.6198  0.1406
 9497SOL     OW39949   0.663   0.742   3.927 -0.5726 -0.0935 -0.4841
 9497SOL    HW139950   0.727   0.763   3.995 -2.7045  0.4645  1.3642
 9497SOL    HW239951   0.619   0.665   3.960 -1.0625  0.4095  0.0349
 9498SOL     OW39952   3.763   1.836   4.129  0.5466  0.1389  0.5089
 9498SOL    HW139953   3.820   1.909   4.105 -1.5638  1.8967  0.8506
 9498SOL    HW239954   3.818   1.795   4.196 -1.6536  0.8773  2.8059
 9499SOL     OW39955   4.092   0.115   5.318 -0.3504  0.0704  0.1592
 9499SOL    HW139956   4.169   0.105   5.263 -0.4604 -0.1206  0.0392
 9499SOL    HW239957   4.026   0.120   5.249 -0.0591 -0.6805 -0.1680
 9500SOL     OW39958   4.657   3.720   2.167 -0.0675 -0.2536 -0.0396
 9500SOL    HW139959   4.587   3.778   2.197 -2.1931 -2.9875  0.2642
 9500SOL    HW239960   4.651   3.742   2.074 -0.1873 -0.6582 -0.1265
 9501SOL     OW39961   0.183   2.287   8.862 -0.5824  0.3411 -0.1913
 9501SOL    HW139962   0.222   2.215   8.813 -1.6919 -0.7238  0.5011
 9501SOL    HW239963   0.260   2.343   8.848  0.5561 -1.3603 -0.7822
 9502SOL     OW39964   0.027   0.553   1.489 -0.2288  0.5536  0.0075
 9502SOL    HW139965   4.687   0.486   1.516  2.0350 -1.1778  1.0053
 9502SOL    HW239966   4.702   0.628   1.454 -1.0790  0.2924  0.6097
 9503SOL     OW39967   3.118   3.751   2.587  0.2424  0.7313 -0.3779
 9503SOL    HW139968   3.156   3.829   2.626 -0.9905  1.2261 -0.1642
 9503SOL    HW239969   3.065   3.795   2.520 -2.4548 -0.8684  0.6841
 9504SOL     OW39970   1.202   1.965   2.416  0.0006  0.4814 -0.0511
 9504SOL    HW139971   1.259   2.031   2.456 -0.7056  0.5921  0.7768
 9504SOL    HW239972   1.137   1.943   2.483  2.2471  0.2684  2.0313
 9505SOL     OW39973   2.556   4.478  13.090 -0.2026 -0.3618  0.0400
 9505SOL    HW139974   2.544   4.570  13.066 -0.4574 -0.4474 -0.1689
 9505SOL    HW239975   2.479   4.455  13.142  0.8459 -2.3252  0.7171
 9506SOL     OW39976   0.119   3.706   8.286  0.0367  0.3582 -0.0507
 9506SOL    HW139977   0.030   3.690   8.319  0.5607 -0.8729  0.8067
 9506SOL    HW239978   0.165   3.643   8.342 -1.4616 -1.0775 -0.4287
 9507SOL     OW39979   3.889   1.980   7.986 -0.2926  0.1519  0.5442
 9507SOL    HW139980   3.881   1.981   8.082  3.5499 -2.0311  0.8665
 9507SOL    HW239981   3.972   1.934   7.981 -1.3452 -1.5593 -0.7430
 9508SOL     OW39982   2.900   1.295  16.898 -0.3186  0.4950 -0.2896
 9508SOL    HW139983   2.836   1.366  16.910 -0.3940  0.2480  0.7242
 9508SOL    HW239984   2.921   1.257  16.983  1.4471 -0.7642 -1.3027
 9509SOL     OW39985   2.847   2.266   4.210  0.5906 -0.1292  0.2253
 9509SOL    HW139986   2.834   2.309   4.125  0.2499 -0.8316 -0.0741
 9509SOL    HW239987   2.863   2.341   4.268  0.8674  1.3220 -1.6904
 9510SOL     OW39988   0.526   0.197   7.852 -0.1344  0.6616  0.2454
 9510SOL    HW139989   0.507   0.129   7.917 -0.5302 -0.2630 -0.8349
 9510SOL    HW239990   0.606   0.162   7.811  0.1531  0.8516  0.6414
 9511SOL     OW39991   2.795   4.225   4.972 -0.0765  0.0278 -0.6562
 9511SOL    HW139992   2.825   4.264   5.054  1.1442 -0.7037 -0.7482
 9511SOL    HW239993   2.823   4.292   4.910  2.0435  0.7395  1.0849
 9512SOL     OW39994   3.284   1.472   6.935  0.4226  0.1831  0.4438
 9512SOL    HW139995   3.223   1.484   6.862  2.1716  3.0170 -0.5632
 9512SOL    HW239996   3.307   1.564   6.948  0.4909 -0.0409  1.8828
 9513SOL     OW39997   1.108   4.605   3.184 -0.0394 -0.3047  0.1520
 9513SOL    HW139998   1.068   4.524   3.217  2.6803 -1.4880  0.6036
 9513SOL    HW239999   1.029   4.658   3.185  0.8901  1.0404  1.3290
 9514SOL     OW40000   2.119   1.715   3.192  0.2548 -0.0533 -0.2182
 9514SOL    HW140001   2.067   1.638   3.169  1.5721 -1.8212  2.5748
 9514SOL    HW240002   2.197   1.672   3.227 -1.0664 -0.4987  2.1729
 9515SOL     OW40003   3.674   0.147  10.416  0.3882 -0.7369 -0.1090
 9515SOL    HW140004   3.736   0.080  10.443  1.6227 -0.0940 -1.3214
 9515SOL    HW240005   3.738   0.209  10.380  1.8047 -0.5914  2.6265
 9516SOL     OW40006   4.171   1.475   2.986 -0.0854  0.2846 -0.3013
 9516SOL    HW140007   4.261   1.478   2.952 -1.0417  1.3837 -2.6932
 9516SOL    HW240008   4.170   1.382   3.012  0.9682  0.2102 -0.5172
 9517SOL     OW40009   3.273   4.410   0.712 -0.1930  0.5417  0.8274
 9517SOL    HW140010   3.193   4.374   0.749  0.0052 -0.1757  0.5568
 9517SOL    HW240011   3.328   4.333   0.723 -0.0464  0.5887  0.4492
 9518SOL     OW40012   1.724   1.337   7.815 -0.0168  0.7221  0.5550
 9518SOL    HW140013   1.685   1.410   7.768 -0.4505  0.4379  0.4641
 9518SOL    HW240014   1.662   1.328   7.888 -0.4708  0.4187  0.1326
 9519SOL     OW40015   2.791   3.960   6.054 -0.0436  0.4697 -0.5392
 9519SOL    HW140016   2.846   3.887   6.082 -1.4990 -0.1833  0.6653
 9519SOL    HW240017   2.828   3.990   5.971 -0.5769 -2.3106 -1.7501
 9520SOL     OW40018   4.258   4.356  10.621  0.0336 -0.8168 -0.2640
 9520SOL    HW140019   4.291   4.361  10.711 -2.2402 -1.3187  0.5844
 9520SOL    HW240020   4.312   4.412  10.565 -0.1420  1.3928  1.7801
 9521SOL     OW40021   1.827   3.983   3.974 -0.0043 -0.2982  0.2536
 9521SOL    HW140022   1.774   3.930   4.034  1.2574  0.4082  1.9649
 9521SOL    HW240023   1.889   4.023   4.034 -0.7526  0.5635  0.4536
 9522SOL     OW40024   0.121   3.215   6.763 -0.1362  0.6507 -0.8010
 9522SOL    HW140025   0.032   3.202   6.732 -1.1309  2.4761  1.3613
 9522SOL    HW240026   0.097   3.240   6.852  1.4080  0.3040 -0.2827
 9523SOL     OW40027   0.770   3.235   2.304 -0.5007 -0.0343 -0.3768
 9523SOL    HW140028   0.840   3.287   2.263 -0.5102  0.1524 -0.1585
 9523SOL    HW240029   0.690   3.286   2.291 -0.8614 -0.2832  0.8735
 9524SOL     OW40030   3.875   2.792   3.857 -0.2823  0.0298  0.6372
 9524SOL    HW140031   3.850   2.877   3.895 -3.2829 -1.7849  2.6581
 9524SOL    HW240032   3.925   2.755   3.929  0.1261  1.6498  1.1870
 9525SOL     OW40033   0.900   4.712  10.826  0.2937  0.3891 -0.1467
 9525SOL    HW140034   0.876   4.620  10.842  0.6375  0.1856 -0.8009
 9525SOL    HW240035   0.895   0.017  10.917 -0.1013  0.0518 -0.0670
 9526SOL     OW40036   3.932   1.083   5.712 -0.0792 -0.2224  0.1205
 9526SOL    HW140037   3.866   1.098   5.644  0.9288  0.4995 -0.6910
 9526SOL    HW240038   3.997   1.152   5.701  0.7753 -0.5673  2.9799
 9527SOL     OW40039   1.907   1.850  13.214  0.3950  0.4267  0.3566
 9527SOL    HW140040   1.993   1.830  13.251 -0.1312 -1.7460  0.3711
 9527SOL    HW240041   1.855   1.860  13.294  0.5799  2.9916  0.1520
 9528SOL     OW40042   1.489   0.213  15.457 -0.1053  0.2407 -0.1203
 9528SOL    HW140043   1.425   0.269  15.500 -0.2657  0.3824 -0.5457
 9528SOL    HW240044   1.559   0.224  15.521 -2.5966  2.0158  2.2669
 9529SOL     OW40045   4.701   3.996   2.787  0.3542 -0.0587  0.0976
 9529SOL    HW140046   0.054   3.944   2.812 -0.1976 -0.1687  1.5177
 9529SOL    HW240047   4.636   3.931   2.815  0.5280 -0.7188 -1.0346
 9530SOL     OW40048   3.110   3.371   3.847 -0.6062 -0.0673  0.4477
 9530SOL    HW140049   3.121   3.460   3.813 -0.7300  0.7950  2.6602
 9530SOL    HW240050   3.090   3.317   3.771 -1.3271  2.0056 -0.8379
 9531SOL     OW40051   0.325   3.988  15.766  0.1921  0.7138 -0.4014
 9531SOL    HW140052   0.284   3.931  15.831 -0.3775  0.8781 -0.6087
 9531SOL    HW240053   0.413   4.003  15.801 -0.3554  0.8461  0.9241
 9532SOL     OW40054   2.924   1.912   3.247  0.1601 -0.1053  0.4245
 9532SOL    HW140055   2.918   1.866   3.331 -0.2090 -0.4057  0.2328
 9532SOL    HW240056   2.906   1.840   3.187  2.0685  0.5445 -0.9114
 9533SOL     OW40057   0.478   3.710   7.861  0.0451  0.7980  0.7377
 9533SOL    HW140058   0.532   3.631   7.867 -1.5695 -0.3476  0.1794
 9533SOL    HW240059   0.395   3.702   7.907 -0.7072 -1.0247 -0.9244
 9534SOL     OW40060   2.367   4.398  15.940  0.0199 -0.5593  0.3383
 9534SOL    HW140061   2.416   4.330  15.986  0.0993  1.4369  3.1964
 9534SOL    HW240062   2.276   4.371  15.947 -0.4899  0.4254 -2.6897
 9535SOL     OW40063   3.639   2.817   9.744 -0.2540  0.0580 -0.0618
 9535SOL    HW140064   3.608   2.880   9.809  0.5222  0.5783 -0.1965
 9535SOL    HW240065   3.608   2.859   9.664 -0.4797 -1.0711 -0.5640
 9536SOL     OW40066   1.395   3.239   6.573  0.4292 -0.0576 -0.5589
 9536SOL    HW140067   1.454   3.314   6.566 -0.6749  1.0040  1.8353
 9536SOL    HW240068   1.341   3.262   6.648  3.1944 -1.6952  1.9213
 9537SOL     OW40069   0.123   1.955   9.570  0.4962 -0.1655 -0.0500
 9537SOL    HW140070   0.100   2.030   9.515  0.6502 -0.1005 -0.0243
 9537SOL    HW240071   0.079   1.982   9.650 -0.4288  0.2297 -0.6841
 9538SOL     OW40072   2.920   2.640   9.609  0.0978 -0.4397 -0.2249
 9538SOL    HW140073   2.841   2.636   9.662  0.7135 -0.2492  0.7066
 9538SOL    HW240074   2.874   2.664   9.529  0.3836 -0.1694 -0.3076
 9539SOL     OW40075   0.974   3.358  14.555 -0.4958 -0.3802 -0.7572
 9539SOL    HW140076   0.907   3.290  14.548 -1.9933  0.8349  2.0948
 9539SOL    HW240077   0.975   3.393  14.466 -0.8242 -1.8651 -1.3437
 9540SOL     OW40078   4.515   2.295  11.719 -0.1389  0.1551 -0.2839
 9540SOL    HW140079   4.481   2.384  11.717 -0.5825  0.0609  2.8583
 9540SOL    HW240080   4.534   2.266  11.809 -1.7688 -1.8459 -0.5891
 9541SOL     OW40081   3.229   4.571   5.878  0.1785  0.6243  0.2001
 9541SOL    HW140082   3.147   4.589   5.924 -0.5157 -1.5272 -0.1675
 9541SOL    HW240083   3.219   4.607   5.790  2.0961  1.9998  0.5478
 9542SOL     OW40084   4.508   3.734   1.300 -0.1860  0.0378  0.5422
 9542SOL    HW140085   4.513   3.647   1.259 -2.8632  0.9442 -1.6559
 9542SOL    HW240086   4.566   3.783   1.241 -0.7108  1.4451  1.2100
 9543SOL     OW40087   2.334   3.245   5.856 -0.4318  0.0271 -0.6299
 9543SOL    HW140088   2.288   3.269   5.936 -0.8290  0.6236 -1.0413
 9543SOL    HW240089   2.267   3.226   5.790 -0.6378  1.9914 -0.9931
 9544SOL     OW40090   0.947   0.637  16.669 -0.0688  0.0218 -0.2009
 9544SOL    HW140091   0.943   0.645  16.765  3.1220 -2.1479  0.1007
 9544SOL    HW240092   0.993   0.556  16.648  1.0686  1.3334 -2.6411
 9545SOL     OW40093   1.166   2.449  16.252 -0.9607 -0.3267  0.0729
 9545SOL    HW140094   1.093   2.448  16.314 -0.8095 -0.7449  0.2398
 9545SOL    HW240095   1.219   2.518  16.292 -1.7363 -0.8075  1.9627
 9546SOL     OW40096   0.202   4.605  11.103 -0.8031  0.5178  0.4715
 9546SOL    HW140097   0.289   4.644  11.095 -0.3405 -1.0029 -1.7605
 9546SOL    HW240098   0.154   4.610  11.020 -1.2226  2.3409  0.7997
 9547SOL     OW40099   2.780   1.289   6.659  0.1982  0.1826 -0.3643
 9547SOL    HW140100   2.715   1.285   6.589  1.7913  1.0221 -1.8860
 9547SOL    HW240101   2.854   1.245   6.617  0.3872  0.1350  0.0209
 9548SOL     OW40102   0.238   3.960   7.101 -0.4207  0.3493 -0.5440
 9548SOL    HW140103   0.220   4.043   7.057 -0.9939  0.9230  0.7851
 9548SOL    HW240104   0.269   3.904   7.029  0.0948  2.7182 -2.1846
 9549SOL     OW40105   4.500   0.288   3.752  0.8383 -0.2946  0.2344
 9549SOL    HW140106   4.417   0.268   3.794  1.2564 -2.3467  0.0898
 9549SOL    HW240107   4.541   0.348   3.815  1.0319  0.0306 -0.2027
 9550SOL     OW40108   2.185   0.350  16.341 -0.2964 -0.5296  0.5113
 9550SOL    HW140109   2.277   0.375  16.346 -0.7930  1.2646  0.7538
 9550SOL    HW240110   2.187   0.256  16.362 -0.0685 -0.5899  0.2066
 9551SOL     OW40111   4.044   0.089   8.476 -0.4404  0.8425 -0.3973
 9551SOL    HW140112   4.015   0.033   8.549 -1.0365 -0.0447 -1.3114
 9551SOL    HW240113   3.984   0.163   8.482  1.1659  2.0482  0.6924
 9552SOL     OW40114   1.696   2.551   2.846  0.2970  0.4052 -0.0838
 9552SOL    HW140115   1.643   2.496   2.789  1.4042 -0.9715  0.2332
 9552SOL    HW240116   1.676   2.504   2.927  1.2567  0.8865  0.4391
 9553SOL     OW40117   3.450   3.211   6.390  0.5956 -0.0710 -0.5630
 9553SOL    HW140118   3.524   3.236   6.444  0.2960 -0.5746  0.0753
 9553SOL    HW240119   3.444   3.119   6.414  0.8361  0.2664  0.7670
 9554SOL     OW40120   4.700   4.704   3.661 -0.4733  0.4536  0.1870
 9554SOL    HW140121   4.700   0.076   3.668  2.7661  0.7062 -3.2766
 9554SOL    HW240122   4.608   4.689   3.685 -0.4106  2.7168  1.8037
 9555SOL     OW40123   3.130   3.113   7.710  0.3491  0.3418  0.0549
 9555SOL    HW140124   3.134   3.061   7.790  0.3410 -0.1569 -0.2736
 9555SOL    HW240125   3.052   3.166   7.725 -1.3302 -2.2607  0.4620
 9556SOL     OW40126   3.205   1.342   2.330 -0.1542 -0.0564  0.0847
 9556SOL    HW140127   3.176   1.345   2.422 -2.2725 -4.3302 -0.4407
 9556SOL    HW240128   3.297   1.341   2.355 -0.1023 -1.4836 -0.1680
 9557SOL     OW40129   4.043   4.550   0.291  0.0016  0.7672  0.3522
 9557SOL    HW140130   4.116   4.569   0.232  1.0439  1.3677  1.8530
 9557SOL    HW240131   4.072   4.602   0.366  1.0285  1.2603 -0.3884
 9558SOL     OW40132   1.870   2.286   7.990  0.1239 -0.1782  0.3719
 9558SOL    HW140133   1.936   2.351   8.013  0.3641 -0.5725  0.8179
 9558SOL    HW240134   1.897   2.248   7.907 -2.3254 -2.1491  0.4617
 9559SOL     OW40135   1.734   0.957   3.986 -0.3033  0.2756  0.6464
 9559SOL    HW140136   1.793   0.892   4.024  1.0187  1.0155 -0.1580
 9559SOL    HW240137   1.668   0.895   3.953 -1.2819  1.2364  0.8066
 9560SOL     OW40138   0.421   0.947   3.612 -0.4248 -0.0646  0.2859
 9560SOL    HW140139   0.468   0.944   3.529 -3.1386 -0.3338 -1.2745
 9560SOL    HW240140   0.336   0.979   3.581 -1.2759 -1.3117  1.3034
 9561SOL     OW40141   2.750   0.282   0.417  0.1721  0.3256  0.1115
 9561SOL    HW140142   2.770   0.368   0.379 -2.5483  1.5763  1.5413
 9561SOL    HW240143   2.839   0.247   0.420  0.1037  0.1806  0.4182
 9562SOL     OW40144   1.343   1.463  12.276  0.1529  0.3235 -0.1813
 9562SOL    HW140145   1.253   1.490  12.258  0.3350  0.9287 -0.1865
 9562SOL    HW240146   1.388   1.509  12.206 -1.8769  1.5025 -0.7245
 9563SOL     OW40147   3.356   4.308   5.916 -0.0814 -0.1091  0.3407
 9563SOL    HW140148   3.451   4.311   5.931 -0.0547  0.1305  0.1250
 9563SOL    HW240149   3.335   4.398   5.892  0.4812 -0.1800 -0.4081
 9564SOL     OW40150   2.744   0.113   5.853  0.2592  0.1447  0.5505
 9564SOL    HW140151   2.715   0.042   5.910  2.6218 -1.7600 -0.5771
 9564SOL    HW240152   2.667   0.168   5.856  0.1409 -0.0832  1.5398
 9565SOL     OW40153   3.167   3.891   3.894 -0.5137 -0.4270  0.6862
 9565SOL    HW140154   3.087   3.839   3.882  1.3470 -3.4207  1.1269
 9565SOL    HW240155   3.128   3.978   3.900  2.5733  0.8586  1.6895
   4.72302   4.72302  17.69402
