Membrane in water
40155
    1TCq1    O1    1   2.145   0.174  11.196 -0.6229 -1.0933 -0.0089
    1TCq1    C1    2   2.100   0.293  11.244  0.4755 -0.0253 -0.2255
    1TCq1    O2    3   2.071   0.372  11.160 -0.7509  0.0140  0.5302
    1TCq1    C2    4   2.122   0.306  11.385  0.9231 -0.3652 -0.6405
    1TCq1    C3    5   2.203   0.416  11.411 -0.5239 -0.6980 -0.2822
    1TCq1    C4    6   2.303   0.403  11.503  0.2861 -0.1119 -0.2450
    1TCq1    C5    7   2.323   0.288  11.572  0.0772  0.0029 -0.1136
    1TCq1    C6    8   2.244   0.183  11.545  0.3923 -0.0706 -0.1848
    1TCq1    C7    9   2.145   0.184  11.451  0.5041 -0.6129  0.4600
    1TCq1    C8   10   2.240   0.084  11.647 -0.7221 -0.1881  0.1554
    1TCq1    O4   11   2.173   4.710  11.615  0.3441  0.0227 -0.1146
    1TCq1    C9   12   2.390   0.514  11.527  0.0883 -0.1238 -0.5024
    1TCq1    O5   13   2.481   0.491  11.612  0.2758 -0.2365  0.5279
    1TCq1    O6   14   2.351   0.621  11.475 -0.6769  0.1951  0.2800
    1TCq1    H1   15   2.189   0.120  11.265 -2.6824 -0.3081  1.9046
    1TCq1    H2   16   2.205   0.508  11.355  1.2185 -0.6824 -0.1899
    1TCq1    H3   17   2.413   0.274  11.632  0.4753 -0.3600 -0.7910
    1TCq1    H4   18   2.094   0.093  11.421 -1.9620  0.1311  2.3804
    2MPD2     C   19   2.225   4.655  12.141 -0.7703 -0.1882  0.0549
    2MPD2    C1   20   2.176   4.597  12.024 -0.6208 -0.1413  0.6451
    2MPD2    C2   21   2.210   4.648  11.897 -0.0627 -0.5287  0.2912
    2MPD2    C3   22   2.292   0.033  11.882 -0.2962 -0.4451  0.3541
    2MPD2    C4   23   2.338   0.089  11.995 -0.0342  0.3203  0.2441
    2MPD2    C5   24   2.300   0.036  12.116  0.2092  0.0368 -0.1060
    2MPD2     H   25   2.161   4.611  11.807  0.8482 -2.0638  0.4248
    2MPD2    H1   26   2.414   0.166  11.995 -0.6513  0.9104 -1.3481
    2MPD2    H2   27   2.216   4.617  12.242 -0.7185  0.0063  0.1307
    2MPD2    H3   28   2.349   0.077  12.203 -0.8078 -0.3890  0.6762
    2MPD2     N   29   2.312   0.110  11.762 -0.8081  0.2670  0.6241
    2MPD2    H5   30   2.375   0.189  11.765 -3.0944  2.0828  0.2998
    2MPD2    N1   31   2.084   4.493  12.027  0.5667 -0.3170  0.2206
    2MPD2    H7   32   2.045   4.453  11.942  0.7312  0.7458 -0.3573
    3TCq1    O1   33   1.324   2.026  10.122  0.0365 -0.3556 -0.4304
    3TCq1    C1   34   1.433   2.092  10.151  0.7409 -0.1881 -0.8379
    3TCq1    O2   35   1.439   2.214  10.149  0.5151  0.7168  0.4045
    3TCq1    C2   36   1.467   2.038  10.277 -0.0470  0.3044 -0.0920
    3TCq1    C3   37   1.494   2.117  10.387  0.1068  0.3130 -1.4591
    3TCq1    C4   38   1.520   2.056  10.512 -0.4132 -0.4122 -1.0607
    3TCq1    C5   39   1.526   1.918  10.523 -0.1824  0.6536  0.3813
    3TCq1    C6   40   1.510   1.847  10.411  0.1588  0.0853 -0.2160
    3TCq1    C7   41   1.482   1.898  10.288 -0.6177 -0.0580  0.9280
    3TCq1    C8   42   1.493   1.702  10.428 -0.4226  0.2388  0.1993
    3TCq1    O4   43   1.527   1.626  10.333 -0.1499  0.1789  0.5878
    3TCq1    C9   44   1.540   2.139  10.630 -0.1442 -0.0554 -0.5908
    3TCq1    O5   45   1.551   2.266  10.616  0.5574  0.5620  0.4207
    3TCq1    O6   46   1.537   2.083  10.743 -0.2908 -0.2005 -0.3110
    3TCq1    H1   47   1.305   1.944  10.172 -1.6778  1.3952  1.8199
    3TCq1    H2   48   1.482   2.225  10.382 -0.5585  0.3029 -0.0473
    3TCq1    H3   49   1.567   1.872  10.612  0.8495 -0.5944 -0.7373
    3TCq1    H4   50   1.463   1.837  10.200  1.7727 -2.0449  1.7676
    4MPD2     C   51   1.282   1.299  10.661 -0.4380 -0.1895 -0.0879
    4MPD2    C1   52   1.228   1.412  10.724 -0.1038 -0.4766  0.6100
    4MPD2    C2   53   1.290   1.529  10.692  0.1613 -0.0649  0.0037
    4MPD2    C3   54   1.392   1.539  10.593  0.4961 -0.4646 -0.6377
    4MPD2    C4   55   1.426   1.419  10.533 -0.4241 -0.3397  0.0549
    4MPD2    C5   56   1.379   1.303  10.567 -0.4064  0.1639  0.1675
    4MPD2     H   57   1.264   1.629  10.726 -0.3927 -0.6279  1.2192
    4MPD2    H1   58   1.500   1.422  10.454 -0.3754 -0.3562  0.0991
    4MPD2    H2   59   1.243   1.204  10.697  1.3881 -1.9208 -2.7394
    4MPD2    H3   60   1.413   1.209  10.526  1.4863  0.5308  0.8712
    4MPD2     N   61   1.438   1.667  10.547  0.1731  1.0621 -0.0059
    4MPD2    H5   62   1.422   1.745  10.610  1.8489  1.7247 -0.4161
    4MPD2    N1   63   1.128   1.404  10.825 -0.0690  0.7249 -0.1356
    4MPD2    H7   64   1.102   1.489  10.874 -0.3170  0.5014  0.1228
    5TCq1    O1   65   2.752   2.481  12.083 -0.1867  0.0870  0.0181
    5TCq1    C1   66   2.729   2.366  12.014  0.9257 -0.0847  0.0528
    5TCq1    O2   67   2.803   2.315  11.932  0.2444 -0.2569 -0.0557
    5TCq1    C2   68   2.588   2.386  11.990 -0.4443 -0.3038 -0.1972
    5TCq1    C3   69   2.514   2.418  12.098 -0.0606  0.1254 -0.5484
    5TCq1    C4   70   2.385   2.447  12.076 -0.1746  0.4346  0.0455
    5TCq1    C5   71   2.345   2.472  11.948  0.2640 -0.2119 -0.1169
    5TCq1    C6   72   2.430   2.443  11.841 -0.5120 -0.1227 -0.8897
    5TCq1    C7   73   2.544   2.382  11.864  0.4542  0.0573  0.3471
    5TCq1    C8   74   2.388   2.452  11.704  0.0974  0.8670  0.0512
    5TCq1    O4   75   2.435   2.370  11.628 -0.0141 -0.1566  0.5493
    5TCq1    C9   76   2.300   2.483  12.185 -0.2979 -0.6269  0.6239
    5TCq1    O5   77   2.325   2.437  12.301 -0.0451 -0.1881 -0.6264
    5TCq1    O6   78   2.219   2.574  12.149  0.0996  0.1783 -0.7011
    5TCq1    H1   79   2.667   2.529  12.093 -0.1971  0.1973 -0.6360
    5TCq1    H2   80   2.548   2.397  12.199  0.0760  1.1282 -0.3803
    5TCq1    H3   81   2.242   2.497  11.924  0.2968  0.4361  0.4044
    5TCq1    H4   82   2.613   2.353  11.786  0.8958  2.5431 -0.2002
    6MPD2     C   83   2.264   2.750  11.543  0.3000 -0.3670 -0.2169
    6MPD2    C1   84   2.277   2.613  11.554 -0.1793 -0.5321  0.0333
    6MPD2    C2   85   2.220   2.527  11.466  0.3002 -0.2379 -0.6227
    6MPD2    C3   86   2.160   2.576  11.350  0.7542 -0.0413 -0.7136
    6MPD2    C4   87   2.153   2.713  11.328  0.9649  0.3651 -0.2506
    6MPD2    C5   88   2.208   2.795  11.425  0.1993  0.2297  0.1396
    6MPD2     H   89   2.222   2.422  11.493 -1.4204 -0.0679  0.1586
    6MPD2    H1   90   2.122   2.762  11.236 -2.6564 -1.1591  0.1475
    6MPD2    H2   91   2.298   2.819  11.620  0.7497  1.1340 -1.7478
    6MPD2    H3   92   2.195   2.900  11.403  2.0373  0.1355 -1.3587
    6MPD2     N   93   2.109   2.483  11.263 -0.0831  0.2530 -0.0626
    6MPD2    H5   94   2.127   2.388  11.293 -1.0311  0.1175  0.0822
    6MPD2    N1   95   2.332   2.575  11.678 -0.5088 -0.0978  0.7358
    6MPD2    H7   96   2.351   2.649  11.746  0.0880  2.0293 -1.7571
    7TCq1    O1   97   3.460   1.757  12.183  0.0034 -0.2239 -0.3943
    7TCq1    C1   98   3.504   1.862  12.116 -0.9628 -0.3060  0.2495
    7TCq1    O2   99   3.458   1.895  12.009 -0.2989  0.3682 -0.1903
    7TCq1    C2  100   3.616   1.922  12.181 -0.2245  0.0139  0.6232
    7TCq1    C3  101   3.655   2.042  12.137  0.4856  0.3623  0.1638
    7TCq1    C4  102   3.771   2.094  12.199 -0.2920  0.6517  0.2072
    7TCq1    C5  103   3.851   2.012  12.281 -0.1310 -0.7362 -0.6593
    7TCq1    C6  104   3.808   1.890  12.316 -0.0350 -0.4318  0.0014
    7TCq1    C7  105   3.690   1.841  12.265 -0.2548 -0.2791  0.0775
    7TCq1    C8  106   3.874   1.819  12.424  0.4643 -0.2793  0.4087
    7TCq1    O4  107   3.866   1.697  12.433 -0.1150 -0.3317 -0.2328
    7TCq1    C9  108   3.822   2.222  12.158 -0.4101 -0.0694  0.2869
    7TCq1    O5  109   3.771   2.272  12.055 -0.1609 -0.3024 -0.4275
    7TCq1    O6  110   3.901   2.284  12.236  0.2752  0.7629  0.3230
    7TCq1    H1  111   3.458   1.763  12.281 -1.8731  2.6576 -0.6014
    7TCq1    H2  112   3.595   2.094  12.063  0.9530  0.4651 -0.1427
    7TCq1    H3  113   3.949   2.046  12.312 -1.7823  1.2060  2.5005
    7TCq1    H4  114   3.664   1.738  12.289 -2.3502  0.2777  0.1387
    8MPD2     C  115   4.046   1.866  12.904  1.2396 -0.4707 -0.4702
    8MPD2    C1  116   4.007   1.756  12.837 -0.3560  0.4218  0.0240
    8MPD2    C2  117   3.955   1.767  12.710 -0.6632  0.2371 -0.0328
    8MPD2    C3  118   3.957   1.888  12.646 -0.0434 -0.1166 -0.2492
    8MPD2    C4  119   4.001   1.994  12.715  0.4167  0.8549  0.6922
    8MPD2    C5  120   4.046   1.983  12.843 -0.3172  0.2556  0.8974
    8MPD2     H  121   3.911   1.680  12.662 -0.2028 -0.1449  0.2523
    8MPD2    H1  122   4.003   2.088  12.660 -0.7634  1.5411  1.8168
    8MPD2    H2  123   4.091   1.859  13.003  0.5418  0.0207 -0.1212
    8MPD2    H3  124   4.086   2.077  12.880  0.6444 -0.0412  0.6064
    8MPD2     N  125   3.911   1.913  12.517 -0.0441 -0.4916 -0.5272
    8MPD2    H5  126   3.901   2.011  12.491  1.9686 -0.3259 -0.6740
    8MPD2    N1  127   4.001   1.641  12.916 -0.1509 -0.7423  1.1175
    8MPD2    H7  128   4.054   1.645  13.003 -1.0939  0.2393  1.6509
    9TCq1    O1  129   1.735   4.300  10.555 -0.0477  0.4009  0.1450
    9TCq1    C1  130   1.757   4.435  10.585  1.0781 -0.0006  0.1578
    9TCq1    O2  131   1.863   4.490  10.570 -0.2816  0.1248 -0.1764
    9TCq1    C2  132   1.675   4.483  10.693  0.6427 -0.4826  1.1387
    9TCq1    C3  133   1.627   4.399  10.794  0.0612  0.1222 -0.3036
    9TCq1    C4  134   1.581   4.458  10.906  0.6553 -0.0599 -0.5935
    9TCq1    C5  135   1.560   4.592  10.912 -0.2926  0.3907  1.0481
    9TCq1    C6  136   1.608   4.675  10.812  0.0410  0.2883 -0.0751
    9TCq1    C7  137   1.665   4.618  10.698  0.3303 -0.0186  0.0694
    9TCq1    C8  138   1.605   0.104  10.821 -0.7063 -0.2256  0.8880
    9TCq1    O4  139   1.690   0.164  10.753 -0.3013  0.0003  0.3746
    9TCq1    C9  140   1.530   4.378  11.010 -0.2148 -0.3883  0.1421
    9TCq1    O5  141   1.539   4.253  11.012 -0.2317 -0.0497  0.5573
    9TCq1    O6  142   1.498   4.435  11.115  0.0750 -0.1367  0.2102
    9TCq1    H1  143   1.644   4.268  10.570  0.0799  0.2442  0.5781
    9TCq1    H2  144   1.623   4.291  10.800 -1.1672  0.2415  1.1714
    9TCq1    H3  145   1.510   4.633  10.999 -0.4527 -0.4778  1.3651
    9TCq1    H4  146   1.703   4.678  10.617  0.3240 -1.6771 -1.1632
   10MPD2     C  147   1.589   0.394  10.893  0.6966 -0.2958  0.3311
   10MPD2    C1  148   1.518   0.297  10.959 -0.0673  0.1140  0.0608
   10MPD2    C2  149   1.443   0.324  11.076  0.0648  0.1502 -0.1298
   10MPD2    C3  150   1.458   0.445  11.139  0.0877 -0.9606  0.8716
   10MPD2    C4  151   1.537   0.543  11.073  0.3222  0.3312 -0.1570
   10MPD2    C5  152   1.585   0.519  10.948  0.2465 -0.2058  0.5271
   10MPD2     H  153   1.388   0.242  11.122  0.4288 -0.3285 -0.5387
   10MPD2    H1  154   1.548   0.643  11.113 -1.6571  0.1061  0.9446
   10MPD2    H2  155   1.643   0.375  10.801 -0.0700 -0.1243 -0.1483
   10MPD2    H3  156   1.632   0.604  10.899 -1.1841 -0.1663 -0.7605
   10MPD2     N  157   1.398   0.484  11.264  0.5072  0.9417  0.3402
   10MPD2    H5  158   1.411   0.582  11.288 -1.9839  1.4030 -0.1957
   10MPD2    N1  159   1.524   0.159  10.913  0.1719  0.2323 -0.0571
   10MPD2    H7  160   1.461   0.091  10.955 -2.2454  1.0277 -2.4162
   11TCq1    O1  161   3.131   0.656  13.575  0.2629 -0.1046 -0.0067
   11TCq1    C1  162   3.094   0.543  13.636 -0.0724 -0.3095  0.5102
   11TCq1    O2  163   3.056   0.446  13.565  0.4422  0.2597  0.3113
   11TCq1    C2  164   3.033   0.591  13.756 -0.1688  0.1201  0.1806
   11TCq1    C3  165   3.123   0.630  13.857  0.2389 -0.3496 -0.1670
   11TCq1    C4  166   3.077   0.618  13.988 -0.3201 -0.3772  0.4106
   11TCq1    C5  167   2.951   0.573  14.018  0.7497 -0.2508 -0.4561
   11TCq1    C6  168   2.877   0.524  13.916  0.3417  0.7921 -0.4767
   11TCq1    C7  169   2.914   0.530  13.786  0.1894  0.0598  0.4431
   11TCq1    C8  170   2.759   0.448  13.945 -0.3235 -0.0673 -0.7301
   11TCq1    O4  171   2.702   0.469  14.055  0.3158 -0.4615  0.4849
   11TCq1    C9  172   3.145   0.683  14.095  0.2543  1.3418  0.5522
   11TCq1    O5  173   3.097   0.668  14.211  0.2862 -0.2435  0.3062
   11TCq1    O6  174   3.221   0.777  14.064  0.2923 -0.0401 -0.1145
   11TCq1    H1  175   3.137   0.723  13.647  0.2001  1.6947 -1.6944
   11TCq1    H2  176   3.224   0.667  13.842  0.6904 -1.4528  0.1276
   11TCq1    H3  177   2.917   0.564  14.121  0.4321  0.6094 -0.4867
   11TCq1    H4  178   2.850   0.496  13.705 -1.3054  4.1556 -0.1395
   12MPD2     C  179   2.514   0.277  13.941 -0.1905 -0.2154 -0.6498
   12MPD2    C1  180   2.614   0.273  13.842  0.0746  0.2033 -0.3637
   12MPD2    C2  181   2.603   0.184  13.737 -0.0452  0.4184  0.6586
   12MPD2    C3  182   2.487   0.113  13.721 -0.4564 -0.2163  0.3468
   12MPD2    C4  183   2.383   0.132  13.808 -0.6712 -0.1281 -0.0408
   12MPD2    C5  184   2.397   0.208  13.924 -0.6502  0.0715 -0.5773
   12MPD2     H  185   2.678   0.179  13.659 -0.3683 -0.8766  0.4316
   12MPD2    H1  186   2.290   0.079  13.791 -2.2922  2.6150  0.2449
   12MPD2    H2  187   2.500   0.358  14.012  1.1153 -0.6918  0.1467
   12MPD2    H3  188   2.324   0.216  14.004 -2.0823 -0.9524 -1.7815
   12MPD2     N  189   2.462   0.034  13.603  0.1725  0.1994  0.4444
   12MPD2    H5  190   2.374   4.719  13.571  0.5651 -1.1944  1.1124
   12MPD2    N1  191   2.732   0.349  13.849 -0.0333  0.6961  0.3202
   12MPD2    H7  192   2.794   0.347  13.769  1.3633  0.2895  1.4071
   13TCq1    O1  193   0.944   4.123  10.783  0.6208  0.3007 -0.0166
   13TCq1    C1  194   0.930   4.212  10.683  0.5705 -0.2028 -0.3727
   13TCq1    O2  195   0.831   4.272  10.648  0.3733  0.2521  0.4193
   13TCq1    C2  196   1.064   4.262  10.660 -0.3090  0.1449  0.0317
   13TCq1    C3  197   1.170   4.183  10.665 -0.0998  0.6573  0.5696
   13TCq1    C4  198   1.292   4.238  10.631 -0.3064  0.3122  0.4713
   13TCq1    C5  199   1.302   4.375  10.610 -0.1902  0.1903 -0.2278
   13TCq1    C6  200   1.184   4.451  10.621 -0.0537 -0.0376  1.1861
   13TCq1    C7  201   1.070   4.389  10.648  0.0274  0.9294  0.4656
   13TCq1    C8  202   1.187   4.598  10.602  0.5911  0.3871 -0.7375
   13TCq1    O4  203   1.100   4.657  10.663  0.2215 -0.4946  0.0736
   13TCq1    C9  204   1.410   4.162  10.623 -0.1847 -0.5319 -0.7410
   13TCq1    O5  205   1.399   4.048  10.670 -0.2293 -0.3115 -0.0733
   13TCq1    O6  206   1.511   4.206  10.565  0.5823  0.2169 -0.5512
   13TCq1    H1  207   1.036   4.112  10.815  0.3248 -0.8893  0.4232
   13TCq1    H2  208   1.158   4.075  10.666 -0.5430  0.7120  0.9220
   13TCq1    H3  209   1.399   4.413  10.583  0.1664 -0.5980 -0.0518
   13TCq1    H4  210   0.987   4.458  10.649 -1.0578 -0.3951  3.0514
   14MPD2     C  211   1.451   0.050  10.420 -0.3313  0.0105  0.1446
   14MPD2    C1  212   1.346   0.032  10.514 -0.2786  0.1856  0.2131
   14MPD2    C2  213   1.294   0.142  10.582 -0.0587  0.2649  0.3501
   14MPD2    C3  214   1.354   0.268  10.572 -0.3250  0.5380  0.1403
   14MPD2    C4  215   1.451   0.292  10.473 -0.1420 -0.4937 -0.3586
   14MPD2    C5  216   1.505   0.175  10.410  0.1026 -0.5551  0.0822
   14MPD2     H  217   1.221   0.125  10.661 -0.6672  0.7174 -0.1149
   14MPD2    H1  218   1.505   0.385  10.462 -0.5088 -0.3193 -0.6780
   14MPD2    H2  219   1.502   4.689  10.379  0.8138  1.7077 -2.0176
   14MPD2    H3  220   1.592   0.193  10.348  0.5837 -0.9803  0.6420
   14MPD2     N  221   1.307   0.371  10.663  0.0041  0.4599  0.0710
   14MPD2    H5  222   1.250   0.340  10.741 -0.6244  1.9651  0.1946
   14MPD2    N1  223   1.295   4.630  10.531  0.0389 -0.0807  0.5859
   14MPD2    H7  224   1.348   4.555  10.488 -0.3568 -0.1937  0.2952
   15TCq1    O1  225   4.118   4.402   1.162 -0.1629  0.5833  0.0897
   15TCq1    C1  226   4.140   4.389   1.291 -0.2125 -0.1670 -0.0939
   15TCq1    O2  227   4.114   4.465   1.379  0.6116 -0.0208 -0.6344
   15TCq1    C2  228   4.271   4.338   1.300 -0.2298  0.3090 -0.2441
   15TCq1    C3  229   4.359   4.407   1.379 -0.4860 -0.6501  0.3745
   15TCq1    C4  230   4.492   4.364   1.378 -0.2748 -0.0589  0.3106
   15TCq1    C5  231   4.534   4.263   1.295  0.0585  0.0529 -0.0654
   15TCq1    C6  232   4.438   4.189   1.229 -0.0554  0.5105 -0.1416
   15TCq1    C7  233   4.308   4.235   1.223 -0.0346  0.3106 -0.3730
   15TCq1    C8  234   4.479   4.061   1.165 -0.0285  0.3971  0.0653
   15TCq1    O4  235   4.555   3.988   1.225  0.0331 -0.2740  0.2386
   15TCq1    C9  236   4.587   4.434   1.454  0.0222 -0.1633  0.0422
   15TCq1    O5  237   4.705   4.389   1.462  0.3500 -0.7229 -0.4635
   15TCq1    O6  238   4.534   4.521   1.538  0.3074 -0.2917  0.7475
   15TCq1    H1  239   4.157   4.337   1.100 -3.2441 -1.2424  0.0979
   15TCq1    H2  240   4.324   4.488   1.442  2.2102  0.1437  0.8259
   15TCq1    H3  241   4.637   4.229   1.295  0.0938  0.1625 -1.2050
   15TCq1    H4  242   4.231   4.168   1.186  2.6549 -2.6285 -0.6691
   16MPD2     C  243   4.267   3.888   0.916  0.3339  0.6690 -0.1633
   16MPD2    C1  244   4.381   3.908   0.997 -0.5150 -0.0477  0.2669
   16MPD2    C2  245   4.468   3.809   1.020 -0.2400 -0.6996  0.2928
   16MPD2    C3  246   4.454   3.689   0.957  0.1974  0.5414 -0.6639
   16MPD2    C4  247   4.348   3.673   0.863  0.1008 -0.2600  0.2583
   16MPD2    C5  248   4.250   3.769   0.856 -0.7654 -0.1589  0.1334
   16MPD2     H  249   4.552   3.831   1.084 -0.2877 -1.7020  0.7028
   16MPD2    H1  250   4.329   3.577   0.817  2.0670 -2.0602  3.2329
   16MPD2    H2  251   4.201   3.972   0.906  1.0499  1.0879 -1.3951
   16MPD2    H3  252   4.171   3.738   0.789 -1.9004 -1.0388  1.8790
   16MPD2     N  253   4.561   3.602   0.980 -0.1440  0.5459 -0.4442
   16MPD2    H5  254   4.631   3.626   1.049 -2.1808 -0.4923  1.9744
   16MPD2    N1  255   4.390   4.036   1.060 -0.1812  0.1403 -0.5200
   16MPD2    H7  256   4.335   4.114   1.025  1.9677  0.8046 -2.4176
   17TCq1    O1  257   1.681   4.156  11.199  0.4252 -0.7021 -0.4389
   17TCq1    C1  258   1.798   4.204  11.229  0.2371 -0.2625  0.0990
   17TCq1    O2  259   1.880   4.154  11.302  0.2952  0.0816 -0.5612
   17TCq1    C2  260   1.840   4.257  11.102  0.5556 -0.4289 -0.3069
   17TCq1    C3  261   1.904   4.374  11.104 -0.1860 -0.9816  0.2718
   17TCq1    C4  262   1.951   4.425  10.990  0.4364  0.4355  0.6012
   17TCq1    C5  263   1.948   4.355  10.869 -0.7205 -1.1123  0.3819
   17TCq1    C6  264   1.903   4.229  10.881  0.6632 -0.2647 -0.0850
   17TCq1    C7  265   1.849   4.178  10.996 -0.6042  0.3239 -0.1339
   17TCq1    C8  266   1.933   4.132  10.775 -0.9326 -0.0251  0.6444
   17TCq1    O4  267   1.894   4.019  10.799  0.3140 -0.2128 -0.1815
   17TCq1    C9  268   1.999   4.560  10.982  0.2158 -0.1234  0.1884
   17TCq1    O5  269   2.063   4.607  10.880 -0.1718 -0.2702 -0.3450
   17TCq1    O6  270   1.961   4.637  11.073 -0.2815 -0.0903  0.0220
   17TCq1    H1  271   1.630   4.203  11.130 -1.0835  1.0001  1.8356
   17TCq1    H2  272   1.915   4.439  11.190 -0.2155 -2.0576  1.0830
   17TCq1    H3  273   1.997   4.405  10.786  0.0409 -0.2987  1.3263
   17TCq1    H4  274   1.831   4.073  11.016 -0.5880  0.9223  3.0034
   18MPD2     C  275   2.046   4.005  10.528 -0.5622  0.2467 -0.0288
   18MPD2    C1  276   2.082   4.130  10.575 -1.2376  0.1842  0.0146
   18MPD2    C2  277   2.170   4.206  10.497 -0.0354  0.6720  0.0139
   18MPD2    C3  278   2.222   4.157  10.380 -0.1246  0.2713  0.1749
   18MPD2    C4  279   2.191   4.029  10.342  0.2177  0.2801 -0.8469
   18MPD2    C5  280   2.096   3.957  10.410  0.5923 -0.1406 -0.3299
   18MPD2     H  281   2.192   4.310  10.520 -0.5912  0.8550 -0.2773
   18MPD2    H1  282   2.246   3.984  10.260 -0.8282 -2.3667 -0.1009
   18MPD2    H2  283   1.972   3.941  10.576 -0.3619  0.4123  0.5089
   18MPD2    H3  284   2.075   3.859  10.370  1.5220 -0.7146  0.5811
   18MPD2     N  285   2.306   4.238  10.291 -0.5034  0.6471  0.0290
   18MPD2    H5  286   2.329   4.188  10.206 -0.6741  0.1129  0.2973
   18MPD2    N1  287   2.029   4.186  10.691 -0.3605  0.4239 -0.7720
   18MPD2    H7  288   2.056   4.282  10.713 -0.4244  0.2208  0.1811
   19TMC2    C1  289   3.475   0.150  13.701  0.2831  0.3155  0.0121
   19TMC2    C2  290   3.359   0.222  13.699 -0.2543  0.6710  0.1770
   19TMC2    C3  291   3.249   0.142  13.707  0.2191  0.5911 -0.1049
   19TMC2    C4  292   3.485   0.015  13.712  0.1954  0.3247  0.2100
   19TMC2    C5  293   3.370   4.671  13.707  0.0419  0.4541 -0.5912
   19TMC2    C6  294   3.245   0.004  13.707 -0.4253 -0.4547 -0.8852
   19TMC2     C  295   3.595   0.227  13.709 -0.0042 -0.2826  0.4226
   19TMC2     O  296   3.587   0.334  13.646  0.2285 -0.2790 -0.4427
   19TMC2     H  297   3.362   0.329  13.714  1.1608  0.3131  2.4473
   19TMC2    H1  298   3.576   4.683  13.697 -0.1074  0.2500 -1.3562
   19TMC2    H2  299   3.154   4.670  13.716 -1.3420  1.2555  1.2450
   19TMC2    C7  300   3.375   4.523  13.721  0.0947  0.0491 -0.0054
   19TMC2    C8  301   3.151   0.214  13.792  0.6646 -0.8752 -0.2420
   19TMC2    O1  302   3.274   4.461  13.691  0.2009  0.3801 -0.0267
   19TMC2    O2  303   3.189   0.292  13.882  0.2957 -0.4109 -0.5499
   19TMC2    O5  304   3.024   0.195  13.755  0.6102  0.3523 -0.1607
   19TMC2    H5  305   3.017   0.131  13.681  1.0731 -1.2444  1.1595
   20MPD2     C  306   3.864   0.370  13.718 -1.2186  0.1817  0.1908
   20MPD2    C1  307   3.824   0.267  13.803 -0.0405 -0.3684 -0.8219
   20MPD2    C2  308   3.904   0.222  13.912  0.6611  0.0720 -0.4267
   20MPD2    C3  309   4.020   0.301  13.940 -0.1165 -0.5441  0.1604
   20MPD2    C4  310   4.063   0.407  13.857 -0.2049 -0.0252  0.9980
   20MPD2    C5  311   3.988   0.432  13.747 -0.2031 -0.8663  0.1303
   20MPD2     H  312   3.878   0.137  13.974 -0.0935  0.8268  0.2812
   20MPD2    H1  313   4.145   0.475  13.876  1.9360 -1.6529 -2.5176
   20MPD2    H2  314   3.815   0.384  13.623  0.6658  0.8449 -0.6839
   20MPD2    H3  315   4.022   0.515  13.686 -0.0923 -0.4374  0.7750
   20MPD2     N  316   4.106   0.278  14.052 -0.0615  0.2762  0.5229
   20MPD2    H5  317   4.184   0.342  14.057  0.2845 -0.0632 -0.6964
   20MPD2    N1  318   3.706   0.191  13.785 -0.2175 -0.4164 -0.0505
   20MPD2    H7  319   3.695   0.103  13.836  0.9889  0.9379  2.5233
   21MPD2     C  320   1.285   0.477  14.066 -0.4793  0.7431  0.1289
   21MPD2    C1  321   1.349   0.362  14.111 -0.1977 -0.8246  0.5470
   21MPD2    C2  322   1.357   0.343  14.252  0.1234 -0.2019 -0.0970
   21MPD2    C3  323   1.285   0.424  14.340  0.1112  0.2660  0.1526
   21MPD2    C4  324   1.219   0.535  14.287  0.0525 -0.6014 -0.1618
   21MPD2    C5  325   1.230   0.563  14.155 -0.6513  0.4891  0.2642
   21MPD2     H  326   1.408   0.254  14.286 -0.2563 -0.6068 -0.5818
   21MPD2    H1  327   1.165   0.597  14.357  0.4965 -1.2380  0.7467
   21MPD2    H2  328   1.271   0.483  13.959  0.2081  0.7484  0.0386
   21MPD2    H3  329   1.178   0.650  14.117 -1.4575  0.1041  0.4888
   21MPD2     N  330   1.259   0.389  14.477 -0.2228  0.3708  0.4785
   21MPD2    H5  331   1.189   0.450  14.518 -1.4769 -1.0127  0.4201
   21MPD2    N1  332   1.433   0.280  14.026  0.3679  0.7452  0.0259
   21MPD2    H7  333   1.493   0.211  14.070 -0.8086 -0.6736 -0.5809
   22TCq2    C1  334   1.298   0.270  14.542 -0.0857  0.1103  0.5131
   22TCq2    O2  335   1.343   0.167  14.499 -0.2103  0.0040 -0.7319
   22TCq2    C2  336   1.268   0.281  14.684 -0.2631  0.0874  0.3289
   22TCq2    C3  337   1.350   0.209  14.764  0.2392 -0.3170  0.1410
   22TCq2    C4  338   1.359   0.243  14.898  0.3308  0.0291  0.1677
   22TCq2    C5  339   1.276   0.340  14.952 -0.3865 -0.1468 -0.3014
   22TCq2    C6  340   1.187   0.401  14.868  0.4403 -0.0123  0.1427
   22TCq2    C7  341   1.191   0.379  14.738 -0.5854  0.3402  0.4924
   22TCq2    C8  342   1.099   0.502  14.917  1.0128 -0.5456  0.7410
   22TCq2    O4  343   1.132   0.549  15.023  0.2282  0.1234 -0.1282
   22TCq2    C9  344   1.459   0.191  14.983  0.4856 -0.8331  0.9360
   22TCq2    O5  345   1.463   0.232  15.098  0.1049  0.1254  0.6037
   22TCq2    O6  346   1.550   0.117  14.935  0.1176  0.1963 -0.2082
   22TCq2    H2  347   1.426   0.142  14.725  0.7470  0.7114 -0.6107
   22TCq2    H3  348   1.271   0.371  15.055  1.7928  1.8023 -0.7979
   22TCq2    H4  349   1.138   0.447  14.672 -1.0003  0.6949  1.1957
   23MPD2     C  350   2.905   1.094  14.966 -0.2193 -0.0800  0.0597
   23MPD2    C1  351   2.863   1.201  15.048  0.0223  0.3944  0.3449
   23MPD2    C2  352   2.770   1.289  14.996 -0.3150  0.3168  0.0279
   23MPD2    C3  353   2.718   1.274  14.866  0.1348 -0.4527 -0.0441
   23MPD2    C4  354   2.763   1.170  14.787  0.2530 -0.2300  0.7185
   23MPD2    C5  355   2.860   1.084  14.838 -0.5134 -0.2342  0.1077
   23MPD2     H  356   2.747   1.368  15.066  0.8166  0.8224 -0.1840
   23MPD2    H1  357   2.760   1.172  14.679 -2.4811  1.6794  0.8482
   23MPD2    H2  358   2.973   1.015  14.996 -0.6524 -0.3743  0.2659
   23MPD2    H3  359   2.904   1.004  14.780 -1.5259  0.8935 -2.2006
   23MPD2     N  360   2.626   1.358  14.794  0.3031  0.0161 -0.2514
   23MPD2    H5  361   2.610   1.341  14.695  1.3321  0.1721 -0.4377
   23MPD2    N1  362   2.915   1.221  15.179 -0.3534 -0.4748 -0.9688
   23MPD2    H7  363   2.898   1.307  15.229  2.6202 -0.9238  0.8134
   24TCq2    C1  364   2.566   1.466  14.851  0.1394  0.3878 -0.0502
   24TCq2    O2  365   2.582   1.524  14.959 -0.0018 -0.1996 -0.0585
   24TCq2    C2  366   2.453   1.511  14.764 -0.7050  0.4372  0.4277
   24TCq2    C3  367   2.438   1.649  14.755 -0.6268  0.2952 -0.4600
   24TCq2    C4  368   2.337   1.696  14.673 -0.0756  0.4435  0.1925
   24TCq2    C5  369   2.266   1.615  14.587  0.0906 -0.1018  0.3702
   24TCq2    C6  370   2.289   1.478  14.592  0.8257  0.7976  0.4520
   24TCq2    C7  371   2.381   1.430  14.678 -0.5216  0.4817 -0.1613
   24TCq2    C8  372   2.183   1.386  14.558  0.7772 -0.2200 -0.4492
   24TCq2    O4  373   2.216   1.269  14.562  0.1752  0.0164 -0.1562
   24TCq2    C9  374   2.304   1.840  14.671 -0.1392  0.4720  0.2361
   24TCq2    O5  375   2.195   1.875  14.617  0.3435  0.2522 -0.4936
   24TCq2    O6  376   2.384   1.923  14.722 -0.1583  0.4952  0.1054
   24TCq2    H2  377   2.497   1.707  14.824  0.9019 -0.8114 -0.8280
   24TCq2    H3  378   2.188   1.656  14.524  0.1724 -1.1208 -0.4082
   24TCq2    H4  379   2.362   1.328  14.710  2.0974 -0.5227 -1.7954
   25TMC2    C1  380   1.603   3.845  11.202  0.2512  0.2067 -0.4613
   25TMC2    C2  381   1.731   3.829  11.245 -1.0238  0.4586 -0.7111
   25TMC2    C3  382   1.750   3.868  11.379 -0.4441 -0.0802  1.1482
   25TMC2    C4  383   1.503   3.905  11.275  0.2918 -0.2442 -0.8132
   25TMC2    C5  384   1.531   3.938  11.408 -0.1772 -0.3354 -0.0838
   25TMC2    C6  385   1.654   3.911  11.465 -0.0978 -0.5520 -0.0242
   25TMC2     C  386   1.570   3.783  11.080  0.0989  0.4756  0.5660
   25TMC2     O  387   1.661   3.786  10.997 -0.0960 -0.4177  0.0455
   25TMC2     H  388   1.802   3.769  11.188 -0.8410  1.6491 -1.7304
   25TMC2    H1  389   1.405   3.920  11.230  0.3583 -1.7135 -1.4411
   25TMC2    H2  390   1.685   3.939  11.565 -3.1960  2.6797  0.0238
   25TMC2    C7  391   1.436   3.988  11.500  0.3746 -0.0709  0.3662
   25TMC2    C8  392   1.879   3.831  11.443 -0.3915 -0.2429 -0.7961
   25TMC2    O1  393   1.453   3.978  11.620 -0.3849 -0.1811 -0.5296
   25TMC2    O2  394   1.887   3.780  11.555 -0.2690  0.3369 -0.1119
   25TMC2    O5  395   1.967   3.810  11.345 -0.4275  0.4033  0.2729
   25TMC2    H5  396   1.939   3.861  11.266  1.4125 -1.2452 -1.4327
   26MPD2     C  397   1.313   3.491  10.749  0.1068 -0.3405  0.0595
   26MPD2    C1  398   1.223   3.541  10.845  0.3880 -0.8268  0.5436
   26MPD2    C2  399   1.264   3.628  10.946 -0.3771  0.7896  0.0729
   26MPD2    C3  400   1.404   3.639  10.962 -0.0361  0.8219  0.0633
   26MPD2    C4  401   1.490   3.583  10.870 -0.6851  0.0118 -0.2526
   26MPD2    C5  402   1.443   3.501  10.769  0.1855 -0.2365 -0.9577
   26MPD2     H  403   1.202   3.666  11.027  0.9019 -0.5624  1.6918
   26MPD2    H1  404   1.595   3.584  10.895 -0.1812  2.2394 -2.4882
   26MPD2    H2  405   1.291   3.422  10.668 -0.5721  0.2136 -0.2253
   26MPD2    H3  406   1.509   3.452  10.698  0.7171  0.1493 -0.7368
   26MPD2     N  407   1.444   3.726  11.069  0.1568 -0.2013 -0.1818
   26MPD2    H5  408   1.382   3.747  11.146 -1.4854 -0.3833 -1.4686
   26MPD2    N1  409   1.092   3.509  10.820  0.3604  0.5001  0.1677
   26MPD2    H7  410   1.075   3.453  10.737  0.1968  2.2254 -0.9685
   27TMC2    C1  411   0.338   1.228  11.978 -0.2105  0.9073 -0.5126
   27TMC2    C2  412   0.268   1.268  11.867 -0.2670  0.1711  0.1773
   27TMC2    C3  413   0.223   1.399  11.869  0.0768  0.0954  0.5594
   27TMC2    C4  414   0.373   1.310  12.082 -0.4575  0.3601 -0.3069
   27TMC2    C5  415   0.316   1.435  12.086  0.0420 -0.4112 -0.5364
   27TMC2    C6  416   0.244   1.478  11.980 -0.7777 -0.0520 -0.4383
   27TMC2     C  417   0.289   1.106  12.035 -0.2093  0.3631 -1.0817
   27TMC2     O  418   0.379   1.031  12.075 -0.2959  0.0333 -0.0881
   27TMC2     H  419   0.221   1.194  11.802 -1.2429  0.9812 -0.0402
   27TMC2    H1  420   0.414   1.278  12.177 -0.6085  2.4397  0.4588
   27TMC2    H2  421   0.202   1.578  11.984  0.9386  0.6627 -0.0817
   27TMC2    C7  422   0.250   1.452  12.212 -0.4183 -0.5774  0.4509
   27TMC2    C8  423   0.197   1.476  11.751 -0.0506 -0.0773  0.5402
   27TMC2    O1  424   0.290   1.383  12.306 -0.8020 -0.0911 -0.1004
   27TMC2    O2  425   0.140   1.584  11.755 -0.2505  0.2315 -0.2649
   27TMC2    O5  426   0.271   1.424  11.649 -0.3168 -0.0141 -0.1934
   27TMC2    H5  427   0.329   1.350  11.679  0.5969  1.0645  0.6907
   28MPD2     C  428   4.642   0.884  12.308 -0.0069 -0.0920 -0.2495
   28MPD2    C1  429   4.599   1.007  12.269  0.8421  0.4475  0.3154
   28MPD2    C2  430   4.684   1.078  12.196 -0.0952 -0.1521  0.5795
   28MPD2    C3  431   0.079   1.036  12.154 -0.1271 -0.2790 -0.1303
   28MPD2    C4  432   0.126   0.910  12.185 -0.2216  0.2351  0.7108
   28MPD2    C5  433   0.041   0.840  12.268 -0.0368 -0.2107 -0.6894
   28MPD2     H  434   4.664   1.178  12.159  1.8480 -1.3297 -3.6440
   28MPD2    H1  435   0.223   0.871  12.155 -1.0602 -0.2143 -1.3663
   28MPD2    H2  436   4.577   0.824  12.371  0.6215  2.3094  2.6848
   28MPD2    H3  437   0.083   0.745  12.299 -1.7500 -0.3550  1.1871
   28MPD2     N  438   0.157   1.121  12.069 -0.3909  0.4515  0.6822
   28MPD2    H5  439   0.110   1.204  12.035 -1.1932 -0.0761  0.4996
   28MPD2    N1  440   4.487   1.060  12.332 -0.2063  0.0892  0.4510
   28MPD2    H7  441   4.446   1.015  12.413  0.2863 -3.7522 -1.4691
   29MPD2     C  442   0.233   3.722  13.881 -0.1964 -1.0703 -0.6340
   29MPD2    C1  443   0.270   3.628  13.975 -0.1342  0.0559 -0.3709
   29MPD2    C2  444   0.286   3.667  14.107 -0.6277 -0.4069  0.4445
   29MPD2    C3  445   0.257   3.799  14.137 -0.2996  0.3676 -0.1387
   29MPD2    C4  446   0.221   3.889  14.038  1.0846 -0.0676  0.8004
   29MPD2    C5  447   0.202   3.852  13.913  0.3998  0.8278  0.2804
   29MPD2     H  448   0.312   3.592  14.181  0.6517 -1.3274 -0.9391
   29MPD2    H1  449   0.193   3.991  14.065  1.5667  0.2848 -0.0165
   29MPD2    H2  450   0.233   3.690  13.777  1.3572 -1.3986 -0.5234
   29MPD2    H3  451   0.175   3.921  13.834  0.7131  0.9001  0.2359
   29MPD2     N  452   0.237   3.851  14.267 -0.3873  0.3694 -0.2536
   29MPD2    H5  453   0.209   3.948  14.276  0.3233  0.3660  2.2314
   29MPD2    N1  454   0.303   3.495  13.932 -0.4355  0.6411  0.7726
   29MPD2    H7  455   0.355   3.439  13.999 -0.3358  0.1197  0.2529
   30TCq2    C1  456   0.251   3.789  14.390 -0.6882  0.0573  0.3752
   30TCq2    O2  457   0.284   3.676  14.413 -0.0310 -0.1124  0.6363
   30TCq2    C2  458   0.213   3.880  14.500 -0.1147 -0.7417  0.4283
   30TCq2    C3  459   0.190   3.831  14.625 -0.6462  0.1604 -0.5898
   30TCq2    C4  460   0.131   3.908  14.715 -0.0222 -0.3312 -0.4503
   30TCq2    C5  461   0.105   4.041  14.681  0.9488  0.6325 -0.1700
   30TCq2    C6  462   0.128   4.095  14.557 -0.3679  0.3682  0.4812
   30TCq2    C7  463   0.183   4.009  14.458  0.4863 -0.3588 -0.1583
   30TCq2    C8  464   0.115   4.236  14.528  0.5497  0.3139  0.4020
   30TCq2    O4  465   0.047   4.296  14.606 -0.0970 -0.5403  0.4660
   30TCq2    C9  466   0.112   3.871  14.859 -0.3791  0.0658 -0.5154
   30TCq2    O5  467   0.110   3.970  14.940 -0.5074  0.1606 -0.2109
   30TCq2    O6  468   0.142   3.751  14.893 -0.1828  0.6938 -0.4363
   30TCq2    H2  469   0.211   3.727  14.646  0.4893  0.4818 -0.1725
   30TCq2    H3  470   0.056   4.101  14.758  0.3759 -0.7183  0.5247
   30TCq2    H4  471   0.207   4.059  14.365  3.3772  1.6723  1.6660
   31MPD2     C  472   2.817   2.408  14.694  0.3037 -0.1993  0.2730
   31MPD2    C1  473   2.739   2.517  14.674 -0.0383 -0.5881  0.1915
   31MPD2    C2  474   2.638   2.546  14.767 -0.8364 -0.0028 -0.3879
   31MPD2    C3  475   2.616   2.460  14.877 -0.7406 -0.4336  0.2585
   31MPD2    C4  476   2.704   2.351  14.895 -0.2520 -0.9067  0.1138
   31MPD2    C5  477   2.804   2.329  14.804  0.2668  0.0932 -0.7021
   31MPD2     H  478   2.576   2.635  14.759 -0.3755  0.1727 -1.9375
   31MPD2    H1  479   2.681   2.279  14.973  0.2318 -0.4657  0.6669
   31MPD2    H2  480   2.891   2.390  14.617 -1.6304 -0.5664 -1.5101
   31MPD2    H3  481   2.871   2.244  14.807 -0.8557 -0.6974  1.4150
   31MPD2     N  482   2.518   2.487  14.972  0.2893 -0.4823 -0.9537
   31MPD2    H5  483   2.508   2.410  15.036 -1.2281 -0.7932 -1.5632
   31MPD2    N1  484   2.749   2.597  14.556  0.2039  0.1603 -0.2701
   31MPD2    H7  485   2.686   2.677  14.562 -0.4290 -0.3077 -0.7102
   32TCq2    C1  486   2.414   2.580  14.973  0.3089  0.6201  0.2851
   32TCq2    O2  487   2.385   2.662  14.886 -0.4116  0.4985 -0.1446
   32TCq2    C2  488   2.332   2.577  15.091 -0.2439 -0.6247 -0.2780
   32TCq2    C3  489   2.199   2.590  15.066  0.2586 -0.0216  0.2112
   32TCq2    C4  490   2.111   2.583  15.176  0.4621 -0.5699  0.1025
   32TCq2    C5  491   2.159   2.568  15.302 -0.5975  0.5537 -0.2356
   32TCq2    C6  492   2.296   2.566  15.316  0.2076  0.2959 -0.0286
   32TCq2    C7  493   2.388   2.579  15.217 -0.5020  1.0361  0.6427
   32TCq2    C8  494   2.346   2.577  15.454 -0.3704  0.4845 -0.1567
   32TCq2    O4  495   2.290   2.510  15.542  0.4045 -0.1568 -0.2862
   32TCq2    C9  496   1.974   2.585  15.155 -0.1689  0.4867 -0.6763
   32TCq2    O5  497   1.936   2.645  15.051  0.0864  0.5427 -0.2533
   32TCq2    O6  498   1.892   2.553  15.248  0.3669  0.0359 -0.3053
   32TCq2    H2  499   2.158   2.593  14.966 -1.3357 -0.1128  0.8678
   32TCq2    H3  500   2.092   2.562  15.387  1.7035  0.8610  1.6136
   32TCq2    H4  501   2.495   2.572  15.233  0.0459  0.1978 -3.4419
   33MPD2     C  502   2.453   0.258   9.921 -0.1042  0.8559 -0.8828
   33MPD2    C1  503   2.525   0.209  10.022 -0.4795 -0.5023 -0.2703
   33MPD2    C2  504   2.595   0.284  10.106 -0.9635  0.1740 -0.2779
   33MPD2    C3  505   2.610   0.416  10.078 -0.0125 -0.0505 -0.5298
   33MPD2    C4  506   2.540   0.473   9.977  0.3003 -0.1960 -0.0485
   33MPD2    C5  507   2.456   0.396   9.902 -0.1620 -0.6409 -1.1005
   33MPD2     H  508   2.632   0.235  10.195 -0.6189  0.0352 -0.4986
   33MPD2    H1  509   2.541   0.579   9.955 -2.5725  0.7351  4.2384
   33MPD2    H2  510   2.388   0.205   9.852 -0.2808 -0.5804  0.4037
   33MPD2    H3  511   2.388   0.440   9.831 -0.2433 -1.2696 -1.4079
   33MPD2     N  512   2.681   0.514  10.159 -0.2310 -0.2072  0.1032
   33MPD2    H5  513   2.673   0.611  10.133 -1.6670 -0.0005  1.3237
   33MPD2    N1  514   2.511   0.070  10.052 -0.5517  0.7225  0.9146
   33MPD2    H7  515   2.451   0.020   9.988  0.2557 -0.6266  1.2258
   34TCq2    C1  516   2.753   0.477  10.278 -0.3306 -0.9025  0.1246
   34TCq2    O2  517   2.756   0.361  10.328  0.1821  0.3878  0.3630
   34TCq2    C2  518   2.834   0.583  10.331 -0.1225 -0.4148  0.4830
   34TCq2    C3  519   2.847   0.597  10.467  0.4251 -0.3125  0.4139
   34TCq2    C4  520   2.901   0.711  10.517  0.3390  0.2539  0.5211
   34TCq2    C5  521   2.947   0.814  10.433  0.0691  0.2606 -0.3752
   34TCq2    C6  522   2.927   0.797  10.301  0.6389 -0.3781 -0.2565
   34TCq2    C7  523   2.888   0.677  10.250 -0.0624 -0.2320  0.1899
   34TCq2    C8  524   2.971   0.898  10.205 -0.0899  0.1608  0.9832
   34TCq2    O4  525   2.966   0.872  10.084 -0.0844  0.0335 -0.0899
   34TCq2    C9  526   2.897   0.737  10.658 -0.5567 -0.2473  0.4940
   34TCq2    O5  527   2.943   0.844  10.702  0.3012  0.1740 -0.0028
   34TCq2    O6  528   2.857   0.642  10.727  0.0527 -0.4660  0.0576
   34TCq2    H2  529   2.793   0.530  10.534 -2.6900  1.9043  0.1301
   34TCq2    H3  530   2.996   0.902  10.471  0.2761  0.1152 -0.3051
   34TCq2    H4  531   2.870   0.667  10.144  1.3073 -0.9654  0.0273
   35MPD2     C  532   3.238   1.491  12.155 -0.2219  0.1351 -0.1765
   35MPD2    C1  533   3.278   1.424  12.050 -0.2980 -0.2888  0.4627
   35MPD2    C2  534   3.182   1.368  11.962  0.0777 -0.2429  0.7339
   35MPD2    C3  535   3.047   1.378  11.995  0.0707  0.1387  0.6318
   35MPD2    C4  536   3.011   1.449  12.111 -0.1759  0.4551 -0.2225
   35MPD2    C5  537   3.108   1.503  12.189 -0.6238 -0.5652  0.3797
   35MPD2     H  538   3.205   1.303  11.878 -0.0033  0.0320  0.4963
   35MPD2    H1  539   2.914   1.456  12.159  0.7977 -0.7611  1.9268
   35MPD2    H2  540   3.314   1.531  12.221  0.1335  0.1364 -0.5868
   35MPD2    H3  541   3.095   1.556  12.283 -2.3967 -0.0919 -0.1237
   35MPD2     N  542   2.961   1.324  11.901  0.0668 -0.2630  0.3070
   35MPD2    H5  543   3.001   1.278  11.820 -0.6201 -0.6503  0.1892
   35MPD2    N1  544   3.417   1.405  12.027  0.3958 -0.4457  0.3181
   35MPD2    H7  545   3.474   1.468  12.083 -1.5442  1.5133  0.0340
   36TCq2    C1  546   2.826   1.319  11.910 -0.4764 -0.9562 -0.4554
   36TCq2    O2  547   2.750   1.390  11.969 -0.5888 -0.2291  0.1762
   36TCq2    C2  548   2.781   1.237  11.800  0.2134 -0.2283 -0.5968
   36TCq2    C3  549   2.682   1.296  11.729  0.2782 -0.4913  0.1719
   36TCq2    C4  550   2.628   1.228  11.623  0.0720 -0.4068  0.1266
   36TCq2    C5  551   2.682   1.109  11.582  0.6071 -0.4767  0.6844
   36TCq2    C6  552   2.785   1.054  11.656  0.2375  0.1675  0.4596
   36TCq2    C7  553   2.832   1.119  11.766  0.4349 -0.2939 -0.0963
   36TCq2    C8  554   2.862   0.943  11.607 -0.2200 -0.5608 -0.4075
   36TCq2    O4  555   2.963   0.923  11.669  0.1657 -0.7494  0.3500
   36TCq2    C9  556   2.519   1.282  11.542 -0.5325 -0.4981 -0.3270
   36TCq2    O5  557   2.457   1.382  11.588 -0.3793  0.5353  0.0078
   36TCq2    O6  558   2.475   1.213  11.450  0.0510 -0.5494 -0.6593
   36TCq2    H2  559   2.646   1.397  11.747  2.5512  0.3656 -0.1449
   36TCq2    H3  560   2.640   1.068  11.491  2.7943 -1.7610  0.2542
   36TCq2    H4  561   2.910   1.073  11.826 -0.2138  1.4761  2.1094
   37TMC2    C1  562   1.130   1.402  11.521  0.0339 -0.1053  0.1195
   37TMC2    C2  563   1.163   1.402  11.385  0.6044  0.1499  0.1502
   37TMC2    C3  564   1.296   1.421  11.356  0.6212  0.1968  0.2576
   37TMC2    C4  565   1.230   1.414  11.619 -0.3358  0.5608  0.6652
   37TMC2    C5  566   1.360   1.419  11.584 -0.0323 -0.0444 -0.6953
   37TMC2    C6  567   1.397   1.441  11.452 -0.0780  0.6268  0.8009
   37TMC2     C  568   0.992   1.430  11.555  0.3879  0.1278 -0.2744
   37TMC2     O  569   0.917   1.449  11.458 -0.0455 -0.5003 -0.3549
   37TMC2     H  570   1.084   1.384  11.313  1.4181 -1.5886 -0.3112
   37TMC2    H1  571   1.202   1.397  11.723 -0.0373 -0.2591  0.6140
   37TMC2    H2  572   1.499   1.465  11.423 -0.4059  2.3451  1.0872
   37TMC2    C7  573   1.460   1.427  11.686  0.5096 -0.3973 -0.0586
   37TMC2    C8  574   1.335   1.424  11.217  0.3995 -0.4999 -0.6239
   37TMC2    O1  575   1.416   1.461  11.797 -0.1460  0.5271  0.1215
   37TMC2    O2  576   1.441   1.474  11.180 -0.5342 -0.4300 -0.0294
   37TMC2    O5  577   1.284   1.307  11.165 -0.5376  0.5936 -0.0461
   37TMC2    H5  578   1.220   1.251  11.214 -0.5208  0.1180 -0.5707
   38MPD2     C  579   0.649   1.501  11.915 -0.2969  0.1077 -0.0340
   38MPD2    C1  580   0.771   1.466  11.981  0.4767  0.3913  0.2910
   38MPD2    C2  581   0.886   1.444  11.903  0.0112 -0.6909 -0.3514
   38MPD2    C3  582   0.867   1.445  11.769 -0.1230  0.6447  0.3544
   38MPD2    C4  583   0.749   1.476  11.706 -0.5655  0.4207  0.3248
   38MPD2    C5  584   0.638   1.504  11.779 -0.6808 -0.2246  0.6483
   38MPD2     H  585   0.978   1.417  11.953  0.3657 -0.5761 -0.9482
   38MPD2    H1  586   0.739   1.465  11.598 -2.3474 -1.9686  0.7212
   38MPD2    H2  587   0.563   1.524  11.976  0.7815  2.1402  0.7139
   38MPD2    H3  588   0.544   1.523  11.729  0.0627  0.6668 -0.4089
   38MPD2     N  589   0.981   1.413  11.693 -0.1664 -0.1763 -0.2098
   38MPD2    H5  590   1.069   1.397  11.740 -0.4693  1.5677  0.9146
   38MPD2    N1  591   0.796   1.469  12.122  0.1615  0.4535  0.0022
   38MPD2    H7  592   0.881   1.433  12.166  1.0717  2.5851 -0.0058
   39MPD2     C  593   0.257   3.029   1.487 -0.0260  0.4772  0.1841
   39MPD2    C1  594   0.230   3.161   1.484 -0.0856  0.0075 -0.1355
   39MPD2    C2  595   0.121   3.204   1.412 -0.7488  0.1962 -0.1855
   39MPD2    C3  596   0.030   3.109   1.357 -0.2126 -0.3795 -0.5392
   39MPD2    C4  597   0.053   2.971   1.382 -0.4602 -0.9535 -0.0449
   39MPD2    C5  598   0.165   2.930   1.450 -0.9775 -0.2734 -0.4003
   39MPD2     H  599   0.102   3.311   1.412 -2.3047 -0.0945  2.0122
   39MPD2    H1  600   4.701   2.896   1.371 -0.1418 -1.3696  0.5897
   39MPD2    H2  601   0.351   2.995   1.528  0.0538  0.4945  0.0191
   39MPD2    H3  602   0.183   2.823   1.458 -1.7990 -0.3875 -0.0509
   39MPD2     N  603   4.649   3.146   1.271 -0.0419 -0.1916  1.0402
   39MPD2    H5  604   4.606   3.074   1.213  2.6130  1.4656 -2.9973
   39MPD2    N1  605   0.332   3.248   1.529 -0.5627  0.1121 -0.1378
   39MPD2    H7  606   0.420   3.207   1.559 -0.6414 -0.1173 -0.2141
   40TCq2    C1  607   0.316   3.379   1.556  0.0014 -0.6972 -0.6607
   40TCq2    O2  608   0.216   3.449   1.559 -0.0407  0.0869  0.7654
   40TCq2    C2  609   0.439   3.441   1.611  0.5817  0.3393 -0.1226
   40TCq2    C3  610   0.420   3.536   1.711  0.7816  0.1986 -0.5412
   40TCq2    C4  611   0.532   3.586   1.773  0.4178  0.0253  0.1845
   40TCq2    C5  612   0.655   3.549   1.736  0.1207 -0.0383  0.4480
   40TCq2    C6  613   0.666   3.447   1.644 -0.1929 -0.4132 -0.1688
   40TCq2    C7  614   0.564   3.392   1.575  0.4907  0.2305 -0.5167
   40TCq2    C8  615   0.800   3.405   1.601  0.6262  0.2573  0.0780
   40TCq2    O4  616   0.809   3.290   1.567 -0.0558 -0.2109  0.4590
   40TCq2    C9  617   0.513   3.685   1.875  0.1854  0.3634 -0.1126
   40TCq2    O5  618   0.397   3.738   1.892 -0.3578  0.0510  0.0427
   40TCq2    O6  619   0.622   3.739   1.920  0.3318 -0.3279 -0.1872
   40TCq2    H2  620   0.319   3.568   1.734  1.3502  0.4734  1.5988
   40TCq2    H3  621   0.741   3.587   1.791  1.2211 -1.4672 -0.2672
   40TCq2    H4  622   0.573   3.321   1.494  0.5836 -0.7577  0.3614
   41TMC2    C1  623   3.565   2.036  13.856  0.2570  0.1085 -0.6257
   41TMC2    C2  624   3.686   2.075  13.805  0.4044  0.2021 -0.6178
   41TMC2    C3  625   3.703   2.096  13.675  0.3143 -0.1615  0.2676
   41TMC2    C4  626   3.454   2.015  13.771  0.2065  0.4084  0.1611
   41TMC2    C5  627   3.477   2.047  13.639 -0.3240 -0.1332 -0.2845
   41TMC2    C6  628   3.597   2.089  13.582  0.0908 -0.8420 -0.7782
   41TMC2     C  629   3.581   1.971  13.988  0.1168  0.5019  0.2348
   41TMC2     O  630   3.697   1.934  14.000  0.2590  0.1417 -0.0239
   41TMC2     H  631   3.767   2.102  13.872 -0.7357  2.5120 -0.1613
   41TMC2    H1  632   3.368   1.970  13.818  0.4743  1.0307  1.2483
   41TMC2    H2  633   3.613   2.137  13.485 -0.3045 -3.5676 -2.1910
   41TMC2    C7  634   3.363   2.009  13.560 -0.4897  0.5436  0.1470
   41TMC2    C8  635   3.824   2.160  13.628  0.0137  0.1049 -0.0819
   41TMC2    O1  636   3.265   1.993  13.629  0.0285 -0.3966 -0.0821
   41TMC2    O2  637   3.819   2.232  13.527  0.8250  0.1179 -0.4115
   41TMC2    O5  638   3.929   2.121  13.705 -0.6359 -0.3483  0.2415
   41TMC2    H5  639   3.918   2.050  13.772  0.8746 -0.5773  0.2661
   42MPD2     C  640   3.581   1.863  14.267 -0.2993 -0.3756 -0.1161
   42MPD2    C1  641   3.498   1.965  14.217  0.7112  0.5230 -0.5325
   42MPD2    C2  642   3.406   2.023  14.304 -0.6459 -0.4668  0.8365
   42MPD2    C3  643   3.395   1.984  14.434 -0.5687 -0.1670 -0.8236
   42MPD2    C4  644   3.473   1.886  14.477  0.8813  0.1534  0.1044
   42MPD2    C5  645   3.569   1.826  14.404 -0.6185  0.9443 -0.0758
   42MPD2     H  646   3.336   2.094  14.261 -1.4882 -1.3250  0.7858
   42MPD2    H1  647   3.459   1.861  14.582  1.3576  1.0791  0.3866
   42MPD2    H2  648   3.646   1.801  14.206  0.8752  0.7185  0.0354
   42MPD2    H3  649   3.625   1.743  14.444 -0.6772  1.0945  0.3222
   42MPD2     N  650   3.310   2.043  14.533 -0.3170 -0.0256 -0.1291
   42MPD2    H5  651   3.310   1.993  14.621  0.4876 -0.5751 -0.4458
   42MPD2    N1  652   3.495   2.007  14.085 -0.3132  0.3572  0.4601
   42MPD2    H7  653   3.424   2.077  14.065  0.1213  0.4932 -0.5887
   43MPD2     C  654   1.723   0.070   0.496 -0.4321  0.6361 -0.1798
   43MPD2    C1  655   1.627   4.699   0.466 -0.2155 -0.1206  0.2143
   43MPD2    C2  656   1.513   0.022   0.402 -0.0362 -0.4053 -0.7975
   43MPD2    C3  657   1.493   0.153   0.371 -0.6601 -0.1474  0.5204
   43MPD2    C4  658   1.592   0.246   0.406  0.9024 -0.0547 -0.8642
   43MPD2    C5  659   1.704   0.205   0.477  0.0804  0.1454  0.4334
   43MPD2     H  660   1.435   4.675   0.381 -1.3439  1.2281 -1.5465
   43MPD2    H1  661   1.569   0.349   0.379  1.2356  0.2113 -0.1429
   43MPD2    H2  662   1.823   0.045   0.529  1.0520  3.4443 -2.5097
   43MPD2    H3  663   1.781   0.281   0.484 -0.9994  1.4379 -1.6139
   43MPD2     N  664   1.373   0.204   0.312  1.2348  0.4331  0.7205
   43MPD2    H5  665   1.374   0.305   0.299 -0.8374  0.6857  2.3951
   43MPD2    N1  666   1.655   4.560   0.498  0.8603  0.0416  0.5819
   43MPD2    H7  667   1.586   4.491   0.472  0.9475 -0.3949  1.5145
   44TCq2    C1  668   0.993   0.533   0.205  0.3555  0.1108  0.2098
   44TCq2    O2  669   0.931   0.606   0.129  0.3205  0.4443  0.4463
   44TCq2    C2  670   1.041   0.406   0.146 -0.0602 -0.1457  0.6917
   44TCq2    C3  671   0.962   0.340   0.063 -0.0327  0.0172  0.0762
   44TCq2    C4  672   0.976   0.212   0.042 -0.3344 -0.0078  0.3087
   44TCq2    C5  673   1.077   0.142   0.109  0.4126 -0.3893  0.5350
   44TCq2    C6  674   1.170   0.213   0.180 -0.3313  0.1608 -0.4284
   44TCq2    C7  675   1.143   0.343   0.206  0.7858 -0.2283  0.5059
   44TCq2    C8  676   1.275   0.134   0.247  0.3773  0.0746  0.6261
   44TCq2    O4  677   1.271   0.014   0.233 -0.0116 -0.3085 -0.2846
   44TCq2    C9  678   0.866   0.149  17.664  0.2016 -0.8079 -0.2830
   44TCq2    O5  679   0.797   0.222  17.587  0.1568  0.0946 -0.1622
   44TCq2    O6  680   0.866   0.024  17.664 -0.4517 -0.5772  0.2407
   44TCq2    H2  681   0.877   0.396   0.025 -0.4521 -1.5788 -1.3235
   44TCq2    H3  682   1.105   0.041   0.081 -0.5505 -0.5391  0.1154
   44TCq2    H4  683   1.212   0.393   0.274  1.2923 -0.4735  0.1680
   45TMC2    C1  684   1.132   2.251   8.923  0.2136 -0.6967  0.1804
   45TMC2    C2  685   1.261   2.251   8.964  0.1504  0.7457  0.0384
   45TMC2    C3  686   1.324   2.370   8.990  0.0710 -0.4404 -0.5837
   45TMC2    C4  687   1.067   2.370   8.891 -0.1195  0.4152  0.1270
   45TMC2    C5  688   1.132   2.484   8.918 -0.2695  0.5475 -0.2318
   45TMC2    C6  689   1.262   2.491   8.965 -0.7220 -0.3620 -0.9507
   45TMC2     C  690   1.052   2.139   8.970 -0.7041 -0.0302 -0.9246
   45TMC2     O  691   1.105   2.061   9.045 -0.2196  0.5350 -0.9112
   45TMC2     H  692   1.312   2.160   8.994  1.2766  1.6295  0.8324
   45TMC2    H1  693   0.965   2.390   8.859  0.5156  1.3054 -1.3390
   45TMC2    H2  694   1.317   2.585   8.958 -1.0066  0.0750  2.8766
   45TMC2    C7  695   1.057   2.606   8.921 -0.2698  0.1312 -0.2159
   45TMC2    C8  696   1.469   2.368   8.976  0.3241 -0.1551 -0.7708
   45TMC2    O1  697   0.948   2.607   8.869 -0.4194 -0.6404  0.3454
   45TMC2    O2  698   1.531   2.318   8.881 -0.1431 -0.3358 -0.3975
   45TMC2    O5  699   1.522   2.441   9.076 -0.2329 -0.4324  0.4055
   45TMC2    H5  700   1.459   2.470   9.145  2.0016 -0.1092  2.2840
   46MPD2     C  701   0.862   1.933   9.054  0.1650  0.0266  0.1484
   46MPD2    C1  702   0.843   2.017   8.947 -0.1524 -0.0766 -0.4843
   46MPD2    C2  703   0.731   1.999   8.870  0.0523 -0.6736 -0.3672
   46MPD2    C3  704   0.639   1.894   8.893 -1.1196  0.3856 -0.7584
   46MPD2    C4  705   0.655   1.819   9.011 -0.9192  0.4109  0.3457
   46MPD2    C5  706   0.769   1.838   9.083 -0.7041  0.2312  0.2236
   46MPD2     H  707   0.720   2.069   8.788  2.1920  1.3508  1.0778
   46MPD2    H1  708   0.591   1.738   9.043 -2.3031  0.3251 -2.5808
   46MPD2    H2  709   0.944   1.922   9.123  0.3352 -1.9478 -0.3499
   46MPD2    H3  710   0.803   1.781   9.168  1.4019  3.3791  1.4990
   46MPD2     N  711   0.531   1.869   8.801  0.1268 -0.1108 -0.3378
   46MPD2    H5  712   0.527   1.946   8.734 -0.1362  0.4717  0.3430
   46MPD2    N1  713   0.932   2.117   8.910  1.1373  0.0918 -0.0757
   46MPD2    H7  714   0.903   2.176   8.832  0.5867 -0.6756 -0.4506
   47TMC2    C1  715   2.496   2.565   8.872 -0.8805  0.0510  0.4994
   47TMC2    C2  716   2.487   2.432   8.903 -0.1853  0.2694  0.3411
   47TMC2    C3  717   2.368   2.379   8.868 -1.2055 -0.3758  0.1323
   47TMC2    C4  718   2.392   2.633   8.803  0.1061 -0.4114 -1.1891
   47TMC2    C5  719   2.281   2.570   8.769  0.0301 -0.0898  0.2462
   47TMC2    C6  720   2.268   2.438   8.800 -0.2138  0.2878  0.2215
   47TMC2     C  721   2.617   2.646   8.905  0.6143 -0.1247 -0.5930
   47TMC2     O  722   2.625   2.766   8.873 -0.2081 -0.1561 -0.4490
   47TMC2     H  723   2.563   2.370   8.950 -0.1966 -0.0319 -0.0390
   47TMC2    H1  724   2.397   2.741   8.804 -0.6260 -0.3895 -0.5373
   47TMC2    H2  725   2.181   2.377   8.778  2.0076 -2.4742 -0.9391
   47TMC2    C7  726   2.171   2.630   8.694  0.0907 -0.5848  0.0790
   47TMC2    C8  727   2.324   2.257   8.933 -0.4238 -0.1761  0.6235
   47TMC2    O1  728   2.087   2.555   8.639  0.5840  0.1195 -0.2433
   47TMC2    O2  729   2.294   2.149   8.888 -0.2206  0.4412 -0.3523
   47TMC2    O5  730   2.349   2.284   9.057  0.3626  0.3577  0.1577
   47TMC2    H5  731   2.354   2.378   9.084  2.3616  0.9219 -2.1931
   48MPD2     C  732   2.858   2.734   9.053  0.3004  0.0049  0.3696
   48MPD2    C1  733   2.844   2.606   8.999 -1.1489  0.0031 -0.1615
   48MPD2    C2  734   2.951   2.517   9.004 -0.0450  0.2785  0.1559
   48MPD2    C3  735   3.069   2.553   9.073  0.1146 -0.2880 -0.4503
   48MPD2    C4  736   3.080   2.681   9.120  0.9475  0.0056 -0.6372
   48MPD2    C5  737   2.975   2.772   9.116 -0.2300  0.0004 -0.0426
   48MPD2     H  738   2.935   2.422   8.955 -0.1878  0.0201  0.7053
   48MPD2    H1  739   3.155   2.716   9.190 -2.7540  2.4972  2.0908
   48MPD2    H2  740   2.781   2.809   9.064  0.1985 -0.1770  0.9236
   48MPD2    H3  741   2.993   2.864   9.169  0.6506 -0.9033  1.2326
   48MPD2     N  742   3.179   2.467   9.072 -0.3721  0.7294 -0.4641
   48MPD2    H5  743   3.162   2.387   9.012  6.2439 -0.6608 -0.5069
   48MPD2    N1  744   2.720   2.561   8.941 -0.2480 -0.4156  0.7004
   48MPD2    H7  745   2.715   2.461   8.922 -0.1923  0.1343 -2.1937
   49MPD2     C  746   1.207   4.703   9.468  0.3348 -0.2996 -0.2953
   49MPD2    C1  747   1.115   4.681   9.562 -0.4091  0.3099 -0.3636
   49MPD2    C2  748   1.121   0.028   9.682 -0.7548  0.4302  1.2565
   49MPD2    C3  749   1.224   0.124   9.703  0.2039  0.1094  0.6142
   49MPD2    C4  750   1.319   0.145   9.601 -0.2901 -0.7842  0.2735
   49MPD2    C5  751   1.304   0.074   9.484  0.1429  0.0219 -1.0874
   49MPD2     H  752   1.050   4.722   9.757 -1.8290  1.3647  0.6210
   49MPD2    H1  753   1.397   0.219   9.612 -0.9210 -0.0054 -0.4107
   49MPD2    H2  754   1.209   4.646   9.376  1.2906 -1.3690  0.3922
   49MPD2    H3  755   1.377   0.081   9.404 -0.0930  0.0700 -1.2989
   49MPD2     N  756   1.245   0.197   9.821 -0.4844  0.2245 -0.7205
   49MPD2    H5  757   1.332   0.246   9.838  0.8623 -2.1297 -0.8277
   49MPD2    N1  758   1.010   4.584   9.548  0.2496 -0.5918  0.0242
   49MPD2    H7  759   0.980   4.549   9.639 -1.2967  1.7268  0.4149
   50TCq2    C1  760   0.963   4.529   9.432  0.8282  0.0394  0.5700
   50TCq2    O2  761   0.981   4.571   9.315  0.2996  0.7028  0.2035
   50TCq2    C2  762   0.862   4.423   9.465  0.4814 -0.4389  0.0877
   50TCq2    C3  763   0.796   4.369   9.358  0.5386  0.3081 -0.4421
   50TCq2    C4  764   0.720   4.261   9.377 -0.5444  0.2927  0.3029
   50TCq2    C5  765   0.718   4.196   9.497  0.1234  0.0947  0.8251
   50TCq2    C6  766   0.782   4.255   9.605  0.0217  0.5182  0.0264
   50TCq2    C7  767   0.853   4.373   9.593  1.3751  0.0236  0.5177
   50TCq2    C8  768   0.762   4.211   9.739  0.1714  0.4028  0.3211
   50TCq2    O4  769   0.851   4.229   9.817 -0.3169 -0.2815  0.5045
   50TCq2    C9  770   0.646   4.200   9.266  0.7540  0.3420  0.0848
   50TCq2    O5  771   0.561   4.113   9.308  0.3248  0.1367 -0.2912
   50TCq2    O6  772   0.682   4.224   9.146  0.2139  0.3564 -0.3625
   50TCq2    H2  773   0.808   4.410   9.259 -0.1385  1.2892 -0.1162
   50TCq2    H3  774   0.680   4.095   9.502  0.1802 -0.0312 -1.2874
   50TCq2    H4  775   0.906   4.424   9.672  0.4563 -1.8595  2.3494
   51MPD2     C  776   1.683   3.139   0.955 -0.5722  0.3701  1.0109
   51MPD2    C1  777   1.803   3.072   0.965  0.0876 -0.2826 -0.1589
   51MPD2    C2  778   1.875   3.088   1.083 -0.7444  0.0768 -0.1219
   51MPD2    C3  779   1.836   3.183   1.179  0.1470 -0.3175 -0.1025
   51MPD2    C4  780   1.725   3.265   1.153 -0.2305 -0.0149 -0.0746
   51MPD2    C5  781   1.647   3.236   1.042 -0.3941  0.8114 -0.3192
   51MPD2     H  782   1.957   3.019   1.096  0.1905  1.3162  0.5542
   51MPD2    H1  783   1.691   3.348   1.213 -0.6725 -1.0457  1.1001
   51MPD2    H2  784   1.621   3.143   0.866  1.1453 -0.3352 -0.2181
   51MPD2    H3  785   1.556   3.289   1.016 -1.9287 -1.3423  0.6902
   51MPD2     N  786   1.892   3.216   1.305  0.3612 -0.1161 -0.4185
   51MPD2    H5  787   1.842   3.282   1.364  0.8844 -0.5226  0.4847
   51MPD2    N1  788   1.843   2.971   0.877 -0.2151 -0.0123 -0.0408
   51MPD2    H7  789   1.933   2.928   0.897 -0.1100 -0.3605 -1.2153
   52TCq2    C1  790   1.987   3.131   1.363  0.1941 -0.3086  0.4600
   52TCq2    O2  791   2.010   3.016   1.324 -0.1015 -0.0220 -0.2661
   52TCq2    C2  792   1.998   3.151   1.506 -0.0358 -0.3258 -0.1824
   52TCq2    C3  793   2.027   3.042   1.590 -0.4685 -0.0244  0.0865
   52TCq2    C4  794   2.049   3.060   1.723  0.1786 -0.0240 -0.5175
   52TCq2    C5  795   2.032   3.177   1.782  1.2326  0.3308  0.3727
   52TCq2    C6  796   1.999   3.281   1.704  0.0062 -0.4569  0.6612
   52TCq2    C7  797   1.985   3.276   1.567 -0.5893  0.2680 -0.1308
   52TCq2    C8  798   2.042   3.410   1.750 -0.1295 -0.4228 -0.1052
   52TCq2    O4  799   2.156   3.411   1.805  0.4096 -0.7713 -0.1912
   52TCq2    C9  800   2.101   2.950   1.805 -0.4257  0.3217 -0.5578
   52TCq2    O5  801   2.180   2.980   1.897 -0.5744 -0.0231  0.0668
   52TCq2    O6  802   2.060   2.833   1.783  0.2571  0.4998 -0.5422
   52TCq2    H2  803   2.028   2.943   1.547 -1.1432  0.4310 -0.9904
   52TCq2    H3  804   2.050   3.186   1.888 -1.0016  0.8253  0.7197
   52TCq2    H4  805   1.985   3.369   1.512 -0.1367  0.5679  0.3695
   53TMC2    C1  806   1.859   1.380  12.324 -0.4702  0.3371 -0.2796
   53TMC2    C2  807   1.957   1.367  12.418 -0.8920 -0.1033 -0.0682
   53TMC2    C3  808   1.945   1.405  12.546 -0.4899  0.6733  0.9952
   53TMC2    C4  809   1.742   1.420  12.366  0.3847  0.4286 -0.2187
   53TMC2    C5  810   1.723   1.447  12.495 -0.2050 -0.0159  0.5867
   53TMC2    C6  811   1.823   1.435  12.595  0.2289  0.4433 -0.6441
   53TMC2     C  812   1.885   1.336  12.185  0.0254  1.2347 -0.0486
   53TMC2     O  813   1.997   1.283  12.175 -0.1450 -0.6356  0.2323
   53TMC2     H  814   2.057   1.351  12.378 -0.5289  1.0989  0.3603
   53TMC2    H1  815   1.661   1.424  12.294 -0.1512 -0.4308  0.3370
   53TMC2    H2  816   1.809   1.464  12.698 -3.2619 -2.5980 -0.2705
   53TMC2    C7  817   1.601   1.515  12.529  0.3488  0.3522 -0.2809
   53TMC2    C8  818   2.057   1.444  12.625 -0.0971  0.2736  0.6518
   53TMC2    O1  819   1.537   1.567  12.435  0.4069 -0.2910 -0.1586
   53TMC2    O2  820   2.048   1.537  12.703 -0.1731 -0.1021 -0.3846
   53TMC2    O5  821   2.150   1.352  12.602 -0.0883  0.1930  0.6254
   53TMC2    H5  822   2.116   1.277  12.549  1.4388 -0.4088  0.5088
   54MPD2     C  823   1.901   1.288  11.896 -0.0963 -0.0915 -0.3272
   54MPD2    C1  824   1.793   1.344  11.955  0.5651 -0.4015 -0.6825
   54MPD2    C2  825   1.686   1.380  11.875 -0.0050  0.1827 -0.2786
   54MPD2    C3  826   1.689   1.352  11.740  0.1561  0.0483 -0.4353
   54MPD2    C4  827   1.803   1.311  11.680 -1.1396  0.3301  0.1488
   54MPD2    C5  828   1.910   1.280  11.760  0.7248  0.7179  0.5042
   54MPD2     H  829   1.608   1.436  11.925  2.9009  3.5764  0.4187
   54MPD2    H1  830   1.809   1.297  11.572 -0.9714 -2.6538  0.5446
   54MPD2    H2  831   1.987   1.256  11.954  0.7370  0.5685 -1.2244
   54MPD2    H3  832   2.003   1.252  11.713  1.4581  2.3238  0.9830
   54MPD2     N  833   1.583   1.375  11.649  1.0237 -0.3533  0.3204
   54MPD2    H5  834   1.591   1.341  11.554 -0.0276 -1.9476  0.7947
   54MPD2    N1  835   1.789   1.373  12.094  0.1022  0.0176 -0.0532
   54MPD2    H7  836   1.708   1.427  12.123 -0.7988 -2.8605  2.8464
   55MPD2     C  837   3.264   3.407   0.618  0.3777  0.6202  0.8309
   55MPD2    C1  838   3.138   3.426   0.675 -0.1534 -0.4584 -0.1627
   55MPD2    C2  839   3.072   3.540   0.638 -0.3118  0.2687  0.2679
   55MPD2    C3  840   3.124   3.634   0.556 -0.3268 -0.1096  0.3746
   55MPD2    C4  841   3.241   3.608   0.491  1.4185  0.6697 -0.4843
   55MPD2    C5  842   3.305   3.492   0.526  0.0538  0.0446  0.3473
   55MPD2     H  843   2.975   3.559   0.685 -1.4506  0.1931 -2.0553
   55MPD2    H1  844   3.287   3.671   0.415  1.1542  0.6744 -0.6387
   55MPD2    H2  845   3.320   3.322   0.655  0.0687  0.4389  0.8770
   55MPD2    H3  846   3.389   3.470   0.461  0.5016  0.3204  0.8292
   55MPD2     N  847   3.064   3.757   0.556  0.1442  0.0070  0.1693
   55MPD2    H5  848   2.991   3.776   0.624  0.4488  0.8131  0.2754
   55MPD2    N1  849   3.092   3.332   0.768 -0.1270  0.3561 -0.5502
   55MPD2    H7  850   3.154   3.253   0.786 -0.8597  0.5590  2.8953
   56TCq2    C1  851   2.968   3.323   0.821 -0.2652  0.5894  0.1209
   56TCq2    O2  852   2.876   3.401   0.812 -0.4578 -0.0848 -0.4554
   56TCq2    C2  853   2.946   3.201   0.894  0.3785  0.3894 -0.8200
   56TCq2    C3  854   3.043   3.100   0.878 -0.0336  0.2326  0.4067
   56TCq2    C4  855   3.023   2.986   0.945  0.2189  0.1298  0.2786
   56TCq2    C5  856   2.920   2.984   1.045 -0.6353  0.8885  0.3722
   56TCq2    C6  857   2.825   3.084   1.048  0.6162 -1.0127  0.2552
   56TCq2    C7  858   2.843   3.199   0.979 -0.1141 -0.0736  0.0460
   56TCq2    C8  859   2.744   3.092   1.166  1.2644  0.2240 -0.9038
   56TCq2    O4  860   2.765   3.008   1.250  1.3848  0.1393 -0.0304
   56TCq2    C9  861   3.111   2.866   0.935 -0.3595  0.4319  0.0464
   56TCq2    O5  862   3.074   2.755   0.979  0.5315 -0.3205 -0.2100
   56TCq2    O6  863   3.226   2.887   0.894  0.5232 -0.5339 -1.1126
   56TCq2    H2  864   3.119   3.094   0.801  0.6599  1.2276  1.0220
   56TCq2    H3  865   2.917   2.887   1.093 -1.2588  1.5925  1.7484
   56TCq2    H4  866   2.781   3.287   0.994 -1.2643 -0.7638 -0.6438
   57TMC2    C1  867   2.284   0.745  13.703  0.9819  0.4444 -0.4251
   57TMC2    C2  868   2.190   0.652  13.744  0.0941  0.0270  0.0573
   57TMC2    C3  869   2.218   0.524  13.716  0.3822  0.4704 -0.6572
   57TMC2    C4  870   2.400   0.710  13.632  0.0120  0.1958 -0.8742
   57TMC2    C5  871   2.410   0.576  13.596  0.7109 -0.4846  0.0952
   57TMC2    C6  872   2.328   0.480  13.651  0.0458  0.3693 -0.7694
   57TMC2     C  873   2.214   0.864  13.665  0.3771  0.5631 -0.0727
   57TMC2     O  874   2.106   0.888  13.708 -0.3782 -0.4178 -0.5452
   57TMC2     H  875   2.090   0.675  13.777  0.0612 -2.3379  1.5775
   57TMC2    H1  876   2.476   0.779  13.597  2.0366 -0.2508  2.6196
   57TMC2    H2  877   2.338   0.375  13.625  1.9831  0.4381 -0.3350
   57TMC2    C7  878   2.538   0.551  13.529  0.3056 -0.1378  0.2686
   57TMC2    C8  879   2.132   0.421  13.768  0.1020 -0.4957  0.7254
   57TMC2    O1  880   2.637   0.592  13.583 -0.1898 -0.3283 -0.5030
   57TMC2    O2  881   2.118   0.314  13.709 -0.5270  0.4923 -0.2915
   57TMC2    O5  882   2.110   0.446  13.896  0.3123 -0.1124  0.2182
   57TMC2    H5  883   2.156   0.529  13.922 -0.0117  0.6266 -1.5877
   58MPD2     C  884   2.124   1.232  13.319 -0.1454  0.1753  0.1339
   58MPD2    C1  885   2.057   1.200  13.434 -0.1921  0.7054  0.3865
   58MPD2    C2  886   2.110   1.109  13.523 -0.3052 -0.0334 -0.9767
   58MPD2    C3  887   2.222   1.033  13.488 -0.0934  0.6098  1.0929
   58MPD2    C4  888   2.283   1.055  13.368  0.6022 -1.3471  0.2666
   58MPD2    C5  889   2.240   1.162  13.291 -0.1583 -0.2226  0.4062
   58MPD2     H  890   2.053   1.090  13.614 -0.2931  0.9197 -0.7676
   58MPD2    H1  891   2.369   1.000  13.331  0.4235 -0.4251 -1.4837
   58MPD2    H2  892   2.082   1.315  13.264 -0.3237  0.1192  0.1882
   58MPD2    H3  893   2.291   1.177  13.196 -0.0604  0.5302  0.5824
   58MPD2     N  894   2.280   0.926  13.562  0.0020  0.2573 -0.9770
   58MPD2    H5  895   2.366   0.890  13.522  0.1414 -0.4340 -0.0496
   58MPD2    N1  896   1.949   1.282  13.469 -0.1092 -0.0708 -0.1592
   58MPD2    H7  897   1.926   1.349  13.396 -0.4526 -0.2882 -0.2489
   59MPD2     C  898   4.201   0.625  13.165  0.0367 -0.6676  0.1666
   59MPD2    C1  899   4.295   0.593  13.067 -0.0531  0.2340  0.1218
   59MPD2    C2  900   4.430   0.614  13.094  0.1456 -1.0967 -0.2144
   59MPD2    C3  901   4.478   0.658  13.219 -0.2721 -0.3079  0.1701
   59MPD2    C4  902   4.381   0.660  13.317  0.1678 -0.1320 -0.3305
   59MPD2    C5  903   4.249   0.643  13.294 -0.0776 -0.2173 -0.0213
   59MPD2     H  904   4.502   0.599  13.014 -0.8535  0.7499 -1.4878
   59MPD2    H1  905   4.413   0.680  13.419  1.2683 -1.4990 -0.4172
   59MPD2    H2  906   4.094   0.620  13.147 -0.1589  1.4493  0.6296
   59MPD2    H3  907   4.176   0.667  13.371 -0.9096  2.0084 -1.5182
   59MPD2     N  908   4.608   0.689  13.250 -0.2366  0.1351 -0.0929
   59MPD2    H5  909   4.624   0.739  13.337  1.2142  0.4007 -0.5130
   59MPD2    N1  910   4.255   0.542  12.936 -0.3835 -0.1650 -0.5226
   59MPD2    H7  911   4.335   0.538  12.874  0.8264  0.5580  1.0185
   60TCq2    C1  912   4.126   0.518  12.890 -0.3831  0.4419  0.0848
   60TCq2    O2  913   4.030   0.498  12.956 -0.2465  0.0079  0.3845
   60TCq2    C2  914   4.118   0.491  12.744  0.2100  0.3546 -0.1177
   60TCq2    C3  915   4.019   0.406  12.706  0.0329  0.5793  1.0567
   60TCq2    C4  916   3.989   0.388  12.576 -0.1909 -0.5377  0.8138
   60TCq2    C5  917   4.042   0.476  12.483  0.2376 -0.2376  0.2932
   60TCq2    C6  918   4.123   0.582  12.526  0.4830 -0.0394 -0.5242
   60TCq2    C7  919   4.174   0.575  12.651  1.4242 -1.2109 -0.3671
   60TCq2    C8  920   4.193   0.675  12.439 -0.2762  0.1111 -0.0295
   60TCq2    O4  921   4.303   0.718  12.472 -0.4663 -0.4126 -0.6517
   60TCq2    C9  922   3.882   0.295  12.555  0.5783 -0.2283 -0.3037
   60TCq2    O5  923   3.798   0.279  12.647 -0.1863 -0.2053 -0.3535
   60TCq2    O6  924   3.875   0.239  12.445  0.3229 -0.1031  0.4533
   60TCq2    H2  925   3.982   0.329  12.774  2.5853 -1.8506 -0.3110
   60TCq2    H3  926   3.999   0.471  12.383  1.1613 -0.9431 -0.0647
   60TCq2    H4  927   4.248   0.644  12.690 -1.1082  1.3026 -0.0048
   61MPD2     C  928   3.656   2.188  14.692  0.0060  0.0789 -0.2318
   61MPD2    C1  929   3.649   2.313  14.753 -0.4915 -0.4787 -0.3540
   61MPD2    C2  930   3.721   2.416  14.687 -0.6075  0.0692  0.2042
   61MPD2    C3  931   3.778   2.400  14.565 -0.6853 -0.2282  0.7359
   61MPD2    C4  932   3.780   2.275  14.509  0.1933  0.0685 -0.2420
   61MPD2    C5  933   3.717   2.174  14.574  0.7410 -0.2009 -0.3078
   61MPD2     H  934   3.721   2.517  14.727 -0.4973 -0.0830  0.5881
   61MPD2    H1  935   3.832   2.242  14.420  1.3866  0.7867  0.1783
   61MPD2    H2  936   3.615   2.110  14.756  0.9067  0.3173  0.6388
   61MPD2    H3  937   3.716   2.069  14.547  0.9292  0.5167 -3.1174
   61MPD2     N  938   3.828   2.513  14.494  0.1500  0.2338  0.5562
   61MPD2    H5  939   3.841   2.597  14.549  2.2304  0.8401 -0.8720
   61MPD2    N1  940   3.576   2.354  14.870 -0.1197 -0.0287 -0.2895
   61MPD2    H7  941   3.575   2.454  14.888  0.7520  0.3279 -2.2237
   62TCq2    C1  942   3.497   2.268  14.938 -0.7392  0.6578  0.0786
   62TCq2    O2  943   3.471   2.150  14.922 -0.3486 -0.1096 -0.1295
   62TCq2    C2  944   3.437   2.323  15.055  0.2658 -0.3153 -0.0650
   62TCq2    C3  945   3.430   2.235  15.161  0.5679 -0.6200  0.1745
   62TCq2    C4  946   3.493   2.258  15.282  0.2775  0.0656 -0.4300
   62TCq2    C5  947   3.548   2.373  15.299  0.0613 -0.5481 -0.1032
   62TCq2    C6  948   3.553   2.470  15.194 -0.2080  0.2184 -0.4069
   62TCq2    C7  949   3.490   2.449  15.077 -0.0058 -0.0086 -1.0529
   62TCq2    C8  950   3.671   2.554  15.177  0.2933  1.1588  0.7814
   62TCq2    O4  951   3.698   2.588  15.062 -0.2404 -0.9116 -0.1916
   62TCq2    C9  952   3.478   2.158  15.391  0.0866  0.2063  0.1408
   62TCq2    O5  953   3.435   2.048  15.360 -0.1693  0.1380 -0.2629
   62TCq2    O6  954   3.524   2.196  15.501  0.4505 -0.2118  0.3939
   62TCq2    H2  955   3.389   2.137  15.141 -0.6812 -0.1717  0.5179
   62TCq2    H3  956   3.612   2.387  15.386  1.0279  0.7847 -1.0225
   62TCq2    H4  957   3.484   2.534  15.009  0.5590  1.4462  0.7213
   63TMC2    C1  958   2.857   2.462   9.352  0.1510  0.0964  0.4853
   63TMC2    C2  959   2.940   2.499   9.452 -0.1374 -0.3515  0.3544
   63TMC2    C3  960   2.915   2.612   9.524  0.3935  0.2414 -0.5402
   63TMC2    C4  961   2.741   2.531   9.330  0.1428  0.3924  0.0773
   63TMC2    C5  962   2.718   2.641   9.403  0.5671 -1.1035 -1.2102
   63TMC2    C6  963   2.799   2.686   9.504 -0.1192  0.2361 -0.4209
   63TMC2     C  964   2.848   2.320   9.340  0.5584  0.6548  0.0696
   63TMC2     O  965   2.799   2.275   9.236  0.3563 -0.4610 -0.2153
   63TMC2     H  966   3.036   2.449   9.453  0.1257  0.1619  0.5007
   63TMC2    H1  967   2.663   2.489   9.267  0.6032 -0.3582  0.0038
   63TMC2    H2  968   2.777   2.782   9.549  1.0434  0.6204 -0.6874
   63TMC2    C7  969   2.580   2.679   9.393  0.1333 -0.2200  0.1283
   63TMC2    C8  970   3.030   2.676   9.592  0.0565 -0.2536  0.4578
   63TMC2    O1  971   2.497   2.595   9.354 -0.1679 -0.5212 -0.5965
   63TMC2    O2  972   3.042   2.797   9.591  0.3975  0.2057 -0.2760
   63TMC2    O5  973   3.108   2.581   9.649 -0.4524 -0.0844 -0.1332
   63TMC2    H5  974   3.074   2.493   9.674 -1.9022  0.3080 -0.7620
   64MPD2     C  975   2.750   1.864   9.555  0.1446  0.5629  0.3881
   64MPD2    C1  976   2.821   1.939   9.645 -0.7835  0.2917  0.2615
   64MPD2    C2  977   2.866   2.064   9.603 -0.6792  0.0909  0.4501
   64MPD2    C3  978   2.831   2.123   9.482  0.6898  0.0324  0.4308
   64MPD2    C4  979   2.759   2.043   9.395 -0.2177 -0.2394 -0.1823
   64MPD2    C5  980   2.719   1.919   9.434  0.1710 -0.7178  0.1664
   64MPD2     H  981   2.910   2.136   9.672 -1.2406  1.0550 -0.1939
   64MPD2    H1  982   2.716   2.079   9.302  0.2606  0.1706 -0.2504
   64MPD2    H2  983   2.721   1.761   9.575 -1.0924  0.6113 -1.1532
   64MPD2    H3  984   2.647   1.869   9.370  0.7522 -1.0638 -0.2150
   64MPD2     N  985   2.864   2.256   9.463  0.1799  0.4790  0.6711
   64MPD2    H5  986   2.913   2.301   9.540 -0.6207  1.1011  0.8161
   64MPD2    N1  987   2.863   1.892   9.774  0.0785 -0.9804  0.2456
   64MPD2    H7  988   2.924   1.952   9.829 -0.9087  1.2769 -1.0934
   65MPD2     C  989   0.274   1.617  15.430  0.6844  0.2135 -0.2382
   65MPD2    C1  990   0.159   1.637  15.351 -0.2115 -0.2438 -0.3086
   65MPD2    C2  991   0.102   1.521  15.303 -0.2179  0.7752 -0.1605
   65MPD2    C3  992   0.147   1.396  15.335  0.0361 -0.9546 -0.0769
   65MPD2    C4  993   0.251   1.385  15.412 -0.2306  0.0421 -0.9000
   65MPD2    C5  994   0.315   1.492  15.455  0.3201 -0.2588 -0.8559
   65MPD2     H  995   4.724   1.526  15.269 -0.5362 -0.7388  0.5686
   65MPD2    H1  996   0.277   1.285  15.445 -0.7863  0.1165 -0.2311
   65MPD2    H2  997   0.348   1.692  15.456 -1.3930  2.3584 -0.5306
   65MPD2    H3  998   0.402   1.475  15.518 -0.5037 -0.7647  0.1372
   65MPD2     N  999   0.086   1.269  15.301  0.3164  0.0025 -0.0728
   65MPD2    H5 1000   0.102   1.190  15.363 -0.8106  0.2611  0.5507
   65MPD2    N1 1001   0.104   1.764  15.318 -0.1000 -0.1622  0.1156
   65MPD2    H7 1002   0.014   1.763  15.270  0.3849 -0.1224 -0.7859
   66TCq2    C1 1003   0.145   1.881  15.369  0.5175  0.0271 -0.8518
   66TCq2    O2 1004   0.244   1.913  15.431  0.6511 -0.1893  0.1431
   66TCq2    C2 1005   0.064   1.992  15.328  0.3036 -0.0279  0.5005
   66TCq2    C3 1006   4.651   1.968  15.351  0.3240  0.7455 -0.2330
   66TCq2    C4 1007   4.572   2.069  15.405 -0.1947 -0.1378  0.2780
   66TCq2    C5 1008   4.617   2.193  15.423 -0.8104 -0.2713  0.4466
   66TCq2    C6 1009   0.028   2.215  15.398 -0.5848  0.8694 -0.2591
   66TCq2    C7 1010   0.117   2.111  15.366 -0.5954  0.3698  0.0445
   66TCq2    C8 1011   0.088   2.349  15.423  1.1584  0.2924  0.2222
   66TCq2    O4 1012   0.174   2.381  15.343  0.7819  0.5458 -0.0507
   66TCq2    C9 1013   4.446   2.024  15.457 -0.2397 -0.2088 -0.0767
   66TCq2    O5 1014   4.375   2.111  15.524 -0.0663  0.0826  0.1354
   66TCq2    O6 1015   4.403   1.913  15.415  0.1259  0.0741 -0.4948
   66TCq2    H2 1016   4.607   1.870  15.341  0.2389  0.7294  0.2880
   66TCq2    H3 1017   4.552   2.262  15.476 -1.0422  0.7092 -1.1113
   66TCq2    H4 1018   0.224   2.125  15.378 -0.5861  0.4097 -0.0909
   67MPD2     C 1019   4.419   1.339  13.671  0.3256 -0.2643  0.4123
   67MPD2    C1 1020   4.342   1.383  13.773  0.2051 -0.1577 -0.1889
   67MPD2    C2 1021   4.206   1.390  13.763 -0.6202  0.1809 -0.7071
   67MPD2    C3 1022   4.141   1.355  13.646  0.5203 -0.3779 -0.3166
   67MPD2    C4 1023   4.223   1.320  13.535  0.1736  0.2889  0.4597
   67MPD2    C5 1024   4.361   1.307  13.547 -0.5270 -0.2030 -0.3908
   67MPD2     H 1025   4.157   1.429  13.852 -1.1949 -4.5048  1.0390
   67MPD2    H1 1026   4.178   1.301  13.438 -0.0325  1.8599  0.2451
   67MPD2    H2 1027   4.528   1.339  13.673  0.3057 -2.2703  0.5478
   67MPD2    H3 1028   4.427   1.277  13.466  0.5287  0.1402  0.3404
   67MPD2     N 1029   4.000   1.350  13.633  0.2780 -0.2335  0.5724
   67MPD2    H5 1030   3.966   1.320  13.542  2.5887  1.9245 -0.9888
   67MPD2    N1 1031   4.407   1.429  13.896 -0.0701 -0.2411 -0.3311
   67MPD2    H7 1032   4.347   1.468  13.968  0.3834 -2.3501  1.2208
   68TCq2    C1 1033   4.536   1.398  13.940  0.0543 -0.0620  0.0989
   68TCq2    O2 1034   4.602   1.300  13.904 -0.4873 -0.4162  0.0750
   68TCq2    C2 1035   4.574   1.469  14.062 -0.1851  0.3432 -0.3426
   68TCq2    C3 1036   4.510   1.591  14.102 -0.2691 -0.3009  0.3919
   68TCq2    C4 1037   4.499   1.631  14.233 -0.0737  0.2826 -0.3506
   68TCq2    C5 1038   4.574   1.559  14.322  0.0053 -0.6760 -0.6704
   68TCq2    C6 1039   4.628   1.438  14.284  0.4501  0.1055 -0.2602
   68TCq2    C7 1040   4.631   1.391  14.154 -0.6671  0.0197 -0.0617
   68TCq2    C8 1041   4.698   1.355  14.379  0.0411 -0.7372 -0.9486
   68TCq2    O4 1042   4.709   1.395  14.493 -0.7228  0.6989 -0.0555
   68TCq2    C9 1043   4.445   1.767  14.252 -0.5481 -0.1886 -0.3670
   68TCq2    O5 1044   4.383   1.818  14.154  0.4487 -0.1505  0.3198
   68TCq2    O6 1045   4.477   1.826  14.366 -0.2364  0.0057  0.1371
   68TCq2    H2 1046   4.463   1.641  14.018  1.8262  2.5869  0.9530
   68TCq2    H3 1047   4.587   1.595  14.424  0.7825  1.5515 -1.5484
   68TCq2    H4 1048   4.681   1.306  14.107 -1.2396 -0.3937  0.0802
   69TMC2    C1 1049   0.621   2.318  12.346 -0.1747  0.4065 -0.0999
   69TMC2    C2 1050   0.505   2.249  12.350 -0.2311 -0.2400 -0.2134
   69TMC2    C3 1051   0.441   2.218  12.234 -0.5479  0.2741 -0.0811
   69TMC2    C4 1052   0.660   2.384  12.233  0.0446  0.0008  0.3678
   69TMC2    C5 1053   0.593   2.347  12.114  0.4715  0.0209 -0.1796
   69TMC2    C6 1054   0.482   2.263  12.116 -0.4515  0.5441 -0.2627
   69TMC2     C 1055   0.731   2.282  12.426 -0.0755 -0.5667 -0.4514
   69TMC2     O 1056   0.708   2.254  12.540 -0.1594 -0.6027 -0.6653
   69TMC2     H 1057   0.487   2.183  12.434  0.7524  0.0980  0.2693
   69TMC2    H1 1058   0.752   2.440  12.221 -0.6465  1.5606  2.3810
   69TMC2    H2 1059   0.432   2.238  12.023 -1.4608 -5.0798  1.7787
   69TMC2    C7 1060   0.699   2.295  12.026  0.0554  0.3934  0.0429
   69TMC2    C8 1061   0.314   2.153  12.249  0.1618  0.3672 -0.1126
   69TMC2    O1 1062   0.813   2.292  12.069 -0.0648 -0.5078 -0.2892
   69TMC2    O2 1063   0.242   2.158  12.349 -0.7495  0.0198  0.3138
   69TMC2    O5 1064   0.279   2.093  12.134  0.3008  0.3005 -0.7487
   69TMC2    H5 1065   0.347   2.081  12.065  0.0975 -2.7489 -0.4003
   70MPD2     C 1066   1.065   2.180  12.313 -0.2061  0.4719 -0.4330
   70MPD2    C1 1067   0.962   2.209  12.397 -0.1841  0.6248  0.3983
   70MPD2    C2 1068   0.985   2.206  12.535  0.3033  0.3971  0.5134
   70MPD2    C3 1069   1.103   2.167  12.586  0.1938 -0.4898 -0.0531
   70MPD2    C4 1070   1.205   2.140  12.503 -0.0523  0.1248  0.3021
   70MPD2    C5 1071   1.186   2.149  12.368  0.1616 -0.3881 -0.2173
   70MPD2     H 1072   0.919   2.246  12.611  1.3932 -2.5678  3.0379
   70MPD2    H1 1073   1.303   2.115  12.542  0.1038  1.3657  0.7279
   70MPD2    H2 1074   1.060   2.178  12.204  0.3203 -1.9801 -0.3988
   70MPD2    H3 1075   1.266   2.117  12.303  1.8740  2.1957  0.6062
   70MPD2     N 1076   1.128   2.149  12.720 -0.0696  0.1724  0.0979
   70MPD2    H5 1077   1.226   2.127  12.730 -0.8262 -2.3191  2.1125
   70MPD2    N1 1078   0.836   2.256  12.344  0.2003 -0.3720  0.3864
   70MPD2    H7 1079   0.833   2.264  12.242  2.8664 -2.2307  0.1554
   71TMC2    C1 1080   4.139   1.636   1.680  0.2017 -0.0889  0.1352
   71TMC2    C2 1081   4.180   1.542   1.773  0.1541 -0.1525  0.0605
   71TMC2    C3 1082   4.084   1.450   1.805 -0.5133  0.2193 -0.5802
   71TMC2    C4 1083   4.010   1.652   1.646 -0.4544  0.8660 -0.3455
   71TMC2    C5 1084   3.917   1.580   1.711 -0.1946  0.3186 -0.3451
   71TMC2    C6 1085   3.951   1.475   1.790  1.0214 -0.1162  0.1553
   71TMC2     C 1086   4.231   1.744   1.647  0.2403 -0.2252 -0.0721
   71TMC2     O 1087   4.177   1.843   1.604 -0.5968 -0.4708  0.3854
   71TMC2     H 1088   4.281   1.516   1.805 -0.1142 -0.1582  0.9011
   71TMC2    H1 1089   3.985   1.736   1.582  0.4160 -0.1930 -2.0648
   71TMC2    H2 1090   3.878   1.404   1.829  0.2128  1.4089  1.3867
   71TMC2    C7 1091   3.784   1.632   1.742  0.0616  0.4495  0.2674
   71TMC2    C8 1092   4.122   1.344   1.898  0.8094 -0.4367  0.5121
   71TMC2    O1 1093   3.737   1.594   1.852  0.1183  0.3934 -0.2905
   71TMC2    O2 1094   4.233   1.296   1.897 -0.3065 -0.6554  0.0201
   71TMC2    O5 1095   4.050   1.358   2.013  0.1586 -0.3335 -0.1153
   71TMC2    H5 1096   3.990   1.436   2.017  0.8479  0.1158  1.0932
   72MPD2     C 1097   4.681   1.958   1.560 -0.2036 -0.2520  0.5126
   72MPD2    C1 1098   4.552   1.999   1.533 -0.5082 -0.3408  0.2173
   72MPD2    C2 1099   4.450   1.926   1.583  0.6725 -0.6903  0.0745
   72MPD2    C3 1100   4.468   1.808   1.654  0.8939  1.0923 -0.2501
   72MPD2    C4 1101   4.597   1.774   1.690 -0.5626 -0.1050 -0.2685
   72MPD2    C5 1102   4.701   1.847   1.635 -0.1170  0.3495  0.7079
   72MPD2     H 1103   4.353   1.972   1.563  2.1368  1.7500 -1.3960
   72MPD2    H1 1104   4.610   1.680   1.743  0.7908  0.0146 -0.3884
   72MPD2    H2 1105   0.041   2.006   1.515  1.5372 -2.4420  1.4569
   72MPD2    H3 1106   0.081   1.822   1.642 -0.5019 -0.9647  1.7888
   72MPD2     N 1107   4.360   1.729   1.690 -0.0105  0.5438 -0.2763
   72MPD2    H5 1108   4.386   1.645   1.740  0.6398  0.4577 -0.7744
   72MPD2    N1 1109   4.526   2.102   1.448 -0.5292 -0.5221  0.6409
   72MPD2    H7 1110   4.427   2.119   1.436 -0.2899 -0.1516 -0.8437
   73TMC2    C1 1111   3.362   4.282  13.328 -0.0562 -0.4385  0.0361
   73TMC2    C2 1112   3.348   4.244  13.193 -0.4001  0.0589  0.5680
   73TMC2    C3 1113   3.363   4.108  13.165 -0.6961 -0.1587  0.3264
   73TMC2    C4 1114   3.393   4.192  13.422  0.3048 -0.5404  0.2161
   73TMC2    C5 1115   3.409   4.059  13.397 -0.4140  0.5253  0.3257
   73TMC2    C6 1116   3.377   4.018  13.265  0.2720 -0.4553 -0.6309
   73TMC2     C 1117   3.442   4.401  13.369  0.5179  0.6513 -0.5734
   73TMC2     O 1118   3.527   4.384  13.454 -0.0884 -0.1387 -0.2356
   73TMC2     H 1119   3.350   4.317  13.113  2.5215 -2.1998 -1.4431
   73TMC2    H1 1120   3.415   4.226  13.522 -0.4406  1.2142 -0.2267
   73TMC2    H2 1121   3.366   3.914  13.235 -2.6478 -0.3810  0.2490
   73TMC2    C7 1122   3.536   4.012  13.436  0.4057  0.5741  0.6258
   73TMC2    C8 1123   3.329   4.061  13.032  0.6790  0.4919 -0.1355
   73TMC2    O1 1124   3.567   3.897  13.409  0.3114  0.1486  0.4710
   73TMC2    O2 1125   3.233   4.114  12.977  0.4164  0.4604 -0.3211
   73TMC2    O5 1126   3.406   3.956  12.997  0.1728 -0.2107 -0.1746
   73TMC2    H5 1127   3.472   3.944  13.068 -1.3451  2.1732  1.6490
   74MPD2     C 1128   3.681   0.122  13.265  0.7731 -0.4715 -0.1401
   74MPD2    C1 1129   3.694   0.031  13.377 -0.0002  0.0510  0.1517
   74MPD2    C2 1130   3.607   4.647  13.383 -0.1400 -0.3617 -0.2917
   74MPD2    C3 1131   3.518   4.619  13.278  0.5294 -0.2920 -0.0302
   74MPD2    C4 1132   3.512   4.704  13.167 -0.9570  0.1168  0.6976
   74MPD2    C5 1133   3.581   0.097  13.172 -0.4152  0.0706  0.0811
   74MPD2     H 1134   3.596   4.578  13.466 -2.5813 -0.2785 -0.5315
   74MPD2    H1 1135   3.458   4.681  13.076 -0.2960 -0.6293  0.4996
   74MPD2    H2 1136   3.748   0.207  13.258  1.7630 -1.2182  0.1520
   74MPD2    H3 1137   3.561   0.174  13.098  0.8238  1.6451  1.4115
   74MPD2     N 1138   3.429   4.509  13.283 -0.5290  0.3549  0.0097
   74MPD2    H5 1139   3.368   4.503  13.202 -0.5211  2.4007 -0.1496
   74MPD2    N1 1140   3.796   0.066  13.471  0.0834  0.6839  0.5147
   74MPD2    H7 1141   3.851   0.148  13.447  0.7428  0.7730  2.3480
   75TCq2    C1 1142   3.914   1.357  13.738 -0.0773  0.4421  0.0287
   75TCq2    O2 1143   3.939   1.367  13.856 -0.0826  0.2914  0.6316
   75TCq2    C2 1144   3.766   1.352  13.698  0.0114  0.0025 -0.4687
   75TCq2    C3 1145   3.680   1.338  13.805  0.4903 -0.7768 -0.0457
   75TCq2    C4 1146   3.551   1.336  13.784 -0.7701  0.0861 -0.7482
   75TCq2    C5 1147   3.499   1.342  13.654  0.4973  0.3655  0.1570
   75TCq2    C6 1148   3.587   1.362  13.553 -0.2852 -0.1964 -0.5826
   75TCq2    C7 1149   3.720   1.365  13.566 -0.4770  0.5744  0.3872
   75TCq2    C8 1150   3.534   1.353  13.416 -0.3222  0.5280  0.2115
   75TCq2    O4 1151   3.606   1.296  13.336 -0.0826  0.0110 -0.2620
   75TCq2    C9 1152   3.463   1.321  13.899 -0.3011  0.0024  0.2156
   75TCq2    O5 1153   3.343   1.296  13.868  0.3623  0.0307 -0.6790
   75TCq2    O6 1154   3.503   1.301  14.013  0.0545  0.3307  0.5792
   75TCq2    H2 1155   3.713   1.319  13.907 -2.8510 -0.5864  1.0906
   75TCq2    H3 1156   3.394   1.326  13.628  1.3275 -1.8156 -1.8831
   75TCq2    H4 1157   3.783   1.364  13.478  0.9578  0.8192  1.4007
   76MPD2     C 1158   1.697   1.830  12.319 -0.2777  0.6177  0.0173
   76MPD2    C1 1159   1.747   1.879  12.200 -0.6820  0.8055  0.6163
   76MPD2    C2 1160   1.885   1.871  12.175 -0.1533  0.2526  0.1382
   76MPD2    C3 1161   1.975   1.819  12.266 -0.0136  0.0883 -0.2863
   76MPD2    C4 1162   1.921   1.764  12.387 -0.8397  0.4103 -0.3072
   76MPD2    C5 1163   1.786   1.774  12.412 -0.9347  0.0251  0.5774
   76MPD2     H 1164   1.915   1.905  12.076 -0.4787  0.9642  0.2795
   76MPD2    H1 1165   1.986   1.722  12.463 -2.2432 -0.1654  0.5761
   76MPD2    H2 1166   1.594   1.834  12.352 -0.2723 -0.3735  0.1679
   76MPD2    H3 1167   1.744   1.749  12.509 -1.6652  0.7290  0.4426
   76MPD2     N 1168   2.112   1.825  12.228 -0.1266  0.1526  0.1575
   76MPD2    H5 1169   2.133   1.858  12.134  0.1349 -0.1799  0.0996
   76MPD2    N1 1170   1.671   1.936  12.094  0.2979 -0.1158  0.2168
   76MPD2    H7 1171   1.729   1.963  12.016  1.9887  0.6092  1.7261
   77TCq2    C1 1172   2.215   1.775  12.301  0.6750 -0.8212 -0.3111
   77TCq2    O2 1173   2.220   1.754  12.420 -0.0210  0.0857  0.0871
   77TCq2    C2 1174   2.337   1.758  12.225 -0.2218 -0.1108  0.0639
   77TCq2    C3 1175   2.323   1.719  12.093 -0.1723 -0.3706 -0.6893
   77TCq2    C4 1176   2.424   1.651  12.033 -0.2828  0.1816  0.1821
   77TCq2    C5 1177   2.544   1.633  12.101 -0.7964 -0.4672 -0.1596
   77TCq2    C6 1178   2.552   1.669  12.236  0.1490  0.2018  0.2648
   77TCq2    C7 1179   2.454   1.732  12.301  0.1205 -0.1592 -0.1759
   77TCq2    C8 1180   2.665   1.633  12.316  0.1793  0.1384 -0.0097
   77TCq2    O4 1181   2.744   1.723  12.356  0.6491  0.6511 -0.1765
   77TCq2    C9 1182   2.416   1.611  11.898 -0.7229  0.1525 -0.9644
   77TCq2    O5 1183   2.471   1.498  11.870  0.1635  0.1070 -0.2055
   77TCq2    O6 1184   2.327   1.661  11.827  0.2016 -0.1231  0.3613
   77TCq2    H2 1185   2.225   1.718  12.048 -1.3448 -1.9977  1.9046
   77TCq2    H3 1186   2.625   1.578  12.056  0.1740  1.1442 -0.3951
   77TCq2    H4 1187   2.469   1.750  12.407 -1.4702 -0.6240  0.1266
   78MPD1     C 1188   3.872   1.586   0.841  0.6974 -0.1697  0.5595
   78MPD1    C1 1189   3.867   1.509   0.949  0.1387  0.2664  0.5828
   78MPD1    C2 1190   3.985   1.506   1.031 -0.1498  0.2329  1.0911
   78MPD1    C3 1191   4.085   1.605   1.014  0.0016 -0.1232 -0.0084
   78MPD1    C4 1192   4.087   1.668   0.895  0.4471 -0.1449  0.0884
   78MPD1    C5 1193   3.980   1.659   0.807 -0.3005 -0.4110 -0.2704
   78MPD1     H 1194   3.985   1.444   1.120 -2.2055 -1.0286  0.2212
   78MPD1    H1 1195   4.179   1.718   0.866 -0.8722  2.0656 -0.2635
   78MPD1    H2 1196   3.786   1.575   0.775  1.5473  3.0655 -1.1227
   78MPD1    H3 1197   3.987   1.711   0.713  0.1486  1.6712  0.9142
   78MPD1     N 1198   4.195   1.618   1.102 -0.3410 -0.2442  0.2452
   78MPD1    H5 1199   4.273   1.678   1.073 -1.4871  1.4872  0.7245
   78MPD1    N1 1200   3.766   1.410   0.961  0.3924 -0.2748 -0.0651
   78MPD1    H6 1201   3.764   1.375   1.057  1.3438 -0.4659 -0.1082
   78MPD1    H7 1202   3.670   1.441   0.947  0.5856  0.4795  0.2866
   79TCq2    C1 1203   4.196   1.571   1.231  0.2446 -0.9317  0.5626
   79TCq2    O2 1204   4.100   1.530   1.297 -0.2414 -0.0211 -0.3563
   79TCq2    C2 1205   4.325   1.577   1.293  0.3281 -0.8827 -0.0217
   79TCq2    C3 1206   4.337   1.500   1.404  1.0380  0.4398  0.1178
   79TCq2    C4 1207   4.452   1.488   1.468  0.6217  0.9107 -0.3635
   79TCq2    C5 1208   4.567   1.546   1.414 -0.2068  0.0726  0.4478
   79TCq2    C6 1209   4.555   1.609   1.298 -0.1266  1.2617 -0.1497
   79TCq2    C7 1210   4.435   1.629   1.233 -0.5381  0.0978  0.6244
   79TCq2    C8 1211   4.679   1.625   1.224 -0.1631  0.1178 -0.1911
   79TCq2    O4 1212   0.057   1.585   1.279 -0.2463 -0.1403 -0.3894
   79TCq2    C9 1213   4.462   1.408   1.593  0.2952  0.1037  0.6246
   79TCq2    O5 1214   4.376   1.319   1.587 -0.3032  0.2848 -0.5713
   79TCq2    O6 1215   4.539   1.437   1.689  0.4912 -0.4259  0.5375
   79TCq2    H2 1216   4.249   1.453   1.447  1.6545  1.4827  2.5017
   79TCq2    H3 1217   4.663   1.519   1.458 -0.0638  0.1325  0.1716
   79TCq2    H4 1218   4.425   1.697   1.149 -1.0774 -1.4545 -0.5541
   80MPD2     C 1219   1.534   1.151  12.442  0.1538  0.2436  0.1046
   80MPD2    C1 1220   1.456   1.183  12.330 -0.2663  0.0925  0.8220
   80MPD2    C2 1221   1.341   1.244  12.355  0.3152 -0.1472  0.1261
   80MPD2    C3 1222   1.302   1.288  12.475  0.4960  0.5168 -1.0588
   80MPD2    C4 1223   1.375   1.261  12.584  0.0409  1.0369 -0.1984
   80MPD2    C5 1224   1.487   1.182  12.568 -0.0756 -0.4371 -0.1714
   80MPD2     H 1225   1.276   1.273  12.273 -0.1305 -2.7936 -0.4785
   80MPD2    H1 1226   1.357   1.305  12.681  0.5247  2.2666 -0.6735
   80MPD2    H2 1227   1.631   1.102  12.446  0.7922  1.4277 -0.7478
   80MPD2    H3 1228   1.544   1.158  12.657 -0.6090  0.6636  0.4577
   80MPD2     N 1229   1.188   1.364  12.501 -0.5990 -0.8636 -0.2665
   80MPD2    H5 1230   1.152   1.368  12.596 -2.2491 -0.9928 -0.8782
   80MPD2    N1 1231   1.484   1.149  12.196  0.6756 -0.6038 -0.1534
   80MPD2    H7 1232   1.409   1.173  12.132  1.5716  0.3062 -0.8711
   81TCq2    C1 1233   1.601   1.094  12.143  0.5594  0.1723  0.4554
   81TCq2    O2 1234   1.704   1.078  12.205 -0.0516  0.2608  0.0872
   81TCq2    C2 1235   1.606   1.062  11.999  0.7468  0.3788 -0.2718
   81TCq2    C3 1236   1.718   1.016  11.936 -0.9447 -0.4224 -0.0797
   81TCq2    C4 1237   1.718   0.963  11.810  0.1735  1.4428 -0.1153
   81TCq2    C5 1238   1.605   0.973  11.734  0.7311  0.4516 -0.2134
   81TCq2    C6 1239   1.490   1.005  11.800 -0.1002  0.3659 -0.8619
   81TCq2    C7 1240   1.487   1.051  11.932 -0.7052  0.5971 -0.1057
   81TCq2    C8 1241   1.385   0.916  11.767  0.4154 -0.2483  0.3497
   81TCq2    O4 1242   1.369   0.882  11.651 -0.3014 -0.0397 -0.2694
   81TCq2    C9 1243   1.839   0.911  11.752  0.3852  0.2377 -0.5258
   81TCq2    O5 1244   1.847   0.883  11.630  0.4131  0.0429 -0.4454
   81TCq2    O6 1245   1.929   0.885  11.837 -0.3950 -0.2328 -0.1977
   81TCq2    H2 1246   1.816   1.031  11.982 -1.2006 -0.6475  0.5431
   81TCq2    H3 1247   1.611   0.935  11.632  0.3466  2.3287 -0.9370
   81TCq2    H4 1248   1.395   1.090  11.974 -0.6716 -1.7147  2.0908
   82MPD2     C 1249   4.681   1.438  10.353 -0.0735  1.0002  0.2178
   82MPD2    C1 1250   4.708   1.318  10.284 -0.2239 -0.0376  0.6952
   82MPD2    C2 1251   0.024   1.207  10.357  0.2612  0.3468 -0.0758
   82MPD2    C3 1252   0.029   1.208  10.493  0.4336  0.0262  0.1086
   82MPD2    C4 1253   4.717   1.325  10.557 -0.1246 -0.6162  0.5103
   82MPD2    C5 1254   4.690   1.439  10.490 -0.8794 -0.2011 -0.1763
   82MPD2     H 1255   0.036   1.115  10.300 -0.2387 -0.0846  0.5070
   82MPD2    H1 1256   4.722   1.336  10.665  0.4194  0.5477  0.3644
   82MPD2    H2 1257   4.661   1.533  10.303 -0.6283 -0.2548 -1.9318
   82MPD2    H3 1258   4.662   1.527  10.547 -0.5289 -0.1491 -0.0829
   82MPD2     N 1259   0.079   1.102  10.568 -0.5891  0.0659 -0.1136
   82MPD2    H5 1260   0.082   1.117  10.668 -1.9874 -1.0977  0.0911
   82MPD2    N1 1261   4.688   1.320  10.146 -0.1540  0.1651  0.3954
   82MPD2    H7 1262   4.661   1.409  10.107 -2.2762 -0.6904 -0.0946
   83TCq2    C1 1263   0.100   0.974  10.520  0.3489  0.0559  0.0711
   83TCq2    O2 1264   0.081   0.929  10.408  0.4932 -0.4880  0.0009
   83TCq2    C2 1265   0.156   0.894  10.626 -0.1805 -0.0570  0.3851
   83TCq2    C3 1266   0.229   0.965  10.720 -0.7679  0.2645  0.4193
   83TCq2    C4 1267   0.265   0.901  10.840  0.1119  0.4730 -0.0438
   83TCq2    C5 1268   0.221   0.773  10.854 -0.1222 -0.1269  0.2345
   83TCq2    C6 1269   0.152   0.705  10.757 -0.0398 -0.3178  0.6132
   83TCq2    C7 1270   0.105   0.770  10.642 -0.4722  0.3254  1.3393
   83TCq2    C8 1271   0.080   0.587  10.803 -0.7087 -0.0970 -0.3348
   83TCq2    O4 1272   0.085   0.554  10.919 -0.1453  0.3488 -0.2736
   83TCq2    C9 1273   0.331   0.971  10.953 -0.6594 -0.2794 -0.3124
   83TCq2    O5 1274   0.373   0.897  11.047 -0.4223 -0.2207 -0.0280
   83TCq2    O6 1275   0.353   1.095  10.932 -0.1797  0.2046  0.5536
   83TCq2    H2 1276   0.252   1.071  10.712  0.8975 -0.0252  1.5609
   83TCq2    H3 1277   0.248   0.725  10.948  1.2603  1.7343  0.7940
   83TCq2    H4 1278   0.043   0.739  10.558  0.0544  1.5940  0.4724
   84TCq2    C1 1279   1.157   0.210   9.926 -0.4463 -0.4803 -0.0189
   84TCq2    O2 1280   1.043   0.165   9.923 -0.3373  0.2088  0.4669
   84TCq2    C2 1281   1.202   0.298  10.040  0.3132  0.1315 -0.4657
   84TCq2    C3 1282   1.303   0.389  10.029 -0.4110 -0.0804 -1.0150
   84TCq2    C4 1283   1.327   0.465  10.139  0.2481  0.5308  0.2171
   84TCq2    C5 1284   1.250   0.452  10.250  0.3123  0.8295  0.2794
   84TCq2    C6 1285   1.136   0.377  10.251 -0.9400  0.2668  0.4634
   84TCq2    C7 1286   1.120   0.290  10.149  0.1101  0.5643  0.0009
   84TCq2    C8 1287   1.057   0.363  10.372 -0.2705  0.1988  0.5200
   84TCq2    O4 1288   1.014   0.251  10.400 -0.2233  0.2794  0.5520
   84TCq2    C9 1289   1.437   0.554  10.146 -0.7657  0.0554  0.3485
   84TCq2    O5 1290   1.522   0.548  10.055 -0.0211 -0.7291 -0.1897
   84TCq2    O6 1291   1.440   0.642  10.229  0.0432  0.6023  0.2455
   84TCq2    H2 1292   1.371   0.392   9.946  0.5668  1.1809 -0.1663
   84TCq2    H3 1293   1.283   0.512  10.333 -1.1605  1.3873  0.4602
   84TCq2    H4 1294   1.032   0.228  10.136 -0.0309  0.7014  0.2897
   85MPD2     C 1295   2.077   2.189  16.341 -0.0325  0.1446 -0.4118
   85MPD2    C1 1296   1.966   2.234  16.269  0.7735  0.0036 -0.1189
   85MPD2    C2 1297   1.982   2.339  16.179 -0.2732 -0.4468  0.6653
   85MPD2    C3 1298   2.105   2.398  16.160  0.3307  0.2837  0.3599
   85MPD2    C4 1299   2.212   2.362  16.237 -0.3654 -0.1051  0.4323
   85MPD2    C5 1300   2.200   2.260  16.328 -0.3754  0.7345  0.2823
   85MPD2     H 1301   1.901   2.367  16.113  2.0854  0.7091 -1.7208
   85MPD2    H1 1302   2.306   2.417  16.230  0.6025 -1.5664  1.7838
   85MPD2    H2 1303   2.070   2.103  16.407 -2.7855  0.7530  0.0988
   85MPD2    H3 1304   2.287   2.224  16.381 -0.2065  0.2060 -0.3592
   85MPD2     N 1305   2.106   2.493  16.052  0.3513 -0.5852  0.4880
   85MPD2    H5 1306   2.023   2.524  16.002  1.4824 -0.8927 -1.5858
   85MPD2    N1 1307   1.841   2.164  16.273 -1.1861 -0.5197 -0.1705
   85MPD2    H7 1308   1.770   2.194  16.207 -1.6585  3.3889  2.0883
   86TCq2    C1 1309   2.213   2.577  16.023  0.5191  0.2117 -0.1512
   86TCq2    O2 1310   2.319   2.593  16.084 -0.7029  0.0388 -0.2043
   86TCq2    C2 1311   2.178   2.655  15.908  0.0574 -0.5641  0.7297
   86TCq2    C3 1312   2.075   2.619  15.823 -0.1177 -0.1826  0.4531
   86TCq2    C4 1313   2.035   2.708  15.723  0.3444  0.9203  0.8837
   86TCq2    C5 1314   2.100   2.828  15.705  0.1025 -0.2742 -0.8714
   86TCq2    C6 1315   2.199   2.864  15.796  0.2181 -0.1647  0.3591
   86TCq2    C7 1316   2.239   2.776  15.894 -0.0156 -0.0746 -0.0835
   86TCq2    C8 1317   2.292   2.962  15.749  0.1709 -0.1135 -0.4218
   86TCq2    O4 1318   2.251   3.037  15.662  0.2312  0.9529 -0.0121
   86TCq2    C9 1319   1.940   2.667  15.622 -0.2725 -0.3561 -0.4349
   86TCq2    O5 1320   1.909   2.547  15.617  0.6106  0.2021 -0.3251
   86TCq2    O6 1321   1.899   2.750  15.540 -0.5453 -0.0302 -0.3043
   86TCq2    H2 1322   2.050   2.514  15.824 -1.0337  0.0481  1.2172
   86TCq2    H3 1323   2.070   2.887  15.619 -0.2654 -1.0356 -1.2686
   86TCq2    H4 1324   2.324   2.804  15.955 -0.8116  1.6981  0.2420
   87MPD2     C 1325   3.514   1.445   1.554 -0.2225  0.5724  0.3840
   87MPD2    C1 1326   3.588   1.415   1.438  0.0106 -0.2819  0.1496
   87MPD2    C2 1327   3.538   1.476   1.318 -0.0022 -0.7729 -0.1210
   87MPD2    C3 1328   3.426   1.560   1.317 -0.6411 -0.6116  0.0696
   87MPD2    C4 1329   3.354   1.589   1.433 -0.4930 -0.2647  0.6626
   87MPD2    C5 1330   3.401   1.528   1.547  0.1004  0.6055 -0.9527
   87MPD2     H 1331   3.596   1.460   1.227 -0.3774 -2.6923 -0.0125
   87MPD2    H1 1332   3.272   1.659   1.443 -0.6446 -0.5021  1.0813
   87MPD2    H2 1333   3.542   1.419   1.656  1.6096 -0.9620 -0.5259
   87MPD2    H3 1334   3.368   1.574   1.639  1.4737  0.1801 -0.2469
   87MPD2     N 1335   3.398   1.630   1.200 -0.1675  0.1510  0.7844
   87MPD2    H5 1336   3.338   1.712   1.201  0.1863  0.4057  1.4031
   87MPD2    N1 1337   3.700   1.329   1.450  0.2812  0.0069 -0.2111
   87MPD2    H7 1338   3.719   1.296   1.544  0.1148 -0.8367 -0.4729
   88TCq2    C1 1339   3.778   1.280   1.347  0.8795  0.7569 -0.0063
   88TCq2    O2 1340   3.778   1.313   1.230  0.1401  0.6685 -0.0584
   88TCq2    C2 1341   3.905   1.206   1.390  0.3951 -0.3193 -0.1487
   88TCq2    C3 1342   3.923   1.163   1.511 -0.8593 -0.1419  0.5959
   88TCq2    C4 1343   4.054   1.131   1.552  0.1704  0.6923  0.4120
   88TCq2    C5 1344   4.158   1.154   1.472  0.0450 -0.7311  0.0828
   88TCq2    C6 1345   4.131   1.193   1.340  0.5783 -0.3057 -0.1473
   88TCq2    C7 1346   4.007   1.219   1.296  0.0814 -0.1488  0.1578
   88TCq2    C8 1347   4.242   1.202   1.244  0.1091  0.0776 -0.0503
   88TCq2    O4 1348   4.215   1.209   1.124 -0.0175  0.0549  0.6879
   88TCq2    C9 1349   4.063   1.071   1.682 -0.5797 -0.1770  0.5313
   88TCq2    O5 1350   4.178   1.046   1.721  0.5482  0.0869  0.3130
   88TCq2    O6 1351   3.958   1.053   1.743  0.2632  0.4082 -0.5131
   88TCq2    H2 1352   3.841   1.147   1.580  0.3921  0.8657  2.3218
   88TCq2    H3 1353   4.254   1.121   1.508  0.0439  0.4170  1.1445
   88TCq2    H4 1354   3.992   1.257   1.196  2.9549  0.1426 -0.1728
   89MPD2     C 1355   1.094   3.353   1.628  0.4221  0.0846  0.0936
   89MPD2    C1 1356   1.038   3.477   1.621 -0.0989  0.0339 -0.4479
   89MPD2    C2 1357   1.115   3.590   1.603  0.2438  0.3107 -0.5271
   89MPD2    C3 1358   1.255   3.584   1.594  0.3519  0.0168 -0.0585
   89MPD2    C4 1359   1.311   3.459   1.609  0.4765  0.3969  0.1756
   89MPD2    C5 1360   1.231   3.350   1.623 -0.2295 -0.0762 -0.1054
   89MPD2     H 1361   1.056   3.681   1.597 -0.8346 -0.2941  0.9221
   89MPD2    H1 1362   1.419   3.447   1.618  0.4717  0.9180  0.9307
   89MPD2    H2 1363   1.042   3.258   1.634 -2.4133  1.7536  2.0069
   89MPD2    H3 1364   1.272   3.250   1.629  0.7405  0.2239 -1.7551
   89MPD2     N 1365   1.334   3.700   1.579 -0.7458  0.0885  0.3238
   89MPD2    H5 1366   1.286   3.789   1.583 -1.2365 -0.0732 -1.7342
   89MPD2    N1 1367   0.897   3.500   1.621  0.9276  0.4562  0.1361
   89MPD2    H7 1368   0.860   3.594   1.624  1.2190  0.5311  1.3917
   90TCq2    C1 1369   1.469   3.695   1.566  0.4318 -0.1898 -0.3519
   90TCq2    O2 1370   1.545   3.603   1.541  0.6965  0.1316  0.0868
   90TCq2    C2 1371   1.536   3.821   1.548  0.9856  0.8012  0.2271
   90TCq2    C3 1372   1.494   3.926   1.636  0.0515 -0.4530 -0.2663
   90TCq2    C4 1373   1.557   4.048   1.629  0.6728  0.2453  0.0543
   90TCq2    C5 1374   1.665   4.065   1.545  0.0064  0.2933  0.1944
   90TCq2    C6 1375   1.712   3.956   1.472  0.1176 -1.0650  0.7259
   90TCq2    C7 1376   1.652   3.832   1.470  0.3057  0.0125 -0.1487
   90TCq2    C8 1377   1.770   3.977   1.346 -1.3212  0.0439 -0.0587
   90TCq2    O4 1378   1.755   3.897   1.259 -0.9639 -0.2061 -0.3302
   90TCq2    C9 1379   1.514   4.156   1.715 -0.1214 -0.2040 -0.1653
   90TCq2    O5 1380   1.425   4.124   1.799  0.4142 -0.0131  0.7772
   90TCq2    O6 1381   1.573   4.269   1.718  0.3675 -0.9480  0.2389
   90TCq2    H2 1382   1.412   3.911   1.706 -1.4050 -0.0200 -1.8984
   90TCq2    H3 1383   1.698   4.168   1.533  1.1665 -0.1735 -0.6663
   90TCq2    H4 1384   1.698   3.754   1.410  2.3810 -0.0286  1.4827
   91TMC2    C1 1385   2.441   3.333  16.185 -0.6339 -0.5143  0.7451
   91TMC2    C2 1386   2.407   3.466  16.194 -0.2215  0.1612  0.3377
   91TMC2    C3 1387   2.272   3.496  16.163 -0.0610 -0.2566  0.3798
   91TMC2    C4 1388   2.359   3.241  16.134 -1.0737 -0.0316  0.0182
   91TMC2    C5 1389   2.228   3.279  16.087  0.5689  0.3721  1.0348
   91TMC2    C6 1390   2.186   3.407  16.099  0.3139 -0.2300 -0.6109
   91TMC2     C 1391   2.574   3.290  16.216  0.6214 -0.3941 -0.5626
   91TMC2     O 1392   2.589   3.179  16.267  0.2293  0.0213 -0.3431
   91TMC2     H 1393   2.476   3.526  16.253  1.9595  0.1023 -2.1970
   91TMC2    H1 1394   2.393   3.138  16.133  1.0050  0.6187  1.9665
   91TMC2    H2 1395   2.085   3.440  16.075 -0.8275 -2.0677  1.5976
   91TMC2    C7 1396   2.131   3.173  16.062 -0.5462 -0.0702  0.0237
   91TMC2    C8 1397   2.229   3.637  16.171  0.0579 -0.2385  0.0970
   91TMC2    O1 1398   2.174   3.060  16.057  0.5787 -0.3387  0.6540
   91TMC2    O2 1399   2.112   3.666  16.164 -0.2641 -0.7285 -0.0569
   91TMC2    O5 1400   2.335   3.710  16.139 -1.2271 -0.2744  0.1350
   91TMC2    H5 1401   2.419   3.660  16.127 -1.1729 -0.1949  0.1819
   92MPD2     C 1402   2.867   3.250  16.166  0.0231  0.0124  0.1438
   92MPD2    C1 1403   2.792   3.349  16.112  0.6018 -0.2823  0.3887
   92MPD2    C2 1404   2.854   3.415  16.008  0.6333  0.3347 -0.3466
   92MPD2    C3 1405   2.979   3.380  15.962  0.5633  0.0768 -0.1579
   92MPD2    C4 1406   3.052   3.283  16.019  0.0176  0.5896  0.3647
   92MPD2    C5 1407   2.990   3.215  16.118  0.1518 -0.2569 -0.5650
   92MPD2     H 1408   2.791   3.486  15.956 -0.2569  0.5655  1.0514
   92MPD2    H1 1409   3.152   3.247  15.995  0.1051  0.1786  1.3263
   92MPD2    H2 1410   2.825   3.186  16.244  0.7346  0.9229  1.2705
   92MPD2    H3 1411   3.054   3.145  16.172 -0.4244 -0.0255  0.4218
   92MPD2     N 1412   3.026   3.464  15.855 -0.2454  0.6253  0.1273
   92MPD2    H5 1413   2.959   3.534  15.827 -0.4601  0.0281 -0.8512
   92MPD2    N1 1414   2.659   3.373  16.148  0.5756 -0.1717 -0.2298
   92MPD2    H7 1415   2.621   3.458  16.108 -2.0895  0.3687  3.3991
   93MPD2     C 1416   3.740   3.335  13.408  0.3850  0.1984  0.3931
   93MPD2    C1 1417   3.687   3.427  13.502 -0.4510  0.0545 -0.2637
   93MPD2    C2 1418   3.548   3.434  13.514 -0.2006  0.4881  0.6137
   93MPD2    C3 1419   3.464   3.346  13.447 -0.2300  0.4574 -0.3678
   93MPD2    C4 1420   3.513   3.255  13.353 -1.0222 -0.7613  0.2081
   93MPD2    C5 1421   3.649   3.257  13.339 -0.3557 -0.5646 -0.2539
   93MPD2     H 1422   3.506   3.500  13.588  0.0033 -0.1984  1.3482
   93MPD2    H1 1423   3.460   3.184  13.290 -0.3209 -0.4715 -0.7140
   93MPD2    H2 1424   3.844   3.326  13.380  0.7953  1.1020  1.6076
   93MPD2    H3 1425   3.697   3.207  13.255 -0.0105 -0.4519 -0.1228
   93MPD2     N 1426   3.324   3.372  13.435 -0.0197 -0.5390  0.1235
   93MPD2    H5 1427   3.275   3.311  13.370 -0.8095 -2.5103  2.5498
   93MPD2    N1 1428   3.769   3.518  13.575  0.4169 -0.1826  0.2937
   93MPD2    H7 1429   3.721   3.579  13.640 -0.6554 -0.3650 -0.3312
   94TCq2    C1 1430   3.912   3.508  13.578 -0.3038 -0.3526  0.3695
   94TCq2    O2 1431   3.979   3.414  13.531  0.3105 -0.2559  0.2733
   94TCq2    C2 1432   3.974   3.609  13.651 -0.2046 -0.5045 -0.4803
   94TCq2    C3 1433   3.899   3.681  13.738  0.0273  0.5283 -0.5600
   94TCq2    C4 1434   3.967   3.768  13.820 -0.4769  0.3856  0.3327
   94TCq2    C5 1435   4.101   3.796  13.799 -0.5656 -0.6289 -0.4436
   94TCq2    C6 1436   4.167   3.723  13.704 -0.0626  0.4095  0.6318
   94TCq2    C7 1437   4.106   3.629  13.627  0.2733  0.6776 -0.3634
   94TCq2    C8 1438   4.311   3.738  13.688  0.1553 -0.0260 -0.6575
   94TCq2    O4 1439   4.354   3.670  13.598  0.0345  1.0458 -0.7239
   94TCq2    C9 1440   3.890   3.832  13.926  0.4298 -0.0578  0.4566
   94TCq2    O5 1441   3.968   3.888  14.012  0.4441 -0.3177 -0.1144
   94TCq2    O6 1442   3.771   3.790  13.948 -0.0513  0.3990 -0.0615
   94TCq2    H2 1443   3.792   3.671  13.755  0.3204  1.1527  1.6935
   94TCq2    H3 1444   4.156   3.862  13.866 -0.9212 -0.1486 -0.6216
   94TCq2    H4 1445   4.151   3.576  13.544 -0.5937 -0.1538 -0.3043
   95TMC2    C1 1446   4.076   0.553  15.859 -0.1772 -0.4451  0.5418
   95TMC2    C2 1447   4.081   0.418  15.819  0.2428 -0.2258  0.1985
   95TMC2    C3 1448   4.050   0.329  15.912  0.5882 -0.4578 -0.0442
   95TMC2    C4 1449   4.026   0.598  15.983  0.0944  0.4955 -0.1698
   95TMC2    C5 1450   3.994   0.493  16.064 -0.1724  0.2437 -0.1780
   95TMC2    C6 1451   4.008   0.361  16.035 -0.9294 -0.2936  0.1284
   95TMC2     C 1452   4.152   0.646  15.782 -0.6114 -0.2827  0.0979
   95TMC2     O 1453   4.246   0.596  15.721 -0.0451 -0.3583  0.4740
   95TMC2     H 1454   4.108   0.388  15.718 -0.9574  2.5787 -0.9708
   95TMC2    H1 1455   4.055   0.693  16.026  1.3036 -0.0823  0.3256
   95TMC2    H2 1456   3.986   0.274  16.096  1.3633  0.2306  1.7048
   95TMC2    C7 1457   3.985   0.527  16.206  0.6822 -0.7165 -0.0579
   95TMC2    C8 1458   4.089   0.196  15.884  0.1184  0.0549 -0.4437
   95TMC2    O1 1459   3.972   0.646  16.225 -0.6834  0.0542  0.1379
   95TMC2    O2 1460   4.122   0.119  15.973 -0.4867  1.0871  0.2670
   95TMC2    O5 1461   4.025   0.168  15.765  0.2442 -0.4716 -0.6914
   95TMC2    H5 1462   3.964   0.241  15.742 -0.3105 -0.9497 -0.7367
   96MPD2     C 1463   4.287   1.137  15.689 -0.6076 -0.1459  0.4871
   96MPD2    C1 1464   4.334   1.017  15.635 -0.1502 -0.0671  0.8948
   96MPD2    C2 1465   4.279   0.895  15.668  0.2823  0.1604 -0.4973
   96MPD2    C3 1466   4.177   0.889  15.765 -0.1848 -0.2733 -0.0944
   96MPD2    C4 1467   4.120   1.013  15.807  0.2701  0.2286  0.2499
   96MPD2    C5 1468   4.182   1.133  15.770 -0.2158 -0.0801  0.0993
   96MPD2     H 1469   4.326   0.803  15.633  0.5519  0.7365 -1.6576
   96MPD2    H1 1470   4.046   1.010  15.886 -1.8005  1.3132 -1.6707
   96MPD2    H2 1471   4.348   1.226  15.679 -0.4488 -0.4151 -0.9266
   96MPD2    H3 1472   4.167   1.228  15.818 -0.6604  0.5957 -1.3644
   96MPD2     N 1473   4.120   0.777  15.819 -0.1616  0.3815  0.4404
   96MPD2    H5 1474   4.035   0.800  15.870 -0.0620  1.7771 -0.0344
   96MPD2    N1 1475   4.433   1.025  15.532 -0.4438  0.6973  0.2879
   96MPD2    H7 1476   4.473   1.116  15.513  3.0390 -0.2184  3.2083
   97MPD2     C 1477   1.105   2.245   0.605 -0.4356 -0.5140 -0.6626
   97MPD2    C1 1478   1.143   2.375   0.638 -0.0830  0.2854 -0.1552
   97MPD2    C2 1479   1.130   2.469   0.541 -0.2718  0.6695  0.1579
   97MPD2    C3 1480   1.088   2.448   0.411 -0.6439  0.2510 -0.3372
   97MPD2    C4 1481   1.074   2.312   0.379  0.2717 -0.3175  0.1663
   97MPD2    C5 1482   1.082   2.210   0.475  0.1335 -0.0992 -0.5520
   97MPD2     H 1483   1.139   2.574   0.566  2.5156  0.3575  0.4417
   97MPD2    H1 1484   1.066   2.280   0.276  1.3350 -0.8324  0.2413
   97MPD2    H2 1485   1.103   2.162   0.675  0.8055  1.0890  1.2724
   97MPD2    H3 1486   1.077   2.104   0.451  3.3053 -0.7772  1.8338
   97MPD2     N 1487   1.096   2.541   0.311 -0.4064  0.4790  0.9997
   97MPD2    H5 1488   1.080   2.504   0.218  0.3615  3.2320 -0.2221
   97MPD2    N1 1489   1.183   2.403   0.775 -0.6752 -0.1582 -1.1056
   97MPD2    H7 1490   1.163   2.324   0.835  1.2921  0.8654  0.9122
   98TCq2    C1 1491   1.133   2.674   0.322 -0.8407  0.0514  0.3883
   98TCq2    O2 1492   1.184   2.737   0.418  0.2618  0.7942  0.0397
   98TCq2    C2 1493   1.122   2.745   0.195  0.1350  0.7515 -0.3265
   98TCq2    C3 1494   1.071   2.683   0.085 -0.4488  0.0906  0.5678
   98TCq2    C4 1495   1.106   2.730  17.664 -0.5231  0.4152  0.0291
   98TCq2    C5 1496   1.184   2.843  17.643  0.2467  0.0330  0.3226
   98TCq2    C6 1497   1.231   2.902   0.054  0.0500  0.2583  0.0819
   98TCq2    C7 1498   1.203   2.851   0.182  0.2729  0.5144  0.1279
   98TCq2    C8 1499   1.350   2.986   0.060  0.8461  0.0532 -0.3062
   98TCq2    O4 1500   1.396   3.029   0.167  0.1539  0.6847 -0.3553
   98TCq2    C9 1501   1.068   2.650  17.545 -0.4723 -0.0520  0.7124
   98TCq2    O5 1502   0.982   2.560  17.565  0.1544  0.0003  0.8961
   98TCq2    O6 1503   1.116   2.672  17.438  0.2799  0.3130 -0.5570
   98TCq2    H2 1504   0.999   2.602   0.084  0.3158 -0.5869  0.3518
   98TCq2    H3 1505   1.202   2.883  17.544 -1.7931 -1.2570 -0.5760
   98TCq2    H4 1506   1.255   2.894   0.266  1.6952  1.0986 -1.0443
   99MPD2     C 1507   0.814   0.804   0.598  0.2655  0.9116 -0.0247
   99MPD2    C1 1508   0.898   0.702   0.650  0.0880 -0.2634 -0.3409
   99MPD2    C2 1509   0.974   0.634   0.565 -0.2477  0.0321 -0.6563
   99MPD2    C3 1510   0.964   0.654   0.427  0.6192 -0.4027 -0.1121
   99MPD2    C4 1511   0.871   0.747   0.367 -0.3909  0.1107 -0.3439
   99MPD2    C5 1512   0.808   0.825   0.460  0.3978  0.5604  0.7827
   99MPD2     H 1513   1.046   0.558   0.595 -1.0968 -0.2116  0.7359
   99MPD2    H1 1514   0.855   0.769   0.262 -0.6042  3.7770  0.4624
   99MPD2    H2 1515   0.748   0.862   0.662 -0.4554  2.2115 -1.9542
   99MPD2    H3 1516   0.741   0.894   0.410  3.3867  1.9016 -1.3636
   99MPD2     N 1517   1.021   0.553   0.339  0.2801  0.0949 -0.2606
   99MPD2    H5 1518   1.081   0.487   0.389 -0.0363 -0.9552 -1.2641
   99MPD2    N1 1519   0.928   0.680   0.790  0.1327 -0.4250  0.4726
   99MPD2    H7 1520   0.998   0.610   0.813  0.1973 -0.3569  0.4865
  100TCq2    C1 1521   0.848   0.725   0.891 -0.6340  0.0211  0.2969
  100TCq2    O2 1522   0.730   0.762   0.887  0.6760  0.0260 -0.8378
  100TCq2    C2 1523   0.885   0.661   1.013 -0.6168 -0.1977 -0.6283
  100TCq2    C3 1524   1.018   0.645   1.047  0.0150 -0.5878 -0.8020
  100TCq2    C4 1525   1.057   0.604   1.171 -0.3961  0.0871 -0.3102
  100TCq2    C5 1526   0.964   0.560   1.259 -0.1237  0.2918  0.6941
  100TCq2    C6 1527   0.833   0.563   1.224  0.1421 -0.1457  0.3044
  100TCq2    C7 1528   0.789   0.625   1.104 -0.1140  0.4782  0.6120
  100TCq2    C8 1529   0.737   0.514   1.322 -0.2023 -0.8292 -0.0420
  100TCq2    O4 1530   0.771   0.522   1.439 -0.1058  0.4105  0.4148
  100TCq2    C9 1531   1.196   0.579   1.198  0.5829 -0.5283 -0.1573
  100TCq2    O5 1532   1.276   0.630   1.115 -0.2945 -0.2489  0.0987
  100TCq2    O6 1533   1.232   0.517   1.304 -0.0534 -0.0144 -0.3642
  100TCq2    H2 1534   1.095   0.668   0.975  1.0829 -0.5885  0.3419
  100TCq2    H3 1535   1.010   0.527   1.352 -0.3141  0.0458  0.7020
  100TCq2    H4 1536   0.682   0.629   1.087  0.1087  0.1998 -0.8019
  101MPD2     C 1537   0.344   1.304  12.790  0.3263 -0.3898  0.6051
  101MPD2    C1 1538   0.219   1.279  12.842 -0.1193  0.2110 -0.4589
  101MPD2    C2 1539   0.197   1.176  12.929  0.4325  0.1407  0.3836
  101MPD2    C3 1540   0.302   1.098  12.974 -0.3318  0.4363 -0.8953
  101MPD2    C4 1541   0.423   1.114  12.910  0.4499  0.1760 -0.2122
  101MPD2    C5 1542   0.442   1.216  12.821 -0.3788 -0.1428 -0.1578
  101MPD2     H 1543   0.100   1.148  12.969  0.3143  0.9882  0.6775
  101MPD2    H1 1544   0.510   1.058  12.944 -0.5665 -1.3573 -0.1444
  101MPD2    H2 1545   0.365   1.388  12.725  0.6164  0.4597  1.7909
  101MPD2    H3 1546   0.543   1.241  12.789 -0.9942  2.9278  0.3431
  101MPD2     N 1547   0.271   0.996  13.061 -0.1566  0.0054 -0.2673
  101MPD2    H5 1548   0.173   0.981  13.084 -1.6927  2.5250 -5.2555
  101MPD2    N1 1549   0.123   1.371  12.805  0.6021  0.1958  0.6054
  101MPD2    H7 1550   0.142   1.442  12.735 -0.4700  0.4430  0.5641
  102TCq2    C1 1551   0.084   1.801  12.696 -0.3382 -0.6029 -0.9424
  102TCq2    O2 1552   0.147   1.750  12.603  0.0040  0.5894  0.3492
  102TCq2    C2 1553   4.685   1.723  12.729 -0.2294  0.7903 -0.2142
  102TCq2    C3 1554   4.585   1.778  12.800  0.7929 -0.1424 -0.9329
  102TCq2    C4 1555   4.507   1.686  12.864  0.7600 -0.0135 -0.1943
  102TCq2    C5 1556   4.536   1.552  12.890  0.3675  0.1854 -0.3895
  102TCq2    C6 1557   4.646   1.501  12.821  0.1603  0.1928 -0.2166
  102TCq2    C7 1558   4.711   1.587  12.735  0.1811 -0.7349  0.4121
  102TCq2    C8 1559   4.725   1.388  12.874 -0.7666  0.2696 -0.4582
  102TCq2    O4 1560   4.679   1.329  12.972  0.1702 -0.4685 -0.4727
  102TCq2    C9 1561   4.383   1.745  12.919 -0.6819 -0.1153  0.0951
  102TCq2    O5 1562   4.367   1.864  12.903  0.0370 -0.5670  0.3725
  102TCq2    O6 1563   4.353   1.688  13.029 -0.4221  0.5358  0.3638
  102TCq2    H2 1564   4.562   1.882  12.782  0.5636 -0.1344 -0.6013
  102TCq2    H3 1565   4.464   1.490  12.940  1.1921 -0.2118  0.3098
  102TCq2    H4 1566   0.056   1.547  12.662 -0.9885 -0.6763 -0.7482
  103TMC2    C1 1567   3.266   1.573  12.684 -0.0458  0.0864 -0.3358
  103TMC2    C2 1568   3.336   1.458  12.688 -0.2309  0.1521 -0.0759
  103TMC2    C3 1569   3.443   1.448  12.772 -0.3344  0.0087 -0.3170
  103TMC2    C4 1570   3.305   1.675  12.761  0.9434  0.4697 -0.1655
  103TMC2    C5 1571   3.419   1.666  12.837  1.1847  0.0183  0.7460
  103TMC2    C6 1572   3.499   1.556  12.838  0.2056  0.6797  0.2011
  103TMC2     C 1573   3.148   1.582  12.609 -0.2155 -1.0391  0.0089
  103TMC2     O 1574   3.121   1.687  12.547  0.2620 -0.3685 -0.9243
  103TMC2     H 1575   3.307   1.374  12.627 -0.5565  0.8676 -0.9163
  103TMC2    H1 1576   3.248   1.766  12.752 -1.1543 -0.7112  1.0210
  103TMC2    H2 1577   3.591   1.557  12.896  0.2282 -1.2740  0.1828
  103TMC2    C7 1578   3.420   1.756  12.951 -0.1883  0.1326  0.0692
  103TMC2    C8 1579   3.515   1.324  12.766  0.2868  0.5162  0.3392
  103TMC2    O1 1580   3.526   1.768  13.006  0.3189 -0.4530 -0.2701
  103TMC2    O2 1581   3.498   1.247  12.676 -0.2455 -0.3333  0.1325
  103TMC2    O5 1582   3.586   1.296  12.872 -0.2190  0.3939 -0.9740
  103TMC2    H5 1583   3.578   1.351  12.952  0.0962 -1.6014  0.4155
  104MPD2     C 1584   2.956   1.276  12.552  0.3808 -0.4011 -0.0772
  104MPD2    C1 1585   2.975   1.411  12.542 -0.1953  0.4381 -0.4926
  104MPD2    C2 1586   2.880   1.487  12.480  0.1349  0.0865 -0.1659
  104MPD2    C3 1587   2.773   1.432  12.408  0.2864 -0.4855 -0.1773
  104MPD2    C4 1588   2.763   1.289  12.414 -0.0465  0.2147  0.4154
  104MPD2    C5 1589   2.853   1.215  12.495  0.9967 -0.2652 -0.4790
  104MPD2     H 1590   2.899   1.593  12.492 -0.5260  0.2450 -0.4949
  104MPD2    H1 1591   2.679   1.252  12.357  0.2397 -0.1338  0.2214
  104MPD2    H2 1592   3.028   1.215  12.605 -1.9249 -1.9386  1.2321
  104MPD2    H3 1593   2.851   1.107  12.508 -1.4384 -0.1432  0.2381
  104MPD2     N 1594   2.681   1.495  12.329  0.2922 -0.2472  0.3181
  104MPD2    H5 1595   2.616   1.436  12.278  0.2445  1.2079 -1.3121
  104MPD2    N1 1596   3.087   1.464  12.611 -0.1696  0.3563 -0.4095
  104MPD2    H7 1597   3.128   1.400  12.678  3.2009  1.3836 -1.5215
  105MPD2     C 1598   0.598   0.573   0.230  0.1985  0.8067  0.3241
  105MPD2    C1 1599   0.529   0.667   0.167  0.0577 -0.6655  0.2275
  105MPD2    C2 1600   0.446   0.749   0.242 -0.0202  0.9961  0.8588
  105MPD2    C3 1601   0.422   0.717   0.381 -0.2923 -0.0402  0.0904
  105MPD2    C4 1602   0.498   0.619   0.442 -0.0743  0.2508  0.5723
  105MPD2    C5 1603   0.572   0.539   0.360  0.0455 -0.3123  1.6386
  105MPD2     H 1604   0.391   0.822   0.183 -0.0890  0.6954  0.5488
  105MPD2    H1 1605   0.494   0.591   0.546 -2.0186 -0.4657  0.3126
  105MPD2    H2 1606   0.687   0.528   0.185 -0.4231 -1.0729  0.9584
  105MPD2    H3 1607   0.636   0.467   0.409 -0.7143 -1.6953  0.6279
  105MPD2     N 1608   0.320   0.794   0.440  0.0934  0.5714  0.3085
  105MPD2    H5 1609   0.281   0.862   0.376 -0.6794  1.1062  1.3423
  105MPD2    N1 1610   0.549   0.686   0.031 -0.1840 -0.2108  0.3829
  105MPD2    H7 1611   0.513   0.762  17.675  2.7833  0.0315 -1.1746
  106TCq2    C1 1612   0.273   0.775   0.562  0.3900 -0.3095 -0.3360
  106TCq2    O2 1613   0.330   0.714   0.653  0.4023  0.1034 -0.0199
  106TCq2    C2 1614   0.156   0.847   0.610 -0.3835 -0.0301 -0.5581
  106TCq2    C3 1615   0.114   0.943   0.526  0.4554  0.0409  0.8388
  106TCq2    C4 1616   0.020   1.034   0.582  0.4740  0.4708  0.3857
  106TCq2    C5 1617   4.700   1.024   0.711 -0.1676  0.2090  0.3441
  106TCq2    C6 1618   0.020   0.915   0.786 -0.2137  0.0803  0.8396
  106TCq2    C7 1619   0.118   0.830   0.737  0.0113  0.2707  0.0124
  106TCq2    C8 1620   0.021   0.926   0.930  0.0330  0.1325  0.1025
  106TCq2    O4 1621   0.110   0.873   0.996  0.6034 -0.2558  0.1086
  106TCq2    C9 1622   4.688   1.133   0.496  0.6327  0.5310 -0.0954
  106TCq2    O5 1623   4.595   1.208   0.539 -0.5344  0.0298 -0.0715
  106TCq2    O6 1624   4.717   1.135   0.378 -0.3956 -0.8461 -0.1713
  106TCq2    H2 1625   0.144   0.957   0.423 -1.4881 -1.5014  0.0746
  106TCq2    H3 1626   4.626   1.092   0.752 -2.0513 -0.7928 -1.4246
  106TCq2    H4 1627   0.162   0.746   0.790 -0.8379 -0.9574 -1.1894
  107TMC2    C1 1628   0.759   0.011  11.199  0.1559  0.9373  0.4664
  107TMC2    C2 1629   0.846   4.639  11.146 -0.0667 -0.2399 -0.0788
  107TMC2    C3 1630   0.912   4.668  11.033  0.5098  0.9133 -0.2143
  107TMC2    C4 1631   0.740   0.128  11.131 -0.6582  0.4220  0.0054
  107TMC2    C5 1632   0.829   0.157  11.028 -0.5120  0.4853  0.2521
  107TMC2    C6 1633   0.905   0.061  10.965  0.0266  0.7398 -0.5442
  107TMC2     C 1634   0.721   0.009  11.338 -0.4385 -0.1636  0.6278
  107TMC2     O 1635   0.622   0.072  11.368 -0.0884 -0.1809 -0.7040
  107TMC2     H 1636   0.870   4.543  11.192 -1.1417 -0.5042 -0.0716
  107TMC2    H1 1637   0.697   0.220  11.170 -2.8206 -0.6463  0.1119
  107TMC2    H2 1638   0.978   0.080  10.887  0.2463  2.7032  0.1220
  107TMC2    C7 1639   0.802   0.287  10.966  0.5423 -0.5897  0.9494
  107TMC2    C8 1640   0.982   4.554  10.970 -0.3503  0.4062  0.2521
  107TMC2    O1 1641   0.745   0.377  11.024  0.2765 -0.4957 -0.3213
  107TMC2    O2 1642   0.952   4.434  10.992 -0.4944  0.7870  0.1177
  107TMC2    O5 1643   1.112   4.585  10.953  0.0470  0.5789  0.2739
  107TMC2    H5 1644   1.131   4.678  10.977  0.6429  0.4496  0.3041
  108MPD2     C 1645   0.827   4.536  11.621  0.2909 -0.3676  0.1215
  108MPD2    C1 1646   0.770   4.642  11.555 -0.7435  0.3677  0.2620
  108MPD2    C2 1647   0.702   0.020  11.626 -0.2985 -0.2437 -1.2410
  108MPD2    C3 1648   0.683   0.004  11.760  0.0028 -0.1986  0.0329
  108MPD2    C4 1649   0.728   4.621  11.821 -0.3137  0.4718 -0.3279
  108MPD2    C5 1650   0.789   4.522  11.753  0.9911  0.5195  0.0055
  108MPD2     H 1651   0.673   0.112  11.578 -2.9008 -0.1823  0.4523
  108MPD2    H1 1652   0.719   4.599  11.927 -1.4419 -1.3732 -0.7959
  108MPD2    H2 1653   0.895   4.468  11.571 -0.6523 -1.0481 -0.2546
  108MPD2    H3 1654   0.832   4.432  11.796 -0.8584  0.1797  1.1344
  108MPD2     N 1655   0.621   0.106  11.840  0.2724 -0.9734 -0.1817
  108MPD2    H5 1656   0.602   0.084  11.938 -0.1487  0.2363  0.0048
  108MPD2    N1 1657   0.791   4.648  11.414 -0.2493 -0.1393 -0.5140
  108MPD2    H7 1658   0.851   4.579  11.370  0.0603 -0.3879  0.2998
  109MPD2     C 1659   0.760   1.673   1.709 -0.2849 -0.1588 -0.6744
  109MPD2    C1 1660   0.855   1.676   1.611 -0.2006 -0.2214 -0.2490
  109MPD2    C2 1661   0.992   1.688   1.645  0.3375 -0.1018  0.1259
  109MPD2    C3 1662   1.019   1.716   1.777 -0.5228  0.6130 -0.0159
  109MPD2    C4 1663   0.925   1.713   1.876  0.4491 -0.0426  0.0834
  109MPD2    C5 1664   0.792   1.705   1.838 -0.0603 -0.2220 -0.2711
  109MPD2     H 1665   1.065   1.700   1.567  1.0468 -0.1493  0.7851
  109MPD2    H1 1666   0.946   1.736   1.980 -2.6239 -0.8882  0.8808
  109MPD2    H2 1667   0.653   1.666   1.690 -0.3775 -0.9854  0.1201
  109MPD2    H3 1668   0.723   1.712   1.922 -0.6368 -0.1018 -0.7515
  109MPD2     N 1669   1.154   1.744   1.798 -0.2765 -0.3674  0.3608
  109MPD2    H5 1670   1.210   1.744   1.713  0.2251  1.2141  0.6934
  109MPD2    N1 1671   0.805   1.673   1.482 -0.2695  0.6045 -0.5111
  109MPD2    H7 1672   0.705   1.677   1.468 -0.3077 -0.3381 -0.4980
  110TCq2    C1 1673   1.212   1.777   1.917  0.2524  0.3408 -0.6480
  110TCq2    O2 1674   1.160   1.796   2.027  0.9952  0.3408 -1.1634
  110TCq2    C2 1675   1.342   1.835   1.897 -0.6702  0.1322 -0.1884
  110TCq2    C3 1676   1.428   1.825   2.005  0.2338 -0.0367  0.1178
  110TCq2    C4 1677   1.551   1.883   1.989 -0.2708  0.0973 -0.3611
  110TCq2    C5 1678   1.585   1.944   1.876  0.0760  0.3162 -0.1740
  110TCq2    C6 1679   1.489   1.960   1.777  0.3964  0.5062  0.1886
  110TCq2    C7 1680   1.369   1.906   1.781 -0.8985  0.3013  0.0193
  110TCq2    C8 1681   1.507   2.035   1.656  0.5442  0.5483 -0.3678
  110TCq2    O4 1682   1.414   2.041   1.576 -0.2239  0.6036  0.3582
  110TCq2    C9 1683   1.649   1.881   2.101 -0.2258  1.0124  0.2984
  110TCq2    O5 1684   1.634   1.784   2.179  0.0784  0.0344 -0.1189
  110TCq2    O6 1685   1.753   1.955   2.099  0.1196 -0.6747  0.5198
  110TCq2    H2 1686   1.413   1.761   2.092 -1.1480  0.6783  0.3975
  110TCq2    H3 1687   1.686   1.978   1.855 -0.7308  2.2981 -0.9254
  110TCq2    H4 1688   1.293   1.926   1.706 -0.5384 -0.3577 -0.5226
  111TMC2    C1 1689   0.717   1.857  11.312  0.8863  0.1084 -0.9120
  111TMC2    C2 1690   0.593   1.922  11.302  0.8013  0.5751  0.8423
  111TMC2    C3 1691   0.520   1.932  11.418  1.0567  0.6363 -0.0918
  111TMC2    C4 1692   0.781   1.810  11.422 -0.1775 -0.1619  0.6519
  111TMC2    C5 1693   0.706   1.831  11.536  0.6181 -0.5378  0.0813
  111TMC2    C6 1694   0.581   1.898  11.535  0.0859  0.1463 -0.1591
  111TMC2     C 1695   0.797   1.832  11.185  0.6167  0.2067 -0.3239
  111TMC2     O 1696   0.915   1.796  11.193  0.2272 -0.1502  0.3035
  111TMC2     H 1697   0.535   1.925  11.210  0.5417  2.4738  1.0643
  111TMC2    H1 1698   0.876   1.757  11.420 -0.0013  0.1847 -0.3719
  111TMC2    H2 1699   0.532   1.919  11.629  1.4492  1.8959  0.1530
  111TMC2    C7 1700   0.763   1.810  11.674 -0.2986  0.5482 -0.1353
  111TMC2    C8 1701   0.424   2.042  11.417  0.4240  0.4063  0.9052
  111TMC2    O1 1702   0.694   1.838  11.769 -0.3081  0.2497 -0.0197
  111TMC2    O2 1703   0.400   2.107  11.316 -0.3596  0.1792 -0.2516
  111TMC2    O5 1704   0.334   2.016  11.523 -0.1201  0.3406 -0.9291
  111TMC2    H5 1705   0.353   1.937  11.579  0.8696  1.9773  1.0663
  112MPD2     C 1706   0.871   1.856  10.678  0.2112  0.6493 -0.5116
  112MPD2    C1 1707   0.785   1.958  10.717  0.1752  0.1179 -0.0365
  112MPD2    C2 1708   0.750   1.976  10.852  0.1237 -0.7769 -0.3509
  112MPD2    C3 1709   0.806   1.894  10.945  0.7658  0.1315 -0.4744
  112MPD2    C4 1710   0.894   1.794  10.905  0.2599 -0.0772 -0.5281
  112MPD2    C5 1711   0.920   1.777  10.775 -0.8561  0.8192  0.4866
  112MPD2     H 1712   0.692   2.065  10.873 -0.0107 -0.6585 -1.2127
  112MPD2    H1 1713   0.940   1.724  10.974 -1.5379 -0.2984  0.4448
  112MPD2    H2 1714   0.893   1.837  10.574  2.2349  1.3696 -0.2130
  112MPD2    H3 1715   0.974   1.686  10.750 -1.2719  1.2493 -1.9412
  112MPD2     N 1716   0.753   1.897  11.073 -0.2854  0.3880 -0.7332
  112MPD2    H5 1717   0.677   1.964  11.074  1.7942  2.7162  1.4737
  112MPD2    N1 1718   0.752   2.046  10.613  0.3366 -0.1384  0.0243
  112MPD2    H7 1719   0.785   2.027  10.519 -0.1794  2.0400 -0.6092
  113MPD2     C 1720   0.017   0.308   0.830  0.1282 -0.4496 -0.4518
  113MPD2    C1 1721   4.615   0.344   0.871  0.1199 -0.4813  0.2008
  113MPD2    C2 1722   4.514   0.270   0.823  0.1722 -0.0657 -0.1289
  113MPD2    C3 1723   4.530   0.147   0.763  0.1220  0.2992 -0.3060
  113MPD2    C4 1724   4.655   0.105   0.726  0.1402  0.0266  0.0344
  113MPD2    C5 1725   0.030   0.184   0.766  0.4315  0.0778  0.0005
  113MPD2     H 1726   4.417   0.303   0.859 -0.0185 -0.9604  0.1792
  113MPD2    H1 1727   4.666   0.003   0.691  2.4144  0.2003  0.2374
  113MPD2    H2 1728   0.099   0.373   0.857 -1.5577  0.9028  1.3580
  113MPD2    H3 1729   0.128   0.146   0.739  0.1772 -1.1487  0.8117
  113MPD2     N 1730   4.425   0.065   0.725 -0.1874  0.5716  0.3383
  113MPD2    H5 1731   4.447   4.695   0.699  0.2152  0.6316  0.4447
  113MPD2    N1 1732   4.593   0.462   0.949  0.1978 -0.0093 -0.2928
  113MPD2    H7 1733   4.498   0.498   0.958  0.6205  0.9191  0.4311
  114TCq2    C1 1734   4.291   0.085   0.756  0.0233  0.0302 -0.7575
  114TCq2    O2 1735   4.229   0.189   0.770  0.0683  0.2888 -0.2113
  114TCq2    C2 1736   4.228   4.682   0.789 -0.3230 -0.0756 -0.1689
  114TCq2    C3 1737   4.291   4.566   0.817 -0.5742 -0.4132 -0.5004
  114TCq2    C4 1738   4.219   4.456   0.837 -0.5925 -0.1996  0.2777
  114TCq2    C5 1739   4.080   4.456   0.849 -0.8304 -0.7203 -0.4095
  114TCq2    C6 1740   4.015   4.575   0.817  0.1895 -0.3187 -0.7079
  114TCq2    C7 1741   4.092   4.688   0.797 -0.5369 -0.3217 -0.0036
  114TCq2    C8 1742   3.882   4.607   0.859  0.5869  0.6647 -0.1473
  114TCq2    O4 1743   3.860   4.719   0.899 -0.2935 -0.3856  0.5200
  114TCq2    C9 1744   4.293   4.342   0.886 -0.5036  0.1029 -0.6355
  114TCq2    O5 1745   4.402   4.319   0.827 -0.1532 -0.2843 -0.0870
  114TCq2    O6 1746   4.229   4.265   0.959 -0.0371 -0.0598 -0.3084
  114TCq2    H2 1747   4.399   4.565   0.832 -0.1525  0.7698 -3.4778
  114TCq2    H3 1748   4.039   4.359   0.878 -3.8235  1.2950  2.0933
  114TCq2    H4 1749   4.036   0.051   0.768 -0.3543 -1.4278 -3.7232
  115TMC2    C1 1750   0.128   2.972   0.295  0.2026  0.1314 -0.5263
  115TMC2    C2 1751   0.137   2.993   0.431 -0.0933  0.2472  0.6015
  115TMC2    C3 1752   0.163   3.118   0.474 -0.3746 -0.5088 -0.3842
  115TMC2    C4 1753   0.157   3.072   0.196 -0.1612  0.6689 -0.5359
  115TMC2    C5 1754   0.206   3.187   0.249 -0.2833 -0.8055  0.4776
  115TMC2    C6 1755   0.205   3.213   0.385 -0.1690 -0.3147 -0.1592
  115TMC2     C 1756   0.061   2.850   0.251  0.4264  0.4815 -0.1956
  115TMC2     O 1757   0.011   2.858   0.139  0.2121  0.2811 -0.0944
  115TMC2     H 1758   0.098   2.921   0.503  1.0321  0.3741  1.3450
  115TMC2    H1 1759   0.131   3.054   0.092  2.4273 -0.3980 -1.0126
  115TMC2    H2 1760   0.255   3.301   0.424 -1.5467  0.2331  0.3669
  115TMC2    C7 1761   0.202   3.303   0.170  0.1050  0.7287  0.1918
  115TMC2    C8 1762   0.216   3.131   0.609 -0.4157  0.2490  0.4192
  115TMC2    O1 1763   0.177   3.291   0.049  0.3002 -0.1923  0.1856
  115TMC2    O2 1764   0.275   3.045   0.670 -0.0495 -0.0055 -0.0962
  115TMC2    O5 1765   0.152   3.232   0.657 -0.1411  0.1382 -0.1106
  115TMC2    H5 1766   0.110   3.293   0.591  0.5230  1.3549  0.5897
  116MPD2     C 1767   4.725   2.336   0.283  0.4234 -0.1025 -0.3736
  116MPD2    C1 1768   4.687   2.434   0.186  0.6214 -0.3215  0.1548
  116MPD2    C2 1769   4.704   2.571   0.201  0.5301 -0.6250  0.3966
  116MPD2    C3 1770   0.039   2.614   0.316 -0.1425  0.2681 -0.4257
  116MPD2    C4 1771   0.070   2.519   0.411 -0.6935  0.0090 -0.2187
  116MPD2    C5 1772   0.052   2.387   0.398  0.9825  0.8874  0.2271
  116MPD2     H 1773   4.679   2.640   0.122 -0.1338  1.6626  2.6177
  116MPD2    H1 1774   0.109   2.544   0.509  0.6227 -1.5624 -0.3585
  116MPD2    H2 1775   4.699   2.230   0.283  1.6623 -0.3983 -1.0801
  116MPD2    H3 1776   0.099   2.321   0.470  1.7816 -2.2558 -3.1776
  116MPD2     N 1777   0.082   2.746   0.338 -0.3164  0.3634  0.0952
  116MPD2    H5 1778   0.146   2.772   0.412  0.7663 -1.7522 -0.0980
  116MPD2    N1 1779   4.630   2.367   0.066  0.1177 -0.2423  0.0056
  116MPD2    H7 1780   4.622   2.266   0.071 -0.2758 -0.2034  0.1404
  117TMC2    C1 1781   3.008   3.723  13.662  0.3569  0.1114  0.6734
  117TMC2    C2 1782   3.058   3.612  13.719  0.4317 -0.1526 -0.4935
  117TMC2    C3 1783   3.172   3.631  13.791 -0.7048 -0.3043 -0.5435
  117TMC2    C4 1784   3.066   3.844  13.666 -0.1070  0.0228 -0.2491
  117TMC2    C5 1785   3.180   3.856  13.745 -0.8621  0.5939 -0.3648
  117TMC2    C6 1786   3.239   3.751  13.804 -0.0369 -0.2461  0.0436
  117TMC2     C 1787   2.878   3.706  13.589  0.3768 -0.0802  0.7389
  117TMC2     O 1788   2.820   3.599  13.586 -0.6273 -0.3840  0.4631
  117TMC2     H 1789   2.997   3.523  13.733 -2.0124  1.7925  1.2161
  117TMC2    H1 1790   3.024   3.934  13.624  2.4224  1.7368  0.8700
  117TMC2    H2 1791   3.324   3.767  13.870 -1.5709  1.2505  1.6649
  117TMC2    C7 1792   3.241   3.987  13.754  0.6420 -0.4309 -0.7510
  117TMC2    C8 1793   3.206   3.517  13.883 -0.1691  0.1082 -0.3597
  117TMC2    O1 1794   3.189   4.088  13.705  0.6199 -0.1828  0.3564
  117TMC2    O2 1795   3.112   3.447  13.921 -0.5025 -0.1806  0.3821
  117TMC2    O5 1796   3.301   3.555  13.975 -0.1200  0.5292 -0.6742
  117TMC2    H5 1797   3.384   3.592  13.939 -0.2532  1.7392  0.2322
  118MPD2     C 1798   3.598   4.071  13.810 -0.0074 -0.2173 -0.0468
  118MPD2    C1 1799   3.467   4.098  13.788  0.2840  0.8014  0.3075
  118MPD2    C2 1800   3.431   4.233  13.775 -0.3196  1.0012  0.2943
  118MPD2    C3 1801   3.529   4.334  13.776  0.9816  0.4334 -0.4014
  118MPD2    C4 1802   3.656   4.303  13.805  0.5224 -0.7824  0.7940
  118MPD2    C5 1803   3.689   4.172  13.818 -0.1859 -0.0824 -0.5997
  118MPD2     H 1804   3.326   4.262  13.771 -0.8877 -1.1885 -0.6407
  118MPD2    H1 1805   3.739   4.374  13.802  0.6972 -1.0443 -0.8256
  118MPD2    H2 1806   3.630   3.969  13.825 -0.3371 -0.4920 -1.1886
  118MPD2    H3 1807   3.794   4.150  13.829  0.0015  1.5374  0.6832
  118MPD2     N 1808   3.502   4.472  13.751  0.0842  0.0325 -0.2080
  118MPD2    H5 1809   3.578   4.538  13.766 -0.3918  1.0384 -2.2126
  118MPD2    N1 1810   3.375   3.988  13.792  0.4177  0.2175  0.0143
  118MPD2    H7 1811   3.411   3.898  13.820  0.3495  0.5527  1.1853
  119MPD2     C 1812   2.061   1.614  13.157 -0.2717 -1.0850 -0.2257
  119MPD2    C1 1813   1.936   1.556  13.168 -0.3243 -0.5771  0.0227
  119MPD2    C2 1814   1.911   1.443  13.087  0.0483 -1.0182  0.1715
  119MPD2    C3 1815   2.006   1.395  13.000  0.7131  0.9969  0.4263
  119MPD2    C4 1816   2.131   1.445  13.006 -0.9213  0.5205  0.2922
  119MPD2    C5 1817   2.154   1.557  13.076 -0.1657  0.2445  0.0065
  119MPD2     H 1818   1.815   1.394  13.089 -0.0153 -0.9377 -0.6716
  119MPD2    H1 1819   2.215   1.399  12.955 -0.8445  2.0219 -0.9435
  119MPD2    H2 1820   2.091   1.704  13.209  0.7888 -1.5851  0.0261
  119MPD2    H3 1821   2.259   1.587  13.075  0.4821 -1.9890  1.0306
  119MPD2     N 1822   1.981   1.286  12.910 -0.4115  0.0793  0.4147
  119MPD2    H5 1823   2.064   1.248  12.864  0.2872  3.1230 -0.8472
  119MPD2    N1 1824   1.839   1.593  13.267 -0.4153 -0.0146 -0.0211
  119MPD2    H7 1825   1.861   1.664  13.337  1.5373 -0.3880 -0.2684
  120TCq2    C1 1826   1.861   1.227  12.893 -0.1040 -0.8309  0.2630
  120TCq2    O2 1827   1.752   1.268  12.923 -0.3345  0.6069 -0.1473
  120TCq2    C2 1828   1.877   1.101  12.837 -0.4798  0.2977  0.6881
  120TCq2    C3 1829   1.954   1.095  12.723 -0.1142 -0.4758 -0.4708
  120TCq2    C4 1830   1.914   1.013  12.625 -1.1926  0.1378 -0.7438
  120TCq2    C5 1831   1.800   0.935  12.630  0.6784  0.0339 -0.3232
  120TCq2    C6 1832   1.730   0.937  12.752  1.1793 -0.3144 -1.2315
  120TCq2    C7 1833   1.773   1.019  12.847 -0.2858  0.3567  0.2747
  120TCq2    C8 1834   1.603   0.880  12.753  0.2388  0.5775  0.7145
  120TCq2    O4 1835   1.559   0.830  12.650 -0.0909 -0.5485  0.6259
  120TCq2    C9 1836   1.991   1.033  12.504 -0.1908 -0.1310 -0.3233
  120TCq2    O5 1837   1.931   1.007  12.397 -0.5200  0.4516  0.2493
  120TCq2    O6 1838   2.086   1.119  12.499  0.6149  0.2855  0.0007
  120TCq2    H2 1839   2.041   1.158  12.713 -2.2946  2.5626 -0.4377
  120TCq2    H3 1840   1.771   0.869  12.549 -0.6877 -2.8043  2.4627
  120TCq2    H4 1841   1.713   1.037  12.935 -0.6506 -1.0838  0.3207
  121TMC2    C1 1842   2.831   2.398  14.114 -0.1953 -0.4238 -0.0961
  121TMC2    C2 1843   2.869   2.302  14.208  0.0691  0.0693 -0.5782
  121TMC2    C3 1844   2.772   2.259  14.294 -0.4610  0.2521  0.1326
  121TMC2    C4 1845   2.710   2.458  14.112 -0.5527  0.0985  0.1924
  121TMC2    C5 1846   2.613   2.406  14.192  0.2041 -0.0265  0.2088
  121TMC2    C6 1847   2.644   2.302  14.274 -0.1978 -0.1359  0.1055
  121TMC2     C 1848   2.950   2.467  14.069  0.2603 -0.0300 -0.1620
  121TMC2     O 1849   3.048   2.452  14.140  0.1647  0.9273 -0.0361
  121TMC2     H 1850   2.961   2.245  14.213 -0.2366 -0.3685  0.0464
  121TMC2    H1 1851   2.691   2.546  14.052  2.9713  1.1745  0.6811
  121TMC2    H2 1852   2.573   2.253  14.340 -0.6357 -1.2902 -1.2213
  121TMC2    C7 1853   2.474   2.437  14.161 -0.7798  1.2347  0.1743
  121TMC2    C8 1854   2.800   2.179  14.408 -0.2021 -0.3219 -0.1152
  121TMC2    O1 1855   2.444   2.483  14.053 -0.1467  0.1920  0.0436
  121TMC2    O2 1856   2.715   2.135  14.479  0.0805  0.1321  0.0671
  121TMC2    O5 1857   2.929   2.196  14.450 -0.4094  0.6183 -0.2153
  121TMC2    H5 1858   2.977   2.236  14.375  0.4023 -0.6497 -0.3692
  122MPD2     C 1859   3.149   2.648  13.946 -0.2467 -0.0155  0.1447
  122MPD2    C1 1860   3.038   2.603  13.878 -0.5077 -0.4841  0.4148
  122MPD2    C2 1861   3.024   2.638  13.743 -0.3484  0.1312  0.0730
  122MPD2    C3 1862   3.115   2.717  13.674  0.2388 -0.2425 -0.2006
  122MPD2    C4 1863   3.223   2.758  13.749 -0.0915 -0.5751  0.1850
  122MPD2    C5 1864   3.239   2.726  13.881 -0.3249 -0.1620  0.0801
  122MPD2     H 1865   2.939   2.594  13.692 -0.6963  1.6055 -0.6288
  122MPD2    H1 1866   3.275   2.838  13.697 -1.4166 -0.0062 -0.2860
  122MPD2    H2 1867   3.162   2.641  14.053 -3.1855  0.8574  0.5583
  122MPD2    H3 1868   3.323   2.764  13.938 -0.2572  0.3957 -0.3928
  122MPD2     N 1869   3.106   2.746  13.534 -0.0806 -0.5839 -0.6461
  122MPD2    H5 1870   3.192   2.783  13.493 -0.4441 -1.3733 -2.1075
  122MPD2    N1 1871   2.936   2.531  13.943 -0.0431 -0.2112  0.6416
  122MPD2    H7 1872   2.848   2.518  13.896  0.8171 -1.6263 -0.5551
  123MPD2     C 1873   1.600   0.869   9.747  0.5071  0.6896  0.3477
  123MPD2    C1 1874   1.522   0.867   9.637 -0.9939 -0.4914  0.0565
  123MPD2    C2 1875   1.534   0.976   9.550  0.5194 -0.0641 -0.6239
  123MPD2    C3 1876   1.623   1.075   9.551  0.4761 -0.0559 -0.2375
  123MPD2    C4 1877   1.705   1.078   9.667 -0.3141  1.0710 -0.0730
  123MPD2    C5 1878   1.688   0.973   9.762  0.3493  0.8721  0.6207
  123MPD2     H 1879   1.463   0.970   9.468  0.8041 -0.1919 -0.8618
  123MPD2    H1 1880   1.793   1.140   9.678 -1.1827  2.5432 -1.4811
  123MPD2    H2 1881   1.588   0.801   9.831 -0.5482  2.5155  1.6801
  123MPD2    H3 1882   1.757   0.968   9.846  0.5845  2.4323  0.5240
  123MPD2     N 1883   1.622   1.173   9.447 -0.2824 -0.1007  0.0630
  123MPD2    H5 1884   1.558   1.151   9.371 -1.3112 -0.2788  0.9754
  123MPD2    N1 1885   1.432   0.757   9.616 -0.2461 -0.3199 -0.3719
  123MPD2    H7 1886   1.437   0.681   9.683 -1.8120  0.0640  0.1567
  124TCq2    C1 1887   1.705   1.286   9.438 -0.1985 -0.0045  0.0283
  124TCq2    O2 1888   1.774   1.322   9.533 -0.2676 -0.1118 -0.1536
  124TCq2    C2 1889   1.687   1.364   9.319  0.4298 -0.2377 -0.5137
  124TCq2    C3 1890   1.695   1.501   9.334 -0.3077  0.6577  0.1996
  124TCq2    C4 1891   1.620   1.583   9.251 -0.0367  0.0652 -0.3827
  124TCq2    C5 1892   1.543   1.525   9.154 -0.2649  0.1749  0.2276
  124TCq2    C6 1893   1.538   1.392   9.140  0.0364  0.2459  0.4424
  124TCq2    C7 1894   1.608   1.306   9.224 -0.6182  0.2815 -0.4647
  124TCq2    C8 1895   1.445   1.328   9.048  0.8186 -0.3319 -0.4928
  124TCq2    O4 1896   1.436   1.204   9.060  0.0045  0.0425 -0.3457
  124TCq2    C9 1897   1.621   1.730   9.266  0.3916 -1.0707  0.0597
  124TCq2    O5 1898   1.703   1.777   9.351 -0.2863  0.0528  0.4327
  124TCq2    O6 1899   1.541   1.796   9.198  0.5333  0.7450  0.2838
  124TCq2    H2 1900   1.736   1.549   9.423 -3.8046  1.6989  1.2664
  124TCq2    H3 1901   1.496   1.594   9.085 -0.2015  0.8123  0.8231
  124TCq2    H4 1902   1.609   1.200   9.201  0.3439  0.3902 -0.9166
  125TMC2    C1 1903   1.475   2.631   8.289  0.2414 -0.0279 -0.2572
  125TMC2    C2 1904   1.338   2.660   8.291 -0.2480 -0.7435  0.5905
  125TMC2    C3 1905   1.305   2.778   8.353 -0.5108 -0.1890  0.1997
  125TMC2    C4 1906   1.572   2.719   8.340  0.0646  0.4970  0.3978
  125TMC2    C5 1907   1.532   2.835   8.407  0.3256 -0.3410 -0.0187
  125TMC2    C6 1908   1.399   2.859   8.418 -0.1436  0.4136 -0.3655
  125TMC2     C 1909   1.520   2.495   8.251 -0.3856 -0.0966  0.6803
  125TMC2     O 1910   1.636   2.469   8.279  0.1362  0.4741  0.2059
  125TMC2     H 1911   1.262   2.592   8.255  0.1582  0.5204 -2.6387
  125TMC2    H1 1912   1.678   2.712   8.320  0.1337  1.3982  0.4409
  125TMC2    H2 1913   1.363   2.953   8.460 -1.0375 -0.9603  1.9461
  125TMC2    C7 1914   1.622   2.904   8.488  0.5017  0.6948 -0.0755
  125TMC2    C8 1915   1.160   2.781   8.371 -0.0130 -0.6418  0.4567
  125TMC2    O1 1916   1.593   3.020   8.513  0.1048 -0.1385  0.4583
  125TMC2    O2 1917   1.101   2.683   8.409  0.1814  1.3130 -0.0791
  125TMC2    O5 1918   1.136   2.909   8.407 -0.3646  0.1908 -0.4190
  125TMC2    H5 1919   1.205   2.970   8.374 -0.0238 -0.5619 -1.1082
  126MPD1     C 1920   1.505   2.089   7.933  0.2952  0.0758  0.0645
  126MPD1    C1 1921   1.387   2.156   7.918 -0.5133  0.2143 -0.5965
  126MPD1    C2 1922   1.368   2.271   7.992  0.2041 -0.0234  0.5187
  126MPD1    C3 1923   1.457   2.308   8.099  0.0461 -0.6659  0.1106
  126MPD1    C4 1924   1.572   2.238   8.114  0.2318  0.0289  0.1121
  126MPD1    C5 1925   1.598   2.126   8.031 -0.7862 -0.7432  0.7028
  126MPD1     H 1926   1.284   2.335   7.968 -1.0198 -2.1846 -1.0135
  126MPD1    H1 1927   1.652   2.254   8.185 -0.2155  3.4431 -0.1570
  126MPD1    H2 1928   1.528   2.004   7.870 -1.9256 -0.1681 -0.4223
  126MPD1    H3 1929   1.684   2.063   8.046  1.1876  1.2044 -2.3170
  126MPD1     N 1930   1.430   2.424   8.171 -0.3545 -0.0169  0.0660
  126MPD1    H5 1931   1.349   2.480   8.145  0.0354  1.3312  1.7612
  126MPD1    N1 1932   1.304   2.118   7.809 -0.1726  0.2472 -0.3299
  126MPD1    H6 1933   1.207   2.149   7.814 -0.3260 -0.2203 -0.4497
  126MPD1    H7 1934   1.319   2.021   7.784 -0.3073 -0.7334  3.3485
  127MPD2     C 1935   3.242   1.517   9.055 -0.3865 -0.4952  0.2293
  127MPD2    C1 1936   3.302   1.558   9.170  0.4835 -0.2095 -0.4439
  127MPD2    C2 1937   3.350   1.686   9.184 -0.6552 -0.3541 -0.5275
  127MPD2    C3 1938   3.336   1.785   9.085 -0.3968 -0.2698  0.0422
  127MPD2    C4 1939   3.279   1.743   8.967  0.1804  0.2702 -0.0540
  127MPD2    C5 1940   3.230   1.612   8.955  0.5541  0.2031 -0.0105
  127MPD2     H 1941   3.396   1.711   9.278 -3.3733 -3.5951  1.6422
  127MPD2    H1 1942   3.255   1.811   8.886 -2.5443 -0.5749  0.0493
  127MPD2    H2 1943   3.209   1.417   9.029 -3.1111 -0.7962  4.9985
  127MPD2    H3 1944   3.195   1.581   8.857 -0.3706 -2.2285  1.0802
  127MPD2     N 1945   3.377   1.911   9.116  0.1708  0.4998 -0.1012
  127MPD2    H5 1946   3.411   1.940   9.207 -2.1752  1.0516  0.5940
  127MPD2    N1 1947   3.313   1.462   9.273  0.0162 -0.1693  0.1005
  127MPD2    H7 1948   3.272   1.371   9.253 -0.8440  0.4044 -0.7533
  128TCq2    C1 1949   3.379   1.480   9.392  0.5940  0.0546 -0.0372
  128TCq2    O2 1950   3.455   1.569   9.431  0.2837 -0.0908  0.0338
  128TCq2    C2 1951   3.364   1.372   9.481  1.1472 -0.2639  0.1516
  128TCq2    C3 1952   3.336   1.247   9.432 -0.0608  0.1541 -0.4619
  128TCq2    C4 1953   3.284   1.157   9.517  0.2667  0.0315  0.0765
  128TCq2    C5 1954   3.275   1.181   9.652 -0.2107 -0.2508  0.6855
  128TCq2    C6 1955   3.299   1.313   9.696 -0.0020 -0.1337 -0.1187
  128TCq2    C7 1956   3.348   1.407   9.607 -0.5546 -0.0120  0.5181
  128TCq2    C8 1957   3.261   1.359   9.828 -0.0360 -0.2025 -0.2182
  128TCq2    O4 1958   3.279   1.476   9.856 -0.0808 -0.1976  0.5852
  128TCq2    C9 1959   3.250   1.024   9.472 -0.2635 -0.8086  0.0109
  128TCq2    O5 1960   3.263   1.002   9.349  0.4581  0.8177 -0.1079
  128TCq2    O6 1961   3.186   0.947   9.546 -0.8543 -0.0365  0.5220
  128TCq2    H2 1962   3.341   1.222   9.327 -1.9290  2.0164 -1.0044
  128TCq2    H3 1963   3.238   1.106   9.720 -2.1704  0.1547  0.0895
  128TCq2    H4 1964   3.344   1.511   9.635  1.0396  0.2419 -0.2429
  129MPD2     C 1965   1.565   2.072   1.040 -0.1075 -0.4181  0.9561
  129MPD2    C1 1966   1.688   2.123   1.081  0.0346 -0.2079  0.5001
  129MPD2    C2 1967   1.745   2.222   1.003 -0.4170  0.4866 -0.0660
  129MPD2    C3 1968   1.677   2.271   0.893  0.3389  0.1971  0.3176
  129MPD2    C4 1969   1.550   2.229   0.868  0.7805 -0.5723  0.9277
  129MPD2    C5 1970   1.493   2.135   0.943  0.6627 -0.0695 -0.9265
  129MPD2     H 1971   1.846   2.257   1.023 -0.4046  0.2650  0.2577
  129MPD2    H1 1972   1.491   2.263   0.784 -0.8926 -1.9980  1.5274
  129MPD2    H2 1973   1.521   1.986   1.089  0.7248 -1.7871 -0.6891
  129MPD2    H3 1974   1.397   2.091   0.918 -0.8323  1.1859  2.7167
  129MPD2     N 1975   1.737   2.377   0.821  0.1146  0.2344 -0.2237
  129MPD2    H5 1976   1.825   2.413   0.857  0.4582  0.6019 -1.4215
  129MPD2    N1 1977   1.756   2.082   1.201  0.0113  0.1026 -0.5494
  129MPD2    H7 1978   1.840   2.131   1.231 -0.5052  0.5359  0.1719
  130TCq2    C1 1979   1.708   1.983   1.290  0.3574  0.4134 -0.2645
  130TCq2    O2 1980   1.610   1.908   1.276  0.0270  0.1533  0.8235
  130TCq2    C2 1981   1.793   1.966   1.413  0.3153  0.4036 -0.4762
  130TCq2    C3 1982   1.904   2.051   1.431 -0.4713  0.1321 -0.0570
  130TCq2    C4 1983   1.977   2.041   1.546  0.3781 -0.2690  0.4662
  130TCq2    C5 1984   1.943   1.948   1.642 -0.4031  0.3241  0.1947
  130TCq2    C6 1985   1.838   1.864   1.615 -0.8034 -0.2191  0.5612
  130TCq2    C7 1986   1.756   1.872   1.507 -0.2347 -0.2659  0.6964
  130TCq2    C8 1987   1.819   1.751   1.699 -0.6692 -0.1583  0.3965
  130TCq2    O4 1988   1.714   1.685   1.695 -0.8072 -0.1722 -0.3480
  130TCq2    C9 1989   2.077   2.137   1.569 -0.4413 -0.9474 -0.3247
  130TCq2    O5 1990   2.153   2.130   1.670  0.3985 -0.3070 -0.4510
  130TCq2    O6 1991   2.096   2.203   1.466 -0.7253  0.6415 -0.1886
  130TCq2    H2 1992   1.930   2.119   1.350  1.4722 -3.1732 -2.1748
  130TCq2    H3 1993   1.990   1.951   1.740 -2.0004  1.1812  0.9339
  130TCq2    H4 1994   1.679   1.800   1.481  1.7120 -1.3546 -2.1199
  131MPD2     C 1995   0.679   0.982   9.150 -0.7021  0.5082  0.4528
  131MPD2    C1 1996   0.812   1.023   9.166  0.4177  0.5526  0.9374
  131MPD2    C2 1997   0.898   0.934   9.230  0.2332 -0.0937  0.7310
  131MPD2    C3 1998   0.856   0.805   9.262  0.1714  0.3166 -0.2394
  131MPD2    C4 1999   0.725   0.765   9.234 -0.7201  0.3068 -0.4195
  131MPD2    C5 2000   0.637   0.852   9.175  0.7853  0.1703  0.0531
  131MPD2     H 2001   1.003   0.953   9.251  0.1609  0.0203  0.9909
  131MPD2    H1 2002   0.702   0.659   9.241 -2.0833  0.5869 -0.5527
  131MPD2    H2 2003   0.608   1.059   9.122 -0.3557  0.7791  0.3201
  131MPD2    H3 2004   0.538   0.817   9.147  1.3669 -2.5399  1.3963
  131MPD2     N 2005   0.948   0.724   9.328  0.2481  0.0248 -0.2718
  131MPD2    H5 2006   1.047   0.746   9.334 -0.1396  1.1781  1.7462
  131MPD2    N1 2007   0.846   1.155   9.132  0.0230  0.2598 -0.5276
  131MPD2    H7 2008   0.790   1.203   9.063 -0.4613 -2.3269 -1.9035
  132TCq2    C1 2009   0.852   1.536   8.810 -0.3184  0.2068  0.2157
  132TCq2    O2 2010   0.754   1.463   8.772 -0.6833 -0.1358  0.3141
  132TCq2    C2 2011   0.928   1.498   8.936  0.2162  0.3303  0.4848
  132TCq2    C3 2012   1.015   1.581   9.001 -0.1912 -0.5602 -0.5513
  132TCq2    C4 2013   1.096   1.541   9.102 -0.0516  0.5131 -0.0577
  132TCq2    C5 2014   1.080   1.419   9.155 -0.0941  0.3093 -0.4471
  132TCq2    C6 2015   0.991   1.330   9.099  0.2790  0.3074 -0.5375
  132TCq2    C7 2016   0.922   1.366   8.986 -0.7638 -0.3480  0.9485
  132TCq2    C8 2017   0.966   1.203   9.169 -0.1071  0.8204  0.2711
  132TCq2    O4 2018   1.039   1.176   9.262 -0.3098  0.0635 -0.1436
  132TCq2    C9 2019   1.186   1.633   9.158 -0.5194  0.1012 -0.0391
  132TCq2    O5 2020   1.225   1.612   9.275  0.0927 -0.5800  0.2935
  132TCq2    O6 2021   1.224   1.737   9.089 -0.4942 -0.1998 -0.0202
  132TCq2    H2 2022   1.021   1.687   8.980 -3.6420  0.2851  2.7673
  132TCq2    H3 2023   1.144   1.395   9.239 -1.3511  1.8204  0.9362
  132TCq2    H4 2024   0.850   1.299   8.941 -0.8325  1.0992 -1.1294
  133MPD2     C 2025   0.321   2.600   8.906 -0.2530 -0.2257  0.3200
  133MPD2    C1 2026   0.409   2.498   8.940  0.4186 -0.9170  0.4286
  133MPD2    C2 2027   0.390   2.368   8.890 -0.6768  0.4579  0.2121
  133MPD2    C3 2028   0.279   2.351   8.805  0.2891  0.3982 -0.7157
  133MPD2    C4 2029   0.196   2.449   8.774  0.0134 -0.3111  0.4514
  133MPD2    C5 2030   0.210   2.575   8.826  0.2087  0.2655  0.5710
  133MPD2     H 2031   0.451   2.287   8.927  0.6637  1.3859  0.0553
  133MPD2    H1 2032   0.105   2.436   8.716  0.0601  1.5422 -0.0455
  133MPD2    H2 2033   0.341   2.696   8.953  1.7163  0.0689 -1.1099
  133MPD2    H3 2034   0.140   2.657   8.816 -1.1427 -0.7770  1.6014
  133MPD2     N 2035   0.246   2.218   8.754  0.4345  0.0210  0.1855
  133MPD2    H5 2036   0.147   2.198   8.754  0.8539 -2.0045  0.5609
  133MPD2    N1 2037   0.519   2.536   9.015 -0.0270  0.1589  0.4134
  133MPD2    H7 2038   0.525   2.635   9.034 -0.7322  0.8439 -2.8225
  134TCq2    C1 2039   0.603   2.446   9.076  0.5273  0.2929 -0.2082
  134TCq2    O2 2040   0.633   2.328   9.042  0.8237 -0.0677  0.3125
  134TCq2    C2 2041   0.693   2.512   9.172  0.0808 -0.0206 -0.8031
  134TCq2    C3 2042   0.814   2.460   9.196 -0.1331 -0.4538 -0.1721
  134TCq2    C4 2043   0.892   2.535   9.286 -0.4807 -0.6083  0.6253
  134TCq2    C5 2044   0.828   2.619   9.369  1.2319 -0.5509  0.4570
  134TCq2    C6 2045   0.708   2.667   9.341 -0.2690 -0.1518  0.0080
  134TCq2    C7 2046   0.641   2.618   9.237 -0.4163 -0.0709  0.2840
  134TCq2    C8 2047   0.669   2.804   9.391 -0.3426 -0.7660  0.4599
  134TCq2    O4 2048   0.609   2.878   9.311  0.2747  0.4068  0.3645
  134TCq2    C9 2049   1.027   2.482   9.305  0.7765 -0.2302 -0.5625
  134TCq2    O5 2050   1.104   2.553   9.376  0.2273  0.1822  0.7334
  134TCq2    O6 2051   1.068   2.384   9.234 -0.0760  0.3585  0.3035
  134TCq2    H2 2052   0.851   2.372   9.145 -0.8261  0.4427 -2.2041
  134TCq2    H3 2053   0.894   2.668   9.440 -0.9617  0.4331  1.8184
  134TCq2    H4 2054   0.535   2.641   9.227 -0.1877  0.7428 -0.2506
  135MPD2     C 2055   3.107   3.539   8.944 -0.3845  0.3440 -0.1545
  135MPD2    C1 2056   2.987   3.487   8.919  0.1187  0.0725 -0.3066
  135MPD2    C2 2057   2.975   3.357   8.864 -0.2248 -0.2561 -0.1683
  135MPD2    C3 2058   3.091   3.278   8.850  0.7596  0.2849 -0.1293
  135MPD2    C4 2059   3.215   3.325   8.887 -0.3602  0.3638  0.1279
  135MPD2    C5 2060   3.216   3.459   8.926  0.0948  0.1352 -0.5460
  135MPD2     H 2061   2.875   3.317   8.851  1.3062 -3.0894 -2.9355
  135MPD2    H1 2062   3.306   3.270   8.864 -1.1282 -0.3174 -1.3157
  135MPD2    H2 2063   3.120   3.641   8.977  0.2828 -0.4826  2.1720
  135MPD2    H3 2064   3.316   3.499   8.937  0.7838 -1.9626  0.6926
  135MPD2     N 2065   3.095   3.142   8.807 -0.4791 -0.8213 -0.2917
  135MPD2    H5 2066   3.189   3.104   8.801 -0.4411 -0.7471 -0.1530
  135MPD2    N1 2067   2.871   3.565   8.917  0.2749  0.0130 -0.2411
  135MPD2    H7 2068   2.787   3.518   8.886  0.2530 -0.3840  0.4220
  136TCq2    C1 2069   2.853   3.696   8.959  0.5597  0.3805 -0.1880
  136TCq2    O2 2070   2.925   3.783   9.011 -0.3573 -0.0916  0.0395
  136TCq2    C2 2071   2.711   3.729   8.965 -0.7484 -0.8025 -0.3312
  136TCq2    C3 2072   2.670   3.759   9.093 -0.4639 -0.0367 -0.7391
  136TCq2    C4 2073   2.556   3.710   9.140 -0.2883  0.5112 -0.3739
  136TCq2    C5 2074   2.476   3.628   9.072 -0.4535  0.2823 -0.1862
  136TCq2    C6 2075   2.511   3.598   8.942  0.0205  0.1984 -0.0759
  136TCq2    C7 2076   2.631   3.655   8.888  0.3681  0.0722 -0.2090
  136TCq2    C8 2077   2.521   3.457   8.912  0.4203 -0.3142  0.8534
  136TCq2    O4 2078   2.615   3.421   8.844 -0.0295 -0.3626  0.0632
  136TCq2    C9 2079   2.524   3.716   9.278 -0.4591 -0.4538  0.0057
  136TCq2    O5 2080   2.621   3.749   9.351  0.2026 -0.1528  0.1827
  136TCq2    O6 2081   2.408   3.682   9.321  0.5495  0.0202  0.1263
  136TCq2    H2 2082   2.728   3.823   9.158 -0.9980  1.0837 -1.3606
  136TCq2    H3 2083   2.389   3.582   9.119 -0.0506 -1.7104 -1.3947
  136TCq2    H4 2084   2.661   3.644   8.785 -1.0571  1.6918 -0.8013
  137MPD2     C 2085   1.801   1.011   8.964 -0.4343 -0.7240  0.0991
  137MPD2    C1 2086   1.764   1.136   8.915 -0.5290 -0.0882 -0.2313
  137MPD2    C2 2087   1.819   1.260   8.956 -0.8676  0.1212  0.3775
  137MPD2    C3 2088   1.901   1.257   9.066 -0.0465 -0.3923  0.7900
  137MPD2    C4 2089   1.931   1.135   9.124 -0.2939  0.3459 -0.5161
  137MPD2    C5 2090   1.882   1.015   9.078  0.2327 -0.0191  0.1274
  137MPD2     H 2091   1.794   1.352   8.906 -0.4993 -0.3869 -0.7476
  137MPD2    H1 2092   1.996   1.118   9.210 -2.0543  2.9041  1.3223
  137MPD2    H2 2093   1.761   0.920   8.921 -0.2569 -0.3043 -0.9448
  137MPD2    H3 2094   1.899   0.924   9.133  3.0551 -0.6929 -1.8997
  137MPD2     N 2095   1.962   1.372   9.111  0.3020  0.1073  0.3952
  137MPD2    H5 2096   1.936   1.460   9.068 -2.9778 -1.7524 -1.4309
  137MPD2    N1 2097   1.679   1.122   8.803 -0.2428  0.0075 -0.1176
  137MPD2    H7 2098   1.654   1.029   8.771  0.0757  0.6771 -2.2887
  138TCq2    C1 2099   1.627   1.231   8.729  0.2115  0.1896 -0.1163
  138TCq2    O2 2100   1.648   1.350   8.742 -0.3600 -0.2476  0.4919
  138TCq2    C2 2101   1.555   1.184   8.615  0.2868  0.9364 -0.5955
  138TCq2    C3 2102   1.499   1.065   8.622  0.9721 -0.2990 -0.5702
  138TCq2    C4 2103   1.402   1.030   8.532  0.4016 -0.2169  0.7337
  138TCq2    C5 2104   1.365   1.123   8.435 -0.3490  0.0348  0.2504
  138TCq2    C6 2105   1.423   1.249   8.429  0.1007 -0.7430  0.2581
  138TCq2    C7 2106   1.516   1.282   8.521  0.1297  0.3052  0.2879
  138TCq2    C8 2107   1.393   1.333   8.311 -0.3457  0.8886  0.0308
  138TCq2    O4 2108   1.352   1.263   8.217  0.0721  0.2890  0.0990
  138TCq2    C9 2109   1.355   0.898   8.538 -0.2425 -0.2122  0.0867
  138TCq2    O5 2110   1.426   0.810   8.593  0.1188  0.2200  0.2761
  138TCq2    O6 2111   1.243   0.874   8.487  0.2402 -0.1239 -0.0254
  138TCq2    H2 2112   1.524   0.989   8.695 -2.5079 -1.2784 -0.3620
  138TCq2    H3 2113   1.291   1.095   8.361 -0.5152 -1.1821  0.8654
  138TCq2    H4 2114   1.572   1.374   8.514 -1.1950  0.8681 -3.0649
  139TMC2    C1 2115   2.759   0.480  13.025  0.3421  0.2884 -0.0692
  139TMC2    C2 2116   2.640   0.447  12.965  0.2001  0.3692 -0.1611
  139TMC2    C3 2117   2.541   0.539  12.984 -0.2924 -0.0481  0.2812
  139TMC2    C4 2118   2.770   0.582  13.113 -0.0701  0.1960 -0.2231
  139TMC2    C5 2119   2.661   0.662  13.137  0.4074  0.0078  0.5632
  139TMC2    C6 2120   2.552   0.640  13.069 -0.6729  0.4434  0.4859
  139TMC2     C 2121   2.865   0.385  13.001 -0.0288  0.3751 -0.2708
  139TMC2     O 2122   2.832   0.308  12.908 -0.3446 -0.2551 -0.4281
  139TMC2     H 2123   2.628   0.368  12.891 -0.3419  0.6444 -0.3607
  139TMC2    H1 2124   2.867   0.614  13.148 -0.5327  0.0781  1.1587
  139TMC2    H2 2125   2.476   0.716  13.082 -0.8897 -0.2096  3.0306
  139TMC2    C7 2126   2.673   0.792  13.195  0.3682 -0.5378 -0.5636
  139TMC2    C8 2127   2.404   0.483  12.974  0.2438 -1.2374  0.5563
  139TMC2    O1 2128   2.595   0.881  13.161 -0.5264 -0.2987  0.1681
  139TMC2    O2 2129   2.374   0.388  12.903  0.1402  0.3216 -0.4581
  139TMC2    O5 2130   2.353   0.506  13.095 -0.2975  0.7401 -0.0450
  139TMC2    H5 2131   2.397   0.577  13.146 -0.5838  1.3255 -0.6133
  140MPD2     C 2132   3.108   0.245  13.250 -0.2724  0.2822  0.0841
  140MPD2    C1 2133   3.048   0.264  13.125 -0.6154 -0.5327 -0.9863
  140MPD2    C2 2134   3.065   0.178  13.021 -0.7214 -0.1123  0.2579
  140MPD2    C3 2135   3.145   0.062  13.032  0.2339  0.1270 -0.2219
  140MPD2    C4 2136   3.201   0.046  13.158 -0.7096  0.1940 -0.6382
  140MPD2    C5 2137   3.181   0.129  13.264 -1.1034  0.2980 -0.4906
  140MPD2     H 2138   3.018   0.187  12.923 -0.5660 -0.1970  0.1760
  140MPD2    H1 2139   3.265   4.687  13.182  1.5420  2.3914  0.9547
  140MPD2    H2 2140   3.101   0.312  13.335  0.8921  0.0172  0.3956
  140MPD2    H3 2141   3.239   0.116  13.354  0.9555  0.6559 -1.7545
  140MPD2     N 2142   3.156   4.694  12.925 -0.2564  0.1013 -0.1178
  140MPD2    H5 2143   3.101   4.712  12.841 -0.3884  0.4891  0.0521
  140MPD2    N1 2144   2.958   0.374  13.104  0.0227  0.0577 -0.5282
  140MPD2    H7 2145   2.940   0.424  13.191 -0.4857 -1.0862  0.0285
  141TCq2    C1 2146   3.250   2.170  14.527 -0.0958  0.7266  0.0757
  141TCq2    O2 2147   3.232   2.236  14.427 -0.3042 -0.9534 -0.2980
  141TCq2    C2 2148   3.200   2.221  14.656  0.2985 -0.4581  0.1804
  141TCq2    C3 2149   3.172   2.131  14.749 -0.4739  1.0421 -0.2757
  141TCq2    C4 2150   3.141   2.184  14.870  0.1781 -0.5376  0.4920
  141TCq2    C5 2151   3.131   2.318  14.897  0.4515  0.3606  0.4747
  141TCq2    C6 2152   3.168   2.402  14.794  0.2039 -0.4510  0.1443
  141TCq2    C7 2153   3.197   2.354  14.672 -0.4681 -0.5603 -0.2550
  141TCq2    C8 2154   3.247   2.521  14.830  0.1994  1.1501  0.6338
  141TCq2    O4 2155   3.254   2.548  14.948  0.4340  0.3065  0.1181
  141TCq2    C9 2156   3.111   2.092  14.974 -0.1025  0.3078 -0.4297
  141TCq2    O5 2157   3.083   2.143  15.085 -0.2544  0.1127 -0.0670
  141TCq2    O6 2158   3.074   1.978  14.940 -0.5598 -0.6073 -0.4053
  141TCq2    H2 2159   3.163   2.024  14.738  0.9744  0.8789  0.1223
  141TCq2    H3 2160   3.110   2.352  14.997  0.8035  2.3657 -0.1273
  141TCq2    H4 2161   3.221   2.414  14.585  0.6318 -0.4274  0.1426
  142MPD2     C 2162   1.051   0.224   9.278  0.0371 -0.3690  0.9810
  142MPD2    C1 2163   0.926   0.223   9.218  0.0296 -0.9458 -0.1687
  142MPD2    C2 2164   0.886   0.337   9.142  0.5809 -0.2386 -0.0592
  142MPD2    C3 2165   0.984   0.430   9.111 -0.3406 -0.0462 -0.6029
  142MPD2    C4 2166   1.109   0.415   9.156 -0.0628  0.2728 -0.3408
  142MPD2    C5 2167   1.140   0.319   9.249 -0.7481  0.3862  0.2333
  142MPD2     H 2168   0.786   0.346   9.101  0.6627 -0.1155 -0.2294
  142MPD2    H1 2169   1.190   0.478   9.121  1.0174 -0.5538  0.6629
  142MPD2    H2 2170   1.076   0.140   9.341  2.3534 -1.0707 -0.8426
  142MPD2    H3 2171   1.237   0.318   9.299 -1.3266 -0.9374  1.3453
  142MPD2     N 2172   0.961   0.536   9.014  0.0939  0.2651 -0.3681
  142MPD2    H5 2173   1.041   0.596   8.998  0.8671 -0.4955  0.6675
  142MPD2    N1 2174   0.844   0.109   9.225  0.4812  0.1360 -0.4266
  142MPD2    H7 2175   0.879   0.032   9.282 -3.6234 -0.8419  0.7757
  143TCq2    C1 2176   0.843   0.566   8.948  0.5661 -0.3371  0.6634
  143TCq2    O2 2177   0.737   0.501   8.939  0.3443  0.4728  0.7345
  143TCq2    C2 2178   0.852   0.694   8.876  0.3580  0.1510 -0.5182
  143TCq2    C3 2179   0.745   0.730   8.801 -0.3428 -0.3810 -0.6950
  143TCq2    C4 2180   0.732   0.852   8.745  0.0100 -0.7759  0.4543
  143TCq2    C5 2181   0.832   0.946   8.770 -0.1631  0.5265 -0.1805
  143TCq2    C6 2182   0.942   0.909   8.842 -0.3000 -0.5152 -0.1033
  143TCq2    C7 2183   0.952   0.782   8.899 -0.5991 -0.0066  0.1606
  143TCq2    C8 2184   1.039   1.013   8.878  0.1252  0.2167  0.0120
  143TCq2    O4 2185   1.116   0.998   8.972 -0.7733  0.0794 -0.3893
  143TCq2    C9 2186   0.602   0.896   8.693 -0.0097  0.3029  0.6501
  143TCq2    O5 2187   0.588   1.018   8.677  0.0619 -0.0098 -0.4253
  143TCq2    O6 2188   0.505   0.817   8.706  0.0289  0.0189  0.5323
  143TCq2    H2 2189   0.658   0.665   8.804 -0.0201 -0.8401 -1.1801
  143TCq2    H3 2190   0.809   1.046   8.733  0.8003  0.2828 -1.4496
  143TCq2    H4 2191   1.038   0.762   8.963  2.2557  1.8426 -3.0981
  144MPD2     C 2192   4.028   4.214   0.452  0.6507 -0.5365  0.5352
  144MPD2    C1 2193   4.023   4.087   0.402 -0.8703  0.7274  0.6041
  144MPD2    C2 2194   4.121   4.000   0.438  0.1671 -0.3435  0.1697
  144MPD2    C3 2195   4.220   4.043   0.533  0.0887  0.0136  0.0269
  144MPD2    C4 2196   4.213   4.169   0.590 -0.1946 -0.7744 -0.2603
  144MPD2    C5 2197   4.120   4.253   0.546 -0.3298  0.0958  0.0423
  144MPD2     H 2198   4.131   3.901   0.395 -1.0182 -0.5052  0.2631
  144MPD2    H1 2199   4.296   4.200   0.653  0.0699  0.6867 -1.3140
  144MPD2    H2 2200   3.964   4.292   0.411 -1.8133 -2.5173  0.5921
  144MPD2    H3 2201   4.125   4.359   0.571  0.0889 -0.1306  0.9181
  144MPD2     N 2202   4.337   3.962   0.566 -0.3330 -0.0521 -0.0837
  144MPD2    H5 2203   4.408   4.010   0.620 -0.2038 -1.1279  0.7041
  144MPD2    N1 2204   3.919   4.047   0.315 -0.0872 -0.5525 -0.7787
  144MPD2    H7 2205   3.920   3.952   0.280 -0.9312 -0.5469 -0.8169
  145TCq2    C1 2206   4.354   3.831   0.542  0.0551  0.7893  0.7656
  145TCq2    O2 2207   4.282   3.749   0.488  0.1340 -0.0341 -0.9848
  145TCq2    C2 2208   4.486   3.775   0.590  0.6041  0.3671  0.2299
  145TCq2    C3 2209   4.532   3.663   0.523  0.2264 -0.0556 -1.0393
  145TCq2    C4 2210   4.655   3.618   0.556 -1.0906  0.4562 -0.0581
  145TCq2    C5 2211   0.004   3.687   0.642  0.0005  0.6160  0.1331
  145TCq2    C6 2212   4.683   3.800   0.707 -0.0753  0.8216 -0.2271
  145TCq2    C7 2213   4.565   3.844   0.678  0.3644  0.2519 -0.4703
  145TCq2    C8 2214   0.045   3.877   0.798 -0.5805 -0.2804 -0.5258
  145TCq2    O4 2215   0.153   3.820   0.814 -0.4108  0.4342 -0.0753
  145TCq2    C9 2216   4.697   3.494   0.507 -0.8945  0.4413  0.9315
  145TCq2    O5 2217   4.610   3.417   0.459 -0.4462  0.4277  0.5625
  145TCq2    O6 2218   0.090   3.454   0.534 -0.6763  0.2117 -0.8318
  145TCq2    H2 2219   4.463   3.607   0.461  0.4922 -0.9938 -0.4897
  145TCq2    H3 2220   0.108   3.660   0.659 -0.3789 -0.9171  0.0288
  145TCq2    H4 2221   4.515   3.912   0.745  2.6701  1.6400 -0.1677
  146TMC2    C1 2222   0.550   2.966  12.369 -0.2983  0.5856  0.3545
  146TMC2    C2 2223   0.479   2.993  12.250 -0.2101 -0.3928 -0.3622
  146TMC2    C3 2224   0.503   2.918  12.143 -0.7509 -0.1723  0.2422
  146TMC2    C4 2225   0.638   2.860  12.378 -0.2081 -0.0967  0.2286
  146TMC2    C5 2226   0.661   2.795  12.259  0.5487  0.0659  0.2418
  146TMC2    C6 2227   0.596   2.822  12.144 -0.1614 -0.5027 -1.0962
  146TMC2     C 2228   0.521   3.050  12.484 -0.0705 -0.5771 -0.4042
  146TMC2     O 2229   0.489   3.165  12.458  0.7868  0.3941 -0.0984
  146TMC2     H 2230   0.405   3.072  12.258  1.1698  0.8530  0.1050
  146TMC2    H1 2231   0.706   2.858  12.463 -0.7027 -0.3091  0.6232
  146TMC2    H2 2232   0.627   2.788  12.045 -1.6868 -2.2441 -0.9921
  146TMC2    C7 2233   0.770   2.693  12.246  0.3441 -0.2313 -0.3057
  146TMC2    C8 2234   0.484   2.988  12.011 -0.3222 -0.4611 -0.2193
  146TMC2    O1 2235   0.806   2.671  12.131 -0.7418 -0.1977  0.4342
  146TMC2    O2 2236   0.551   2.960  11.910  0.0076 -0.0701  0.2149
  146TMC2    O5 2237   0.353   3.036  12.004 -0.6064  0.1336  0.0437
  146TMC2    H5 2238   0.308   3.059  12.088 -3.1737 -1.3389 -0.9228
  147MPD2     C 2239   1.210   2.525  12.443 -0.6285  0.2823  0.8764
  147MPD2    C1 2240   1.122   2.538  12.548  0.3544 -0.6365 -0.2715
  147MPD2    C2 2241   0.990   2.580  12.520  0.1083 -0.5870  0.5174
  147MPD2    C3 2242   0.955   2.602  12.389 -0.0048 -0.1238  0.1972
  147MPD2    C4 2243   1.045   2.589  12.288 -0.7171 -0.2670 -0.1069
  147MPD2    C5 2244   1.168   2.537  12.312  0.2452  0.2816  0.1489
  147MPD2     H 2245   0.916   2.606  12.595  0.2289 -0.6228  0.6495
  147MPD2    H1 2246   1.027   2.617  12.185  0.0430  0.4959 -0.0309
  147MPD2    H2 2247   1.315   2.502  12.457 -0.3178  1.7904  0.9653
  147MPD2    H3 2248   1.247   2.523  12.239 -2.7832  0.9132 -3.2580
  147MPD2     N 2249   0.826   2.668  12.369  0.6427  0.5517  0.0905
  147MPD2    H5 2250   0.782   2.701  12.454  1.5442 -2.7556  1.8151
  147MPD2    N1 2251   1.162   2.526  12.685 -0.6886 -0.0694  0.2819
  147MPD2    H7 2252   1.254   2.484  12.696 -0.8213 -1.0701 -2.6961
  148MPD2     C 2253   0.648   1.376  10.637 -0.0593  0.3840  0.6851
  148MPD2    C1 2254   0.715   1.333  10.522  0.0400  0.0071  0.1518
  148MPD2    C2 2255   0.634   1.260  10.434  0.9649 -0.2011  0.7551
  148MPD2    C3 2256   0.491   1.248  10.449 -0.2368 -0.1637  0.2794
  148MPD2    C4 2257   0.436   1.278  10.574 -0.0821  0.2332  0.1566
  148MPD2    C5 2258   0.513   1.343  10.659  0.1248 -0.1317  0.4765
  148MPD2     H 2259   0.678   1.213  10.347  0.0357 -0.9810  0.7036
  148MPD2    H1 2260   0.329   1.270  10.588 -0.1014 -1.0334 -0.7822
  148MPD2    H2 2261   0.694   1.422  10.724 -3.2980  0.5265  2.3285
  148MPD2    H3 2262   0.472   1.362  10.758 -1.2538 -1.2027  0.1243
  148MPD2     N 2263   0.404   1.203  10.351 -0.6044  0.2940  0.4563
  148MPD2    H5 2264   0.311   1.180  10.383 -0.6005 -1.1852 -0.5619
  148MPD2    N1 2265   0.853   1.349  10.491 -0.1033  0.3428 -0.5456
  148MPD2    H7 2266   0.893   1.285  10.424  0.1093 -3.3262  3.0984
  149TCq2    C1 2267   0.923   1.456  10.538  0.2360 -1.0011  0.1081
  149TCq2    O2 2268   0.871   1.555  10.587 -0.7245  0.1773  0.0268
  149TCq2    C2 2269   1.051   1.482  10.469 -0.5471  0.0581 -0.7567
  149TCq2    C3 2270   1.084   1.614  10.452  0.2404  0.2738  0.1617
  149TCq2    C4 2271   1.174   1.654  10.357  0.3502 -0.0038  0.6286
  149TCq2    C5 2272   1.214   1.556  10.267  0.1362  0.0601  0.7609
  149TCq2    C6 2273   1.186   1.428  10.286 -0.0152 -0.1128 -0.5368
  149TCq2    C7 2274   1.102   1.389  10.383 -0.1189 -0.4528  0.3281
  149TCq2    C8 2275   1.208   1.330  10.176 -0.0021 -0.1112  0.7177
  149TCq2    O4 2276   1.148   1.223  10.190  0.1002 -0.1578 -0.3471
  149TCq2    C9 2277   1.183   1.791  10.319  0.7000 -0.1756  0.4315
  149TCq2    O5 2278   1.214   1.813  10.200 -0.6675  0.1475  0.0496
  149TCq2    O6 2279   1.140   1.875  10.404  0.2523 -0.2292  0.2540
  149TCq2    H2 2280   1.037   1.692  10.510  1.1024 -2.0401  3.9571
  149TCq2    H3 2281   1.268   1.587  10.178 -1.7530  0.6175 -0.1844
  149TCq2    H4 2282   1.088   1.283  10.405 -0.4103 -0.3013  0.8891
  150MPD2     C 2283   1.848   0.309  11.788 -0.3083  0.3452  0.3098
  150MPD2    C1 2284   1.791   0.432  11.777 -0.2453 -0.7386  0.5596
  150MPD2    C2 2285   1.868   0.547  11.788 -0.5915  0.2318  0.6662
  150MPD2    C3 2286   2.004   0.536  11.811 -0.4622  0.2769  0.1428
  150MPD2    C4 2287   2.060   0.412  11.830 -0.0534 -0.3400 -0.5134
  150MPD2    C5 2288   1.983   0.301  11.816  0.0917  0.6261 -0.2087
  150MPD2     H 2289   1.823   0.645  11.773  0.7982  0.9507  1.2039
  150MPD2    H1 2290   2.163   0.383  11.846 -0.2033  0.0467  1.1035
  150MPD2    H2 2291   1.791   0.217  11.773 -2.6847  1.6231  1.6720
  150MPD2    H3 2292   2.041   0.211  11.832  1.2799  1.6384  1.2304
  150MPD2     N 2293   2.084   0.651  11.793 -0.7599 -0.6834  0.1795
  150MPD2    H5 2294   2.036   0.738  11.774 -0.3663 -0.6064 -0.5011
  150MPD2    N1 2295   1.658   0.430  11.745  0.3334 -0.1858  0.1911
  150MPD2    H7 2296   1.609   0.343  11.763  0.1654 -0.2149 -0.3795
  151TCq2    C1 2297   2.211   0.657  11.849  0.2315 -0.0743 -0.6717
  151TCq2    O2 2298   2.273   0.585  11.927  0.7041  0.1592  0.4229
  151TCq2    C2 2299   2.268   0.782  11.825 -0.6396  0.1313  0.2190
  151TCq2    C3 2300   2.210   0.879  11.746  0.4414 -0.2355  0.1314
  151TCq2    C4 2301   2.254   1.003  11.748 -0.2098  0.1327  0.0376
  151TCq2    C5 2302   2.342   1.051  11.842  0.2978  0.2115 -0.7443
  151TCq2    C6 2303   2.396   0.957  11.924 -0.2546 -0.2560 -0.3760
  151TCq2    C7 2304   2.368   0.822  11.907  0.2924 -0.3736  0.1266
  151TCq2    C8 2305   2.524   0.998  11.976  0.5296 -0.3519 -0.5847
  151TCq2    O4 2306   2.526   1.115  12.016 -0.0335 -0.2591 -0.0666
  151TCq2    C9 2307   2.213   1.103  11.653  0.6375  0.2398 -0.0446
  151TCq2    O5 2308   2.235   1.225  11.670  0.0111  0.4279  0.0873
  151TCq2    O6 2309   2.198   1.055  11.534 -0.3934 -0.5868  0.7849
  151TCq2    H2 2310   2.138   0.857  11.668  0.3587 -1.9329  0.6701
  151TCq2    H3 2311   2.386   1.149  11.835 -0.2480  0.3460 -2.1908
  151TCq2    H4 2312   2.404   0.759  11.987 -0.8706 -2.0019 -0.6365
  152MPD2     C 2313   1.636   0.397  12.957  0.1298 -0.2969  0.5217
  152MPD2    C1 2314   1.657   0.460  12.838  0.1488  0.1974 -0.2466
  152MPD2    C2 2315   1.560   0.471  12.741 -0.1847  0.2595  0.6258
  152MPD2    C3 2316   1.434   0.420  12.765 -0.1985 -0.2120 -0.8361
  152MPD2    C4 2317   1.411   0.355  12.880  0.1576 -0.9134  0.1508
  152MPD2    C5 2318   1.515   0.349  12.975  0.2682 -0.0653 -0.2487
  152MPD2     H 2319   1.579   0.518  12.646  2.2258  1.0072  1.4794
  152MPD2    H1 2320   1.319   0.319  12.926 -0.7421  1.7030  0.4434
  152MPD2    H2 2321   1.708   0.403  13.038  0.5194 -1.4704  0.2570
  152MPD2    H3 2322   1.490   0.307  13.072  1.9465  1.4885  0.8689
  152MPD2     N 2323   1.328   0.452  12.680 -0.1951  0.2680  0.0834
  152MPD2    H5 2324   1.358   0.488  12.589  2.1296 -2.0120 -0.0368
  152MPD2    N1 2325   1.794   0.500  12.822 -0.1627  0.1831  0.2275
  152MPD2    H7 2326   1.850   0.491  12.907 -0.1143 -4.1789 -0.2588
  153TCq2    C1 2327   1.850   0.555  12.707 -0.9242  0.2887 -0.2896
  153TCq2    O2 2328   1.807   0.561  12.594  0.0759 -0.6714 -0.3015
  153TCq2    C2 2329   1.983   0.615  12.742 -0.4539 -0.0979 -0.2986
  153TCq2    C3 2330   1.997   0.680  12.858 -0.6135  0.2951  0.6786
  153TCq2    C4 2331   2.116   0.730  12.897  0.2166 -0.1646  0.8521
  153TCq2    C5 2332   2.227   0.702  12.822 -0.6849  0.3758  0.3321
  153TCq2    C6 2333   2.209   0.641  12.697  0.3156 -0.1744 -0.3497
  153TCq2    C7 2334   2.082   0.606  12.654  0.1104  0.5152 -0.5216
  153TCq2    C8 2335   2.323   0.579  12.627 -0.4535 -0.4827  0.4868
  153TCq2    O4 2336   2.310   0.495  12.540 -0.6200  0.6494  1.1313
  153TCq2    C9 2337   2.139   0.791  13.027  0.4093 -0.8017 -0.1179
  153TCq2    O5 2338   2.255   0.824  13.059 -0.1974  0.3445 -0.4128
  153TCq2    O6 2339   2.044   0.776  13.109 -0.1865  0.2275 -0.3178
  153TCq2    H2 2340   1.913   0.717  12.914 -2.1971 -0.2662 -1.3157
  153TCq2    H3 2341   2.322   0.738  12.862  0.0290 -1.2841  0.1377
  153TCq2    H4 2342   2.061   0.565  12.556  0.5980 -2.1326  0.4816
  154MPD2     C 2343   3.768   0.078   0.202 -0.8795  0.9216  0.6179
  154MPD2    C1 2344   3.895   0.116   0.236 -0.4011 -0.2588 -0.1482
  154MPD2    C2 2345   3.925   0.256   0.248  0.5644  0.0438 -0.1700
  154MPD2    C3 2346   3.827   0.356   0.233 -0.2481  0.0749  0.4607
  154MPD2    C4 2347   3.707   0.311   0.183 -0.5270  0.7577 -0.3804
  154MPD2    C5 2348   3.675   0.175   0.179  0.0793  1.1599 -0.2485
  154MPD2     H 2349   4.028   0.285   0.264 -0.1954  1.7625  1.6280
  154MPD2    H1 2350   3.637   0.386   0.147 -2.1224 -0.9625 -0.8978
  154MPD2    H2 2351   3.738   4.699   0.203 -3.3633  1.5861 -5.3075
  154MPD2    H3 2352   3.580   0.152   0.132 -1.1571  1.5976  2.0460
  154MPD2     N 2353   3.859   0.491   0.266 -0.0730  0.0722 -0.2543
  154MPD2    H5 2354   3.956   0.510   0.288  0.6616 -2.1701 -1.4910
  154MPD2    N1 2355   3.989   0.009   0.258  0.1431  0.3414  0.1840
  154MPD2    H7 2356   3.959   4.638   0.242  0.1853  0.3205  0.2296
  155TCq2    C1 2357   4.112   0.023   0.317 -0.2246  0.9159 -0.5579
  155TCq2    O2 2358   4.178   0.115   0.368 -0.0816  0.4431  0.4688
  155TCq2    C2 2359   4.186   4.617   0.323 -0.6354  0.4269 -0.0039
  155TCq2    C3 2360   4.293   4.608   0.409 -0.6208  0.4454 -0.7384
  155TCq2    C4 2361   4.357   4.486   0.417  0.1650  0.4671 -0.1522
  155TCq2    C5 2362   4.328   4.377   0.347  0.2441 -0.1320 -0.0198
  155TCq2    C6 2363   4.213   4.393   0.263 -0.0804  0.1789 -0.2761
  155TCq2    C7 2364   4.137   4.507   0.259  0.3822  0.1729 -0.9366
  155TCq2    C8 2365   4.176   4.276   0.179 -0.5650  0.4015  0.1106
  155TCq2    O4 2366   4.083   4.298   0.103 -0.6563  0.5433  0.5122
  155TCq2    C9 2367   4.462   4.466   0.516 -0.6446  0.0715  0.1774
  155TCq2    O5 2368   4.502   4.562   0.589 -0.0271 -0.0236 -0.3480
  155TCq2    O6 2369   4.504   4.352   0.530 -0.2509 -0.1103 -0.2946
  155TCq2    H2 2370   4.328   4.688   0.474  1.0370 -0.8694 -0.0151
  155TCq2    H3 2371   4.392   4.290   0.355 -1.8688 -1.5782  1.1581
  155TCq2    H4 2372   4.052   4.510   0.192 -0.4315  1.5892  0.1708
  156MPD2     C 2373   2.662   2.721  11.619 -0.0373  0.8259  0.2621
  156MPD2    C1 2374   2.648   2.857  11.595  0.0578  0.1988  0.6616
  156MPD2    C2 2375   2.684   2.951  11.687  0.0762 -0.6523 -0.4032
  156MPD2    C3 2376   2.732   2.912  11.809  0.5875 -0.4342  0.1379
  156MPD2    C4 2377   2.754   2.776  11.839  0.0821 -0.0719 -0.0503
  156MPD2    C5 2378   2.717   2.685  11.743  0.0960  0.3700 -0.4431
  156MPD2     H 2379   2.661   3.055  11.664  3.7495  0.1784 -0.3302
  156MPD2    H1 2380   2.799   2.744  11.933 -0.1917  1.2211  0.5197
  156MPD2    H2 2381   2.641   2.644  11.545  1.4247 -1.4466  2.2407
  156MPD2    H3 2382   2.727   2.579  11.766  1.2213  0.2108 -1.6883
  156MPD2     N 2383   2.753   3.009  11.905  0.0936  0.0105 -0.1906
  156MPD2    H5 2384   2.732   3.101  11.867  1.4065 -0.0691 -1.1240
  156MPD2    N1 2385   2.589   2.885  11.467  0.2123  0.3992  0.2445
  156MPD2    H7 2386   2.558   2.797  11.426  1.5550 -0.6898  1.5237
  157TCq2    C1 2387   2.584   3.010  11.403  0.0319  0.0918  0.6565
  157TCq2    O2 2388   2.635   3.116  11.441 -0.2727 -0.0935  0.7629
  157TCq2    C2 2389   2.519   3.009  11.274  0.0806  0.5728  0.0334
  157TCq2    C3 2390   2.467   2.888  11.223  0.0006  0.1214  0.1020
  157TCq2    C4 2391   2.397   2.890  11.104 -0.0778  0.4983  0.4596
  157TCq2    C5 2392   2.343   3.011  11.068 -0.1407 -0.0331 -0.1153
  157TCq2    C6 2393   2.397   3.123  11.125 -0.3123 -0.9892  0.2149
  157TCq2    C7 2394   2.500   3.131  11.218 -0.3558 -0.3405 -0.2137
  157TCq2    C8 2395   2.337   3.255  11.096 -0.1907 -0.0068  0.1617
  157TCq2    O4 2396   2.400   3.359  11.108  0.2000 -0.2607 -0.1157
  157TCq2    C9 2397   2.334   2.772  11.044 -0.1604  0.4701 -0.0434
  157TCq2    O5 2398   2.255   2.788  10.946  0.1271  0.6686  0.3676
  157TCq2    O6 2399   2.385   2.660  11.073  0.1351  0.1950 -0.3386
  157TCq2    H2 2400   2.500   2.793  11.263  1.8038  0.8131  0.2800
  157TCq2    H3 2401   2.280   3.028  10.982  1.3200  2.6297 -0.6589
  157TCq2    H4 2402   2.521   3.228  11.262  3.1493 -1.7393  1.2159
  158TMC2    C1 2403   3.079   2.194  13.833 -0.1723  0.6663  0.2826
  158TMC2    C2 2404   3.182   2.281  13.812  0.6531 -0.2439 -0.2098
  158TMC2    C3 2405   3.188   2.355  13.697  0.2033 -0.1817  1.1337
  158TMC2    C4 2406   2.991   2.164  13.735  0.2269  0.0006  0.2436
  158TMC2    C5 2407   2.988   2.244  13.629  0.8061 -0.0110 -0.6478
  158TMC2    C6 2408   3.089   2.342  13.602 -0.2946 -0.3860  0.3530
  158TMC2     C 2409   3.095   2.090  13.935 -0.5283  0.0560 -0.3529
  158TMC2     O 2410   3.209   2.061  13.971  0.1765 -0.4976  0.0628
  158TMC2     H 2411   3.250   2.288  13.896  0.6161  1.1397 -0.2984
  158TMC2    H1 2412   2.907   2.096  13.748 -0.5828  0.7517 -1.1223
  158TMC2    H2 2413   3.084   2.388  13.504  3.3875 -0.9833 -0.0895
  158TMC2    C7 2414   2.892   2.235  13.525  0.2109  0.0139  0.7732
  158TMC2    C8 2415   3.311   2.408  13.650  0.0200  0.6185  0.3446
  158TMC2    O1 2416   2.890   2.324  13.441  0.3405 -0.2124 -0.0557
  158TMC2    O2 2417   3.321   2.460  13.543  1.0801 -0.8035  0.0740
  158TMC2    O5 2418   3.418   2.372  13.732  0.0835  0.6257 -0.0272
  158TMC2    H5 2419   3.384   2.325  13.811  0.8063 -1.0425 -0.7110
  159MPD2     C 2420   2.939   1.794  14.333  0.6239 -0.5177 -1.1212
  159MPD2    C1 2421   2.838   1.794  14.242 -0.0473 -0.2668 -0.3315
  159MPD2    C2 2422   2.845   1.886  14.132  0.1190  0.4382  0.4311
  159MPD2    C3 2423   2.964   1.962  14.107  0.0263  0.7824  0.7649
  159MPD2    C4 2424   3.068   1.948  14.197  0.3673 -0.1662  0.1850
  159MPD2    C5 2425   3.051   1.861  14.311 -0.7649 -0.1628  0.3510
  159MPD2     H 2426   2.765   1.881  14.059  1.9150 -1.9433 -1.3973
  159MPD2    H1 2427   3.160   2.005  14.198  0.5030 -0.3160 -4.3565
  159MPD2    H2 2428   2.930   1.724  14.416 -3.1742  1.2144 -0.0571
  159MPD2    H3 2429   3.137   1.850  14.377  0.5031  1.7400 -0.9890
  159MPD2     N 2430   2.975   2.046  13.993 -0.1711 -0.3192  0.0144
  159MPD2    H5 2431   2.889   2.072  13.945  1.1646 -0.8845 -2.6612
  159MPD2    N1 2432   2.728   1.713  14.274 -0.1121  0.4760 -0.4008
  159MPD2    H7 2433   2.724   1.673  14.367 -2.5618  1.6867  0.0122
  160TMC2    C1 2434   3.176   4.543   0.897  0.1055  0.0265 -0.1804
  160TMC2    C2 2435   3.131   4.415   0.874 -0.1383 -0.3156 -0.2203
  160TMC2    C3 2436   3.188   4.354   0.769 -0.3584 -0.6922  0.1604
  160TMC2    C4 2437   3.268   4.621   0.821 -0.0162  1.0163 -0.0241
  160TMC2    C5 2438   3.324   4.542   0.718 -0.3339 -0.2125  0.4696
  160TMC2    C6 2439   3.287   4.411   0.698 -0.0104  0.5450  0.3064
  160TMC2     C 2440   3.111   4.601   1.010  0.0114  0.5499  0.1562
  160TMC2     O 2441   3.043   4.525   1.071 -0.4226  0.1882  0.2620
  160TMC2     H 2442   3.048   4.367   0.923 -0.3976  0.6007  0.2190
  160TMC2    H1 2443   3.319   4.704   0.869 -1.4832  1.7715  0.2321
  160TMC2    H2 2444   3.335   4.355   0.618 -1.8660 -1.2753  0.4670
  160TMC2    C7 2445   3.447   4.589   0.664 -0.4757 -0.2917 -0.2131
  160TMC2    C8 2446   3.120   4.229   0.731  0.3699  0.2409 -0.1550
  160TMC2    O1 2447   3.506   4.516   0.588  0.0326 -0.2688 -0.4500
  160TMC2    O2 2448   3.060   4.163   0.816  0.9779  0.4533  0.4636
  160TMC2    O5 2449   3.137   4.206   0.599  0.0382  0.7162 -0.0536
  160TMC2    H5 2450   3.162   4.287   0.548  0.8213 -0.3118 -1.3062
  161MPD2     C 2451   2.929   0.029   1.190 -0.3498 -0.2491 -0.1613
  161MPD2    C1 2452   3.015   0.090   1.098  0.1632  0.6145  0.1423
  161MPD2    C2 2453   3.014   0.227   1.089  0.5860 -0.5940  0.3125
  161MPD2    C3 2454   2.935   0.300   1.173 -0.4603  0.2444 -0.4197
  161MPD2    C4 2455   2.853   0.238   1.263 -0.3086 -0.8456  0.0821
  161MPD2    C5 2456   2.856   0.101   1.278  0.2924 -0.5056  0.0381
  161MPD2     H 2457   3.081   0.283   1.024 -1.1355  1.6535  0.4759
  161MPD2    H1 2458   2.809   0.299   1.341 -1.5530 -2.4784  0.6623
  161MPD2    H2 2459   2.940   4.648   1.208  0.4255  0.5811  4.2094
  161MPD2    H3 2460   2.798   0.044   1.350  2.9491 -1.3949  1.4353
  161MPD2     N 2461   2.941   0.445   1.187  0.1615  0.0910  0.4632
  161MPD2    H5 2462   2.895   0.476   1.272  1.1940 -2.3426  1.9135
  161MPD2    N1 2463   3.101   0.012   1.009  0.5081 -0.0122  0.2256
  161MPD2    H7 2464   3.152   0.059   0.935 -0.7411  2.2029  0.7851
  162TMC2    C1 2465   0.688   1.255   1.483  0.1952  0.3107 -0.1934
  162TMC2    C2 2466   0.550   1.229   1.495 -0.2799  0.0749 -0.7991
  162TMC2    C3 2467   0.504   1.228   1.623 -0.2064 -0.6265 -0.2409
  162TMC2    C4 2468   0.767   1.286   1.593 -0.9112  0.1258  0.5089
  162TMC2    C5 2469   0.716   1.275   1.718  0.5568 -0.2212  0.0191
  162TMC2    C6 2470   0.582   1.246   1.733 -0.5062 -0.6730 -0.1555
  162TMC2     C 2471   0.747   1.274   1.349 -0.0893 -0.2813 -0.5336
  162TMC2     O 2472   0.867   1.270   1.337 -0.0728  0.3371  0.0173
  162TMC2     H 2473   0.491   1.202   1.409  1.2483 -2.4354 -1.0508
  162TMC2    H1 2474   0.869   1.321   1.581 -0.9762  0.7752  1.8901
  162TMC2    H2 2475   0.540   1.245   1.833 -0.5476  1.7773 -0.1622
  162TMC2    C7 2476   0.782   1.324   1.834  0.0880 -0.2415 -0.5845
  162TMC2    C8 2477   0.364   1.182   1.649 -0.5785  0.3917 -0.9367
  162TMC2    O1 2478   0.720   1.379   1.922 -0.1816 -0.5312  0.4048
  162TMC2    O2 2479   0.319   1.136   1.751 -0.3593  0.3176 -0.2604
  162TMC2    O5 2480   0.285   1.229   1.542 -0.0593  0.1312  0.3835
  162TMC2    H5 2481   0.342   1.273   1.476 -1.1975 -1.4890 -1.6823
  163MPD2     C 2482   0.712   1.427   0.857 -0.4304 -0.4201 -0.7687
  163MPD2    C1 2483   0.824   1.409   0.931 -0.4418 -0.1234  0.0937
  163MPD2    C2 2484   0.813   1.379   1.065 -0.2017 -0.5029 -0.0597
  163MPD2    C3 2485   0.691   1.374   1.132 -0.5473 -0.1542 -0.1789
  163MPD2    C4 2486   0.583   1.413   1.059  0.0852 -0.1397 -0.3112
  163MPD2    C5 2487   0.592   1.437   0.917  0.7105 -0.8632  0.1225
  163MPD2     H 2488   0.897   1.356   1.129 -0.1356 -2.7176 -0.9406
  163MPD2    H1 2489   0.490   1.411   1.115  0.0031  0.2265 -0.4362
  163MPD2    H2 2490   0.713   1.459   0.754  4.5416 -2.2276 -1.3048
  163MPD2    H3 2491   0.498   1.459   0.867  2.1704  1.0364 -1.7529
  163MPD2     N 2492   0.661   1.328   1.263  0.6555 -0.1025 -0.2327
  163MPD2    H5 2493   0.565   1.345   1.294  1.3262  1.9381  0.7580
  163MPD2    N1 2494   0.946   1.412   0.861  0.2887  0.3839  0.3020
  163MPD2    H7 2495   0.923   1.450   0.770  0.3851 -1.9739 -0.6917
  164TCq2    C1 2496   1.063   1.289  10.858  0.0548 -0.2913 -0.0846
  164TCq2    O2 2497   1.078   1.171  10.834 -0.3431 -0.3600  0.0408
  164TCq2    C2 2498   0.966   1.307  10.968  1.2208  0.1866  0.0738
  164TCq2    C3 2499   0.954   1.198  11.049 -0.4531  0.3900 -0.0431
  164TCq2    C4 2500   0.843   1.187  11.132  0.0738 -0.1196  0.9463
  164TCq2    C5 2501   0.750   1.287  11.136 -0.3173  0.1437 -0.3964
  164TCq2    C6 2502   0.762   1.392  11.046  0.1242  0.4369  0.2513
  164TCq2    C7 2503   0.869   1.408  10.960 -0.1954  0.9843  0.0779
  164TCq2    C8 2504   0.667   1.496  11.039 -0.5441 -0.5285 -0.3269
  164TCq2    O4 2505   0.631   1.555  10.937 -0.1568 -0.2323  0.4259
  164TCq2    C9 2506   0.822   1.067  11.216  0.6720 -0.2734  0.8370
  164TCq2    O5 2507   0.920   0.994  11.253 -0.7935 -0.3512  0.1347
  164TCq2    O6 2508   0.702   1.054  11.244 -0.8822 -0.2649 -0.0271
  164TCq2    H2 2509   1.036   1.127  11.047 -1.6286 -1.0118  1.5467
  164TCq2    H3 2510   0.652   1.274  11.182 -1.0182  1.2730 -1.5780
  164TCq2    H4 2511   0.874   1.481  10.880  0.0685  0.2051 -0.6242
  165MPD2     C 2512   1.866   3.731   1.755 -0.1179  0.4030  0.1008
  165MPD2    C1 2513   1.976   3.650   1.739 -0.0756  0.2184  0.4317
  165MPD2    C2 2514   2.103   3.708   1.742 -0.8691 -0.0222 -0.5228
  165MPD2    C3 2515   2.124   3.844   1.751  0.3400  0.3952 -0.1272
  165MPD2    C4 2516   2.010   3.923   1.761  0.0914 -0.3205 -0.0317
  165MPD2    C5 2517   1.878   3.867   1.769  0.1394 -0.0855  0.5143
  165MPD2     H 2518   2.189   3.643   1.737  0.5474  1.6478  2.3578
  165MPD2    H1 2519   2.016   4.031   1.772  0.4425 -0.4104  0.6728
  165MPD2    H2 2520   1.767   3.689   1.768 -0.0480 -0.2483 -1.4636
  165MPD2    H3 2521   1.780   3.913   1.774  0.6087  0.8688  1.0134
  165MPD2     N 2522   2.253   3.897   1.753 -0.4856 -0.4156  0.0103
  165MPD2    H5 2523   2.336   3.841   1.737 -1.2193 -1.5583  0.2359
  165MPD2    N1 2524   1.951   3.505   1.726  0.1133  0.2675 -0.3407
  165MPD2    H7 2525   1.859   3.474   1.699  0.7599 -3.7626  2.1622
  166TCq2    C1 2526   2.282   4.032   1.781  0.0141  0.6411  0.4441
  166TCq2    O2 2527   2.209   4.115   1.824 -0.0974 -0.6593 -0.3286
  166TCq2    C2 2528   2.420   4.066   1.785 -0.0789 -0.5259 -0.4150
  166TCq2    C3 2529   2.473   4.163   1.874 -0.1363  0.0922  0.0281
  166TCq2    C4 2530   2.605   4.168   1.899 -0.5178  0.0857 -0.3447
  166TCq2    C5 2531   2.692   4.092   1.824  0.3862  0.7040 -0.7657
  166TCq2    C6 2532   2.639   4.011   1.730 -0.5522  0.1229 -0.9242
  166TCq2    C7 2533   2.506   3.988   1.710  0.2673  1.3050 -0.1978
  166TCq2    C8 2534   2.735   3.957   1.629 -0.9646 -0.4994  0.6968
  166TCq2    O4 2535   2.844   4.018   1.621  1.1019 -0.1963  0.3859
  166TCq2    C9 2536   2.662   4.268   1.982 -0.8939 -0.5066 -0.1820
  166TCq2    O5 2537   2.787   4.281   1.985  0.0306  0.1807 -0.2446
  166TCq2    O6 2538   2.584   4.352   2.039  0.6979 -0.5286  0.2073
  166TCq2    H2 2539   2.406   4.232   1.924  1.9232  1.2402  1.2092
  166TCq2    H3 2540   2.799   4.098   1.841  0.1715  1.5357  0.2649
  166TCq2    H4 2541   2.473   3.923   1.630  4.0484 -0.4900 -0.3026
  167TMC2    C1 2542   4.610   1.101  12.706  0.8139  0.1860  0.0311
  167TMC2    C2 2543   4.544   1.074  12.825 -0.4853 -0.3136 -0.3379
  167TMC2    C3 2544   4.595   0.971  12.903  0.1111 -0.2139  0.2675
  167TMC2    C4 2545   4.708   1.024  12.655 -0.4318  0.0092 -0.3238
  167TMC2    C5 2546   0.039   0.930  12.742  0.2890 -0.2533  1.0258
  167TMC2    C6 2547   4.704   0.903  12.861  0.3191  0.3878  0.7095
  167TMC2     C 2548   4.567   1.219  12.641 -0.8359  0.0860 -0.0586
  167TMC2     O 2549   4.461   1.270  12.679  0.2517  0.6626  0.3368
  167TMC2     H 2550   4.481   1.151  12.868  0.5016  0.9218 -1.0913
  167TMC2    H1 2551   0.025   1.049  12.558 -0.1315 -2.8840 -0.9348
  167TMC2    H2 2552   0.028   0.835  12.930 -1.6024 -0.7796  0.9191
  167TMC2    C7 2553   0.164   0.853  12.710  0.5079  0.1509  0.3249
  167TMC2    C8 2554   4.606   0.998  13.045  0.5377  0.2284  0.5234
  167TMC2    O1 2555   0.162   0.741  12.763  0.0562 -0.1928 -0.3127
  167TMC2    O2 2556   4.715   0.987  13.099  0.0211 -0.5902 -1.0153
  167TMC2    O5 2557   4.488   0.953  13.093  0.4581  0.5232 -0.2187
  167TMC2    H5 2558   4.413   0.945  13.031  0.1762  0.2858  0.1549
  168MPD2     C 2559   4.555   1.477  12.486  0.0949  0.0858  0.3941
  168MPD2    C1 2560   4.642   1.378  12.462  0.2730 -0.6787  0.4225
  168MPD2    C2 2561   0.012   1.392  12.364  0.9374 -0.1673  0.3211
  168MPD2    C3 2562   0.032   1.512  12.297 -0.4668 -0.3065 -0.4006
  168MPD2    C4 2563   4.662   1.612  12.319  0.1772 -0.5278 -0.2923
  168MPD2    C5 2564   4.561   1.590  12.412  0.0571 -0.1564 -0.3879
  168MPD2     H 2565   0.074   1.306  12.341  0.0860 -1.1964  1.8720
  168MPD2    H1 2566   4.669   1.715  12.284  0.3399 -0.5148 -0.2189
  168MPD2    H2 2567   4.482   1.472  12.566 -1.1759  1.6840 -0.6793
  168MPD2    H3 2568   4.505   1.677  12.442 -0.5234 -0.6402 -0.0821
  168MPD2     N 2569   0.142   1.532  12.201  0.4699  0.1900  0.0985
  168MPD2    H5 2570   0.146   1.611  12.138  1.4128 -1.3201 -1.7578
  168MPD2    N1 2571   4.658   1.267  12.548  0.0873  0.6415  0.1415
  168MPD2    H7 2572   0.018   1.212  12.537 -0.0534  1.1046 -3.3990
  169MPD1     C 2573   2.327   0.671   9.549 -0.1934 -0.4482  0.2995
  169MPD1    C1 2574   2.283   0.548   9.509 -0.1827 -0.4409 -0.0763
  169MPD1    C2 2575   2.366   0.439   9.502 -0.6327 -0.1090  0.4218
  169MPD1    C3 2576   2.497   0.446   9.545 -1.1254 -0.3800  0.6402
  169MPD1    C4 2577   2.536   0.562   9.601  0.1779 -0.3857 -0.6499
  169MPD1    C5 2578   2.455   0.673   9.590 -0.8912 -0.2954  0.2360
  169MPD1     H 2579   2.323   0.350   9.458  0.3186  0.2890 -1.3172
  169MPD1    H1 2580   2.633   0.573   9.648 -0.3993  0.7665  0.2764
  169MPD1    H2 2581   2.262   0.756   9.564  0.3909 -0.2509  1.6725
  169MPD1    H3 2582   2.498   0.767   9.625 -0.3526 -0.5182  0.1677
  169MPD1     N 2583   2.574   0.326   9.538 -0.0147 -0.0587 -0.7488
  169MPD1    H5 2584   2.524   0.246   9.500  1.9377 -1.4671 -0.3440
  169MPD1    N1 2585   2.150   0.534   9.479 -0.4708  0.6333 -0.0805
  169MPD1    H6 2586   2.113   0.449   9.435 -0.3373  0.4230  0.2149
  169MPD1    H7 2587   2.112   0.607   9.419  2.3354  1.7959 -0.4099
  170MPD1     C 2588   1.906   3.298  12.451  0.4165  0.7054  0.2609
  170MPD1    C1 2589   1.813   3.402  12.456 -0.6574  0.5587 -0.6763
  170MPD1    C2 2590   1.716   3.386  12.550 -0.0883  0.0583 -0.4217
  170MPD1    C3 2591   1.698   3.276  12.633 -0.2531 -0.0679 -0.4113
  170MPD1    C4 2592   1.782   3.172  12.616 -0.3120  0.2502  0.0683
  170MPD1    C5 2593   1.886   3.184  12.528  0.1172  0.4420  0.7094
  170MPD1     H 2594   1.639   3.462  12.566  0.0037 -0.4012  2.2776
  170MPD1    H1 2595   1.774   3.079  12.672 -0.0689 -0.0874 -0.4536
  170MPD1    H2 2596   1.991   3.310  12.385  0.1764  1.3431  0.0690
  170MPD1    H3 2597   1.948   3.096  12.516 -0.7200  0.0134 -0.5318
  170MPD1     N 2598   1.594   3.283  12.726  0.2207  0.5634  0.0744
  170MPD1    H5 2599   1.546   3.372  12.729 -0.1780  0.3487 -0.0615
  170MPD1    N1 2600   1.821   3.513  12.369  0.1721 -0.5545  0.0764
  170MPD1    H6 2601   1.853   3.479  12.278  1.0243  0.5713 -0.0500
  170MPD1    H7 2602   1.726   3.544  12.351  0.1439 -1.0189 -0.5808
  171MPD1     C 2603   0.288   0.410  15.427 -0.3843  0.2270  0.1765
  171MPD1    C1 2604   0.302   0.320  15.326 -0.3321 -0.5975  0.1147
  171MPD1    C2 2605   0.325   0.189  15.356  0.1812  0.4319 -0.1246
  171MPD1    C3 2606   0.331   0.152  15.491 -0.2816  0.1197  0.6389
  171MPD1    C4 2607   0.323   0.249  15.589  0.2823 -0.3352  0.2547
  171MPD1    C5 2608   0.307   0.379  15.555  0.2542 -0.3663 -0.0830
  171MPD1     H 2609   0.346   0.115  15.280 -1.3783  0.2119 -0.3577
  171MPD1    H1 2610   0.326   0.220  15.694 -0.8687  1.0579  0.6715
  171MPD1    H2 2611   0.263   0.514  15.404 -0.3957  0.4447  1.1656
  171MPD1    H3 2612   0.303   0.459  15.628  1.0175 -1.1214  0.7918
  171MPD1     N 2613   0.355   0.018  15.534  0.9277 -0.3327  1.1754
  171MPD1    H5 2614   0.359   0.013  15.635 -1.9392 -0.5219  1.2891
  171MPD1    N1 2615   0.273   0.350  15.190 -0.1196  0.4971 -0.2298
  171MPD1    H6 2616   0.324   0.288  15.126 -1.1746  0.2052 -0.7816
  171MPD1    H7 2617   0.285   0.448  15.167 -0.0649  0.4620 -0.3530
  172MPD1     C 2618   4.398   3.825  16.890 -0.0435  0.1559 -0.2521
  172MPD1    C1 2619   4.378   3.955  16.931  0.5423  0.0437  0.1088
  172MPD1    C2 2620   4.384   3.984  17.060 -0.3131 -0.0090  0.4366
  172MPD1    C3 2621   4.417   3.892  17.154 -0.2511  0.0503  0.4207
  172MPD1    C4 2622   4.445   3.762  17.110 -0.4160  0.2434 -0.4916
  172MPD1    C5 2623   4.437   3.727  16.980  0.1843 -0.1407 -0.0830
  172MPD1     H 2624   4.361   4.085  17.091 -2.5255 -1.3602  3.2047
  172MPD1    H1 2625   4.489   3.693  17.181 -1.2428  1.4313  1.1688
  172MPD1    H2 2626   4.384   3.801  16.785  1.1814 -1.6529 -0.0041
  172MPD1    H3 2627   4.465   3.632  16.935 -2.3076  0.1972 -2.3102
  172MPD1     N 2628   4.432   3.919  17.292 -0.7924  0.0574 -0.1638
  172MPD1    H5 2629   4.471   3.840  17.342  2.4831  0.5918 -1.8591
  172MPD1    N1 2630   4.316   4.043  16.840 -0.0122  0.4588  0.5060
  172MPD1    H6 2631   4.356   4.134  16.863  0.5056 -0.3183  2.7081
  172MPD1    H7 2632   4.347   4.025  16.745 -0.0495  0.8286  0.4214
  173MPD1     C 2633   0.228   4.337  13.870  0.0764 -1.2064  0.7142
  173MPD1    C1 2634   0.329   4.262  13.813 -0.3481  0.6420  0.6854
  173MPD1    C2 2635   0.418   4.189  13.887 -0.4888  0.2405  0.3584
  173MPD1    C3 2636   0.418   4.191  14.027  0.0998  0.9035 -0.0750
  173MPD1    C4 2637   0.316   4.263  14.085  0.1490 -0.3519  0.0101
  173MPD1    C5 2638   0.220   4.328  14.005  0.8089  0.9397 -0.6526
  173MPD1     H 2639   0.493   4.128  13.839 -0.8057  0.3347 -0.2581
  173MPD1    H1 2640   0.306   4.267  14.193  1.5944  0.5255  0.1132
  173MPD1    H2 2641   0.152   4.394  13.818 -0.3535 -1.4381  1.1000
  173MPD1    H3 2642   0.140   4.364  14.068 -0.3853 -0.2360 -1.4839
  173MPD1     N 2643   0.507   4.102  14.103  0.3922  0.2347  0.2213
  173MPD1    H5 2644   0.563   4.039  14.046  0.8339  0.6490  0.1860
  173MPD1    N1 2645   0.357   4.268  13.674  0.7034  0.0717  0.4723
  173MPD1    H6 2646   0.275   4.298  13.621 -0.3199 -0.7110  1.6265
  173MPD1    H7 2647   0.386   4.175  13.647 -0.6268 -0.5111  1.0536
  174MPD1     C 2648   0.725   3.370  13.740  0.2861 -0.7554 -0.3106
  174MPD1    C1 2649   0.776   3.349  13.865  0.6985 -0.5124  0.0796
  174MPD1    C2 2650   0.729   3.429  13.963  0.0890  0.1083  1.1970
  174MPD1    C3 2651   0.658   3.549  13.945 -0.3743 -0.4029 -0.4804
  174MPD1    C4 2652   0.607   3.571  13.821  0.7334  0.5139  0.4898
  174MPD1    C5 2653   0.650   3.484  13.717 -0.4282  0.1135  0.2321
  174MPD1     H 2654   0.759   3.391  14.059 -1.2885 -0.6767  1.3164
  174MPD1    H1 2655   0.552   3.654  13.780  0.9051 -0.2974 -1.3760
  174MPD1    H2 2656   0.747   3.298  13.662 -0.3997 -0.5831 -0.6572
  174MPD1    H3 2657   0.620   3.504  13.614  0.0644 -1.2534 -0.1900
  174MPD1     N 2658   0.637   3.648  14.046 -0.3073  0.1253 -0.4896
  174MPD1    H5 2659   0.587   3.730  14.012 -1.1225 -0.1452  0.0434
  174MPD1    N1 2660   0.836   3.223  13.893  0.2680  0.3761 -0.2111
  174MPD1    H6 2661   0.883   3.204  13.981 -1.2116  1.3587  0.7823
  174MPD1    H7 2662   0.914   3.206  13.830  0.4944 -4.0759  1.2251
  175MPD1     C 2663   4.379   0.184  15.558  0.3576 -0.0537 -0.5852
  175MPD1    C1 2664   4.392   0.245  15.677  0.4148  0.5714 -0.6769
  175MPD1    C2 2665   4.394   0.168  15.796 -0.3049  0.4149  0.1252
  175MPD1    C3 2666   4.368   0.033  15.791 -0.0730  0.5535 -0.0194
  175MPD1    C4 2667   4.352   4.700  15.666  0.0194 -1.3607 -0.2501
  175MPD1    C5 2668   4.354   0.047  15.550  0.7624 -0.1440  0.3073
  175MPD1     H 2669   4.398   0.218  15.892 -0.4283  0.7137 -0.0260
  175MPD1    H1 2670   4.319   4.597  15.670  0.4487 -1.5943 -2.7431
  175MPD1    H2 2671   4.387   0.246  15.469 -1.6900  0.0594 -0.6802
  175MPD1    H3 2672   4.358   4.722  15.453 -0.3384 -0.5178  0.4575
  175MPD1     N 2673   4.362   4.679  15.907 -0.1260 -0.0087  0.1418
  175MPD1    H5 2674   4.338   4.582  15.888  2.2392 -0.5306 -0.1034
  175MPD1    N1 2675   4.421   0.382  15.688 -0.3648 -0.1871 -0.5400
  175MPD1    H6 2676   4.403   0.408  15.785  0.4373  1.4001 -0.8220
  175MPD1    H7 2677   4.353   0.428  15.627 -1.9307 -1.4469  0.2364
  176MPD1     C 2678   0.965   1.399  16.730  0.0678  0.2232  0.1992
  176MPD1    C1 2679   1.009   1.370  16.855  0.1126 -0.0097 -1.0729
  176MPD1    C2 2680   0.952   1.441  16.957  0.6689  0.0775 -0.5800
  176MPD1    C3 2681   0.840   1.522  16.934  0.5404  0.6794 -0.1999
  176MPD1    C4 2682   0.793   1.534  16.805  0.7515 -0.0185  0.0629
  176MPD1    C5 2683   0.859   1.472  16.698 -0.1950 -0.3028  0.4034
  176MPD1     H 2684   0.987   1.432  17.059 -2.3721  0.3303  0.4801
  176MPD1    H1 2685   0.706   1.592  16.777  0.6929 -0.4692 -0.6832
  176MPD1    H2 2686   0.995   1.361  16.633 -0.6448  0.3614 -0.0771
  176MPD1    H3 2687   0.821   1.483  16.597  0.9502  0.2739  0.0475
  176MPD1     N 2688   0.770   1.568  17.049  0.1699 -0.1285 -0.6394
  176MPD1    H5 2689   0.824   1.567  17.135 -2.0231  0.1483  0.7479
  176MPD1    N1 2690   1.127   1.291  16.873  0.4111 -0.3446 -0.0340
  176MPD1    H6 2691   1.133   1.218  16.803  2.1858 -1.2415  1.0619
  176MPD1    H7 2692   1.116   1.247  16.964  1.4288 -2.1600 -0.8083
  177MPD1     C 2693   4.046   2.052   9.573 -0.3798  0.3247 -0.2055
  177MPD1    C1 2694   3.940   1.957   9.566  0.5112  0.6260 -0.6813
  177MPD1    C2 2695   3.824   1.995   9.506  0.0673  0.2924 -0.0888
  177MPD1    C3 2696   3.809   2.117   9.444  0.7417 -0.0637  0.8535
  177MPD1    C4 2697   3.909   2.206   9.448  1.0693 -0.1971  0.4694
  177MPD1    C5 2698   4.023   2.170   9.509  0.2902  0.1771  0.1147
  177MPD1     H 2699   3.744   1.922   9.501  0.0582  0.2400  0.7414
  177MPD1    H1 2700   3.900   2.303   9.400  1.0794 -0.3454  0.1726
  177MPD1    H2 2701   4.141   2.033   9.622 -1.1517  1.7755  1.8727
  177MPD1    H3 2702   4.110   2.233   9.497  0.3469 -0.0157 -0.4869
  177MPD1     N 2703   3.689   2.148   9.372  0.0034 -1.1033  0.0847
  177MPD1    H5 2704   3.617   2.077   9.366  0.0627 -1.3108  1.8051
  177MPD1    N1 2705   3.960   1.831   9.635  0.3464  0.7797 -0.2984
  177MPD1    H6 2706   3.907   1.748   9.606  1.7960 -0.2272 -0.0651
  177MPD1    H7 2707   4.059   1.808   9.637  0.5755  1.7193 -0.9886
  178MPD1     C 2708   1.403   2.464   0.247  0.4780  0.0461 -0.2691
  178MPD1    C1 2709   1.512   2.547   0.218  0.5356  0.3587 -0.0577
  178MPD1    C2 2710   1.551   2.562   0.082  0.0425 -0.3291 -0.0117
  178MPD1    C3 2711   1.482   2.495  17.680  0.1782 -0.3618  0.3462
  178MPD1    C4 2712   1.366   2.426   0.010  0.4865 -0.7116  0.3020
  178MPD1    C5 2713   1.335   2.407   0.143  0.0817 -0.3819 -0.3352
  178MPD1     H 2714   1.641   2.616   0.055  0.9129 -2.3676 -1.2085
  178MPD1    H1 2715   1.307   2.383  17.631  0.2550  0.2592 -0.0534
  178MPD1    H2 2716   1.364   2.429   0.342  1.2014 -2.1975 -0.7842
  178MPD1    H3 2717   1.245   2.354   0.171  0.4578 -0.0883  1.4340
  178MPD1     N 2718   1.524   2.502  17.542 -0.5620  0.3532 -0.1410
  178MPD1    H5 2719   1.484   2.430  17.483  0.0891 -0.6564  0.6567
  178MPD1    N1 2720   1.599   2.581   0.326  0.0764  0.5918 -0.3603
  178MPD1    H6 2721   1.537   2.594   0.406  1.2859  0.7773  0.5426
  178MPD1    H7 2722   1.637   2.674   0.310  2.4073 -1.0727 -4.5964
  179MPD1     C 2723   1.552   1.258  15.927  0.3522 -0.6225  0.0711
  179MPD1    C1 2724   1.481   1.264  15.819 -0.4616 -0.3182  0.3683
  179MPD1    C2 2725   1.418   1.144  15.768 -0.4134  0.3311 -0.4728
  179MPD1    C3 2726   1.448   1.024  15.839  0.2355  0.6574  0.5481
  179MPD1    C4 2727   1.533   1.022  15.951 -0.2850 -0.0697 -0.1428
  179MPD1    C5 2728   1.569   1.143  16.000  0.0635 -0.5013 -0.0592
  179MPD1     H 2729   1.356   1.142  15.678 -0.2110 -0.6041 -0.5923
  179MPD1    H1 2730   1.555   0.932  16.007 -1.8974 -1.1259 -1.2108
  179MPD1    H2 2731   1.600   1.342  15.976  1.3521 -0.6905 -0.7825
  179MPD1    H3 2732   1.630   1.157  16.088  2.6735  1.0337 -2.1219
  179MPD1     N 2733   1.412   0.904  15.786 -0.0264 -0.2380 -0.6277
  179MPD1    H5 2734   1.452   0.820  15.826 -0.1082  0.2988  0.5732
  179MPD1    N1 2735   1.456   1.395  15.774 -0.4709  0.2330  0.1432
  179MPD1    H6 2736   1.427   1.400  15.677 -1.5772 -2.8027  0.2934
  179MPD1    H7 2737   1.525   1.467  15.792  1.1370 -1.1423 -0.5788
  180MPD1     C 2738   1.440   2.520  14.899 -0.6162  0.9252  0.4267
  180MPD1    C1 2739   1.437   2.589  14.778  0.3633  0.4842 -0.1679
  180MPD1    C2 2740   1.316   2.600  14.707 -0.1893  0.3643  0.2032
  180MPD1    C3 2741   1.215   2.506  14.722 -0.1155 -0.2854 -0.0142
  180MPD1    C4 2742   1.223   2.430  14.834  0.1478 -0.7623 -0.5605
  180MPD1    C5 2743   1.330   2.433  14.920 -0.1894  0.5282  0.4700
  180MPD1     H 2744   1.305   2.662  14.618  1.7254 -0.6098 -0.7160
  180MPD1    H1 2745   1.143   2.359  14.852 -1.0531  0.9962  1.0295
  180MPD1    H2 2746   1.515   2.512  14.977  1.4491 -2.5680 -1.9343
  180MPD1    H3 2747   1.322   2.370  15.007 -3.1605 -0.3532 -0.4516
  180MPD1     N 2748   1.111   2.524  14.636 -0.7002 -0.1299  0.2571
  180MPD1    H5 2749   1.120   2.594  14.564 -0.7929 -1.1480 -0.7437
  180MPD1    N1 2750   1.541   2.681  14.752  0.0927  0.5551 -0.3659
  180MPD1    H6 2751   1.626   2.629  14.774  0.5706  1.3841 -0.2257
  180MPD1    H7 2752   1.536   2.705  14.653 -0.1274 -2.8225 -1.1669
  181MPD1     C 2753   2.152   3.489  10.059  1.1837 -0.2508 -0.4506
  181MPD1    C1 2754   2.131   3.623  10.104  0.7547 -0.8051  0.2211
  181MPD1    C2 2755   2.222   3.713  10.079 -0.6188 -0.3553 -1.3558
  181MPD1    C3 2756   2.326   3.689   9.988  0.9050 -0.0352  0.0274
  181MPD1    C4 2757   2.341   3.557   9.937 -0.3450 -0.4327 -1.2894
  181MPD1    C5 2758   2.260   3.458   9.983 -0.2687 -0.1558 -0.4912
  181MPD1     H 2759   2.205   3.812  10.120 -0.9463 -2.1828  2.9483
  181MPD1    H1 2760   2.420   3.524   9.871  0.4809  0.5021 -0.7738
  181MPD1    H2 2761   2.082   3.411  10.086 -0.8344  1.5495 -0.5264
  181MPD1    H3 2762   2.279   3.357   9.946 -1.8051 -0.5068 -0.3247
  181MPD1     N 2763   2.409   3.784   9.930 -0.3878  0.2272  0.0555
  181MPD1    H5 2764   2.479   3.759   9.860 -2.7699  2.0743 -3.0173
  181MPD1    N1 2765   2.022   3.651  10.193  0.5364  0.4133  0.6532
  181MPD1    H6 2766   1.983   3.743  10.177 -0.6126 -0.5845 -2.3117
  181MPD1    H7 2767   1.942   3.591  10.173  0.7407  0.6320 -0.8447
  182MPD1     C 2768   4.326   3.074   1.613 -0.8230  0.5440  0.1875
  182MPD1    C1 2769   4.352   3.024   1.489  0.0688  0.2811 -0.9428
  182MPD1    C2 2770   4.252   3.032   1.403 -0.2880  0.1603  0.1692
  182MPD1    C3 2771   4.140   3.102   1.420 -0.4195 -0.3458  0.1128
  182MPD1    C4 2772   4.112   3.155   1.545 -0.1960 -1.2156 -0.0267
  182MPD1    C5 2773   4.203   3.133   1.646 -0.0923  0.4581 -0.2189
  182MPD1     H 2774   4.278   2.986   1.308 -0.2759  0.6953 -0.0875
  182MPD1    H1 2775   4.017   3.203   1.567 -0.7066 -1.9979 -0.5018
  182MPD1    H2 2776   4.404   3.062   1.687  0.1558 -2.0070 -1.2550
  182MPD1    H3 2777   4.186   3.170   1.746  0.2081  4.1320 -1.5529
  182MPD1     N 2778   4.043   3.123   1.319 -0.3834 -1.0566  0.0476
  182MPD1    H5 2779   3.958   3.170   1.348  1.2994  2.7867 -1.3245
  182MPD1    N1 2780   4.462   2.939   1.460  0.0035  0.3820  0.7430
  182MPD1    H6 2781   4.501   2.940   1.366  0.0829  0.1802  0.7736
  182MPD1    H7 2782   4.538   2.943   1.528  0.8119 -0.1126 -0.1354
  183MPD1     C 2783   4.686   4.344   9.333  0.2980  0.7247  0.5422
  183MPD1    C1 2784   4.592   4.384   9.239 -0.3174  0.4594 -0.2580
  183MPD1    C2 2785   4.452   4.357   9.273 -0.5742 -0.0660  0.0132
  183MPD1    C3 2786   4.422   4.270   9.380  0.3837  0.6246  0.1295
  183MPD1    C4 2787   4.530   4.227   9.458  0.1246 -0.2180 -0.0613
  183MPD1    C5 2788   4.657   4.263   9.436  0.1073 -0.4549 -0.0040
  183MPD1     H 2789   4.375   4.402   9.211  0.2126  0.0826 -0.8535
  183MPD1    H1 2790   4.524   4.167   9.548  0.2379  0.9154  0.6991
  183MPD1    H2 2791   0.066   4.368   9.320  0.4868  0.3245  1.2858
  183MPD1    H3 2792   0.012   4.216   9.492  0.9671 -1.0655 -1.7386
  183MPD1     N 2793   4.286   4.223   9.413 -0.4162 -0.0109 -0.7002
  183MPD1    H5 2794   4.218   4.229   9.338 -0.5741 -2.0854 -0.7198
  183MPD1    N1 2795   4.627   4.460   9.124 -0.0694  0.9015  0.1139
  183MPD1    H6 2796   4.723   4.441   9.097  0.1009  0.3670  1.0963
  183MPD1    H7 2797   4.570   4.450   9.040 -0.2497 -1.0597  0.4685
  184MPD1     C 2798   2.841   1.199   9.818 -0.0407 -0.9272  0.8229
  184MPD1    C1 2799   2.887   1.323   9.867  0.7887  0.3335  0.8310
  184MPD1    C2 2800   2.939   1.408   9.771  0.4776 -0.2559 -0.3498
  184MPD1    C3 2801   2.975   1.370   9.640 -0.0251  0.0922  0.5350
  184MPD1    C4 2802   2.938   1.241   9.604 -0.1407 -0.1763 -0.1534
  184MPD1    C5 2803   2.868   1.158   9.691  0.2864 -0.4992 -0.2618
  184MPD1     H 2804   2.963   1.511   9.795  1.0965 -0.6504  0.7084
  184MPD1    H1 2805   2.957   1.208   9.502 -1.0757 -0.1697 -0.3313
  184MPD1    H2 2806   2.803   1.126   9.890 -0.0441 -4.2428 -2.5365
  184MPD1    H3 2807   2.830   1.066   9.648 -0.6900  0.1776 -0.8377
  184MPD1     N 2808   3.017   1.460   9.538 -0.0492  0.2524 -0.1934
  184MPD1    H5 2809   3.028   1.421   9.445 -0.0279 -0.9050  0.2856
  184MPD1    N1 2810   2.855   1.352  10.001 -0.1307 -0.2418 -0.3074
  184MPD1    H6 2811   2.917   1.425  10.036  0.0241 -0.8983  0.7925
  184MPD1    H7 2812   2.854   1.280  10.073  1.3187  1.3198  1.2806
  185MPD1     C 2813   2.759   1.817   8.630  0.2536 -0.2431  0.4272
  185MPD1    C1 2814   2.683   1.751   8.729  0.1871  0.1095 -0.3316
  185MPD1    C2 2815   2.736   1.733   8.858  0.2839 -0.0791 -0.1658
  185MPD1    C3 2816   2.849   1.801   8.893 -0.5257  0.2772 -0.8714
  185MPD1    C4 2817   2.920   1.876   8.799 -0.4296 -0.8894  0.1176
  185MPD1    C5 2818   2.876   1.884   8.668  0.1901  0.2485  0.3870
  185MPD1     H 2819   2.685   1.664   8.924 -0.2468  0.5513  0.0868
  185MPD1    H1 2820   3.009   1.935   8.819 -0.7133 -0.4314  0.0232
  185MPD1    H2 2821   2.736   1.818   8.524  0.5904 -1.2018  0.3399
  185MPD1    H3 2822   2.939   1.935   8.596 -1.9323  3.2793  0.6487
  185MPD1     N 2823   2.916   1.790   9.009  0.3013 -0.3792 -0.3186
  185MPD1    H5 2824   2.999   1.847   9.014  0.8014 -1.1327 -0.1527
  185MPD1    N1 2825   2.578   1.659   8.701  0.3466  0.0450  0.3981
  185MPD1    H6 2826   2.535   1.692   8.615  0.6368 -0.0443  0.2176
  185MPD1    H7 2827   2.511   1.653   8.777 -0.5918 -2.1504 -0.5864
  186MPD1     C 2828   1.824   0.439  15.875 -0.8934 -0.5086  0.6661
  186MPD1    C1 2829   1.724   0.428  15.969 -0.5886 -0.3859 -0.3770
  186MPD1    C2 2830   1.707   0.533  16.051  0.3183  0.1821  0.9012
  186MPD1    C3 2831   1.781   0.649  16.039  0.3776  0.2437 -0.0630
  186MPD1    C4 2832   1.880   0.653  15.947  0.3909 -0.9246 -0.6653
  186MPD1    C5 2833   1.906   0.556  15.857  0.4439 -0.1357 -0.4078
  186MPD1     H 2834   1.635   0.528  16.131 -1.0698 -2.5249 -0.5200
  186MPD1    H1 2835   1.946   0.739  15.944 -1.9735  0.9675  0.8798
  186MPD1    H2 2836   1.838   0.355  15.808 -0.2089 -0.2726  0.5013
  186MPD1    H3 2837   1.982   0.568  15.781 -0.3135 -2.0602 -1.4598
  186MPD1     N 2838   1.776   0.760  16.132 -0.0201 -0.1359  0.5013
  186MPD1    H5 2839   1.813   0.850  16.102 -1.1688 -0.8540 -3.0650
  186MPD1    N1 2840   1.662   0.307  15.997  0.7963  0.5174 -0.2123
  186MPD1    H6 2841   1.572   0.316  16.044  0.3978  0.1911 -0.9154
  186MPD1    H7 2842   1.657   0.251  15.912 -1.2541  1.3365 -0.6349
  187MPD1     C 2843   0.762   2.476   0.378 -0.4918  0.3381 -0.3524
  187MPD1    C1 2844   0.784   2.599   0.422  0.0505  0.1292 -0.2849
  187MPD1    C2 2845   0.786   2.704   0.324 -0.2657  0.2838 -0.5954
  187MPD1    C3 2846   0.767   2.673   0.188  0.2778  0.4824 -0.4243
  187MPD1    C4 2847   0.732   2.545   0.147  0.2938 -0.1589 -0.1641
  187MPD1    C5 2848   0.733   2.449   0.246  0.7449  0.1456 -0.5134
  187MPD1     H 2849   0.797   2.805   0.363  1.5885  0.2500 -1.0122
  187MPD1    H1 2850   0.706   2.519   0.045  0.3148 -0.5740 -0.0631
  187MPD1    H2 2851   0.748   2.393   0.447  2.7029 -1.4741 -1.9356
  187MPD1    H3 2852   0.691   2.351   0.223  1.5067  0.1986 -2.1539
  187MPD1     N 2853   0.774   2.766   0.090  0.1389 -0.4541 -0.1477
  187MPD1    H5 2854   0.740   2.723   0.004 -2.9799  2.4924 -0.3838
  187MPD1    N1 2855   0.789   2.635   0.560  0.3429  0.2143 -0.0013
  187MPD1    H6 2856   0.859   2.706   0.581  1.0084 -0.3707 -0.2337
  187MPD1    H7 2857   0.814   2.552   0.614 -2.0177 -0.7331 -0.3452
  188MPD1     C 2858   0.191   3.328  10.176  0.6068 -0.1206  0.4942
  188MPD1    C1 2859   0.104   3.269  10.088  0.1140  0.1646  0.0429
  188MPD1    C2 2860   0.154   3.172  10.007  0.5427  0.1288 -0.7356
  188MPD1    C3 2861   0.291   3.132  10.005  0.2461  0.5154 -0.7188
  188MPD1    C4 2862   0.373   3.215  10.074  0.2759 -0.3981  0.3712
  188MPD1    C5 2863   0.327   3.307  10.166 -0.3423  0.4160 -0.6359
  188MPD1     H 2864   0.078   3.117   9.953  1.2883 -1.5879 -0.0395
  188MPD1    H1 2865   0.477   3.184  10.070  0.4966  0.1229  2.1030
  188MPD1    H2 2866   0.161   3.409  10.241 -2.9378  0.5572 -2.0125
  188MPD1    H3 2867   0.401   3.361  10.223 -1.3329  0.3423  0.7055
  188MPD1     N 2868   0.334   3.017   9.929 -0.4288  0.9160  0.4206
  188MPD1    H5 2869   0.426   2.979   9.947 -2.2009 -1.6841  4.0296
  188MPD1    N1 2870   4.693   3.298  10.105  0.2336  0.2019 -0.2018
  188MPD1    H6 2871   4.679   3.392  10.141 -1.7074 -0.5978  1.1171
  188MPD1    H7 2872   4.636   3.308  10.022  0.3096 -1.4129 -0.4425
  189MPD1     C 2873   2.157   3.398   0.925 -0.1711 -0.5985 -0.1382
  189MPD1    C1 2874   2.246   3.452   0.830  0.1134 -0.3362  0.0110
  189MPD1    C2 2875   2.188   3.511   0.721 -0.2954 -0.3482  0.3298
  189MPD1    C3 2876   2.054   3.492   0.701  0.1122 -0.4250 -0.0344
  189MPD1    C4 2877   1.970   3.424   0.786  0.8738 -0.2880 -0.3263
  189MPD1    C5 2878   2.022   3.385   0.902 -0.3366  0.6620  0.6785
  189MPD1     H 2879   2.235   3.584   0.656 -0.5171 -1.0207 -0.5941
  189MPD1    H1 2880   1.864   3.408   0.772  1.2225 -0.8055 -2.4920
  189MPD1    H2 2881   2.209   3.370   1.015  0.7003 -0.6741 -0.6629
  189MPD1    H3 2882   1.962   3.331   0.975  0.2731 -0.8169  0.0923
  189MPD1     N 2883   2.010   3.549   0.580 -0.7410  0.1952  0.1865
  189MPD1    H5 2884   2.079   3.601   0.527  0.5057 -1.5320  0.1295
  189MPD1    N1 2885   2.384   3.465   0.846  0.6517 -0.7833 -0.0422
  189MPD1    H6 2886   2.424   3.374   0.868  1.5987 -0.1569  0.7845
  189MPD1    H7 2887   2.437   3.494   0.763 -1.2374  1.7784 -0.3395
  190MPD1     C 2888   0.688   2.368  15.658  0.0995 -0.6593  0.1172
  190MPD1    C1 2889   0.774   2.319  15.560  0.0098  0.0656 -0.1751
  190MPD1    C2 2890   0.896   2.263  15.602 -0.9552 -0.1888 -0.1216
  190MPD1    C3 2891   0.928   2.266  15.734  0.4611  0.1528 -0.2647
  190MPD1    C4 2892   0.842   2.315  15.822  0.1180 -0.0972  0.2697
  190MPD1    C5 2893   0.725   2.363  15.792 -0.8778 -0.6153 -0.4334
  190MPD1     H 2894   0.965   2.229  15.526  1.1160  0.1616  1.5813
  190MPD1    H1 2895   0.868   2.326  15.927  1.9026 -0.0557 -0.1740
  190MPD1    H2 2896   0.590   2.403  15.628  0.5295  0.9715  0.6217
  190MPD1    H3 2897   0.664   2.412  15.867 -0.1439  0.5599 -0.5984
  190MPD1     N 2898   1.056   2.228  15.766  0.7240  0.7061  0.1811
  190MPD1    H5 2899   1.115   2.210  15.686  1.4686  0.5026  0.7681
  190MPD1    N1 2900   0.746   2.338  15.420 -0.4538  0.3481 -0.2010
  190MPD1    H6 2901   0.648   2.317  15.403 -0.8890  1.5401  0.8982
  190MPD1    H7 2902   0.800   2.285  15.351 -1.0276 -3.3837  2.2074
  191MPD1     C 2903   0.151   4.083  12.860  0.2047  0.1229  0.1807
  191MPD1    C1 2904   0.052   4.177  12.854 -0.2379 -0.4261  0.8986
  191MPD1    C2 2905   0.046   4.256  12.737 -0.3795 -0.3024 -0.3509
  191MPD1    C3 2906   0.151   4.275  12.659 -0.1801 -0.3608  0.0989
  191MPD1    C4 2907   0.255   4.191  12.672 -0.4203  0.1874 -0.4345
  191MPD1    C5 2908   0.255   4.094  12.768  0.2158 -0.0097  0.2514
  191MPD1     H 2909   4.685   4.319  12.719  0.7482  1.1916 -0.5385
  191MPD1    H1 2910   0.341   4.187  12.606 -0.3105 -0.0711 -0.2719
  191MPD1    H2 2911   0.159   4.004  12.934 -0.5408 -0.4939 -0.4067
  191MPD1    H3 2912   0.340   4.027  12.771  0.3531  0.2464  1.7835
  191MPD1     N 2913   0.138   4.366  12.556 -0.0648 -0.3402 -0.1611
  191MPD1    H5 2914   0.052   4.418  12.545 -1.0638 -1.5265  2.0823
  191MPD1    N1 2915   4.675   4.156  12.943  0.0349 -0.1203 -0.3684
  191MPD1    H6 2916   4.712   4.137  13.036  2.7217  2.4565 -0.9023
  191MPD1    H7 2917   4.617   4.240  12.947  0.8878  0.4996 -1.0468
  192MPD1     C 2918   0.010   0.571  12.491 -0.2189 -0.5684 -0.0386
  192MPD1    C1 2919   4.639   0.482  12.457  0.3764 -0.2871  0.9503
  192MPD1    C2 2920   4.688   0.352  12.423 -0.5223  0.2074  0.5099
  192MPD1    C3 2921   0.096   0.330  12.426 -0.0533 -0.3706 -0.5697
  192MPD1    C4 2922   0.195   0.427  12.449 -0.7286  0.7774 -0.0596
  192MPD1    C5 2923   0.146   0.550  12.473  0.3823  0.3755 -0.0936
  192MPD1     H 2924   4.618   0.286  12.372 -0.5977  1.7262 -1.3582
  192MPD1    H1 2925   0.302   0.410  12.440 -1.1553 -1.4948 -0.7766
  192MPD1    H2 2926   4.702   0.669  12.523  0.5789  0.4854 -2.4241
  192MPD1    H3 2927   0.212   0.628  12.507  1.3672 -0.2910 -0.4684
  192MPD1     N 2928   0.147   0.197  12.393 -0.4849  0.3092 -0.6119
  192MPD1    H5 2929   0.247   0.184  12.389 -0.6945 -2.0899  2.6384
  192MPD1    N1 2930   4.504   0.509  12.474  0.1805 -0.0139  0.0576
  192MPD1    H6 2931   4.440   0.449  12.423  0.3909  0.0836 -0.3208
  192MPD1    H7 2932   4.482   0.608  12.467 -0.6247 -0.2460 -0.6254
  193MPD1     C 2933   4.720   4.490  15.951 -0.2535 -0.3077 -0.5915
  193MPD1    C1 2934   0.054   4.603  16.021 -0.1741 -0.0042  0.2393
  193MPD1    C2 2935   0.158   4.570  16.111  0.1676  0.1661  0.2407
  193MPD1    C3 2936   0.201   4.440  16.140  0.2597  0.4781 -0.4566
  193MPD1    C4 2937   0.141   4.334  16.062 -0.4593  0.5390 -0.4935
  193MPD1    C5 2938   0.038   4.361  15.973 -0.1033  0.0420  0.0372
  193MPD1     H 2939   0.219   4.655  16.141  0.3664  0.9219 -2.2486
  193MPD1    H1 2940   0.181   4.233  16.066 -2.1176  0.0551  3.5177
  193MPD1    H2 2941   4.650   4.503  15.870 -0.2658  0.0701 -0.5214
  193MPD1    H3 2942   0.006   4.286  15.902  2.1465 -0.1336 -0.7878
  193MPD1     N 2943   0.297   4.415  16.242 -0.0666  0.4769 -0.0002
  193MPD1    H5 2944   0.323   4.318  16.249 -0.2738  0.5145  1.2255
  193MPD1    N1 2945   0.033   0.012  15.977 -0.2031 -0.1499 -0.6248
  193MPD1    H6 2946   0.041   0.077  16.055 -0.2186 -0.8710 -0.0172
  193MPD1    H7 2947   4.665   0.036  15.942 -0.7366 -0.7892  0.3288
  194MPD1     C 2948   2.677   1.551  17.194  0.3299 -0.7398  0.0355
  194MPD1    C1 2949   2.585   1.509  17.094  0.0677  0.3791  0.1313
  194MPD1    C2 2950   2.579   1.376  17.070 -0.3234 -0.5404  0.2749
  194MPD1    C3 2951   2.657   1.290  17.140 -0.4904  0.1071  0.2365
  194MPD1    C4 2952   2.745   1.331  17.237  0.2556  0.6488  0.2637
  194MPD1    C5 2953   2.756   1.461  17.261 -0.9814  0.6507  0.2850
  194MPD1     H 2954   2.507   1.346  16.994  2.4708  0.5600 -2.8216
  194MPD1    H1 2955   2.802   1.267  17.303 -0.2323  1.0467  1.0714
  194MPD1    H2 2956   2.675   1.651  17.236 -0.2551 -0.2246 -1.2364
  194MPD1    H3 2957   2.824   1.492  17.339  0.5919  1.0346 -1.2189
  194MPD1     N 2958   2.660   1.156  17.114 -0.1761 -0.1985  0.1978
  194MPD1    H5 2959   2.718   1.100  17.175  0.4259 -1.6419 -1.7080
  194MPD1    N1 2960   2.515   1.598  17.021  0.6215  0.4480  0.6917
  194MPD1    H6 2961   2.508   1.686  17.072 -2.2306  0.1644  0.7916
  194MPD1    H7 2962   2.438   1.550  16.975  1.2513 -0.8236  0.9483
  195MPD1     C 2963   0.577   3.329   0.069  0.2402 -0.3562 -0.7343
  195MPD1    C1 2964   0.563   3.293   0.197  0.0020  0.0272 -0.3381
  195MPD1    C2 2965   0.533   3.153   0.218  0.5189 -0.1647  0.1026
  195MPD1    C3 2966   0.496   3.067   0.120 -0.1445  0.6642 -0.3561
  195MPD1    C4 2967   0.487   3.116  17.692  0.0529  0.4051 -0.0064
  195MPD1    C5 2968   0.544   3.243  17.665  0.9378 -0.5326  0.2715
  195MPD1     H 2969   0.546   3.118   0.320  1.4730  1.4153  0.5303
  195MPD1    H1 2970   0.468   3.052  17.607 -0.5048 -1.8650  1.8321
  195MPD1    H2 2971   0.622   3.426   0.054  0.8411 -0.3341  1.1567
  195MPD1    H3 2972   0.561   3.276  17.563 -1.0811  0.7800  0.3459
  195MPD1     N 2973   0.462   2.932   0.143 -0.1990  0.6844 -0.2264
  195MPD1    H5 2974   0.417   2.886   0.065 -0.0680 -1.6780  1.0954
  195MPD1    N1 2975   0.588   3.386   0.298  0.5059 -0.1005 -0.0323
  195MPD1    H6 2976   0.571   3.483   0.272 -0.1819 -0.2866 -0.2868
  195MPD1    H7 2977   0.540   3.357   0.383 -1.9113  2.0430 -0.6738
  196MPD1     C 2978   3.791   2.360   1.150 -0.3069  0.1417  0.2255
  196MPD1    C1 2979   3.861   2.389   1.035  0.9314 -0.6481 -0.4054
  196MPD1    C2 2980   3.999   2.362   1.026  0.1515  0.4896  0.3934
  196MPD1    C3 2981   4.064   2.308   1.139 -0.4483 -0.0905 -0.4191
  196MPD1    C4 2982   3.985   2.271   1.246 -0.0506 -0.2226 -0.1990
  196MPD1    C5 2983   3.849   2.298   1.256  0.9941 -0.9567  0.0687
  196MPD1     H 2984   4.054   2.401   0.941 -2.9735 -0.5942 -2.1190
  196MPD1    H1 2985   4.027   2.234   1.338  0.6325 -1.0174 -0.8364
  196MPD1    H2 2986   3.691   2.401   1.151 -1.1244 -1.8561 -0.6953
  196MPD1    H3 2987   3.803   2.278   1.352 -0.6933 -1.5558 -0.8534
  196MPD1     N 2988   4.204   2.298   1.156  0.1482 -0.0399  0.1394
  196MPD1    H5 2989   4.235   2.266   1.247  0.0742 -1.7301 -0.4312
  196MPD1    N1 2990   3.791   2.471   0.945  0.2112 -0.3494  0.0818
  196MPD1    H6 2991   3.823   2.461   0.849  1.7300  0.5834  0.4918
  196MPD1    H7 2992   3.691   2.453   0.939  0.4486 -1.1273 -1.4750
  197MPD1     C 2993   3.932   4.564  17.326 -0.7095  0.0712  0.0205
  197MPD1    C1 2994   3.843   4.648  17.269  0.4072  0.0998  0.3203
  197MPD1    C2 2995   3.897   0.046  17.230 -0.5663  0.1499  0.0390
  197MPD1    C3 2996   4.037   0.080  17.247 -0.2231 -0.2374 -0.0228
  197MPD1    C4 2997   4.113   4.718  17.328 -0.6654  0.1063  0.3357
  197MPD1    C5 2998   4.065   4.598  17.356  0.0808 -0.1819 -0.2416
  197MPD1     H 2999   3.835   0.112  17.170  1.0370 -0.8376 -2.7244
  197MPD1    H1 3000   4.209   0.022  17.370 -0.3135  1.3996 -1.3403
  197MPD1    H2 3001   3.905   4.462  17.351  0.9255 -0.3692  0.0041
  197MPD1    H3 3002   4.131   4.522  17.395 -0.8684 -0.8414  0.1018
  197MPD1     N 3003   4.090   0.195  17.189 -0.0416 -0.1477 -0.4798
  197MPD1    H5 3004   4.192   0.199  17.187  0.0502 -1.6441  0.9926
  197MPD1    N1 3005   3.726   4.599  17.219 -0.5642  0.2853 -0.1070
  197MPD1    H6 3006   3.658   4.673  17.207 -0.4162  0.6410  1.2552
  197MPD1    H7 3007   3.685   4.528  17.280  0.3070  0.7239  0.9777
  198MPD1     C 3008   0.599   3.277  15.429  0.3165 -0.1854  0.1062
  198MPD1    C1 3009   0.593   3.401  15.491 -0.0421  0.2005  0.0318
  198MPD1    C2 3010   0.706   3.427  15.574  0.2885  0.0890 -0.2379
  198MPD1    C3 3011   0.796   3.328  15.607  0.0966 -0.0331  0.1675
  198MPD1    C4 3012   0.783   3.203  15.556  0.0402 -0.4061 -0.6079
  198MPD1    C5 3013   0.690   3.181  15.468  0.1649  0.2404  0.4341
  198MPD1     H 3014   0.705   3.524  15.622 -0.4267 -0.8083  1.5982
  198MPD1    H1 3015   0.856   3.127  15.583  0.5476  0.5716  0.7845
  198MPD1    H2 3016   0.528   3.245  15.353  0.1687 -0.8512  0.5269
  198MPD1    H3 3017   0.678   3.082  15.424  1.2155  1.2349 -2.0830
  198MPD1     N 3018   0.900   3.362  15.695  0.5058  0.5855 -0.0241
  198MPD1    H5 3019   0.910   3.462  15.711 -0.8153  0.7328 -0.0360
  198MPD1    N1 3020   0.507   3.508  15.450  0.0012  0.1437  0.7125
  198MPD1    H6 3021   0.479   3.568  15.527 -0.3414 -0.9403  1.4301
  198MPD1    H7 3022   0.419   3.475  15.409  0.0344 -0.1625  0.8898
  199MPD1     C 3023   3.703   3.441   9.136  0.2641 -0.2736  0.4217
  199MPD1    C1 3024   3.652   3.563   9.097  0.3382  0.8126 -0.1049
  199MPD1    C2 3025   3.521   3.596   9.131 -0.2292 -0.0586  0.1655
  199MPD1    C3 3026   3.451   3.529   9.227 -0.6610 -0.0745 -0.0978
  199MPD1    C4 3027   3.512   3.418   9.279 -0.7297  0.2657  0.2801
  199MPD1    C5 3028   3.632   3.377   9.234  0.2520 -0.3100 -0.3409
  199MPD1     H 3029   3.484   3.682   9.077  1.5660  1.6738  1.6901
  199MPD1    H1 3030   3.460   3.350   9.347  0.2310  1.2428  1.9895
  199MPD1    H2 3031   3.796   3.403   9.095  0.1914  0.2420 -0.2085
  199MPD1    H3 3032   3.668   3.285   9.280  0.8862 -0.4672 -1.1456
  199MPD1     N 3033   3.330   3.570   9.281 -0.1764  0.2011 -0.2194
  199MPD1    H5 3034   3.280   3.515   9.351 -0.1015  0.2528 -0.1243
  199MPD1    N1 3035   3.710   3.644   8.991  0.3963 -0.0312  0.2206
  199MPD1    H6 3036   3.666   3.736   8.987 -0.9258 -0.6953 -0.5216
  199MPD1    H7 3037   3.812   3.640   8.996  0.6407  4.1068 -1.3351
  200MPD1     C 3038   1.554   3.436  14.307 -0.4850  0.3751  0.2114
  200MPD1    C1 3039   1.524   3.417  14.176  0.3479 -0.5113  0.7038
  200MPD1    C2 3040   1.556   3.518  14.083 -0.0403 -0.0626  0.6569
  200MPD1    C3 3041   1.632   3.629  14.122  0.4409  0.2975 -0.3105
  200MPD1    C4 3042   1.670   3.635  14.253 -0.2577  0.0754 -0.2384
  200MPD1    C5 3043   1.626   3.545  14.344 -0.3578 -0.3971 -0.1555
  200MPD1     H 3044   1.534   3.489  13.981 -1.8921  0.3615  0.9516
  200MPD1    H1 3045   1.733   3.717  14.285  0.0661  0.3726 -1.6418
  200MPD1    H2 3046   1.520   3.367  14.383 -2.0162  0.9355  0.0268
  200MPD1    H3 3047   1.639   3.570  14.449 -3.3141  1.1166 -0.1776
  200MPD1     N 3048   1.665   3.735  14.026 -0.7461  0.0968  0.3675
  200MPD1    H5 3049   1.649   3.722  13.926  1.5824 -0.5965  0.0858
  200MPD1    N1 3050   1.458   3.296  14.143 -0.0568  0.3284 -0.3590
  200MPD1    H6 3051   1.382   3.311  14.076  0.3911  2.7741 -0.3299
  200MPD1    H7 3052   1.412   3.262  14.227  2.7568  1.5932  1.6689
  201MPD1     C 3053   4.250   4.012  13.277 -0.2440 -1.5434  0.4615
  201MPD1    C1 3054   4.343   3.932  13.344  0.0961 -0.3509  0.2109
  201MPD1    C2 3055   4.327   3.795  13.344 -0.6919  0.3615 -0.2515
  201MPD1    C3 3056   4.209   3.735  13.290 -0.3747  0.1240  0.0080
  201MPD1    C4 3057   4.122   3.814  13.225 -0.3924  0.7684  0.3873
  201MPD1    C5 3058   4.146   3.948  13.210 -0.0982  0.0947 -0.3628
  201MPD1     H 3059   4.411   3.730  13.368 -0.3682  0.2251 -1.7997
  201MPD1    H1 3060   4.030   3.770  13.186 -0.8995 -0.5549  3.0725
  201MPD1    H2 3061   4.261   4.120  13.275  0.2638 -1.6624 -2.1727
  201MPD1    H3 3062   4.082   4.011  13.150 -0.7723 -1.5675 -1.3860
  201MPD1     N 3063   4.208   3.600  13.292 -0.1017 -0.1089  0.4468
  201MPD1    H5 3064   4.294   3.562  13.330  0.3988 -0.1249 -0.6998
  201MPD1    N1 3065   4.463   3.996  13.387  0.0861 -0.3071  0.1254
  201MPD1    H6 3066   4.490   3.952  13.475  1.7632  1.2641  0.3915
  201MPD1    H7 3067   4.448   4.096  13.399 -1.0246 -0.3232 -1.2379
  202MPD1     C 3068   4.124   2.725   8.879 -0.3856 -0.6407 -0.1194
  202MPD1    C1 3069   4.039   2.818   8.936 -0.2568  0.3388 -0.3999
  202MPD1    C2 3070   4.088   2.883   9.048 -0.8053 -0.2079  0.3304
  202MPD1    C3 3071   4.202   2.849   9.121 -0.5654 -0.6077 -0.4378
  202MPD1    C4 3072   4.276   2.752   9.062  0.4871 -0.4808  0.0718
  202MPD1    C5 3073   4.244   2.686   8.947  0.3879 -0.0544 -0.2778
  202MPD1     H 3074   4.045   2.980   9.069  0.1025  0.0260  1.1296
  202MPD1    H1 3075   4.372   2.722   9.104 -0.1417 -0.3884  1.5639
  202MPD1    H2 3076   4.118   2.686   8.779  0.0896  0.5134 -0.5979
  202MPD1    H3 3077   4.320   2.630   8.894  1.3804  2.7034 -1.7773
  202MPD1     N 3078   4.247   2.908   9.238 -0.1151 -0.6861 -0.0001
  202MPD1    H5 3079   4.338   2.875   9.268 -0.0723  1.9206  2.7801
  202MPD1    N1 3080   3.946   2.887   8.854 -0.0605 -0.0432 -0.2538
  202MPD1    H6 3081   3.872   2.928   8.910  1.1140  1.8689 -0.1231
  202MPD1    H7 3082   3.893   2.836   8.783  0.1144 -1.5957  0.7390
  203MPD1     C 3083   2.375   3.828  12.361 -0.2822 -0.3891  0.2103
  203MPD1    C1 3084   2.405   3.734  12.458  0.3430  0.3089 -0.1953
  203MPD1    C2 3085   2.534   3.694  12.472  0.3702  0.1246 -0.5321
  203MPD1    C3 3086   2.634   3.761  12.404  0.2590 -0.2274  0.7452
  203MPD1    C4 3087   2.610   3.869  12.319 -0.2562  0.4757 -0.2432
  203MPD1    C5 3088   2.472   3.899  12.301  0.5569 -0.2814 -0.4099
  203MPD1     H 3089   2.562   3.606  12.528 -2.5163 -1.3315 -1.3545
  203MPD1    H1 3090   2.690   3.927  12.274 -1.3752  0.0175 -2.7878
  203MPD1    H2 3091   2.277   3.853  12.323  0.3178  0.5696 -0.6911
  203MPD1    H3 3092   2.441   3.984  12.241  1.7723 -1.0797 -2.1817
  203MPD1     N 3093   2.768   3.701  12.407  0.0859  0.0146 -0.1672
  203MPD1    H5 3094   2.771   3.622  12.470 -0.9054  0.1144  0.0117
  203MPD1    N1 3095   2.304   3.657  12.510  0.4913  0.1535  0.1017
  203MPD1    H6 3096   2.339   3.628  12.601  1.5911  0.4944 -0.2099
  203MPD1    H7 3097   2.214   3.705  12.513 -0.6197 -1.9370  0.1497
  204MPD1     C 3098   2.289   0.063  17.600  0.5617  0.0889  0.3789
  204MPD1    C1 3099   2.253   4.657  17.561  0.7371  0.2452  0.3862
  204MPD1    C2 3100   2.320   4.591  17.463  0.3132  0.4929 -0.6883
  204MPD1    C3 3101   2.426   4.653  17.397  0.3140 -0.1821 -0.4146
  204MPD1    C4 3102   2.469   0.058  17.434  0.1577 -0.2310 -0.3667
  204MPD1    C5 3103   2.396   0.130  17.532  0.5267 -0.1395  0.3867
  204MPD1     H 3104   2.303   4.488  17.432 -1.3322  0.2531  1.0459
  204MPD1    H1 3105   2.557   0.107  17.395 -0.3605  0.9661 -0.0386
  204MPD1    H2 3106   2.236   0.122  17.674  0.9839 -0.8450  1.4364
  204MPD1    H3 3107   2.425   0.230  17.561  0.4985 -0.0304  0.0396
  204MPD1     N 3108   2.492   4.573  17.293  0.4257  0.2102 -0.1660
  204MPD1    H5 3109   2.475   4.473  17.297  0.0514  0.2638 -0.3942
  204MPD1    N1 3110   2.139   4.592  17.607 -0.0087  0.3370  0.4232
  204MPD1    H6 3111   2.151   4.498  17.570  2.1062  0.4513  0.8377
  204MPD1    H7 3112   2.137   4.588   0.008  1.4506 -0.4725  0.4191
  205MPD1     C 3113   2.172   3.369  16.468 -0.2958 -1.1923 -0.5268
  205MPD1    C1 3114   2.252   3.256  16.490  0.2413 -0.1445 -0.4622
  205MPD1    C2 3115   2.351   3.269  16.588 -0.3664  0.7600  0.5123
  205MPD1    C3 3116   2.374   3.388  16.656  0.1254 -0.6621  0.1119
  205MPD1    C4 3117   2.304   3.501  16.619  0.0781  0.2327 -0.0186
  205MPD1    C5 3118   2.196   3.487  16.530 -0.2182  1.1000 -0.2996
  205MPD1     H 3119   2.416   3.184  16.606  0.6021  1.5606  0.8408
  205MPD1    H1 3120   2.320   3.598  16.665 -0.8431  0.2980  0.1662
  205MPD1    H2 3121   2.100   3.367  16.387  1.5473  2.3090 -2.2571
  205MPD1    H3 3122   2.142   3.578  16.507 -0.1398  0.7581 -1.7854
  205MPD1     N 3123   2.472   3.404  16.757 -0.2700 -0.0043  0.2725
  205MPD1    H5 3124   2.481   3.500  16.787  0.2003 -0.2066  0.7793
  205MPD1    N1 3125   2.226   3.146  16.409  0.2637  0.6425 -0.1090
  205MPD1    H6 3126   2.297   3.075  16.392  0.7015  1.0451  0.0714
  205MPD1    H7 3127   2.142   3.090  16.425  0.9257 -0.4560 -0.5246
  206MPD1     C 3128   2.546   1.872  16.784  0.0055 -0.8102  0.1338
  206MPD1    C1 3129   2.478   1.981  16.740  0.3339 -0.3462 -0.2794
  206MPD1    C2 3130   2.511   2.036  16.617  0.6646 -0.0399 -0.0911
  206MPD1    C3 3131   2.616   1.996  16.538  0.3291 -0.2374 -0.2296
  206MPD1    C4 3132   2.678   1.884  16.582 -0.0817 -0.2348 -0.5215
  206MPD1    C5 3133   2.645   1.817  16.704 -0.0762  0.6385  0.1801
  206MPD1     H 3134   2.440   2.110  16.584 -1.6516 -2.7119 -1.1058
  206MPD1    H1 3135   2.765   1.843  16.532  1.6369  0.1505  2.1706
  206MPD1    H2 3136   2.517   1.822  16.876 -1.1175  0.1115  0.2830
  206MPD1    H3 3137   2.691   1.727  16.745  0.6269 -0.5450 -3.2393
  206MPD1     N 3138   2.649   2.042  16.409  0.7841  0.1792  0.0926
  206MPD1    H5 3139   2.725   1.995  16.360  0.0429 -1.7230  0.8044
  206MPD1    N1 3140   2.371   2.026  16.810 -0.0230 -0.6242 -0.2643
  206MPD1    H6 3141   2.359   1.996  16.906 -2.0772  1.2207  0.0632
  206MPD1    H7 3142   2.371   2.128  16.810 -0.0118 -0.6226  1.4010
  207MPD1     C 3143   4.703   4.248   8.859  0.4936 -0.0360 -0.7761
  207MPD1    C1 3144   0.035   4.360   8.804  0.1825  0.2358  0.0359
  207MPD1    C2 3145   0.144   4.410   8.868  0.2421 -0.4195 -0.2812
  207MPD1    C3 3146   0.204   4.356   8.974 -0.2936 -1.2616  0.8059
  207MPD1    C4 3147   0.150   4.234   9.019 -0.9077  0.2563  0.0285
  207MPD1    C5 3148   0.038   4.187   8.965 -0.2396  0.4318  0.5869
  207MPD1     H 3149   0.202   4.493   8.828 -0.5267  0.0568 -0.3999
  207MPD1    H1 3150   0.203   4.171   9.089 -2.0792 -1.3726 -0.5437
  207MPD1    H2 3151   4.626   4.189   8.811 -0.5399  2.1859 -1.8585
  207MPD1    H3 3152   0.000   4.091   8.998  1.0025  0.0142  0.7800
  207MPD1     N 3153   0.321   4.409   9.041 -0.4004 -0.5550 -0.5924
  207MPD1    H5 3154   0.350   4.370   9.130  0.6231 -0.1270 -0.7373
  207MPD1    N1 3155   0.002   4.414   8.678  1.0573  0.2321  0.0654
  207MPD1    H6 3156   0.032   4.511   8.670  0.4560  0.4307  0.2288
  207MPD1    H7 3157   4.626   4.405   8.664  0.9067 -1.2469  2.0701
  208MPD1     C 3158   4.023   3.667  17.296  0.0422  0.0810  0.2741
  208MPD1    C1 3159   4.091   3.600  17.389  0.0206  0.2703  0.2839
  208MPD1    C2 3160   4.020   3.491  17.448  0.3147  0.5112  0.4832
  208MPD1    C3 3161   3.888   3.466  17.420  0.8926  0.0027  0.0372
  208MPD1    C4 3162   3.823   3.560  17.346  0.5424  0.1184 -0.4638
  208MPD1    C5 3163   3.887   3.655  17.271 -0.3337  0.3967  0.5206
  208MPD1     H 3164   4.070   3.432  17.524 -1.6421 -1.2164  0.4251
  208MPD1    H1 3165   3.719   3.554  17.315  0.0117 -0.9038  1.4877
  208MPD1    H2 3166   4.073   3.742  17.235 -1.2781 -0.7986 -1.8856
  208MPD1    H3 3167   3.835   3.715  17.197  2.0610  1.3810 -0.3789
  208MPD1     N 3168   3.819   3.363  17.492 -0.3897  0.1267 -0.4600
  208MPD1    H5 3169   3.874   3.313  17.562  0.0564  0.4298 -0.5916
  208MPD1    N1 3170   4.223   3.632  17.409  0.2746 -0.7491  0.2460
  208MPD1    H6 3171   4.234   3.732  17.392  1.9869 -1.3438 -2.0958
  208MPD1    H7 3172   4.264   3.598  17.495  0.9103 -0.7785 -0.0630
  209MPD1     C 3173   0.370   4.145  10.922  0.1081 -0.1602 -0.1850
  209MPD1    C1 3174   0.502   4.177  10.923 -0.4833  0.4358 -0.2142
  209MPD1    C2 3175   0.563   4.207  10.799  0.7456 -0.2656 -0.4058
  209MPD1    C3 3176   0.488   4.214  10.679 -0.0770  0.3406 -0.0575
  209MPD1    C4 3177   0.357   4.182  10.682 -0.4653  0.3872 -0.1597
  209MPD1    C5 3178   0.301   4.152  10.804  0.1469  0.0004  0.4081
  209MPD1     H 3179   0.669   4.232  10.796  0.4820  0.7374 -1.4897
  209MPD1    H1 3180   0.291   4.183  10.595  0.2062  3.4702 -0.6336
  209MPD1    H2 3181   0.313   4.118  11.010 -2.8257  2.1171 -1.3975
  209MPD1    H3 3182   0.194   4.136  10.812  0.3322 -1.0610  0.8040
  209MPD1     N 3183   0.550   4.247  10.561  0.3756 -0.6719 -0.0248
  209MPD1    H5 3184   0.648   4.270  10.572 -0.7695  2.9760  2.4531
  209MPD1    N1 3185   0.589   4.142  11.030  0.4836 -0.0516  0.0741
  209MPD1    H6 3186   0.540   4.157  11.118 -1.1809  0.7322 -0.9712
  209MPD1    H7 3187   0.680   4.187  11.021  0.7614 -0.5206  0.5387
  210MPD1     C 3188   1.423   4.547  10.171 -0.1213  0.0638 -0.3269
  210MPD1    C1 3189   1.387   4.450  10.264  0.9764 -0.0693 -0.0516
  210MPD1    C2 3190   1.254   4.399  10.271 -0.1929  0.2110 -0.6437
  210MPD1    C3 3191   1.161   4.450  10.180  0.0925  0.7545 -0.6971
  210MPD1    C4 3192   1.202   4.546  10.090 -0.7612  0.4349 -0.6569
  210MPD1    C5 3193   1.330   4.594  10.085  0.4499 -0.5419  0.2878
  210MPD1     H 3194   1.220   4.330  10.347 -2.2865 -0.7055 -2.4100
  210MPD1    H1 3195   1.127   4.582  10.021  0.2050 -1.5243 -2.7046
  210MPD1    H2 3196   1.519   4.596  10.162  0.0872 -0.2838 -0.0129
  210MPD1    H3 3197   1.354   4.678  10.022  1.3522 -0.8674  0.1958
  210MPD1     N 3198   1.021   4.420  10.176 -0.0089 -0.2631 -0.0362
  210MPD1    H5 3199   0.971   4.480  10.111 -2.2667  0.0997  2.0651
  210MPD1    N1 3200   1.482   4.424  10.360  0.0314 -0.3444 -1.0269
  210MPD1    H6 3201   1.477   4.327  10.390  1.5165  0.3150  1.3401
  210MPD1    H7 3202   1.570   4.452  10.318 -0.1540  0.6879 -0.7265
  211MPD1     C 3203   3.845   3.486  15.379  0.2330 -0.0545 -0.3347
  211MPD1    C1 3204   3.813   3.617  15.374 -0.8724 -0.1143  0.6303
  211MPD1    C2 3205   3.680   3.652  15.388 -0.0711 -0.5842  0.2969
  211MPD1    C3 3206   3.581   3.560  15.359 -0.0759  0.0856 -0.2451
  211MPD1    C4 3207   3.620   3.428  15.339 -1.0861 -0.3374 -0.0785
  211MPD1    C5 3208   3.754   3.391  15.346 -0.5758  1.0138 -0.0992
  211MPD1     H 3209   3.652   3.757  15.396  0.3270 -0.8102  4.5622
  211MPD1    H1 3210   3.549   3.347  15.320 -2.4362  1.3041 -2.0637
  211MPD1    H2 3211   3.946   3.454  15.400  0.5464  0.3471 -1.2340
  211MPD1    H3 3212   3.781   3.286  15.341  0.8535  1.3187  1.1919
  211MPD1     N 3213   3.451   3.599  15.387 -0.0580 -0.1284  0.5302
  211MPD1    H5 3214   3.438   3.690  15.430  0.9975  0.5149 -0.5082
  211MPD1    N1 3215   3.909   3.707  15.414 -0.5266 -0.4217  0.3499
  211MPD1    H6 3216   4.001   3.691  15.373 -0.7613 -0.5456 -0.1335
  211MPD1    H7 3217   3.880   3.801  15.387 -0.3326 -0.3501  0.3857
  212MPD1     C 3218   2.361   2.001  15.894  0.9944  0.1099 -0.5925
  212MPD1    C1 3219   2.306   2.056  16.005  0.0646  0.6355 -0.2209
  212MPD1    C2 3220   2.316   1.990  16.125  0.4674 -0.1145 -0.1868
  212MPD1    C3 3221   2.399   1.880  16.141  0.0564  0.4112 -0.4397
  212MPD1    C4 3222   2.466   1.838  16.030  0.0081 -0.6924  0.4060
  212MPD1    C5 3223   2.443   1.889  15.906  0.0088  0.6113  0.4487
  212MPD1     H 3224   2.254   2.018  16.209 -0.5649 -1.6821 -0.4407
  212MPD1    H1 3225   2.522   1.745  16.030  0.3614 -0.4868 -0.4727
  212MPD1    H2 3226   2.344   2.034  15.792 -1.4074 -2.2560 -0.9626
  212MPD1    H3 3227   2.497   1.836  15.828 -2.3397 -2.3251  0.8083
  212MPD1     N 3228   2.411   1.799  16.264 -0.9034 -0.6570  0.1104
  212MPD1    H5 3229   2.476   1.720  16.265  0.5494  0.5533  0.9394
  212MPD1    N1 3230   2.201   2.144  15.977  0.2500 -0.1731 -0.2602
  212MPD1    H6 3231   2.222   2.198  15.894 -1.2578 -0.6593 -0.9560
  212MPD1    H7 3232   2.188   2.217  16.047 -0.6607  0.3572 -0.9934
  213MPD1     C 3233   1.177   3.008  15.554 -1.2364 -0.2046 -0.1859
  213MPD1    C1 3234   1.179   3.097  15.457  0.1482 -0.3035 -0.7472
  213MPD1    C2 3235   1.075   3.099  15.369  0.7828  0.0772  0.3512
  213MPD1    C3 3236   0.998   2.985  15.353 -0.1355 -0.1947 -0.4078
  213MPD1    C4 3237   1.011   2.888  15.449  0.4618 -0.6461  0.1839
  213MPD1    C5 3238   1.106   2.896  15.547 -0.7885 -0.3567 -0.5215
  213MPD1     H 3239   1.063   3.182  15.300 -0.9485  0.5931  1.3027
  213MPD1    H1 3240   0.947   2.800  15.450  3.1343 -2.6253 -0.6213
  213MPD1    H2 3241   1.254   3.018  15.630  0.6382 -2.2534 -1.8070
  213MPD1    H3 3242   1.111   2.818  15.622 -1.8112  0.0959  0.0110
  213MPD1     N 3243   0.891   2.994  15.262  0.1290 -0.5763 -0.2441
  213MPD1    H5 3244   0.885   3.078  15.206 -2.1093  0.6280  1.8206
  213MPD1    N1 3245   1.238   3.224  15.483  0.6243  0.4002 -0.1211
  213MPD1    H6 3246   1.243   3.282  15.400 -1.0935 -0.5220 -0.8601
  213MPD1    H7 3247   1.327   3.219  15.532  0.3556  3.0526  0.6896
  214MPD1     C 3248   4.718   2.509  14.865  0.8432 -0.7482 -0.7083
  214MPD1    C1 3249   0.049   2.504  14.987 -0.4184  0.6888 -0.1923
  214MPD1    C2 3250   0.156   2.589  15.018 -0.7458 -0.0692  0.5594
  214MPD1    C3 3251   0.207   2.673  14.918  0.4388  0.1340  0.2688
  214MPD1    C4 3252   0.142   2.677  14.795  0.2391  0.7473  1.1368
  214MPD1    C5 3253   0.038   2.595  14.769  0.5299 -0.0579  0.0580
  214MPD1     H 3254   0.202   2.567  15.114 -1.9598 -0.7031  1.0057
  214MPD1    H1 3255   0.182   2.746  14.722  0.9203 -1.3201 -0.4468
  214MPD1    H2 3256   4.640   2.441  14.830 -0.8025  2.1089 -2.5870
  214MPD1    H3 3257   4.721   2.595  14.670 -1.3283  2.4327  0.8434
  214MPD1     N 3258   0.309   2.768  14.947  0.4646 -0.3476 -0.0393
  214MPD1    H5 3259   0.337   2.828  14.870 -1.8360  1.5907  0.6364
  214MPD1    N1 3260   0.029   2.392  15.068  0.0841  0.4104 -0.4085
  214MPD1    H6 3261   4.660   2.354  15.065 -0.3502  1.4094  0.5772
  214MPD1    H7 3262   0.054   2.408  15.165  2.2061 -0.4663 -0.8013
  215MPD1     C 3263   4.310   4.593  10.384 -0.1691  0.1584  0.1456
  215MPD1    C1 3264   4.400   4.697  10.405 -0.0216  0.5038  0.2395
  215MPD1    C2 3265   4.478   4.703  10.517  0.5391 -0.8051 -0.0408
  215MPD1    C3 3266   4.475   4.604  10.609  0.3560  0.1425  0.2555
  215MPD1    C4 3267   4.394   4.494  10.585  0.2307 -0.0577  0.3000
  215MPD1    C5 3268   4.309   4.490  10.472  0.0392 -0.2909  0.0610
  215MPD1     H 3269   4.550   0.058  10.532 -0.3922 -0.0791  0.4886
  215MPD1    H1 3270   4.400   4.402  10.642  1.0480  1.0070  1.9053
  215MPD1    H2 3271   4.242   4.605  10.301 -0.6304 -1.6645  0.2711
  215MPD1    H3 3272   4.248   4.401  10.461  2.3871 -1.8012 -0.6994
  215MPD1     N 3273   4.566   4.617  10.714  0.4338  0.1004  0.3463
  215MPD1    H5 3274   4.640   4.687  10.720  1.2012 -0.7223  0.5906
  215MPD1    N1 3275   4.409   0.077  10.310 -0.1070 -0.1180 -0.2502
  215MPD1    H6 3276   4.496   0.130  10.304  0.3459 -0.6720  1.3577
  215MPD1    H7 3277   4.394   0.036  10.218  2.3471 -1.6828  0.0505
  216MPD1     C 3278   2.256   2.000  17.416 -0.1275 -1.2010  0.4216
  216MPD1    C1 3279   2.365   1.952  17.490  0.7247 -1.1785 -0.3897
  216MPD1    C2 3280   2.379   1.815  17.495 -0.1006  1.7043  0.4167
  216MPD1    C3 3281   2.306   1.727  17.417  0.0991 -0.8945  0.3539
  216MPD1    C4 3282   2.217   1.785  17.329 -1.3161  0.2796 -0.0181
  216MPD1    C5 3283   2.179   1.920  17.333 -1.0762 -0.6037  0.4386
  216MPD1     H 3284   2.456   1.771  17.557 -0.6568 -0.1931 -0.2432
  216MPD1    H1 3285   2.149   1.722  17.273  3.2326 -4.2578 -0.4206
  216MPD1    H2 3286   2.223   2.102  17.427  0.9136 -0.5486 -2.4698
  216MPD1    H3 3287   2.107   1.961  17.263 -0.1353 -2.0111 -1.3567
  216MPD1     N 3288   2.336   1.587  17.427  0.7826  0.4138  0.4380
  216MPD1    H5 3289   2.399   1.564  17.504  0.8229 -0.3018  0.1955
  216MPD1    N1 3290   2.428   2.043  17.582 -0.2492  0.8331  0.2383
  216MPD1    H6 3291   2.516   2.007  17.616 -0.8849 -0.9982 -0.0729
  216MPD1    H7 3292   2.443   2.134  17.540  0.1131  0.6237 -0.0733
  217MPD1     C 3293   2.368   2.619   8.401  0.5518 -0.6274 -0.6981
  217MPD1    C1 3294   2.455   2.514   8.422 -0.1984 -0.7556 -0.3699
  217MPD1    C2 3295   2.584   2.543   8.467 -0.1193  0.8628 -0.6618
  217MPD1    C3 3296   2.613   2.676   8.511 -0.6524 -0.1435  0.6716
  217MPD1    C4 3297   2.520   2.773   8.497 -0.3639 -0.0842  0.3401
  217MPD1    C5 3298   2.402   2.745   8.441 -0.0519 -0.3163  0.1238
  217MPD1     H 3299   2.656   2.463   8.482 -0.5554  1.1605  2.8600
  217MPD1    H1 3300   2.531   2.875   8.531 -1.0111 -0.3192  1.2583
  217MPD1    H2 3301   2.272   2.605   8.355  0.3994  1.6037 -1.0496
  217MPD1    H3 3302   2.328   2.824   8.436  0.0122 -0.2833 -0.3185
  217MPD1     N 3303   2.729   2.710   8.587  0.5793 -0.1063  0.0983
  217MPD1    H5 3304   2.732   2.808   8.614 -1.9171  0.2312 -0.8724
  217MPD1    N1 3305   2.423   2.384   8.378 -0.0311  0.1333 -0.4754
  217MPD1    H6 3306   2.451   2.306   8.437 -0.8464  0.4112  0.2896
  217MPD1    H7 3307   2.322   2.374   8.378 -0.0554  0.4317  2.7439
  218MPD1     C 3308   4.171   4.361  12.537 -0.3037 -0.6808  0.0051
  218MPD1    C1 3309   4.280   4.443  12.513 -0.2953 -0.4471 -0.2232
  218MPD1    C2 3310   4.407   4.384  12.503  0.2211 -0.7608 -0.1370
  218MPD1    C3 3311   4.426   4.251  12.549 -0.1435 -0.1323 -0.1103
  218MPD1    C4 3312   4.312   4.181  12.590  0.8993  0.1172  0.0039
  218MPD1    C5 3313   4.188   4.230  12.568  0.0868  0.1597 -0.4018
  218MPD1     H 3314   4.501   4.435  12.482 -0.9668  2.5223  2.4435
  218MPD1    H1 3315   4.316   4.077  12.620 -1.9651 -0.3056 -1.1185
  218MPD1    H2 3316   4.072   4.403  12.524 -1.0366 -2.0380  1.1621
  218MPD1    H3 3317   4.102   4.170  12.594 -1.0065  2.2055  0.6663
  218MPD1     N 3318   4.552   4.191  12.525  0.5758  0.0449  0.3369
  218MPD1    H5 3319   4.623   4.246  12.477  2.2679 -2.2749  0.2070
  218MPD1    N1 3320   4.257   4.569  12.466 -0.3436  0.0200  0.3419
  218MPD1    H6 3321   4.324   4.641  12.492 -0.2357 -0.3930  1.2099
  218MPD1    H7 3322   4.167   4.608  12.493  0.1542  0.4450  1.3703
  219MPD1     C 3323   0.665   4.347  12.078  1.0115 -0.1115  0.2779
  219MPD1    C1 3324   0.552   4.304  12.005 -0.2152  0.9110 -0.3940
  219MPD1    C2 3325   0.444   4.245  12.070  0.2913 -0.0223 -0.2832
  219MPD1    C3 3326   0.454   4.197  12.200 -0.1481 -0.1492  0.3626
  219MPD1    C4 3327   0.572   4.225  12.268 -0.4849  0.5612  0.4907
  219MPD1    C5 3328   0.669   4.302  12.208 -0.9940  0.0076  0.3745
  219MPD1     H 3329   0.348   4.231  12.020  0.7209 -0.1719 -1.0633
  219MPD1    H1 3330   0.583   4.190  12.371 -1.6938  1.9956  1.1040
  219MPD1    H2 3331   0.752   4.379  12.022  0.0108  2.1392  0.0138
  219MPD1    H3 3332   0.758   4.311  12.269 -1.4125  2.3512  0.6174
  219MPD1     N 3333   0.349   4.119  12.264  0.4848 -0.1624 -0.1781
  219MPD1    H5 3334   0.374   4.065  12.345  1.8946  0.0914 -0.4325
  219MPD1    N1 3335   0.543   4.349  11.872  0.4042 -0.0491 -0.1466
  219MPD1    H6 3336   0.637   4.369  11.838  0.7270 -1.8570 -0.2758
  219MPD1    H7 3337   0.499   4.277  11.815  1.7859 -1.1916  0.2496
  220MPD1     C 3338   0.405   0.250   9.136  0.5493 -0.3963 -0.5108
  220MPD1    C1 3339   0.446   0.287   9.260  0.3370 -0.9268 -0.0938
  220MPD1    C2 3340   0.381   0.242   9.373  0.3066  0.1026  0.2858
  220MPD1    C3 3341   0.297   0.134   9.363  0.3199  0.2791  0.8867
  220MPD1    C4 3342   0.263   0.090   9.239  0.0226 -0.1152 -0.2085
  220MPD1    C5 3343   0.310   0.146   9.128 -0.3737  0.2928  0.1223
  220MPD1     H 3344   0.401   0.293   9.467  0.8143  0.1378  0.1549
  220MPD1    H1 3345   0.196   0.007   9.222 -0.4905 -0.2065  2.2297
  220MPD1    H2 3346   0.431   0.293   9.040  1.8235  1.7900  0.8084
  220MPD1    H3 3347   0.269   0.116   9.032  1.8522 -0.2164 -0.6706
  220MPD1     N 3348   0.253   0.078   9.486 -0.9321 -0.5965  0.1766
  220MPD1    H5 3349   0.290   0.127   9.567  0.3795  2.1594 -2.0963
  220MPD1    N1 3350   0.521   0.405   9.275  0.9872  0.1680 -0.2608
  220MPD1    H6 3351   0.585   0.434   9.202  2.9355  0.2601  1.4859
  220MPD1    H7 3352   0.570   0.408   9.364  1.6723  2.6885 -0.7429
  221MPD1     C 3353   3.717   2.547  16.742  0.0030 -1.0032 -0.0591
  221MPD1    C1 3354   3.600   2.496  16.698  0.3524 -0.3715  0.3728
  221MPD1    C2 3355   3.559   2.535  16.574  0.3935 -0.1456 -0.2373
  221MPD1    C3 3356   3.615   2.634  16.494 -0.3069  1.0300  0.5613
  221MPD1    C4 3357   3.735   2.688  16.547 -0.2042  0.9186 -0.5260
  221MPD1    C5 3358   3.788   2.643  16.666 -0.4424  0.1817  0.2309
  221MPD1     H 3359   3.467   2.490  16.538  1.1991 -1.8831 -0.0971
  221MPD1    H1 3360   3.791   2.756  16.484  0.4690 -0.7323 -1.7142
  221MPD1    H2 3361   3.768   2.515  16.832  0.6883  0.6056  0.1264
  221MPD1    H3 3362   3.888   2.676  16.692 -0.2657 -0.3474  0.2142
  221MPD1     N 3363   3.566   2.679  16.370  0.0637  0.8536  0.0619
  221MPD1    H5 3364   3.627   2.747  16.326  0.0016  0.6687 -0.3103
  221MPD1    N1 3365   3.531   2.399  16.759  0.1758  0.3649  0.4620
  221MPD1    H6 3366   3.434   2.382  16.730  0.8303  1.3930 -2.3403
  221MPD1    H7 3367   3.540   2.400  16.860 -0.2443  0.5386  0.4993
  222MPD1     C 3368   4.373   2.324   0.623 -0.3327  0.5727 -0.2586
  222MPD1    C1 3369   4.249   2.263   0.626 -0.0595 -0.6148 -0.0260
  222MPD1    C2 3370   4.173   2.258   0.507  0.6403 -0.1706 -0.4784
  222MPD1    C3 3371   4.224   2.315   0.393 -0.0420 -0.0603 -0.0129
  222MPD1    C4 3372   4.339   2.383   0.402 -0.0718  0.8297 -0.0661
  222MPD1    C5 3373   4.411   2.394   0.519  0.2363 -0.0752  0.0435
  222MPD1     H 3374   4.076   2.210   0.506  0.8016 -0.4192 -3.3820
  222MPD1    H1 3375   4.366   2.438   0.313 -1.8348  0.9598 -0.5108
  222MPD1    H2 3376   4.422   2.339   0.718 -0.8502  1.5516 -0.1440
  222MPD1    H3 3377   4.504   2.449   0.517  0.9687 -1.3754 -1.9772
  222MPD1     N 3378   4.155   2.329   0.267 -0.8070  0.0739 -0.2798
  222MPD1    H5 3379   4.206   2.376   0.194 -0.2716 -0.9732 -0.5711
  222MPD1    N1 3380   4.193   2.210   0.740  0.3179  0.2175 -0.2915
  222MPD1    H6 3381   4.094   2.229   0.750  0.6963  0.7297  2.3848
  222MPD1    H7 3382   4.226   2.256   0.825  0.8552  0.0538 -0.4083
  223MPD1     C 3383   4.335   2.887  17.335  0.9773 -0.5700 -0.2771
  223MPD1    C1 3384   4.223   2.831  17.285  0.1732  0.1494 -0.1549
  223MPD1    C2 3385   4.160   2.734  17.353 -0.0693  0.0804  0.5492
  223MPD1    C3 3386   4.204   2.678  17.469 -0.0405  0.2335  0.1927
  223MPD1    C4 3387   4.314   2.747  17.521 -0.1806  0.4107  0.7555
  223MPD1    C5 3388   4.385   2.847  17.454 -0.5092  0.2849  0.6574
  223MPD1     H 3389   4.081   2.686  17.298 -0.4597 -3.0283  3.8122
  223MPD1    H1 3390   4.342   2.708  17.618  2.6657  1.7949  0.5104
  223MPD1    H2 3391   4.381   2.968  17.281 -1.8806  0.4419 -1.2094
  223MPD1    H3 3392   4.482   2.886  17.482  1.2336 -3.0142 -0.7605
  223MPD1     N 3393   4.137   2.583  17.551 -0.0448  0.4831 -0.3563
  223MPD1    H5 3394   4.167   2.578  17.647  2.7130 -0.7137 -1.2577
  223MPD1    N1 3395   4.173   2.876  17.155 -0.1511  0.1313 -0.0904
  223MPD1    H6 3396   4.120   2.803  17.109 -0.9253  1.4138 -1.2459
  223MPD1    H7 3397   4.247   2.899  17.090 -0.8513  0.3871 -0.7896
  224MPD1     C 3398   4.021   3.997   8.998 -0.3913 -0.0528 -0.1848
  224MPD1    C1 3399   3.926   4.065   9.082  0.7408 -0.0284 -0.1539
  224MPD1    C2 3400   3.873   3.989   9.185  0.4627  0.0263  0.4147
  224MPD1    C3 3401   3.901   3.853   9.210 -0.1237  0.2817 -0.4633
  224MPD1    C4 3402   4.004   3.797   9.136 -0.2791  0.1539  0.1795
  224MPD1    C5 3403   4.056   3.872   9.032  0.6164  0.0288 -0.0315
  224MPD1     H 3404   3.802   4.047   9.244 -0.7329  1.3324 -2.3219
  224MPD1    H1 3405   4.052   3.702   9.153 -0.1196  0.1632 -0.2263
  224MPD1    H2 3406   4.065   4.043   8.910 -1.5848 -1.9280 -1.7534
  224MPD1    H3 3407   4.131   3.825   8.970 -0.5359 -3.5296  1.2888
  224MPD1     N 3408   3.843   3.775   9.318  0.2205  0.0781 -0.3575
  224MPD1    H5 3409   3.892   3.688   9.337  0.4430  0.7698  2.3080
  224MPD1    N1 3410   3.894   4.201   9.062  0.1095 -0.6913 -0.4247
  224MPD1    H6 3411   3.896   4.232   8.965  0.0254 -1.5109 -0.6853
  224MPD1    H7 3412   3.800   4.221   9.098  0.2032 -0.2046 -0.4459
  225MPD1     C 3413   4.429   0.120  12.813 -0.6878  0.3464 -0.4282
  225MPD1    C1 3414   4.495   0.160  12.696  0.1303 -0.0034  0.1669
  225MPD1    C2 3415   4.428   0.175  12.577 -0.7279 -0.4155  0.1358
  225MPD1    C3 3416   4.289   0.161  12.574 -0.4126 -0.6141 -0.3065
  225MPD1    C4 3417   4.227   0.105  12.682  0.0824  0.3331 -0.5037
  225MPD1    C5 3418   4.291   0.096  12.806  0.3141 -0.5047  0.0762
  225MPD1     H 3419   4.484   0.199  12.487 -1.6831  0.9963 -0.0908
  225MPD1    H1 3420   4.122   0.080  12.682  0.3032 -0.6052  0.8384
  225MPD1    H2 3421   4.484   0.088  12.901 -0.1318 -0.1505 -0.9561
  225MPD1    H3 3422   4.242   0.059  12.895 -0.7906 -2.1974 -1.2269
  225MPD1     N 3423   4.212   0.186  12.458  0.2352 -1.0152  0.3513
  225MPD1    H5 3424   4.122   0.141  12.458 -1.2116  1.9146  3.1789
  225MPD1    N1 3425   4.635   0.169  12.691  0.2592 -0.5660 -0.1282
  225MPD1    H6 3426   4.676   0.222  12.767 -0.1157 -0.5611  0.0691
  225MPD1    H7 3427   4.674   0.214  12.608 -1.8025 -0.7069 -1.1994
  226MPD1     C 3428   3.990   0.625   8.995 -0.0948  0.5885 -0.3511
  226MPD1    C1 3429   3.877   0.650   8.924 -0.4774  0.4981 -0.0218
  226MPD1    C2 3430   3.766   0.570   8.956  0.0376  0.3844 -0.3059
  226MPD1    C3 3431   3.777   0.466   9.041  0.5877  0.5290 -0.1691
  226MPD1    C4 3432   3.890   0.438   9.115  0.5379 -0.3244  0.1299
  226MPD1    C5 3433   3.991   0.522   9.086 -0.0373  0.7330 -0.0571
  226MPD1     H 3434   3.665   0.597   8.927 -0.1621 -0.7519 -0.6550
  226MPD1    H1 3435   3.902   0.364   9.194  0.6936 -1.0876 -0.6122
  226MPD1    H2 3436   4.080   0.685   8.987 -1.0306  2.1619  0.7903
  226MPD1    H3 3437   4.080   0.505   9.144 -1.0479  0.4497  1.4000
  226MPD1     N 3438   3.654   0.392   9.060 -0.0219 -0.7041  0.1051
  226MPD1    H5 3439   3.582   0.431   9.000 -2.2112 -0.2267  3.0397
  226MPD1    N1 3440   3.864   0.770   8.847  0.2582 -0.2509  0.8231
  226MPD1    H6 3441   3.952   0.798   8.803  1.8170 -1.0242  3.4878
  226MPD1    H7 3442   3.790   0.768   8.776  0.1346  3.7373  0.8214
  227MPD1     C 3443   2.680   0.488   9.230  0.6262  0.2754  0.3963
  227MPD1    C1 3444   2.678   0.372   9.155 -0.1609  0.7330  0.3365
  227MPD1    C2 3445   2.797   0.315   9.131  0.1060  0.4712 -0.6065
  227MPD1    C3 3446   2.919   0.359   9.177  0.0948 -0.3861 -0.3846
  227MPD1    C4 3447   2.916   0.465   9.271 -0.6101 -0.0509 -0.3215
  227MPD1    C5 3448   2.795   0.527   9.292  0.2020  0.7232 -0.0953
  227MPD1     H 3449   2.811   0.240   9.053 -0.6957 -0.0141 -0.2753
  227MPD1    H1 3450   3.000   0.508   9.323 -1.8513  1.0383  0.7771
  227MPD1    H2 3451   2.596   0.554   9.246 -0.1011 -0.3261 -0.9231
  227MPD1    H3 3452   2.776   0.621   9.343 -1.2823 -0.9189  2.4241
  227MPD1     N 3453   3.033   0.290   9.135  0.4885  0.5488  0.4415
  227MPD1    H5 3454   3.016   0.209   9.076  2.1974  1.2245 -0.9950
  227MPD1    N1 3455   2.559   0.347   9.092  0.7104 -0.6226 -0.1546
  227MPD1    H6 3456   2.484   0.384   9.150  0.7483  1.5757 -1.4950
  227MPD1    H7 3457   2.538   0.249   9.074 -2.2104 -0.0740  0.2528
  228MPD1     C 3458   1.933   2.252  12.806  0.1094  0.4886  0.8047
  228MPD1    C1 3459   1.882   2.355  12.738  0.6373  0.8676  0.0507
  228MPD1    C2 3460   1.754   2.402  12.768 -0.0771  0.2906  0.4931
  228MPD1    C3 3461   1.694   2.361  12.884  0.3727 -0.1066  0.3420
  228MPD1    C4 3462   1.746   2.259  12.957  0.1544  0.5785 -0.5732
  228MPD1    C5 3463   1.860   2.210  12.911  0.0447  0.1107 -0.0910
  228MPD1     H 3464   1.695   2.476  12.714 -0.0543  0.1818  0.3189
  228MPD1    H1 3465   1.699   2.208  13.039  2.9276  1.1955  1.3949
  228MPD1    H2 3466   2.033   2.218  12.779 -0.9263 -1.3328 -0.8072
  228MPD1    H3 3467   1.914   2.134  12.966  2.5987  2.1597  0.2357
  228MPD1     N 3468   1.576   2.425  12.925 -0.7696  0.8826  0.4435
  228MPD1    H5 3469   1.553   2.515  12.883 -0.9487  0.5110 -0.2624
  228MPD1    N1 3470   1.946   2.401  12.624 -0.0839 -0.2167 -0.6162
  228MPD1    H6 3471   1.926   2.497  12.599  1.2711  0.0184 -0.7991
  228MPD1    H7 3472   2.046   2.386  12.616  0.0670  0.4911 -0.0044
  229MPD1     C 3473   1.020   1.452  14.593  0.6646  0.2221 -0.6562
  229MPD1    C1 3474   0.989   1.328  14.540  0.0410 -0.3762  0.6031
  229MPD1    C2 3475   1.030   1.215  14.613  0.3015  0.1407  0.4121
  229MPD1    C3 3476   1.107   1.235  14.726  0.1823 -0.3279 -0.0005
  229MPD1    C4 3477   1.136   1.364  14.776 -0.4570  0.0857 -0.2737
  229MPD1    C5 3478   1.090   1.472  14.711 -0.4573 -0.1784  0.7268
  229MPD1     H 3479   1.004   1.113  14.584 -1.7962  1.0649 -0.9616
  229MPD1    H1 3480   1.181   1.377  14.873  2.1312 -0.9583 -1.3271
  229MPD1    H2 3481   0.989   1.538  14.535  1.3173  0.9837  0.1411
  229MPD1    H3 3482   1.123   1.571  14.743 -1.2283  0.3003  0.0576
  229MPD1     N 3483   1.158   1.119  14.795  0.7417 -0.5569 -0.0794
  229MPD1    H5 3484   1.191   1.135  14.889  0.2758 -1.9786  0.3239
  229MPD1    N1 3485   0.889   1.310  14.443  0.2413  0.0300 -0.0328
  229MPD1    H6 3486   0.907   1.224  14.390  2.6680 -0.2271  1.1965
  229MPD1    H7 3487   0.879   1.390  14.382 -1.2535  1.0053  1.5216
  230MPD1     C 3488   1.677   0.790  15.575 -0.4581  0.5878  0.1921
  230MPD1    C1 3489   1.618   0.678  15.532 -0.2143  0.1035 -0.0031
  230MPD1    C2 3490   1.531   0.673  15.420 -0.2270 -0.2020  0.1857
  230MPD1    C3 3491   1.505   0.800  15.360 -0.0192 -0.7717  1.3166
  230MPD1    C4 3492   1.572   0.910  15.398 -0.4602 -0.3765 -0.1095
  230MPD1    C5 3493   1.647   0.911  15.513 -0.1867  0.0052  0.2734
  230MPD1     H 3494   1.496   0.577  15.384  0.9421 -0.6095  0.1106
  230MPD1    H1 3495   1.570   1.010  15.355 -1.6604  0.0820  1.0145
  230MPD1    H2 3496   1.754   0.788  15.651 -0.9632 -1.0531  0.6758
  230MPD1    H3 3497   1.692   1.003  15.549 -0.8646  0.0061  1.1194
  230MPD1     N 3498   1.433   0.788  15.246 -0.2214 -0.1006 -0.0191
  230MPD1    H5 3499   1.412   0.694  15.214 -1.3101 -0.0162  0.4331
  230MPD1    N1 3500   1.628   0.564  15.617  0.4096  0.9180 -0.0638
  230MPD1    H6 3501   1.614   0.477  15.566  1.6184 -0.3461  1.7595
  230MPD1    H7 3502   1.712   0.548  15.673  1.3472  1.4994 -1.2958
  231MPD1     C 3503   4.417   2.596  15.390  0.4331  0.1605  0.5611
  231MPD1    C1 3504   4.440   2.549  15.261 -0.1959  0.4787 -0.3495
  231MPD1    C2 3505   4.508   2.635  15.173  0.0820 -0.3094  0.2466
  231MPD1    C3 3506   4.551   2.766  15.217  0.0347 -0.0958 -0.2438
  231MPD1    C4 3507   4.528   2.798  15.348  0.4423 -1.1310  0.5732
  231MPD1    C5 3508   4.467   2.715  15.436 -0.1603  0.1708 -0.6283
  231MPD1     H 3509   4.549   2.591  15.083 -0.1466 -0.1492  0.0646
  231MPD1    H1 3510   4.546   2.895  15.392 -0.6122 -0.7292  0.1158
  231MPD1    H2 3511   4.380   2.526  15.465 -1.2095 -0.2828 -0.6608
  231MPD1    H3 3512   4.458   2.761  15.534  0.6964  1.9548 -1.3869
  231MPD1     N 3513   4.634   2.844  15.140  0.4578 -0.1648  0.1287
  231MPD1    H5 3514   4.647   2.806  15.047 -0.7208 -0.2260 -0.0130
  231MPD1    N1 3515   4.407   2.417  15.220  0.3588 -0.0774  0.5128
  231MPD1    H6 3516   4.397   2.344  15.290  3.1231  2.0240  3.0600
  231MPD1    H7 3517   4.480   2.393  15.152  0.8459  1.5414  0.4788
  232MPD1     C 3518   2.825   4.610   0.074 -0.8131  0.7818 -0.0877
  232MPD1    C1 3519   2.883   4.661   0.186 -0.3961 -0.0889  0.4811
  232MPD1    C2 3520   2.817   0.038   0.254  0.8168 -0.1427  0.0929
  232MPD1    C3 3521   2.682   0.060   0.227  0.3536 -0.7469  0.0922
  232MPD1    C4 3522   2.619   4.719   0.123  0.1843 -0.1994 -0.0446
  232MPD1    C5 3523   2.691   4.633   0.048 -0.9352  0.5844 -0.1861
  232MPD1     H 3524   2.870   0.095   0.329 -0.1638  0.2815  0.4644
  232MPD1    H1 3525   2.514   0.009   0.102 -0.3590 -0.1968  2.6483
  232MPD1    H2 3526   2.872   4.532   0.015  1.0859  1.6023  0.3151
  232MPD1    H3 3527   2.648   4.584  17.663 -1.5132 -1.2919  1.1570
  232MPD1     N 3528   2.615   0.171   0.296  0.2946 -0.2735  0.7270
  232MPD1    H5 3529   2.681   0.229   0.347 -1.0568  1.3634  0.6071
  232MPD1    N1 3530   3.019   4.638   0.212 -0.3935  0.4022  0.2594
  232MPD1    H6 3531   3.036   4.652   0.312 -1.1484 -0.8329  0.5574
  232MPD1    H7 3532   3.057   4.547   0.185 -1.4778  0.2559 -0.7521
  233MPD1     C 3533   2.966   3.848   1.883 -0.3850 -0.2037  0.0314
  233MPD1    C1 3534   2.857   3.767   1.907 -0.0582 -0.5557 -0.4504
  233MPD1    C2 3535   2.844   3.641   1.850  0.6204 -0.0296  0.6688
  233MPD1    C3 3536   2.958   3.596   1.781  0.4645  0.4011 -0.5033
  233MPD1    C4 3537   3.063   3.681   1.747 -0.0805 -0.3690 -0.6895
  233MPD1    C5 3538   3.061   3.804   1.796  0.8553  0.1679 -0.0120
  233MPD1     H 3539   2.764   3.574   1.880  0.0694  0.2632 -0.1545
  233MPD1    H1 3540   3.149   3.648   1.690 -0.1825  0.7664 -1.4913
  233MPD1    H2 3541   2.975   3.948   1.921 -0.1082 -0.4685  0.6595
  233MPD1    H3 3542   3.141   3.871   1.766 -1.9203  2.8592 -1.4067
  233MPD1     N 3543   2.965   3.468   1.719  0.1627  0.7742  0.3910
  233MPD1    H5 3544   3.048   3.446   1.667 -0.5896  0.1494 -0.5393
  233MPD1    N1 3545   2.765   3.805   2.005 -0.1183 -0.0909 -0.8714
  233MPD1    H6 3546   2.669   3.780   1.984 -0.4268 -1.0038  1.5987
  233MPD1    H7 3547   2.771   3.904   2.027 -0.8854 -0.4345  0.8276
  234MPD1     C 3548   4.660   2.248   9.301  0.0687 -0.0156  0.2547
  234MPD1    C1 3549   4.640   2.363   9.372  0.0427 -0.3760 -0.0167
  234MPD1    C2 3550   4.509   2.420   9.375  0.0274  1.0460  0.2004
  234MPD1    C3 3551   4.420   2.382   9.279  0.0300  0.7927 -0.7480
  234MPD1    C4 3552   4.456   2.279   9.190  0.4420  0.0341  0.4082
  234MPD1    C5 3553   4.574   2.213   9.206 -0.2201 -0.0351  0.0335
  234MPD1     H 3554   4.494   2.496   9.451  1.4868  0.9002  0.6367
  234MPD1    H1 3555   4.400   2.251   9.101  0.3359 -0.9099  0.7741
  234MPD1    H2 3556   0.031   2.198   9.303  1.1770  2.1877  3.2720
  234MPD1    H3 3557   4.615   2.140   9.137 -3.2047 -0.9490 -0.8093
  234MPD1     N 3558   4.298   2.448   9.286 -0.2158 -0.1095 -0.2800
  234MPD1    H5 3559   4.284   2.510   9.365  0.9392 -1.7264  1.2008
  234MPD1    N1 3560   0.012   2.409   9.464  0.0965 -0.7572 -0.4785
  234MPD1    H6 3561   0.002   2.503   9.500 -0.8512 -1.6526  1.5875
  234MPD1    H7 3562   0.108   2.397   9.432  1.3224 -2.6353  3.8433
  235MPD1     C 3563   0.724   0.475  10.222 -0.2237  0.5126 -0.4193
  235MPD1    C1 3564   0.703   0.382  10.125  0.2727 -0.9133  0.4931
  235MPD1    C2 3565   0.772   0.395  10.004 -0.7703 -0.7340 -0.1786
  235MPD1    C3 3566   0.872   0.487   9.978 -0.6902 -0.3834 -0.2404
  235MPD1    C4 3567   0.889   0.584  10.075  0.0266  0.5128 -0.2780
  235MPD1    C5 3568   0.812   0.575  10.191 -0.1996  0.2484  0.2827
  235MPD1     H 3569   0.753   0.314   9.935  0.4601 -1.5137  0.3850
  235MPD1    H1 3570   0.949   0.674  10.065  0.6648  0.3376  2.0263
  235MPD1    H2 3571   0.670   0.489  10.315 -1.4216 -0.7128 -0.9400
  235MPD1    H3 3572   0.831   0.651  10.266  1.8371  2.5955 -2.6308
  235MPD1     N 3573   0.939   0.469   9.853 -0.9964 -0.3793  0.0571
  235MPD1    H5 3574   0.910   0.395   9.791  0.7421 -0.2773 -0.8705
  235MPD1    N1 3575   0.599   0.285  10.144 -0.0734 -0.3012 -0.3582
  235MPD1    H6 3576   0.590   0.265  10.243  0.4086  0.3700 -0.1724
  235MPD1    H7 3577   0.621   0.198  10.096  1.1666  0.9979 -2.1587
  236MPD1     C 3578   0.084   1.549   9.517 -0.2903  0.8789  0.3104
  236MPD1    C1 3579   0.064   1.410   9.505  0.0218  0.5010 -0.1191
  236MPD1    C2 3580   0.126   1.320   9.581  0.1962 -0.1206  0.8774
  236MPD1    C3 3581   0.222   1.365   9.663  0.3411 -0.5412 -0.0029
  236MPD1    C4 3582   0.253   1.500   9.678 -0.2912 -0.0524  0.2555
  236MPD1    C5 3583   0.180   1.596   9.610  0.5903 -0.1298  0.4746
  236MPD1     H 3584   0.103   1.214   9.573  3.9963 -0.7986 -0.9721
  236MPD1    H1 3585   0.316   1.532   9.761 -1.2149  0.0739  0.9148
  236MPD1    H2 3586   0.024   1.619   9.460 -0.3246  2.0790  1.8186
  236MPD1    H3 3587   0.207   1.700   9.599 -0.8879  0.3786  1.7503
  236MPD1     N 3588   0.296   1.285   9.756 -0.1409 -0.6207  0.2077
  236MPD1    H5 3589   0.368   1.332   9.810 -0.2679 -0.1376 -0.0420
  236MPD1    N1 3590   4.691   1.361   9.411 -0.6907 -0.2904 -0.1998
  236MPD1    H6 3591   0.001   1.273   9.372 -1.6466 -1.5382  1.7556
  236MPD1    H7 3592   4.688   1.430   9.337  1.5590  1.7852  1.6600
  237MPD1     C 3593   0.007   0.005  15.464 -0.2406  0.3153  0.4369
  237MPD1    C1 3594   4.710   0.019  15.326  0.0230 -0.3866 -0.2241
  237MPD1    C2 3595   4.658   4.634  15.253  0.1708  0.5737 -0.4622
  237MPD1    C3 3596   4.650   4.513  15.320  0.0660  0.0097  0.0419
  237MPD1    C4 3597   4.667   4.499  15.458  0.6870 -0.6994 -0.1734
  237MPD1    C5 3598   4.707   4.611  15.528  0.1484 -1.1662 -0.0183
  237MPD1     H 3599   4.621   4.635  15.151 -0.2101 -0.1931 -0.3349
  237MPD1    H1 3600   4.656   4.409  15.517 -0.5622 -0.4929 -0.0936
  237MPD1    H2 3601   0.033   0.086  15.531 -0.1349  0.5842  0.0733
  237MPD1    H3 3602   4.701   4.607  15.636 -0.9921  1.3071  0.0283
  237MPD1     N 3603   4.628   4.388  15.253 -0.2848  0.2114 -0.1818
  237MPD1    H5 3604   4.617   4.308  15.314  2.6456  0.2055  0.3243
  237MPD1    N1 3605   0.003   0.154  15.280  0.2916  0.1894  0.2766
  237MPD1    H6 3606   0.031   0.161  15.182 -0.2433 -1.0523  0.0226
  237MPD1    H7 3607   0.079   0.199  15.330 -0.1530  0.4455  0.7196
  238MPD1     C 3608   1.240   2.266  15.361 -0.3397  0.5460  0.3065
  238MPD1    C1 3609   1.128   2.236  15.288 -0.1910 -0.0064 -0.0027
  238MPD1    C2 3610   1.065   2.336  15.224 -0.3108 -0.0231  0.0526
  238MPD1    C3 3611   1.125   2.463  15.211 -0.0658 -0.2950 -0.2590
  238MPD1    C4 3612   1.235   2.492  15.284  0.1166 -0.4209 -0.3644
  238MPD1    C5 3613   1.288   2.400  15.367 -0.4414  0.0851 -0.0171
  238MPD1     H 3614   0.982   2.310  15.159  0.4471 -2.8721  0.2075
  238MPD1    H1 3615   1.288   2.585  15.267  0.8469 -0.7703  0.0108
  238MPD1    H2 3616   1.315   2.199  15.403 -0.0625  0.5218 -0.2334
  238MPD1    H3 3617   1.382   2.433  15.409  0.0842  1.7025 -2.5044
  238MPD1     N 3618   1.069   2.544  15.105 -0.3897 -0.7783  0.1636
  238MPD1    H5 3619   0.993   2.505  15.049 -0.0716 -1.6438  0.3277
  238MPD1    N1 3620   1.088   2.105  15.276 -0.0378  0.0650 -0.1092
  238MPD1    H6 3621   0.988   2.088  15.263  0.1813 -1.4868  0.1483
  238MPD1    H7 3622   1.100   2.054  15.364 -2.8454 -0.8785 -0.2522
  239MPD1     C 3623   1.757   4.368  14.272  0.4372  0.4834  0.3761
  239MPD1    C1 3624   1.721   4.242  14.232 -0.2113  0.1054  0.4158
  239MPD1    C2 3625   1.609   4.225  14.161 -0.4851 -0.1446 -0.1004
  239MPD1    C3 3626   1.549   4.321  14.093 -0.3757 -0.3683  0.2232
  239MPD1    C4 3627   1.596   4.450  14.114  0.4259  0.3903  0.3884
  239MPD1    C5 3628   1.697   4.468  14.205  0.4144 -0.6554  0.0725
  239MPD1     H 3629   1.565   4.126  14.162 -0.6378 -0.0726  1.1405
  239MPD1    H1 3630   1.560   4.541  14.068  1.3697 -0.3487 -1.8092
  239MPD1    H2 3631   1.817   4.394  14.358  5.2142  0.8310 -3.0466
  239MPD1    H3 3632   1.714   4.572  14.229 -0.6749 -0.7632  1.3116
  239MPD1     N 3633   1.447   4.296  14.009 -0.1094  0.4087 -0.6122
  239MPD1    H5 3634   1.410   4.378  13.964 -0.3774  0.1478 -0.8630
  239MPD1    N1 3635   1.776   4.139  14.306  0.2046  0.4405 -0.5140
  239MPD1    H6 3636   1.769   4.057  14.247  2.2064 -0.2516  0.2084
  239MPD1    H7 3637   1.873   4.158  14.329 -0.1875  0.4010  1.2218
  240MPD1     C 3638   0.977   3.907  13.977 -0.8705  0.2593 -0.5434
  240MPD1    C1 3639   0.957   3.788  13.910  0.1786 -0.3003 -1.1734
  240MPD1    C2 3640   1.014   3.675  13.971 -0.2309 -0.2977  0.2683
  240MPD1    C3 3641   1.082   3.677  14.099 -0.8811  0.0781 -0.2923
  240MPD1    C4 3642   1.081   3.801  14.168  0.0768  0.4823  0.2600
  240MPD1    C5 3643   1.020   3.914  14.105  0.0838  0.2246 -0.1193
  240MPD1     H 3644   0.994   3.576  13.933 -0.1373  0.2687 -1.2434
  240MPD1    H1 3645   1.134   3.814  14.262 -0.5815 -1.9624  0.9765
  240MPD1    H2 3646   0.958   4.003  13.930  2.0933  0.1903 -1.8952
  240MPD1    H3 3647   1.047   4.013  14.139 -1.8159  0.7358 -0.1390
  240MPD1     N 3648   1.126   3.560  14.159 -0.3543  0.1575  0.0239
  240MPD1    H5 3649   1.115   3.481  14.096  1.0114  0.7979 -1.0258
  240MPD1    N1 3650   0.914   3.784  13.778  0.5990  0.3390 -0.8065
  240MPD1    H6 3651   0.857   3.860  13.742  0.9950  0.5096 -1.0674
  240MPD1    H7 3652   0.871   3.695  13.754 -0.1954 -0.0230  1.9150
  241MPD1     C 3653   1.385   3.323  15.115 -0.7594 -0.3880  0.2852
  241MPD1    C1 3654   1.313   3.218  15.071 -0.1140 -0.1139  0.5995
  241MPD1    C2 3655   1.262   3.225  14.940  0.3279  0.0547 -0.9375
  241MPD1    C3 3656   1.256   3.349  14.874  0.4335 -0.0643 -0.2760
  241MPD1    C4 3657   1.314   3.456  14.925  0.6533 -0.5422 -0.1801
  241MPD1    C5 3658   1.380   3.444  15.048 -0.5423 -0.2639 -0.4179
  241MPD1     H 3659   1.231   3.135  14.888 -1.5335  0.8288 -1.1791
  241MPD1    H1 3660   1.320   3.547  14.868 -1.5932  0.5510  1.3159
  241MPD1    H2 3661   1.439   3.324  15.208  0.0000 -0.3342 -0.1581
  241MPD1    H3 3662   1.432   3.531  15.086  0.0124  0.1256 -2.0650
  241MPD1     N 3663   1.198   3.365  14.746 -0.6394  0.1579  0.1107
  241MPD1    H5 3664   1.210   3.459  14.710 -2.1924  0.3983  0.1918
  241MPD1    N1 3665   1.327   3.088  15.130 -0.0895  0.4056 -0.6225
  241MPD1    H6 3666   1.240   3.036  15.125 -1.1429  2.1583 -0.4519
  241MPD1    H7 3667   1.341   3.100  15.230 -0.7145 -0.3460 -0.4528
  242MPD1     C 3668   0.438   2.344  15.138  0.6940 -0.3249 -0.9524
  242MPD1    C1 3669   0.490   2.268  15.239 -0.4189 -0.2377  0.6170
  242MPD1    C2 3670   0.594   2.182  15.211 -0.1271  0.9161 -0.0604
  242MPD1    C3 3671   0.628   2.156  15.075  0.2307 -0.3874  0.2108
  242MPD1    C4 3672   0.571   2.230  14.977  0.0575  0.1283 -0.0508
  242MPD1    C5 3673   0.482   2.324  15.012  0.6979  0.5921  0.1356
  242MPD1     H 3674   0.629   2.117  15.290 -1.0247  0.6689  0.1348
  242MPD1    H1 3675   0.610   2.214  14.877  1.4967  0.8462  0.3953
  242MPD1    H2 3676   0.368   2.425  15.154  1.0766  0.4806 -3.3328
  242MPD1    H3 3677   0.450   2.390  14.932  1.4267  0.3779 -0.3301
  242MPD1     N 3678   0.713   2.051  15.034 -0.5352  0.1803 -0.4184
  242MPD1    H5 3679   0.713   2.036  14.934 -1.0823 -1.0627 -0.2328
  242MPD1    N1 3680   0.454   2.302  15.375 -0.1085 -0.7745 -0.1833
  242MPD1    H6 3681   0.356   2.330  15.374 -0.6432 -2.6268  0.9620
  242MPD1    H7 3682   0.467   2.220  15.434 -0.7668 -1.6593 -1.2555
  243MPD1     C 3683   1.974   3.927  17.375 -0.6681 -0.3670  0.1813
  243MPD1    C1 3684   2.077   3.833  17.375  0.3260 -0.0670 -0.1097
  243MPD1    C2 3685   2.191   3.850  17.301  0.1481 -0.2552 -0.0847
  243MPD1    C3 3686   2.192   3.961  17.228  0.0570 -0.2878 -0.0041
  243MPD1    C4 3687   2.089   4.049  17.216  0.6019  0.3867  0.7540
  243MPD1    C5 3688   1.981   4.031  17.294 -0.1721  0.4296  0.7789
  243MPD1     H 3689   2.267   3.775  17.288  0.7067  0.0047  1.7610
  243MPD1    H1 3690   2.083   4.125  17.140 -0.1789  1.5347  1.9660
  243MPD1    H2 3691   1.877   3.908  17.421 -2.1220  0.0396 -2.7257
  243MPD1    H3 3692   1.897   4.100  17.292  0.5293  1.3448  2.5907
  243MPD1     N 3693   2.315   3.974  17.146 -0.5892  0.5313  0.2801
  243MPD1    H5 3694   2.379   3.896  17.136 -0.4443  0.6878 -0.0053
  243MPD1    N1 3695   2.047   3.713  17.437 -0.5868  0.4881 -0.1317
  243MPD1    H6 3696   2.125   3.654  17.466 -2.2262 -1.8414 -0.3897
  243MPD1    H7 3697   2.004   3.732  17.528  1.2207 -0.4890  0.9159
  244MPD1     C 3698   2.822   3.456  16.465 -0.3601 -0.6322  0.7747
  244MPD1    C1 3699   2.909   3.543  16.529 -0.3252 -0.1752  0.2144
  244MPD1    C2 3700   2.859   3.636  16.619  0.4720  0.4073 -0.1491
  244MPD1    C3 3701   2.723   3.662  16.629 -0.4307  0.4653 -0.6398
  244MPD1    C4 3702   2.638   3.582  16.558 -0.0580  0.6948 -0.0049
  244MPD1    C5 3703   2.687   3.485  16.480 -0.0275  0.4042  0.5754
  244MPD1     H 3704   2.922   3.696  16.685  0.7274 -1.8225  1.6461
  244MPD1    H1 3705   2.530   3.596  16.562  0.1466  2.4898 -0.6078
  244MPD1    H2 3706   2.857   3.390  16.387 -0.2036 -0.5266  0.7538
  244MPD1    H3 3707   2.621   3.413  16.433  0.3057  1.6566 -1.7715
  244MPD1     N 3708   2.681   3.762  16.721  0.1321  1.2359 -0.5073
  244MPD1    H5 3709   2.765   3.804  16.759  0.1310  1.9687 -1.3164
  244MPD1    N1 3710   3.045   3.523  16.522  0.0860  0.4162 -0.6597
  244MPD1    H6 3711   3.063   3.514  16.422  0.2619  0.1414 -0.6050
  244MPD1    H7 3712   3.089   3.611  16.547 -0.2580 -0.3302  2.5551
  245MPD1     C 3713   3.494   0.803  13.087 -0.0637 -0.5029  0.7905
  245MPD1    C1 3714   3.458   0.939  13.080 -0.1873 -0.2506  0.0398
  245MPD1    C2 3715   3.565   1.028  13.067  0.3998  0.4349  0.2697
  245MPD1    C3 3716   3.692   0.989  13.050  0.3439 -0.0686  0.2145
  245MPD1    C4 3717   3.722   0.853  13.044  0.2703 -0.1932  0.3859
  245MPD1    C5 3718   3.620   0.763  13.057  0.7116 -0.7052 -0.5215
  245MPD1     H 3719   3.546   1.134  13.054  0.9023  0.7310  1.9888
  245MPD1    H1 3720   3.822   0.817  13.028 -0.1567 -2.1336  2.1511
  245MPD1    H2 3721   3.424   0.723  13.110 -1.6528 -0.0675 -2.5632
  245MPD1    H3 3722   3.632   0.656  13.059  0.9276 -0.6589  1.3449
  245MPD1     N 3723   3.788   1.093  13.021 -0.1091  0.4802  0.1343
  245MPD1    H5 3724   3.755   1.189  13.017  1.7773  1.1361  0.1972
  245MPD1    N1 3725   3.324   0.978  13.094  0.7456 -0.3229 -0.0348
  245MPD1    H6 3726   3.304   1.026  13.182 -0.4113  0.8644 -0.9567
  245MPD1    H7 3727   3.269   0.893  13.088  1.6164 -1.0089  1.6111
  246MPD1     C 3728   0.619   3.145   9.774  0.0010 -0.2247 -0.0968
  246MPD1    C1 3729   0.648   3.022   9.832  1.0438 -0.0886 -0.9495
  246MPD1    C2 3730   0.673   2.914   9.743 -0.6058  0.2780 -0.1613
  246MPD1    C3 3731   0.661   2.922   9.607 -0.4530 -0.0649  0.3153
  246MPD1    C4 3732   0.606   3.043   9.557 -0.2473  0.8844  1.0199
  246MPD1    C5 3733   0.591   3.149   9.643  0.1206  0.4514  0.2673
  246MPD1     H 3734   0.714   2.819   9.775  0.9096  0.5274 -1.3970
  246MPD1    H1 3735   0.607   3.069   9.451  1.4995 -0.0913  0.8032
  246MPD1    H2 3736   0.628   3.237   9.830 -1.2245  1.6427 -2.9787
  246MPD1    H3 3737   0.580   3.248   9.600  0.9488  1.3432  2.1060
  246MPD1     N 3738   0.688   2.812   9.524  0.6064  0.7455 -0.0443
  246MPD1    H5 3739   0.731   2.734   9.574 -1.1982  0.5577  1.2084
  246MPD1    N1 3740   0.644   3.009   9.971 -0.3792  0.1585 -0.0760
  246MPD1    H6 3741   0.703   2.942  10.020 -0.8563 -0.3904 -0.2596
  246MPD1    H7 3742   0.672   3.100  10.008 -2.2304  0.6310  0.1178
  247MPD1     C 3743   3.905   0.431  16.695 -0.4125 -0.3550  0.1480
  247MPD1    C1 3744   3.890   0.549  16.626 -0.1921  0.2072 -0.0916
  247MPD1    C2 3745   3.910   0.553  16.495 -0.1112  0.6835  0.3662
  247MPD1    C3 3746   3.953   0.436  16.431 -0.3036 -0.7841 -0.3211
  247MPD1    C4 3747   3.948   0.315  16.498  0.0735  0.1857 -0.1789
  247MPD1    C5 3748   3.928   0.312  16.634  0.3245  0.1912 -0.4844
  247MPD1     H 3749   3.882   0.645  16.445 -1.2943  0.3584  0.4285
  247MPD1    H1 3750   3.955   0.222  16.442 -1.8176  1.1215 -1.9591
  247MPD1    H2 3751   3.884   0.420  16.801 -1.6465 -5.6677 -0.6634
  247MPD1    H3 3752   3.917   0.222  16.693 -1.6579 -0.0692 -1.2399
  247MPD1     N 3753   3.970   0.425  16.292  0.4344 -0.0981  0.3998
  247MPD1    H5 3754   3.975   0.329  16.258 -0.7649 -0.0281  0.0152
  247MPD1    N1 3755   3.889   0.675  16.687  0.7463  0.1944  0.0575
  247MPD1    H6 3756   3.839   0.748  16.636 -2.3897 -1.6278  0.5103
  247MPD1    H7 3757   3.850   0.658  16.779  1.1855 -0.9027  0.0351
  248MPD1     C 3758   4.245   3.798   0.043  0.2893 -0.5370 -0.5416
  248MPD1    C1 3759   4.347   3.832   0.127  0.1962  0.6398  0.7294
  248MPD1    C2 3760   4.349   3.959   0.175 -0.2916  0.3937 -0.2312
  248MPD1    C3 3761   4.255   4.048   0.140 -0.2538  0.0405 -0.7054
  248MPD1    C4 3762   4.153   4.015   0.050  0.6141 -0.3760 -0.3475
  248MPD1    C5 3763   4.155   3.890  17.698 -0.4357 -0.1362 -0.5479
  248MPD1     H 3764   4.423   4.000   0.242 -0.7152 -1.8817  1.6127
  248MPD1    H1 3765   4.066   4.071   0.017 -0.3264 -0.2222  2.3422
  248MPD1    H2 3766   4.226   3.694   0.016 -2.4207 -0.4453  1.0661
  248MPD1    H3 3767   4.072   3.862  17.634 -1.4511  0.3770  0.5454
  248MPD1     N 3768   4.267   4.171   0.192 -0.0200 -0.2984 -0.2124
  248MPD1    H5 3769   4.336   4.172   0.267 -1.4147  0.0220  1.0774
  248MPD1    N1 3770   4.431   3.728   0.168  0.4156 -0.4425  1.5268
  248MPD1    H6 3771   4.422   3.648   0.107 -0.4310  1.1472 -0.4374
  248MPD1    H7 3772   4.528   3.761   0.172  0.5008 -0.6503  1.1215
  249MPD1     C 3773   0.502   3.938  10.079 -0.5112 -0.5094 -0.1381
  249MPD1    C1 3774   0.427   3.949   9.971  0.4060  0.1292 -0.4357
  249MPD1    C2 3775   0.479   4.019   9.864 -0.3614 -0.0992  0.1679
  249MPD1    C3 3776   0.600   4.083   9.871 -0.2280  0.5652  0.8234
  249MPD1    C4 3777   0.667   4.083   9.992 -0.3330 -0.0698  0.4153
  249MPD1    C5 3778   0.625   3.996  10.092  0.3646 -0.1524 -0.1194
  249MPD1     H 3779   0.416   4.027   9.776 -0.5187  0.1983  0.3076
  249MPD1    H1 3780   0.764   4.130  10.003  0.4803 -1.6973  0.1764
  249MPD1    H2 3781   0.470   3.881  10.165  1.8997 -2.3831 -0.4668
  249MPD1    H3 3782   0.675   3.992  10.188  0.5357  1.3315 -0.1519
  249MPD1     N 3783   0.646   4.143   9.748  0.6753  0.4876  0.4311
  249MPD1    H5 3784   0.602   4.121   9.659  0.8980 -2.8963  1.1581
  249MPD1    N1 3785   0.308   3.875   9.958  0.6750  0.0125  0.0328
  249MPD1    H6 3786   0.258   3.855  10.044  1.9574  2.5344  1.3437
  249MPD1    H7 3787   0.235   3.919   9.902 -0.0505 -1.3534 -0.0984
  250MPD2     C 3788   2.735   4.198  13.046  0.0042  0.0247  0.3283
  250MPD2    C1 3789   2.615   4.224  12.991 -0.3751 -0.2199 -0.7163
  250MPD2    C2 3790   2.515   4.126  12.981  0.1718 -0.0277 -0.3384
  250MPD2    C3 3791   2.539   4.006  13.034  0.0657 -0.1030 -0.2170
  250MPD2    C4 3792   2.669   3.974  13.072  0.1068  0.0158  0.1745
  250MPD2    C5 3793   2.764   4.071  13.081 -0.6069 -0.5927  0.9240
  250MPD2     H 3794   2.419   4.157  12.942 -0.0959  1.3982  1.4436
  250MPD2    H1 3795   2.693   3.871  13.094 -1.3637 -0.1344  1.0664
  250MPD2    H2 3796   2.814   4.270  13.066 -0.1742  0.9830 -2.2751
  250MPD2    H3 3797   2.864   4.047  13.117 -0.5957 -2.5148 -0.3725
  250MPD2     N 3798   2.439   3.908  13.018 -0.0582  0.0019  0.8250
  250MPD2    H5 3799   2.465   3.812  13.040 -1.0658 -0.9840 -2.2895
  250MPD2    N1 3800   2.599   4.344  12.920 -0.0958 -0.5637  0.3831
  250MPD2    H7 3801   2.682   4.401  12.915 -0.8892  0.3919 -1.6736
  251TMC3    C1 3802   2.507   4.547  12.849  0.3915  0.5220 -0.0720
  251TMC3    C2 3803   2.454   4.644  12.928  0.3705 -0.7421 -0.0874
  251TMC3    C3 3804   2.505   0.044  12.920 -0.6677 -0.3767  0.2817
  251TMC3    C4 3805   2.620   4.568  12.781  0.0425  0.0283 -0.2912
  251TMC3    C5 3806   2.676   4.693  12.783  0.2264 -0.8159 -0.4120
  251TMC3    C6 3807   2.613   0.073  12.840 -0.4848 -0.6057 -0.8395
  251TMC3     C 3808   2.480   4.416  12.905  0.6918  0.5825 -0.0892
  251TMC3     O 3809   2.368   4.381  12.943  0.9652  0.8201 -0.2800
  251TMC3     H 3810   2.377   4.622  13.002 -0.2699 -1.3356 -0.9227
  251TMC3    H1 3811   2.650   4.495  12.706 -0.7814 -1.4603  0.8447
  251TMC3    H2 3812   2.664   0.168  12.846  1.3166 -1.7641  2.3312
  251TMC3    C7 3813   2.798   4.700  12.710 -0.0935  0.5460  0.0154
  251TMC3    C8 3814   2.497   0.114  13.051 -0.1762 -0.0352  0.0633
  251TMC3    O1 3815   2.857   4.592  12.691 -0.0531  0.1124 -0.0440
  251TMC3    O2 3816   2.388   0.136  13.104  0.0810  0.2913 -0.0210
  252TMC3    C1 3817   2.763   0.187   9.551 -0.6886  0.1059  0.5899
  252TMC3    C2 3818   2.889   0.189   9.512 -0.7259 -0.8347 -0.3201
  252TMC3    C3 3819   2.948   0.074   9.457  0.4658  0.1135 -0.3251
  252TMC3    C4 3820   2.686   0.087   9.510 -0.0124  0.3159 -0.0925
  252TMC3    C5 3821   2.742   4.700   9.454  0.1764 -0.0789  0.2160
  252TMC3    C6 3822   2.872   4.690   9.415  0.1328 -0.2123  0.2734
  252TMC3     C 3823   2.701   0.315   9.578  0.6905  0.4260 -0.5726
  252TMC3     O 3824   2.763   0.399   9.646  0.4312 -0.5468 -0.0939
  252TMC3     H 3825   2.947   0.265   9.563  0.1684 -1.4094 -0.4853
  252TMC3    H1 3826   2.585   0.079   9.546  0.7294  1.6127  2.2688
  252TMC3    H2 3827   2.913   4.601   9.369 -2.9725 -0.5847 -1.7650
  252TMC3    C7 3828   2.651   4.584   9.459 -0.0252  0.2213 -0.6899
  252TMC3    C8 3829   3.094   0.058   9.435 -0.4251 -0.2164  0.2462
  252TMC3    O1 3830   2.528   4.601   9.456  0.1428 -0.1054  0.1033
  252TMC3    O2 3831   3.128   4.671   9.399 -0.0914 -0.9770  0.0594
  253MPD2     C 3832   4.012   4.070  14.762  0.2568 -0.1181  0.1705
  253MPD2    C1 3833   3.892   4.087  14.820 -0.0422 -0.2254 -0.1901
  253MPD2    C2 3834   3.880   4.189  14.917  0.0481 -0.5600  0.3100
  253MPD2    C3 3835   3.992   4.261  14.957 -1.0090 -0.2815 -0.0603
  253MPD2    C4 3836   4.114   4.245  14.888 -0.3066 -0.2043  0.8585
  253MPD2    C5 3837   4.120   4.152  14.790  0.0698 -0.8972  0.9764
  253MPD2     H 3838   3.785   4.203  14.966 -0.7911  0.0428 -1.5031
  253MPD2    H1 3839   4.203   4.305  14.897  0.4818 -1.4310  1.1827
  253MPD2    H2 3840   4.031   3.998  14.683 -1.7515  0.2651 -0.6542
  253MPD2    H3 3841   4.214   4.128  14.741 -1.6933 -2.8165 -1.4083
  253MPD2     N 3842   3.982   4.360  15.058  0.2448 -0.2673  0.5415
  253MPD2    H5 3843   4.068   4.409  15.080  0.1821  0.5325 -1.0067
  253MPD2    N1 3844   3.773   4.018  14.778  0.6075 -0.3219 -0.1744
  253MPD2    H7 3845   3.693   4.049  14.832  0.3960 -1.3239  0.0868
  254TMC3    C1 3846   3.925   4.454  15.267 -0.4298 -0.4541 -0.1012
  254TMC3    C2 3847   3.833   4.532  15.335 -0.3109  0.3557  0.2881
  254TMC3    C3 3848   3.877   4.582  15.454 -0.0336 -0.0334  0.0508
  254TMC3    C4 3849   4.040   4.407  15.328  0.6137 -0.2390 -0.5270
  254TMC3    C5 3850   4.065   4.444  15.457 -0.5537  0.5014  0.6096
  254TMC3    C6 3851   3.995   4.544  15.511 -0.3349  0.3525  0.1470
  254TMC3     C 3852   3.882   4.374  15.155 -0.6324 -0.2877  0.0133
  254TMC3     O 3853   3.766   4.335  15.151 -0.4415 -0.4568  0.4488
  254TMC3     H 3854   3.739   4.563  15.293  0.9827  2.8702 -0.7575
  254TMC3    H1 3855   4.116   4.346  15.280 -1.5005 -1.2099 -2.6333
  254TMC3    H2 3856   4.017   4.573  15.613  1.5834 -3.0514  0.6956
  254TMC3    C7 3857   4.112   4.342  15.556 -0.1079  0.2170 -0.0941
  254TMC3    C8 3858   3.781   4.629  15.543  1.3261  0.1830  1.0522
  254TMC3    O1 3859   4.133   4.391  15.669  0.3416  0.1484  0.4813
  254TMC3    O2 3860   3.793   4.583  15.655  0.0028  0.8008  0.9214
  255MPD2     C 3861   1.916   2.235   8.769  0.1007 -0.5395  0.0164
  255MPD2    C1 3862   1.927   2.263   8.906 -0.5061 -0.4655 -0.7303
  255MPD2    C2 3863   1.965   2.163   8.992 -0.3796  0.1814 -0.2379
  255MPD2    C3 3864   2.004   2.040   8.944  0.3028 -0.8808 -0.5768
  255MPD2    C4 3865   2.007   2.012   8.807 -0.2183  0.1934  0.2050
  255MPD2    C5 3866   1.964   2.115   8.719  0.7370  0.6052 -0.2645
  255MPD2     H 3867   1.969   2.181   9.099 -0.8825 -0.1201 -0.1706
  255MPD2    H1 3868   2.053   1.928   8.759 -0.3703 -0.5141  1.2916
  255MPD2    H2 3869   1.890   2.316   8.702 -0.9532 -1.8509 -1.1585
  255MPD2    H3 3870   1.968   2.105   8.612 -0.3280 -0.4977 -0.1998
  255MPD2     N 3871   2.029   1.942   9.043 -0.3575 -0.3156  0.1749
  255MPD2    H5 3872   1.988   1.970   9.132 -2.9223  0.7428 -1.3168
  255MPD2    N1 3873   1.919   2.396   8.938 -0.7413  0.6792  0.2604
  255MPD2    H7 3874   1.894   2.458   8.862 -1.4777 -0.5936 -0.5324
  256TMC3    C1 3875   1.904   2.597   9.071 -0.0984  0.6214  0.3521
  256TMC3    C2 3876   2.001   2.675   9.121 -0.0641 -0.1485  0.2426
  256TMC3    C3 3877   2.003   2.806   9.078 -0.3797  0.1539 -0.1743
  256TMC3    C4 3878   1.810   2.636   8.981  0.7799  0.1663 -0.2665
  256TMC3    C5 3879   1.817   2.766   8.940  0.2461  0.0245  1.0975
  256TMC3    C6 3880   1.914   2.849   8.990  0.2683 -0.2175 -0.2191
  256TMC3     C 3881   1.932   2.456   9.063  0.0278  0.5891 -0.4471
  256TMC3     O 3882   1.969   2.411   9.172 -0.0935 -0.3248  0.2407
  256TMC3     H 3883   2.079   2.632   9.183 -0.3246  0.2209  0.8291
  256TMC3    H1 3884   1.732   2.563   8.962  1.4306  0.0122 -2.3552
  256TMC3    H2 3885   1.916   2.949   8.950  0.8856 -0.5362 -0.9869
  256TMC3    C7 3886   1.691   2.811   8.879  0.1954 -0.1817 -0.0686
  256TMC3    C8 3887   2.142   2.844   9.046 -0.2676 -0.4337  0.2060
  256TMC3    O1 3888   1.654   2.922   8.917  0.2087  0.6009  0.1758
  256TMC3    O2 3889   2.208   2.749   9.006  0.2438  0.1837 -0.5827
  257MPD2     C 3890   0.968   3.830  12.605  0.4051 -1.2035 -0.1495
  257MPD2    C1 3891   1.035   3.866  12.720  0.2759  0.4742  0.2535
  257MPD2    C2 3892   1.090   3.773  12.806 -0.7136  0.2729  0.5893
  257MPD2    C3 3893   1.072   3.639  12.777 -0.6526 -0.5039  0.3451
  257MPD2    C4 3894   0.992   3.609  12.668  0.2236 -0.0398 -0.0257
  257MPD2    C5 3895   0.945   3.705  12.574 -0.3344  0.2416 -0.3835
  257MPD2     H 3896   1.159   3.801  12.884 -1.1414  2.0884  0.2985
  257MPD2    H1 3897   0.965   3.510  12.633  0.5216  0.4668 -1.6895
  257MPD2    H2 3898   0.923   3.899  12.535  4.0300  0.9550 -0.3916
  257MPD2    H3 3899   0.891   3.684  12.483  0.4006 -1.0407 -0.5311
  257MPD2     N 3900   1.138   3.539  12.843 -0.2368 -0.2749 -0.3409
  257MPD2    H5 3901   1.193   3.560  12.926  1.4542  0.4559 -1.6655
  257MPD2    N1 3902   1.053   4.005  12.748  0.1623 -0.0756  0.2413
  257MPD2    H7 3903   1.028   4.078  12.683 -0.3186  0.5083  1.0817
  258TMC3    C1 3904   1.246   3.336  12.892  0.2543  0.1052  0.2445
  258TMC3    C2 3905   1.342   3.279  12.820  0.7386 -0.5815 -0.5510
  258TMC3    C3 3906   1.441   3.224  12.886 -0.7522 -0.3159  0.3188
  258TMC3    C4 3907   1.245   3.327  13.024  0.4223  0.1288  0.0590
  258TMC3    C5 3908   1.356   3.268  13.092 -0.2685  0.6029 -0.4462
  258TMC3    C6 3909   1.458   3.217  13.025  0.0156 -0.3844 -0.1228
  258TMC3     C 3910   1.146   3.406  12.813  1.5767 -0.3715 -0.0658
  258TMC3     O 3911   1.105   3.349  12.711 -0.2194  0.2199  0.0806
  258TMC3     H 3912   1.341   3.285  12.711  0.4704 -2.5401 -0.6679
  258TMC3    H1 3913   1.177   3.376  13.092  1.3761  0.4255  0.7874
  258TMC3    H2 3914   1.543   3.164  13.065 -0.2817 -1.1632 -0.5183
  258TMC3    C7 3915   1.365   3.276  13.235  0.0780 -0.1933  0.2435
  258TMC3    C8 3916   1.556   3.180  12.803  0.5370 -0.0774  0.0078
  258TMC3    O1 3917   1.253   3.275  13.282  0.5377  0.1580  0.3158
  258TMC3    O2 3918   1.618   3.079  12.841  0.1334  0.1793  0.4443
  259MPD2     C 3919   0.845   1.155   0.629  0.4375  1.0256  0.2492
  259MPD2    C1 3920   0.933   1.072   0.692 -0.0903 -0.2603  0.2911
  259MPD2    C2 3921   1.042   1.025   0.622 -0.6226  0.8580  0.2529
  259MPD2    C3 3922   1.059   1.055   0.486 -0.3821  0.0775 -0.0851
  259MPD2    C4 3923   0.977   1.148   0.431  0.9580 -0.0411  0.4217
  259MPD2    C5 3924   0.873   1.195   0.501  0.5272  0.0286 -0.3614
  259MPD2     H 3925   1.112   0.952   0.661  1.2144  2.1541 -0.6561
  259MPD2    H1 3926   0.991   1.193   0.334  1.4427 -1.1181 -0.0003
  259MPD2    H2 3927   0.752   1.195   0.669  1.2417  2.9744  0.1957
  259MPD2    H3 3928   0.806   1.261   0.447 -1.5761  0.5796  2.8894
  259MPD2     N 3929   1.170   0.991   0.418  0.0301  0.0959  0.7551
  259MPD2    H5 3930   1.239   0.931   0.461  0.8510 -0.6910 -1.6257
  259MPD2    N1 3931   0.908   1.070   0.828 -0.1127 -0.0379 -0.2789
  259MPD2    H7 3932   0.813   1.091   0.856  0.5287  1.9916  0.3747
  260TMC3    C1 3933   1.306   0.923   0.247  1.0042  0.2913  0.3270
  260TMC3    C2 3934   1.423   0.949   0.311 -0.1727  0.2521 -0.2535
  260TMC3    C3 3935   1.529   0.866   0.288 -0.9461 -0.2503 -0.1259
  260TMC3    C4 3936   1.289   0.821   0.158  0.1353 -0.2428  0.3209
  260TMC3    C5 3937   1.404   0.745   0.136 -0.5732  0.5420  0.5463
  260TMC3    C6 3938   1.526   0.763   0.197 -0.1883 -0.0064 -0.7829
  260TMC3     C 3939   1.185   0.999   0.282  0.1977  0.7948  0.1701
  260TMC3     O 3940   1.102   1.011   0.193 -0.0381  0.2421 -1.1372
  260TMC3     H 3941   1.420   1.025   0.388 -0.2768  0.9291 -0.9238
  260TMC3    H1 3942   1.198   0.807   0.101 -0.6815  0.9117  1.3484
  260TMC3    H2 3943   1.617   0.726   0.152 -1.2174 -2.5710 -0.7027
  260TMC3    C7 3944   1.377   0.612   0.068  0.3663  0.3443  0.1183
  260TMC3    C8 3945   1.655   0.931   0.311  0.2635 -0.3113 -0.4171
  260TMC3    O1 3946   1.268   0.587   0.022  0.0489 -0.8107 -0.7647
  260TMC3    O2 3947   1.645   1.050   0.332  0.0898 -0.5664  0.1293
  261MPD2     C 3948   1.702   3.755  12.634 -0.6363  0.1730  0.2053
  261MPD2    C1 3949   1.806   3.839  12.651 -0.5352 -0.3423 -0.5729
  261MPD2    C2 3950   1.827   3.944  12.573 -0.5460  0.5953 -0.4530
  261MPD2    C3 3951   1.748   3.962  12.455  0.5730 -0.4082 -0.0438
  261MPD2    C4 3952   1.651   3.873  12.431  0.6859  0.3621  0.4113
  261MPD2    C5 3953   1.625   3.771  12.517  0.1165  0.3764 -0.3654
  261MPD2     H 3954   1.913   4.009  12.587 -0.1202 -0.0566 -0.0728
  261MPD2    H1 3955   1.596   3.884  12.338 -0.0182  2.8266  1.1388
  261MPD2    H2 3956   1.684   3.664  12.690 -0.7057 -0.9519 -1.6335
  261MPD2    H3 3957   1.541   3.704  12.502  1.4257 -1.4115  0.3719
  261MPD2     N 3958   1.768   4.084  12.381 -0.1202 -0.0417  0.2115
  261MPD2    H5 3959   1.823   4.154  12.429 -0.5681 -0.3063  1.0975
  261MPD2    N1 3960   1.903   3.812  12.758  0.0737 -0.1282 -0.1541
  261MPD2    H7 3961   1.982   3.874  12.768  0.1357 -0.5737  2.1590
  262TMC3    C1 3962   1.740   4.242  12.203 -0.2528 -0.3840  0.6687
  262TMC3    C2 3963   1.647   4.306  12.123  0.3182 -0.2610 -0.8879
  262TMC3    C3 3964   1.690   4.395  12.032 -0.0564  0.6767  0.5308
  262TMC3    C4 3965   1.874   4.269  12.200  0.2386 -0.2866 -0.6513
  262TMC3    C5 3966   1.913   4.362  12.110 -0.2064 -0.1290  0.4562
  262TMC3    C6 3967   1.826   4.422  12.026  0.2721  0.2232 -1.2008
  262TMC3     C 3968   1.694   4.115  12.263 -0.6165  0.7836 -0.3550
  262TMC3     O 3969   1.593   4.061  12.220  0.5115  0.7196 -0.0010
  262TMC3     H 3970   1.541   4.290  12.138  0.6230  0.2197  1.7363
  262TMC3    H1 3971   1.943   4.226  12.272  2.1860 -0.3038 -2.5164
  262TMC3    H2 3972   1.862   4.490  11.949  1.6592  0.9878  0.1221
  262TMC3    C7 3973   2.026   4.452  12.144 -0.3662 -0.4834 -0.7457
  262TMC3    C8 3974   1.611   4.494  11.970  0.0671 -0.2060  0.0950
  262TMC3    O1 3975   2.024   4.494  12.259 -0.0246  0.0821  0.1577
  262TMC3    O2 3976   1.654   4.606  11.975 -0.5955 -0.2481  0.5271
  263MPD2     C 3977   2.824   3.413  11.115 -0.3832 -0.2476  0.1519
  263MPD2    C1 3978   2.950   3.466  11.112  0.2562 -0.2854  0.6841
  263MPD2    C2 3979   2.985   3.568  11.025  0.1287  0.8621 -0.9364
  263MPD2    C3 3980   2.886   3.619  10.940  0.3573 -0.2417 -0.1053
  263MPD2    C4 3981   2.760   3.567  10.947 -0.2806  0.0859  0.4952
  263MPD2    C5 3982   2.734   3.457  11.023 -0.4469 -0.2937 -0.0973
  263MPD2     H 3983   3.087   3.601  11.011  0.5165  0.4901  1.0585
  263MPD2    H1 3984   2.679   3.599  10.882 -0.3216  0.3155  0.6588
  263MPD2    H2 3985   2.791   3.334  11.181  0.4103 -0.2129  0.6063
  263MPD2    H3 3986   2.632   3.421  11.023 -0.2005 -1.0001  0.3662
  263MPD2     N 3987   2.921   3.717  10.839 -0.1427  0.2541 -0.0087
  263MPD2    H5 3988   3.018   3.724  10.810  0.4609  0.8350  2.1879
  263MPD2    N1 3989   3.047   3.405  11.199 -0.2455  0.4319  0.0513
  263MPD2    H7 3990   3.018   3.324  11.253 -1.8610 -0.5754 -2.2887
  264TMC3    C1 3991   2.884   3.901  10.697  0.1012  0.9831  0.5980
  264TMC3    C2 3992   2.803   4.003  10.672 -0.1114 -0.4467  0.2354
  264TMC3    C3 3993   2.817   4.068  10.551  0.1479 -0.3821  0.2740
  264TMC3    C4 3994   2.994   3.874  10.617 -0.6234 -0.0365  0.3679
  264TMC3    C5 3995   3.001   3.945  10.495  0.1134 -0.4439 -0.1201
  264TMC3    C6 3996   2.903   4.032  10.450  0.2989  0.5979  0.0354
  264TMC3     C 3997   2.838   3.804  10.787  0.1274  0.7094  0.3073
  264TMC3     O 3998   2.728   3.824  10.839  0.5026  0.5763 -0.3492
  264TMC3     H 3999   2.744   4.045  10.752  0.1601  2.1931 -0.9562
  264TMC3    H1 4000   3.073   3.806  10.644 -0.7731 -1.9866 -4.1129
  264TMC3    H2 4001   2.908   4.075  10.351  1.1289  2.3340  0.8219
  264TMC3    C7 4002   3.125   3.988  10.436 -0.0427  0.0540 -0.4659
  264TMC3    C8 4003   2.818   4.213  10.559 -0.5296 -0.5289  0.4066
  264TMC3    O1 4004   3.216   3.909  10.410  0.0266 -1.5570 -0.5658
  264TMC3    O2 4005   2.892   4.267  10.483 -0.1572  0.4212  0.0011
  265MPD2     C 4006   0.488   3.943  15.408  0.0432 -0.5343  0.5643
  265MPD2    C1 4007   0.450   4.048  15.327  0.1775  0.5498  0.3411
  265MPD2    C2 4008   0.518   4.065  15.206  0.0797  0.6706  0.4661
  265MPD2    C3 4009   0.602   3.964  15.162 -0.3651  0.1102  0.9533
  265MPD2    C4 4010   0.629   3.855  15.243  0.2481  0.2114  0.5215
  265MPD2    C5 4011   0.583   3.848  15.366 -0.3335 -0.4800  0.3557
  265MPD2     H 4012   0.494   4.151  15.145  0.3439 -0.4083 -1.1467
  265MPD2    H1 4013   0.693   3.775  15.208  1.2779  1.1236  0.2942
  265MPD2    H2 4014   0.448   3.938  15.508 -0.4826  0.1952  0.3928
  265MPD2    H3 4015   0.611   3.765  15.430 -0.4814 -0.0655  0.9607
  265MPD2     N 4016   0.675   3.957  15.039 -0.2634  0.0069  0.5472
  265MPD2    H5 4017   0.740   3.879  15.038  0.4386  0.6157 -0.5873
  265MPD2    N1 4018   0.375   4.156  15.378 -0.6662 -0.1781 -0.6169
  265MPD2    H7 4019   0.388   4.249  15.339  0.2063  0.5052  1.3148
  266TMC3    C1 4020   0.288   4.290  15.558 -0.2940  0.8335  0.3675
  266TMC3    C2 4021   0.303   4.297  15.690 -0.8302  0.2448  0.6441
  266TMC3    C3 4022   0.342   4.412  15.753  0.5396 -0.6135  0.4910
  266TMC3    C4 4023   0.312   4.403  15.480 -0.0934 -0.0859  0.5700
  266TMC3    C5 4024   0.361   4.513  15.540  0.3341  0.6325 -0.2166
  266TMC3    C6 4025   0.392   4.514  15.674 -0.2813  0.6156  0.6364
  266TMC3     C 4026   0.308   4.157  15.499 -0.0317 -0.5906 -1.0262
  266TMC3     O 4027   0.286   4.066  15.578  1.1560 -0.2520  0.2752
  266TMC3     H 4028   0.264   4.217  15.751  0.7383 -0.8276  0.2427
  266TMC3    H1 4029   0.266   4.405  15.382 -0.1934 -0.5365  0.6047
  266TMC3    H2 4030   0.448   4.598  15.712 -2.1001  1.9424  0.4105
  266TMC3    C7 4031   0.357   4.635  15.456 -0.6876  0.3588 -0.0630
  266TMC3    C8 4032   0.418   4.394  15.873  0.2478  0.1308 -0.2547
  266TMC3    O1 4033   0.342   4.612  15.334  0.2042  0.5614 -0.2293
  266TMC3    O2 4034   0.439   4.274  15.902 -0.1057  0.0788  0.3329
  267MPD2     C 4035   2.635   1.267   0.421 -0.2500 -0.3503  0.3503
  267MPD2    C1 4036   2.593   1.147   0.371 -0.5732 -0.0525  0.1674
  267MPD2    C2 4037   2.529   1.143   0.248  0.2000  0.3389  0.0681
  267MPD2    C3 4038   2.503   1.259   0.181  0.6370 -0.2839  0.0598
  267MPD2    C4 4039   2.536   1.378   0.238 -0.3515 -0.1093 -1.0317
  267MPD2    C5 4040   2.612   1.382   0.354 -0.1699  0.7710  0.2866
  267MPD2     H 4041   2.500   1.048   0.204 -0.2953 -0.0333  1.1986
  267MPD2    H1 4042   2.535   1.466   0.174  0.0333 -0.1189 -1.0539
  267MPD2    H2 4043   2.699   1.264   0.508  1.0099  1.5903 -0.5209
  267MPD2    H3 4044   2.660   1.473   0.388  0.1828  0.5631  0.3423
  267MPD2     N 4045   2.445   1.260   0.053  0.6327 -0.2188  0.4743
  267MPD2    H5 4046   2.425   1.351   0.012 -1.2698 -0.5966  0.6008
  267MPD2    N1 4047   2.644   1.030   0.436 -0.7316 -0.0070  0.5338
  267MPD2    H7 4048   2.720   1.037   0.503  0.0516 -0.5278 -0.3149
  268TMC3    C1 4049   2.696   0.806   0.419 -0.4101  0.0450  0.6961
  268TMC3    C2 4050   2.696   0.707   0.320 -0.1139 -0.3656 -0.3028
  268TMC3    C3 4051   2.799   0.617   0.330  0.8894  0.8892  0.1400
  268TMC3    C4 4052   2.791   0.815   0.520  0.6754 -0.0324  0.1809
  268TMC3    C5 4053   2.901   0.724   0.517  0.5233  0.6174  0.9415
  268TMC3    C6 4054   2.902   0.620   0.424  0.0129 -0.1870  0.1157
  268TMC3     C 4055   2.592   0.907   0.398  0.0507 -0.4576 -0.2298
  268TMC3     O 4056   2.486   0.874   0.341  0.2988 -0.1377 -0.0662
  268TMC3     H 4057   2.618   0.702   0.244  0.7707  0.9868 -1.3133
  268TMC3    H1 4058   2.791   0.887   0.601  2.7718 -0.7737  0.8387
  268TMC3    H2 4059   2.987   0.555   0.407 -1.1525 -1.4600 -0.8380
  268TMC3    C7 4060   3.013   0.724   0.610  0.3666  0.2926  0.1794
  268TMC3    C8 4061   2.807   0.512   0.233 -0.4953  0.8586 -0.3091
  268TMC3    O1 4062   3.077   0.622   0.629 -0.0845 -0.4345 -0.0082
  268TMC3    O2 4063   2.840   0.399   0.265  0.1926 -0.2478 -0.2055
  269MPD2     C 4064   3.139   4.372  15.527 -0.1648  0.3144 -0.2884
  269MPD2    C1 4065   3.015   4.351  15.586  0.1055  0.7985  0.1825
  269MPD2    C2 4066   2.959   4.451  15.665  0.2521 -0.4919  0.3318
  269MPD2    C3 4067   3.024   4.571  15.688  0.3145  0.5295  0.5063
  269MPD2    C4 4068   3.146   4.586  15.624 -0.0437  0.0647 -0.1783
  269MPD2    C5 4069   3.203   4.492  15.540  0.5594  0.3079  0.0920
  269MPD2     H 4070   2.861   4.442  15.712 -0.4839  3.8959 -0.3203
  269MPD2    H1 4071   3.213   4.667  15.652 -0.3894 -0.1339  1.2051
  269MPD2    H2 4072   3.185   4.287  15.479 -0.4947  0.6473 -1.1918
  269MPD2    H3 4073   3.306   4.499  15.508  0.2940 -0.2063 -0.9002
  269MPD2     N 4074   2.958   4.664  15.771  0.2420 -0.3502 -0.5215
  269MPD2    H5 4075   2.867   4.636  15.806 -0.3726 -0.2389 -2.0302
  269MPD2    N1 4076   2.946   4.230  15.558 -0.2520 -0.2567 -0.2185
  269MPD2    H7 4077   2.978   4.168  15.485 -3.1026  2.1440 -3.5207
  270TMC3    C1 4078   2.748   4.089  15.539 -0.2926 -0.1287 -0.2707
  270TMC3    C2 4079   2.618   4.097  15.497  0.2197 -0.4374  0.4410
  270TMC3    C3 4080   2.577   4.015  15.401 -0.2722  0.5008  0.1273
  270TMC3    C4 4081   2.834   3.987  15.500  0.3912  0.2073 -0.1295
  270TMC3    C5 4082   2.786   3.895  15.415  0.0817 -0.4033  0.0389
  270TMC3    C6 4083   2.655   3.910  15.363  0.5123  0.9617  0.6504
  270TMC3     C 4084   2.810   4.210  15.598 -0.0490  0.0467 -0.1013
  270TMC3     O 4085   2.723   4.283  15.643 -0.1679  0.5498 -0.6102
  270TMC3     H 4086   2.555   4.182  15.524  1.2008  0.0398  1.2307
  270TMC3    H1 4087   2.936   3.985  15.536 -0.7060 -1.1278  2.8821
  270TMC3    H2 4088   2.614   3.851  15.282  0.0948  0.7055  1.0466
  270TMC3    C7 4089   2.884   3.812  15.346 -0.1445 -0.0431 -0.3671
  270TMC3    C8 4090   2.506   4.085  15.295  0.9061 -0.0812 -0.5699
  270TMC3    O1 4091   3.000   3.837  15.356  0.0551  0.4252 -0.4719
  270TMC3    O2 4092   2.397   4.135  15.317  0.3381 -0.1711  0.0123
  271MPD2     C 4093   2.269   4.396  13.678 -0.1259 -0.0694  0.2427
  271MPD2    C1 4094   2.212   4.281  13.623  0.5343 -0.3024 -0.5137
  271MPD2    C2 4095   2.093   4.292  13.559 -0.2343 -0.2399  0.4857
  271MPD2    C3 4096   2.036   4.417  13.530 -0.1565 -0.2557  0.0276
  271MPD2    C4 4097   2.097   4.529  13.576 -0.3892 -0.1366 -0.6544
  271MPD2    C5 4098   2.214   4.521  13.653 -0.0931  0.2719 -0.2361
  271MPD2     H 4099   2.050   4.200  13.519  0.6647 -0.9700  1.1957
  271MPD2    H1 4100   2.058   4.626  13.548 -0.0678  0.1118 -0.2346
  271MPD2    H2 4101   2.362   4.403  13.734 -0.7294  0.6064  1.1780
  271MPD2    H3 4102   2.253   4.617  13.684 -0.5095  0.4648 -0.3088
  271MPD2     N 4103   1.935   4.438  13.433  0.1238  0.4260  0.6391
  271MPD2    H5 4104   1.911   4.534  13.413 -0.9886  0.2253  0.9488
  271MPD2    N1 4105   2.276   4.160  13.646 -0.0491 -0.0767 -0.2978
  271MPD2    H7 4106   2.227   4.072  13.633 -0.7669  0.3064 -0.1778
  272TMC3    C1 4107   2.422   4.022  13.778 -0.8515 -0.0605  0.4675
  272TMC3    C2 4108   2.544   3.976  13.797  0.1150  0.0038 -0.0118
  272TMC3    C3 4109   2.582   3.939  13.929 -0.3234 -0.7572  0.0368
  272TMC3    C4 4110   2.328   4.027  13.885  0.4164 -0.7451 -0.3313
  272TMC3    C5 4111   2.370   3.980  14.006  0.3971  0.1333  0.1511
  272TMC3    C6 4112   2.495   3.936  14.031 -0.4930  0.0719  0.0934
  272TMC3     C 4113   2.405   4.139  13.691  0.8127  0.2912 -0.5962
  272TMC3     O 4114   2.502   4.213  13.675 -0.5000  0.2019  0.8162
  272TMC3     H 4115   2.614   3.985  13.714 -1.6293 -2.2992 -1.7426
  272TMC3    H1 4116   2.230   4.070  13.869  0.0915 -1.3930 -0.1106
  272TMC3    H2 4117   2.519   3.906  14.133  1.2697 -0.9300 -0.6250
  272TMC3    C7 4118   2.279   4.021  14.112 -0.5491 -0.2665 -0.4927
  272TMC3    C8 4119   2.722   3.896  13.947 -0.3267 -0.1427  0.1604
  272TMC3    O1 4120   2.162   4.024  14.081  0.4102 -0.1115 -0.2773
  272TMC3    O2 4121   2.798   3.936  13.860 -0.6184 -0.0131  0.1740
  273MPD2     C 4122   3.370   2.239  11.244 -0.7790  0.4422 -0.1223
  273MPD2    C1 4123   3.474   2.303  11.301  0.8241  0.3725 -0.1092
  273MPD2    C2 4124   3.572   2.352  11.215  0.1788  0.9595 -0.1650
  273MPD2    C3 4125   3.561   2.347  11.079  0.3551  0.0697 -0.2428
  273MPD2    C4 4126   3.451   2.285  11.027 -0.3277 -0.4156 -0.2264
  273MPD2    C5 4127   3.361   2.229  11.109 -0.2840 -0.1312  0.4892
  273MPD2     H 4128   3.662   2.389  11.263 -0.8976  1.0342  1.8061
  273MPD2    H1 4129   3.433   2.266  10.922  0.3582  2.3588 -0.8362
  273MPD2    H2 4130   3.282   2.217  11.303 -1.9643 -0.4144 -2.1856
  273MPD2    H3 4131   3.280   2.166  11.073  0.6789 -1.1404  0.0988
  273MPD2     N 4132   3.648   2.406  10.987  0.7702 -0.4177  0.4760
  273MPD2    H5 4133   3.614   2.418  10.893  1.2061 -1.0125  0.2432
  273MPD2    N1 4134   3.466   2.337  11.440 -0.5218  0.4667 -0.2755
  273MPD2    H7 4135   3.388   2.301  11.494  0.9594 -0.8861  0.9085
  274TMC3    C1 4136   3.820   2.552  10.914  0.0572 -0.2091  0.0227
  274TMC3    C2 4137   3.809   2.489  10.790 -0.8815 -0.3433  0.2745
  274TMC3    C3 4138   3.847   2.565  10.684  0.1457 -0.1001 -0.0960
  274TMC3    C4 4139   3.876   2.680  10.933 -0.2931  0.0776 -0.1849
  274TMC3    C5 4140   3.912   2.748  10.820  0.6583 -0.2974 -0.2430
  274TMC3    C6 4141   3.901   2.692  10.695 -0.1463 -0.5258  0.3137
  274TMC3     C 4142   3.748   2.483  11.029  0.4063  0.0532  0.1702
  274TMC3     O 4143   3.780   2.519  11.141  0.1675  0.1003  0.2329
  274TMC3     H 4144   3.769   2.390  10.772 -3.3051  0.4600  1.2832
  274TMC3    H1 4145   3.887   2.723  11.031 -0.6382  1.4099 -0.7386
  274TMC3    H2 4146   3.902   2.752  10.605  1.2444  1.5293  1.6676
  274TMC3    C7 4147   3.912   2.892  10.832 -0.1708  0.1290  0.5241
  274TMC3    C8 4148   3.791   2.527  10.560 -0.3251  0.0002 -0.1134
  274TMC3    O1 4149   3.970   2.962  10.751  0.5510  0.3497  0.6507
  274TMC3    O2 4150   3.703   2.443  10.574 -0.2014  0.0948  0.0971
  275MPD2     C 4151   3.695   0.468  14.103  0.1361 -0.1700  0.2193
  275MPD2    C1 4152   3.655   0.403  14.216  0.9358 -0.3162 -0.3168
  275MPD2    C2 4153   3.520   0.370  14.232 -0.5632 -0.1816 -0.0407
  275MPD2    C3 4154   3.429   0.397  14.133 -0.6302 -0.5755 -0.0301
  275MPD2    C4 4155   3.469   0.451  14.016 -0.2146 -0.3718  0.0440
  275MPD2    C5 4156   3.602   0.479  13.999 -0.0837 -0.2864  0.3294
  275MPD2     H 4157   3.494   0.314  14.320 -1.8045 -1.2142 -1.0694
  275MPD2    H1 4158   3.398   0.490  13.944  2.6085 -1.2611 -3.2207
  275MPD2    H2 4159   3.793   0.507  14.080  0.6232 -0.6928  1.3623
  275MPD2    H3 4160   3.631   0.527  13.906  0.0147 -2.0381 -0.5495
  275MPD2     N 4161   3.290   0.377  14.145  0.3678  0.0506 -0.0857
  275MPD2    H5 4162   3.229   0.375  14.064 -0.5991  0.4567  0.6375
  275MPD2    N1 4163   3.737   0.361  14.323  0.4293 -0.0126  0.7927
  275MPD2    H7 4164   3.693   0.310  14.399 -1.1340  1.0040  0.5747
  276TMC3    C1 4165   3.926   0.344  14.457  0.4384  0.6504  0.4368
  276TMC3    C2 4166   3.909   0.210  14.479 -0.7625 -0.4143  0.2152
  276TMC3    C3 4167   3.992   0.155  14.570 -0.4085 -0.1750 -0.5305
  276TMC3    C4 4168   4.002   0.427  14.530 -0.2341  0.0129  0.3872
  276TMC3    C5 4169   4.085   0.369  14.619 -0.6378  0.1762 -0.4757
  276TMC3    C6 4170   4.081   0.233  14.634  0.3447 -0.0191 -0.2296
  276TMC3     C 4171   3.863   0.406  14.344  0.3851  0.0042  0.0405
  276TMC3     O 4172   3.920   0.501  14.289 -0.7209 -0.0499 -0.0937
  276TMC3     H 4173   3.856   0.150  14.405 -1.6093  0.8750 -0.2245
  276TMC3    H1 4174   4.001   0.533  14.510 -0.3204  0.0743  0.7115
  276TMC3    H2 4175   4.142   0.193  14.714  0.7455  2.3141  0.6363
  276TMC3    C7 4176   4.183   0.452  14.685 -0.4850 -0.0103 -0.3072
  276TMC3    C8 4177   4.022   0.017  14.559  0.1083  0.0459  0.0204
  276TMC3    O1 4178   4.159   0.570  14.685 -0.4518  0.2585  0.4161
  276TMC3    O2 4179   4.135   4.712  14.591  0.0418 -0.0497 -0.0406
  277MPD2     C 4180   0.680   4.098  12.905 -0.6507  0.2849 -0.0608
  277MPD2    C1 4181   0.566   4.144  12.966 -0.5348 -0.0465  0.4660
  277MPD2    C2 4182   0.522   4.064  13.073 -0.0207 -0.2641 -0.1008
  277MPD2    C3 4183   0.586   3.953  13.117  0.6079 -0.7510  1.0196
  277MPD2    C4 4184   0.691   3.911  13.049 -0.2513 -0.5060  0.1572
  277MPD2    C5 4185   0.738   3.983  12.942  0.8049  0.4150 -0.2232
  277MPD2     H 4186   0.438   4.090  13.135 -0.6233 -0.4357 -0.8511
  277MPD2    H1 4187   0.739   3.818  13.076 -0.9373 -1.0355 -0.4321
  277MPD2    H2 4188   0.725   4.148  12.820  1.3456 -0.8349  0.3411
  277MPD2    H3 4189   0.827   3.951  12.890 -1.3368 -0.4066 -3.3327
  277MPD2     N 4190   0.539   3.892  13.235 -0.1187  0.0075 -0.3685
  277MPD2    H5 4191   0.455   3.930  13.276  1.0297  3.8058 -1.5249
  277MPD2    N1 4192   0.494   4.261  12.916  0.2928  0.6213  0.4185
  277MPD2    H7 4193   0.519   4.300  12.825  0.0911  0.1714  0.1703
  278TMC3    C1 4194   0.518   3.730  13.414 -0.0521 -0.1256  0.0747
  278TMC3    C2 4195   0.502   3.599  13.408 -0.4988  0.0574 -0.2351
  278TMC3    C3 4196   0.389   3.555  13.462 -0.2043 -0.1272 -0.0152
  278TMC3    C4 4197   0.435   3.818  13.469 -0.6143  0.4185  0.2138
  278TMC3    C5 4198   0.324   3.767  13.520  0.2252  0.1892  0.4517
  278TMC3    C6 4199   0.287   3.635  13.507  0.4303  1.2891 -0.4332
  278TMC3     C 4200   0.591   3.779  13.290 -0.3983 -0.0420 -0.1072
  278TMC3     O 4201   0.688   3.712  13.260 -0.2815 -0.3016 -0.1346
  278TMC3     H 4202   0.578   3.536  13.365 -0.4899  1.3775 -2.1429
  278TMC3    H1 4203   0.455   3.922  13.487 -1.4786  0.5109  0.6705
  278TMC3    H2 4204   0.201   3.587  13.552  1.4079 -0.2798 -0.2365
  278TMC3    C7 4205   0.228   3.873  13.558  0.0748  0.4820 -0.8903
  278TMC3    C8 4206   0.353   3.418  13.439 -0.1948 -0.1111 -0.6516
  278TMC3    O1 4207   0.279   3.978  13.590  0.2348  0.0122 -0.2504
  278TMC3    O2 4208   0.441   3.331  13.428 -0.4956 -0.0483  0.1662
  279MPD2     C 4209   0.042   3.681  17.424  0.1934  0.1533 -0.7720
  279MPD2    C1 4210   0.034   3.794  17.490 -0.7841  0.2463 -0.0620
  279MPD2    C2 4211   0.057   3.915  17.424 -0.3032  0.0912 -0.9532
  279MPD2    C3 4212   0.065   3.918  17.285  0.4224 -0.0746 -0.2297
  279MPD2    C4 4213   0.062   3.801  17.213 -0.6791  0.1174  0.4245
  279MPD2    C5 4214   0.053   3.683  17.289  0.5895  0.1027  0.2834
  279MPD2     H 4215   0.063   4.008  17.479  0.1463 -0.8919  0.6645
  279MPD2    H1 4216   0.064   3.796  17.105 -2.8718 -0.0078  0.3987
  279MPD2    H2 4217   0.018   3.595  17.486  0.8112  0.2096 -0.4618
  279MPD2    H3 4218   0.048   3.591  17.233  1.8791 -0.8648  1.7524
  279MPD2     N 4219   0.059   4.044  17.220  0.0059  0.1502  0.2662
  279MPD2    H5 4220   0.048   4.034  17.120 -1.3114  0.0660  0.4153
  279MPD2    N1 4221   0.006   3.788  17.629 -0.1053  0.5192 -0.0707
  279MPD2    H7 4222   0.021   3.700  17.677 -3.4738 -0.3964 -0.6849
  280TMC3    C1 4223   4.598   3.990  17.650 -0.7391  0.2619 -0.2254
  280TMC3    C2 4224   4.515   3.958  17.546  0.6768 -0.4753  0.6080
  280TMC3    C3 4225   4.431   4.052  17.491  0.7201  0.3422 -0.3749
  280TMC3    C4 4226   4.597   4.123   0.003 -0.5042 -0.7326  0.1092
  280TMC3    C5 4227   4.506   4.213  17.651  1.1776  0.4486 -0.3774
  280TMC3    C6 4228   4.437   4.183  17.538  1.3186 -0.4618  0.0427
  280TMC3     C 4229   4.682   3.885   0.010  0.0590  0.8407 -0.6114
  280TMC3     O 4230   4.684   3.888   0.131 -0.4431 -0.0203 -0.2569
  280TMC3     H 4231   4.513   3.856  17.509  2.7070 -0.2918  0.0025
  280TMC3    H1 4232   4.664   4.143   0.086 -2.8155 -0.4179  1.9010
  280TMC3    H2 4233   4.366   4.252  17.494 -0.7526 -1.1434  2.3057
  280TMC3    C7 4234   4.537   4.344  17.695  0.0284 -0.1499 -0.6072
  280TMC3    C8 4235   4.398   4.040  17.345 -0.1502 -0.0576  0.8800
  280TMC3    O1 4236   4.652   4.369   0.030  0.2021 -0.0044  0.2160
  280TMC3    O2 4237   4.332   4.133  17.294  0.8608  0.3261 -0.9577
  281TMC3    C1 4238   3.205   4.498  12.805 -0.1034  0.4111 -0.2347
  281TMC3    C2 4239   3.231   4.564  12.689 -0.5626  0.4980 -0.1378
  281TMC3    C3 4240   3.190   4.500  12.571  0.2149  0.1166 -0.9913
  281TMC3    C4 4241   3.138   4.380  12.803 -0.0969 -0.5180 -0.4004
  281TMC3    C5 4242   3.105   4.320  12.681 -0.1421 -0.0689  0.0252
  281TMC3    C6 4243   3.142   4.376  12.564  0.2127  0.5264 -0.0077
  281TMC3     C 4244   3.210   4.567  12.932 -0.4212 -0.1887 -0.5498
  281TMC3     O 4245   3.244   4.505  13.031 -0.0218 -0.5170  0.2160
  281TMC3     H 4246   3.292   4.654  12.687  1.9982 -1.2220 -0.2889
  281TMC3    H1 4247   3.088   4.341  12.891 -1.1347  1.4777 -0.1105
  281TMC3    H2 4248   3.133   4.324  12.469  0.2644  0.8953 -0.2168
  281TMC3    C7 4249   3.029   4.197  12.670 -0.4838  0.1936  0.1865
  281TMC3    C8 4250   3.236   4.559  12.442  0.1586 -0.9118  0.0321
  281TMC3    O1 4251   2.968   4.174  12.567 -0.3435  0.2659  0.1642
  281TMC3    O2 4252   3.286   4.471  12.373  0.1883 -0.8045  0.2588
  282MPD2     C 4253   0.242   0.946  14.537 -0.0385  0.8361 -0.1570
  282MPD2    C1 4254   0.227   1.071  14.598 -0.0362 -0.2056  0.0320
  282MPD2    C2 4255   0.165   1.169  14.531  0.7076 -0.0953 -0.2633
  282MPD2    C3 4256   0.113   1.144  14.404 -0.2961 -0.1692  0.1365
  282MPD2    C4 4257   0.135   1.025  14.339 -0.4310 -0.3425  0.8838
  282MPD2    C5 4258   0.205   0.930  14.409 -0.1500 -0.0115 -0.3134
  282MPD2     H 4259   0.156   1.261  14.587 -0.9789 -0.3005 -0.2072
  282MPD2    H1 4260   0.100   1.002  14.239  0.9225 -0.9514  0.5551
  282MPD2    H2 4261   0.298   0.868  14.588 -0.5963  1.4490  1.3925
  282MPD2    H3 4262   0.215   0.836  14.356  1.4563 -1.1611  2.0664
  282MPD2     N 4263   0.026   1.236  14.333 -0.2233 -0.4046 -0.2674
  282MPD2    H5 4264   0.015   1.206  14.237 -2.5625 -1.8583  0.4332
  282MPD2    N1 4265   0.271   1.093  14.728 -0.4118 -0.4432  0.1072
  282MPD2    H7 4266   0.269   1.189  14.760  2.0705 -1.2484  2.6526
  283TMC3    C1 4267   0.329   1.041  14.955  0.4137  0.5787 -0.9151
  283TMC3    C2 4268   0.366   1.169  14.966 -0.2851 -0.2735  0.0390
  283TMC3    C3 4269   0.387   1.209  15.097 -0.6182 -0.1541 -0.4447
  283TMC3    C4 4270   0.311   0.949  15.050 -0.2275 -0.2818 -0.1822
  283TMC3    C5 4271   0.328   1.001  15.178  0.4162 -0.0766  0.5128
  283TMC3    C6 4272   0.375   1.125  15.203  0.3750 -0.1214  0.7483
  283TMC3     C 4273   0.301   0.997  14.813  0.0882 -0.1687 -0.1962
  283TMC3     O 4274   0.310   0.878  14.799 -0.0164 -0.0634 -1.1632
  283TMC3     H 4275   0.387   1.236  14.884  0.2670  3.0304  2.8692
  283TMC3    H1 4276   0.271   0.855  15.014  0.3168 -0.6342  0.1224
  283TMC3    H2 4277   0.384   1.170  15.301  0.0655 -0.2258  0.8246
  283TMC3    C7 4278   0.234   0.948  15.281  0.2547 -0.6425 -0.3503
  283TMC3    C8 4279   0.426   1.343  15.129 -0.2305  0.4564  0.3542
  283TMC3    O1 4280   0.211   1.011  15.386  0.2919  0.0961  0.6974
  283TMC3    O2 4281   0.485   1.374  15.233  0.7713 -0.6615 -0.4186
  284MPD2     C 4282   3.029   4.483  11.767  0.1827  0.4264  0.8300
  284MPD2    C1 4283   3.005   4.585  11.672 -0.0611 -0.3466  0.4183
  284MPD2    C2 4284   2.918   4.566  11.570  0.6542  0.1242  0.0779
  284MPD2    C3 4285   2.862   4.439  11.546  0.3036  0.3082 -0.6002
  284MPD2    C4 4286   2.888   4.338  11.638  0.1047 -0.0255  0.3136
  284MPD2    C5 4287   2.962   4.368  11.748  0.6110 -0.1743  0.2192
  284MPD2     H 4288   2.897   4.646  11.501 -0.7532 -0.5485 -0.2786
  284MPD2    H1 4289   2.851   4.238  11.620  0.5672 -0.1840  0.2405
  284MPD2    H2 4290   3.088   4.488  11.858  0.4812 -0.3695  0.6816
  284MPD2    H3 4291   2.981   4.282  11.811  0.6035 -1.5230 -1.5931
  284MPD2     N 4292   2.788   4.405  11.432 -0.5859  0.3252  0.3151
  284MPD2    H5 4293   2.764   4.306  11.428 -1.5530  0.6315 -1.0246
  284MPD2    N1 4294   3.069   4.717  11.672 -0.4000  0.5620 -0.0162
  284MPD2    H7 4295   3.053   0.061  11.600 -2.7153 -2.8073 -2.7572
  285TMC3    C1 4296   3.235   0.150  11.729 -0.1111 -0.4222 -0.7335
  285TMC3    C2 4297   3.349   0.143  11.648  0.5282  0.4859 -0.4702
  285TMC3    C3 4298   3.385   0.264  11.590  0.1336  0.0389 -0.6451
  285TMC3    C4 4299   3.147   0.255  11.719 -0.3118 -0.0936 -0.2811
  285TMC3    C5 4300   3.192   0.364  11.649  0.1433 -0.2177  0.2061
  285TMC3    C6 4301   3.318   0.383  11.597 -0.3034 -0.0648  0.1934
  285TMC3     C 4302   3.180   0.019  11.757  0.0997  0.3474 -0.8957
  285TMC3     O 4303   3.220   4.686  11.856  0.2628 -0.7744  0.0029
  285TMC3     H 4304   3.412   0.056  11.638  0.5041  0.5469 -1.1038
  285TMC3    H1 4305   3.041   0.253  11.742 -0.0612  0.5694  0.9175
  285TMC3    H2 4306   3.340   0.477  11.548  0.6913 -0.4625 -0.1154
  285TMC3    C7 4307   3.090   0.471  11.627  0.1802 -0.1114  0.6150
  285TMC3    C8 4308   3.434   0.237  11.455  0.3647 -1.1782  0.6959
  285TMC3    O1 4309   3.137   0.582  11.654 -0.3938 -0.1930 -0.8459
  285TMC3    O2 4310   3.366   0.152  11.397  0.1264 -0.1456  0.1967
  286MPD2     C 4311   3.767   3.537   1.445 -0.1443  0.8001 -0.0116
  286MPD2    C1 4312   3.783   3.580   1.311  0.0422  0.6995  0.3961
  286MPD2    C2 4313   3.908   3.560   1.253  0.4799 -0.4482 -0.4383
  286MPD2    C3 4314   4.013   3.497   1.323  0.4272  0.1552  0.1178
  286MPD2    C4 4315   4.000   3.476   1.456  0.4954  0.0573 -0.4521
  286MPD2    C5 4316   3.876   3.485   1.519  0.4291 -0.3943  0.3056
  286MPD2     H 4317   3.930   3.607   1.158  0.0271  0.7924  0.0584
  286MPD2    H1 4318   4.080   3.426   1.510 -0.3259 -0.2266  0.4888
  286MPD2    H2 4319   3.679   3.557   1.506  0.7789  0.7529  1.3260
  286MPD2    H3 4320   3.866   3.466   1.625 -0.5080 -2.9148 -0.2370
  286MPD2     N 4321   4.133   3.460   1.259 -0.2135  0.2299 -0.2103
  286MPD2    H5 4322   4.203   3.427   1.325 -0.6754  2.0495  1.1906
  286MPD2    N1 4323   3.688   3.660   1.243 -0.2287  0.4479 -0.0981
  286MPD2    H7 4324   3.720   3.707   1.159 -1.1287  1.1476 -0.0588
  287TMC3    C1 4325   4.293   3.402   1.096 -0.2942  0.4466 -0.0096
  287TMC3    C2 4326   4.284   3.312   0.987 -0.4717 -0.0806 -0.7813
  287TMC3    C3 4327   4.377   3.211   0.981 -0.3091 -0.4116  0.0213
  287TMC3    C4 4328   4.387   3.390   1.198  0.2369 -0.0381 -0.3270
  287TMC3    C5 4329   4.483   3.299   1.174  0.2360  0.1861 -0.1152
  287TMC3    C6 4330   4.482   3.203   1.070  0.3550 -0.4200 -0.4362
  287TMC3     C 4331   4.159   3.457   1.125 -0.2874 -0.5350  0.2645
  287TMC3     O 4332   4.081   3.471   1.029  0.2576 -0.6900 -0.3267
  287TMC3     H 4333   4.200   3.317   0.919 -0.1378  0.8315 -1.1267
  287TMC3    H1 4334   4.397   3.452   1.287  1.6024 -0.2723 -0.3101
  287TMC3    H2 4335   4.563   3.136   1.044  1.2556 -0.2783  2.0272
  287TMC3    C7 4336   4.591   3.274   1.272 -0.3267  0.3387  0.8603
  287TMC3    C8 4337   4.355   3.102   0.890  0.2915  0.2000 -0.1371
  287TMC3    O1 4338   4.616   3.361   1.357  0.5202 -0.2100 -0.2897
  287TMC3    O2 4339   4.246   3.105   0.834 -0.4156 -0.0911  0.0105
  288TMC3    C1 4340   0.643   3.751  14.257 -0.1115  0.1892 -0.2847
  288TMC3    C2 4341   0.620   3.723  14.388  0.9281  0.3939 -0.5394
  288TMC3    C3 4342   0.594   3.824  14.471  0.4196 -1.0950 -0.2338
  288TMC3    C4 4343   0.619   3.876  14.208  0.8590 -0.4563 -0.3435
  288TMC3    C5 4344   0.596   3.976  14.293  0.6759  0.0002 -0.1996
  288TMC3    C6 4345   0.587   3.952  14.430 -0.1775 -0.2473  0.2901
  288TMC3     C 4346   0.677   3.639  14.179  0.6444  0.2337 -0.0543
  288TMC3     O 4347   0.695   3.530  14.234  0.1657 -1.0094 -0.0938
  288TMC3     H 4348   0.645   3.628  14.434 -1.3035  1.0392  1.9979
  288TMC3    H1 4349   0.654   3.892  14.106 -0.3710 -2.3333 -1.0453
  288TMC3    H2 4350   0.560   4.028  14.502 -0.0347  0.2811 -0.2238
  288TMC3    C7 4351   0.518   4.091  14.240  0.5337 -0.7967 -0.7436
  288TMC3    C8 4352   0.584   3.798  14.609 -0.3253 -0.2833 -0.1428
  288TMC3    O1 4353   0.457   4.157  14.326  0.4404 -0.2002 -0.0058
  288TMC3    O2 4354   0.583   3.898  14.669  0.2714 -0.0328  0.2497
  289MPD2     C 4355   0.767   2.825  14.322 -0.5496  0.3765 -0.6384
  289MPD2    C1 4356   0.796   2.950  14.273  0.4422 -1.1742  0.0018
  289MPD2    C2 4357   0.715   2.999  14.171 -0.4395  0.0779 -0.1039
  289MPD2    C3 4358   0.609   2.918  14.125  0.6202 -0.0699 -0.6892
  289MPD2    C4 4359   0.589   2.790  14.177 -0.1921 -0.3819  0.4520
  289MPD2    C5 4360   0.665   2.742  14.276 -0.0697 -0.3049  0.1209
  289MPD2     H 4361   0.737   3.101  14.143  0.5824  0.2241  1.2698
  289MPD2    H1 4362   0.501   2.735  14.145 -2.5662  3.0216  1.0826
  289MPD2    H2 4363   0.834   2.779  14.393 -0.3727  1.3255 -0.1970
  289MPD2    H3 4364   0.646   2.642  14.314  1.0941 -0.7847 -0.5758
  289MPD2     N 4365   0.531   2.951  14.014 -0.3314 -0.0024  0.2994
  289MPD2    H5 4366   0.481   2.878  13.965 -1.5303  2.1694 -1.7486
  289MPD2    N1 4367   0.922   3.014  14.307 -0.3401 -0.8203 -0.0186
  289MPD2    H7 4368   0.971   2.981  14.389  0.5417 -0.7592 -0.5192
  290TMC3    C1 4369   0.422   3.119  13.884  0.5191 -0.5183 -0.5374
  290TMC3    C2 4370   0.393   3.256  13.877  0.0471 -0.7919  0.0557
  290TMC3    C3 4371   0.275   3.297  13.819 -0.0716  0.1032  0.3427
  290TMC3    C4 4372   0.330   3.028  13.844 -0.1782 -0.2778 -0.8384
  290TMC3    C5 4373   0.208   3.075  13.786 -1.2898  0.6644  0.2489
  290TMC3    C6 4374   0.187   3.209  13.768 -0.5374  0.1277  0.0853
  290TMC3     C 4375   0.508   3.082  13.994  0.2533  0.2156 -0.2330
  290TMC3     O 4376   0.538   3.186  14.054  0.0649  0.0620  0.0450
  290TMC3     H 4377   0.481   3.320  13.880  0.3558 -1.2046 -0.2728
  290TMC3    H1 4378   0.361   2.924  13.848 -2.0268 -0.7670  0.7098
  290TMC3    H2 4379   0.097   3.235  13.714 -1.0890  0.9129  1.3840
  290TMC3    C7 4380   0.105   2.986  13.738  0.5933 -0.5791 -0.0910
  290TMC3    C8 4381   0.244   3.433  13.821  0.0380 -0.0818 -0.2635
  290TMC3    O1 4382   4.717   3.031  13.745  0.1090 -0.1071  0.0276
  290TMC3    O2 4383   0.150   3.472  13.756 -0.3169  0.3607 -0.3696
  291MPD2     C 4384   0.273   2.384   0.924 -0.3202  0.1953  0.1965
  291MPD2    C1 4385   0.238   2.310   0.811  0.1861 -0.1465  0.1154
  291MPD2    C2 4386   0.303   2.337   0.690 -0.2666 -0.6439 -0.9424
  291MPD2    C3 4387   0.396   2.432   0.678  0.1368 -0.3493 -0.4059
  291MPD2    C4 4388   0.435   2.505   0.792 -0.1792 -0.3155  0.0489
  291MPD2    C5 4389   0.376   2.484   0.915 -0.3204  0.1306  0.4559
  291MPD2     H 4390   0.290   2.263   0.611 -2.9642 -1.1451 -0.0266
  291MPD2    H1 4391   0.513   2.579   0.781 -1.3388  0.8784 -0.1519
  291MPD2    H2 4392   0.240   2.366   1.025 -0.4668  1.4667  0.3731
  291MPD2    H3 4393   0.403   2.547   0.999 -0.0893  0.6622 -0.0131
  291MPD2     N 4394   0.438   2.476   0.550  0.2881  0.6936 -0.3263
  291MPD2    H5 4395   0.487   2.565   0.552  0.9845  0.3315 -1.0461
  291MPD2    N1 4396   0.137   2.206   0.804 -0.6284 -0.1282  0.1904
  291MPD2    H7 4397   0.116   2.156   0.718 -2.1347 -0.4340  0.7483
  292TMC3    C1 4398   4.648   2.122   0.859  0.3076  0.0423 -0.4390
  292TMC3    C2 4399   4.573   2.071   0.963  0.0953  0.2128 -0.0891
  292TMC3    C3 4400   4.465   2.007   0.932  0.1379 -0.1290 -0.6281
  292TMC3    C4 4401   4.620   2.099   0.727 -0.6036 -0.7715 -0.1215
  292TMC3    C5 4402   4.505   2.026   0.697 -0.0938  0.5476  0.4607
  292TMC3    C6 4403   4.424   1.978   0.805  0.5549  0.1331 -0.1061
  292TMC3     C 4404   0.044   2.186   0.903 -0.0221 -0.3653 -0.4844
  292TMC3     O 4405   0.047   2.229   1.018 -0.0428 -0.2955  0.3695
  292TMC3     H 4406   4.593   2.095   1.067  1.9604  0.8658 -0.5964
  292TMC3    H1 4407   4.677   2.139   0.644  1.0333 -1.7715  0.5269
  292TMC3    H2 4408   4.356   1.897   0.784 -1.5662  1.8288  0.2508
  292TMC3    C7 4409   4.507   1.953   0.570 -0.1999  1.0364 -0.5565
  292TMC3    C8 4410   4.379   1.967   1.042  0.5467 -0.2657  0.3593
  292TMC3    O1 4411   4.619   1.928   0.526 -0.1590 -0.5324  0.2521
  292TMC3    O2 4412   4.428   1.955   1.155 -0.4053 -0.3928  0.2923
  293MPD2     C 4413   1.343   4.418  12.295 -0.7729 -0.1082 -0.4078
  293MPD2    C1 4414   1.277   4.304  12.339  0.0980  0.1214  0.4122
  293MPD2    C2 4415   1.334   4.225  12.437 -0.0904 -0.0578 -0.2801
  293MPD2    C3 4416   1.450   4.269  12.506 -0.3729  0.1252  0.0316
  293MPD2    C4 4417   1.506   4.381  12.458 -0.3492  0.3024  0.5818
  293MPD2    C5 4418   1.451   4.457  12.361 -0.4779 -0.2397 -0.3419
  293MPD2     H 4419   1.281   4.133  12.462 -1.5894  0.9349  0.1840
  293MPD2    H1 4420   1.600   4.418  12.498 -0.1531  1.2731 -0.7691
  293MPD2    H2 4421   1.291   4.482  12.224  1.0625  1.4365 -0.3746
  293MPD2    H3 4422   1.508   4.545  12.334 -1.2637  0.9666  1.8832
  293MPD2     N 4423   1.513   4.188  12.607 -0.0173  0.7425 -0.0919
  293MPD2    H5 4424   1.597   4.221  12.653  0.6838 -1.2611  0.0621
  293MPD2    N1 4425   1.158   4.260  12.270  0.5636 -0.1370 -0.4172
  293MPD2    H7 4426   1.140   4.300  12.178 -4.2860  0.5268  0.8178
  294TMC3    C1 4427   0.988   4.107  12.201 -0.0972 -0.2248  0.4057
  294TMC3    C2 4428   0.886   4.021  12.235 -0.5035  0.0210  0.0528
  294TMC3    C3 4429   0.799   3.989  12.135 -0.1504  0.6218 -0.4419
  294TMC3    C4 4430   1.010   4.158  12.070 -0.2198  0.0071 -0.1222
  294TMC3    C5 4431   0.906   4.116  11.985  0.1134  0.1637  0.4856
  294TMC3    C6 4432   0.797   4.044  12.013 -0.5978  0.1982  1.2778
  294TMC3     C 4433   1.069   4.160  12.312 -0.1587  0.1924  0.5513
  294TMC3     O 4434   1.051   4.114  12.423 -0.0232 -0.1895 -0.3838
  294TMC3     H 4435   0.882   3.965  12.327 -3.0445  1.0818  0.5950
  294TMC3    H1 4436   1.088   4.221  12.030  0.4631  0.0961  1.3781
  294TMC3    H2 4437   0.717   4.016  11.944  1.2567 -0.2503 -0.7005
  294TMC3    C7 4438   0.912   4.136  11.850 -1.2383 -0.2216  0.1748
  294TMC3    C8 4439   0.696   3.894  12.167  0.6305  0.9983 -0.5246
  294TMC3    O1 4440   0.806   4.157  11.788  0.0099  0.0159  0.0475
  294TMC3    O2 4441   0.650   3.876  12.279  0.6231  0.4701  0.0354
  295MPD2     C 4442   2.543   2.318   0.612  0.5389 -0.3447  0.2123
  295MPD2    C1 4443   2.510   2.433   0.536 -0.2801 -0.0105 -1.0095
  295MPD2    C2 4444   2.380   2.490   0.556 -0.1295 -1.0486  0.3814
  295MPD2    C3 4445   2.289   2.442   0.653 -0.0920  0.6310  0.7604
  295MPD2    C4 4446   2.322   2.322   0.715 -0.8806 -0.4784 -0.0632
  295MPD2    C5 4447   2.439   2.261   0.687 -0.0279  0.1006 -0.4947
  295MPD2     H 4448   2.348   2.575   0.496  0.7427  0.9702  2.7919
  295MPD2    H1 4449   2.259   2.271   0.787 -1.0537  0.3471  0.3697
  295MPD2    H2 4450   2.629   2.259   0.583 -1.2142 -2.5035 -0.6231
  295MPD2    H3 4451   2.459   2.161   0.723  0.2887  0.1287 -0.5894
  295MPD2     N 4452   2.165   2.506   0.684  0.2511 -0.1604  0.1774
  295MPD2    H5 4453   2.094   2.463   0.742 -0.1545  0.4073  0.1035
  295MPD2    N1 4454   2.604   2.492   0.447  0.1150 -0.7114  0.2267
  295MPD2    H7 4455   2.577   2.573   0.392  0.1504 -1.2675 -0.6093
  296TMC3    C1 4456   1.987   2.648   0.659 -0.6736  0.1679  0.9682
  296TMC3    C2 4457   1.945   2.775   0.684  1.0843 -0.0232  0.6906
  296TMC3    C3 4458   1.816   2.793   0.715 -1.2615  0.1190 -0.0568
  296TMC3    C4 4459   1.906   2.532   0.659  0.5490 -0.6124 -0.0599
  296TMC3    C5 4460   1.775   2.564   0.683 -0.5226  0.0435  0.0418
  296TMC3    C6 4461   1.729   2.688   0.706 -0.1283  0.6960 -0.9699
  296TMC3     C 4462   2.122   2.628   0.628 -0.0177  0.1342  1.0012
  296TMC3     O 4463   2.192   2.716   0.579  0.0443 -0.2036 -0.3646
  296TMC3     H 4464   2.017   2.856   0.691 -0.4650  1.2991  1.3267
  296TMC3    H1 4465   1.930   2.434   0.620 -0.7321  0.5123 -3.5954
  296TMC3    H2 4466   1.627   2.705   0.742  0.0458  1.3354 -0.7825
  296TMC3    C7 4467   1.687   2.459   0.720 -0.1199  0.2930 -0.5991
  296TMC3    C8 4468   1.762   2.917   0.777 -0.4612 -0.7946 -0.4718
  296TMC3    O1 4469   1.583   2.450   0.661  0.5582 -0.5228 -0.8187
  296TMC3    O2 4470   1.644   2.938   0.758 -0.1510 -0.1472 -0.3043
  297MPD2     C 4471   4.523   0.041  16.714  0.3639  0.0970  0.1310
  297MPD2    C1 4472   4.538   0.079  16.584  0.3850 -0.1531  0.0991
  297MPD2    C2 4473   4.611   0.191  16.552  0.0472  0.5622  0.1306
  297MPD2    C3 4474   4.659   0.273  16.656  0.5138  0.5244  0.4721
  297MPD2    C4 4475   4.638   0.241  16.790  0.4222 -0.5493  0.5386
  297MPD2    C5 4476   4.572   0.121  16.816  0.5152  0.3298 -0.4799
  297MPD2     H 4477   4.611   0.222  16.448  0.9229  0.1687  0.0055
  297MPD2    H1 4478   4.667   0.300  16.876 -0.1456 -1.3943  1.3074
  297MPD2    H2 4479   4.487   4.667  16.740  2.8108 -0.5586  0.9341
  297MPD2    H3 4480   4.570   0.087  16.919  0.6481 -1.5164 -1.0925
  297MPD2     N 4481   4.717   0.393  16.608 -0.5536  0.2138  0.6250
  297MPD2    H5 4482   0.024   0.390  16.512  0.2321  0.7505  0.8720
  297MPD2    N1 4483   4.479   0.006  16.476 -0.7662 -0.2412  0.3894
  297MPD2    H7 4484   4.485   0.046  16.383  0.0055  0.0261  0.5619
  298TMC3    C1 4485   4.328   4.599  16.364  0.8118 -0.1403 -0.1903
  298TMC3    C2 4486   4.403   4.624  16.252 -0.0907 -0.3475 -0.2280
  298TMC3    C3 4487   4.342   4.621  16.131  0.4370 -0.0977  0.1581
  298TMC3    C4 4488   4.193   4.563  16.364 -0.1627 -0.3699  0.2107
  298TMC3    C5 4489   4.133   4.576  16.243  0.9230  0.3046  1.1805
  298TMC3    C6 4490   4.209   4.599  16.130 -0.2898 -0.2529 -0.0755
  298TMC3     C 4491   4.381   4.632  16.496 -0.4145 -0.4788  0.0648
  298TMC3     O 4492   4.309   4.613  16.596 -0.0767  0.1446  0.3589
  298TMC3     H 4493   4.505   4.660  16.254  0.1549 -0.9496 -2.3167
  298TMC3    H1 4494   4.148   4.531  16.457  1.0240 -1.7309  0.3248
  298TMC3    H2 4495   4.159   4.594  16.034  2.2300  1.6596 -1.4888
  298TMC3    C7 4496   3.994   4.615  16.253  0.1419  0.7803  0.5309
  298TMC3    C8 4497   4.404   4.712  16.033  0.2231 -0.5183 -0.1828
  298TMC3    O1 4498   3.957   4.627  16.369  0.5971  0.4474  0.0762
  298TMC3    O2 4499   4.477   0.079  16.067  0.5724  0.4590 -0.2988
  299MPD2     C 4500   0.096   0.284   9.884 -0.0988 -0.0782 -0.6503
  299MPD2    C1 4501   0.038   0.221   9.990 -0.3984 -0.1432  0.4428
  299MPD2    C2 4502   4.634   0.159   9.973  0.3056 -0.2492  0.4187
  299MPD2    C3 4503   4.573   0.150   9.845  0.1817 -0.3315  0.3017
  299MPD2    C4 4504   4.629   0.222   9.744  0.2575  0.4718 -0.2094
  299MPD2    C5 4505   0.026   0.285   9.759 -0.3197 -0.0078  0.0828
  299MPD2     H 4506   4.581   0.120  10.059  1.2432  1.0208  1.5708
  299MPD2    H1 4507   4.572   0.228   9.652 -2.6930 -1.6234  1.4670
  299MPD2    H2 4508   0.185   0.343   9.902  1.4103 -2.5118 -0.1442
  299MPD2    H3 4509   0.061   0.348   9.678  1.8888  2.4708  2.9414
  299MPD2     N 4510   4.439   0.094   9.837  0.4502 -1.0740  0.2308
  299MPD2    H5 4511   4.392   0.115   9.749  0.1479 -0.2878  0.5893
  299MPD2    N1 4512   0.095   0.246  10.117  0.8446 -0.1071  0.3962
  299MPD2    H7 4513   0.166   0.317  10.128 -1.7925  2.7048 -0.4203
  300TMC3    C1 4514   4.242   4.712   9.900  0.1237  0.2446 -0.3154
  300TMC3    C2 4515   4.161   0.093   9.868  0.1077  0.6258 -0.0188
  300TMC3    C3 4516   4.043   0.124   9.926 -0.2066  0.5474 -0.3999
  300TMC3    C4 4517   4.183   4.632   9.990  0.4162  0.8057  0.0281
  300TMC3    C5 4518   4.051   4.645  10.033 -0.1109 -0.5669  0.0502
  300TMC3    C6 4519   3.984   0.039  10.014 -0.2300 -0.3090 -0.0464
  300TMC3     C 4520   4.378   0.010   9.929 -0.2839  0.8911  0.5331
  300TMC3     O 4521   4.422   4.687  10.030 -0.4891  0.0374  0.1434
  300TMC3     H 4522   4.193   0.167   9.795  1.3307 -0.8421 -0.9776
  300TMC3    H1 4523   4.242   4.550  10.030  0.4852  1.3900  1.1230
  300TMC3    H2 4524   3.905   0.083  10.073 -1.2785 -1.0456 -0.9067
  300TMC3    C7 4525   4.005   4.556  10.142  0.3806 -0.5829  0.0741
  300TMC3    C8 4526   4.041   0.262   9.968  0.1601 -0.2059 -0.3512
  300TMC3    O1 4527   4.075   4.461  10.172  0.2994  0.9697 -0.1357
  300TMC3    O2 4528   4.141   0.331   9.968  0.0802  0.3464  0.5771
  301MPD2     C 4529   2.596   1.075   1.789  0.1481 -0.1492 -0.5376
  301MPD2    C1 4530   2.538   1.080   1.662  0.1468 -0.3806  0.2466
  301MPD2    C2 4531   2.622   1.044   1.560 -0.3059 -0.1780  0.0277
  301MPD2    C3 4532   2.751   0.994   1.567  1.0423  0.2008  0.9529
  301MPD2    C4 4533   2.811   0.994   1.692  0.7346 -0.2281 -0.6734
  301MPD2    C5 4534   2.730   1.033   1.805 -0.1994 -0.1691  0.3632
  301MPD2     H 4535   2.586   1.042   1.458  0.4233  1.7992 -0.2877
  301MPD2    H1 4536   2.914   0.963   1.709  0.9357  1.0024  0.3236
  301MPD2    H2 4537   2.538   1.109   1.874  1.7119  3.1357 -0.7660
  301MPD2    H3 4538   2.773   1.032   1.905 -0.2928 -2.1332  0.3957
  301MPD2     N 4539   2.806   0.936   1.450 -0.0223 -0.0791 -0.2214
  301MPD2    H5 4540   2.747   0.951   1.369  0.0586 -0.5829 -0.3731
  301MPD2    N1 4541   2.398   1.115   1.633 -0.3970 -0.0401 -0.1819
  301MPD2    H7 4542   2.364   1.089   1.541  1.7884 -3.2773 -0.1060
  302TMC3    C1 4543   2.947   0.832   1.300  0.2576 -0.6463 -0.1703
  302TMC3    C2 4544   2.965   0.699   1.271 -0.5942  0.3734 -0.3661
  302TMC3    C3 4545   2.978   0.674   1.133 -0.0984 -0.4184 -0.1675
  302TMC3    C4 4546   2.932   0.928   1.206 -0.2219  0.8855 -0.0467
  302TMC3    C5 4547   2.940   0.893   1.075 -0.3334  0.7230  0.8430
  302TMC3    C6 4548   2.956   0.767   1.036 -0.4871  0.9141 -0.1566
  302TMC3     C 4549   2.924   0.872   1.435  0.2316 -0.1223  0.0580
  302TMC3     O 4550   2.981   0.819   1.526  0.3695 -0.1211  0.3210
  302TMC3     H 4551   2.981   0.630   1.353 -0.0538  0.2230 -0.5988
  302TMC3    H1 4552   2.924   1.034   1.228 -0.5911  1.0168 -0.8252
  302TMC3    H2 4553   2.949   0.728   0.935 -1.5519 -1.6600  0.9106
  302TMC3    C7 4554   2.850   0.977   0.990  0.5159 -0.5540 -0.3222
  302TMC3    C8 4555   2.988   0.535   1.090 -0.2014 -0.1127  0.7002
  302TMC3    O1 4556   2.839   1.097   1.025  0.6556  0.4015  0.1729
  302TMC3    O2 4557   3.029   0.518   0.972  0.2071  0.1407  0.0939
  303MPD2     C 4558   2.102   4.186   9.678  0.4473 -0.0953 -0.1213
  303MPD2    C1 4559   1.981   4.126   9.705 -0.6144  0.1006 -0.3130
  303MPD2    C2 4560   1.971   3.995   9.735 -0.7607  0.3042  0.1946
  303MPD2    C3 4561   2.080   3.909   9.723  0.3378 -0.5264  0.2549
  303MPD2    C4 4562   2.199   3.970   9.685  0.0639 -0.0198 -0.3443
  303MPD2    C5 4563   2.209   4.106   9.657 -0.0902  0.0026  0.2393
  303MPD2     H 4564   1.877   3.949   9.761 -0.0540 -1.2074  0.0838
  303MPD2    H1 4565   2.291   3.913   9.698 -0.2922 -0.1314  1.7142
  303MPD2    H2 4566   2.129   4.288   9.654  0.9695 -0.6556 -1.9268
  303MPD2    H3 4567   2.308   4.148   9.641 -0.2527 -0.0137 -0.7921
  303MPD2     N 4568   2.070   3.767   9.738 -0.0217  0.2307  0.1942
  303MPD2    H5 4569   2.148   3.715   9.699 -0.6158  0.8281 -1.8133
  303MPD2    N1 4570   1.860   4.204   9.707 -0.0158 -0.4583 -0.1269
  303MPD2    H7 4571   1.770   4.160   9.723 -1.2187  1.3842 -1.8467
  304TMC3    C1 4572   1.726   4.399   9.689  0.7656 -0.2328  0.1678
  304TMC3    C2 4573   1.672   4.485   9.600 -0.4665 -0.3125  0.6135
  304TMC3    C3 4574   1.538   4.520   9.623 -0.4460  0.9541  0.4282
  304TMC3    C4 4575   1.671   4.367   9.810 -0.1802  0.2466  0.6401
  304TMC3    C5 4576   1.549   4.423   9.838 -0.3579  0.5916 -0.4764
  304TMC3    C6 4577   1.481   4.505   9.746 -0.5795 -0.4099 -0.4489
  304TMC3     C 4578   1.853   4.333   9.655  1.0239  0.3954 -0.1394
  304TMC3     O 4579   1.927   4.382   9.574 -0.3569  0.0483  0.0649
  304TMC3     H 4580   1.716   4.505   9.503 -3.1103 -0.9795 -0.6882
  304TMC3    H1 4581   1.729   4.311   9.883 -1.9516 -0.8271  1.2322
  304TMC3    H2 4582   1.389   4.553   9.777  0.0442 -0.7947  1.9912
  304TMC3    C7 4583   1.459   4.329   9.897 -0.1323  0.6529  0.0085
  304TMC3    C8 4584   1.457   4.485   9.506  0.2863 -0.4916 -0.0380
  304TMC3    O1 4585   1.348   4.341   9.849 -0.3584 -0.5653  0.0175
  304TMC3    O2 4586   1.520   4.491   9.401 -0.2634 -0.3423  0.7212
  305MPD2     C 4587   0.363   0.509  13.998  0.2018  0.1222  0.3988
  305MPD2    C1 4588   0.376   0.641  13.970 -0.6534  0.6158 -0.2217
  305MPD2    C2 4589   0.347   0.690  13.842 -0.5677  0.3854  0.2611
  305MPD2    C3 4590   0.284   0.613  13.749  0.0138 -0.3957 -0.5836
  305MPD2    C4 4591   0.245   0.485  13.781  0.2605 -0.3573  0.6803
  305MPD2    C5 4592   0.298   0.431  13.899 -0.0314 -0.3491 -0.3556
  305MPD2     H 4593   0.365   0.795  13.823  2.5566 -0.6723 -2.5314
  305MPD2    H1 4594   0.199   0.410  13.717 -2.3762  2.1344 -0.3214
  305MPD2    H2 4595   0.396   0.453  14.084  2.0766  0.7261  0.0626
  305MPD2    H3 4596   0.289   0.324  13.914  2.5188 -0.4442  0.4520
  305MPD2     N 4597   0.254   0.653  13.623  0.0045 -0.5577  0.1619
  305MPD2    H5 4598   0.215   0.584  13.560 -0.3799 -0.5370  0.3816
  305MPD2    N1 4599   0.435   0.718  14.080  0.0844 -0.6884  0.0934
  305MPD2    H7 4600   0.470   0.666  14.159 -0.5243 -0.3174  0.6037
  306TMC3    C1 4601   0.519   0.898  14.214 -0.0121 -0.2536  0.5118
  306TMC3    C2 4602   0.546   0.814  14.315 -0.9398  0.5220  0.6110
  306TMC3    C3 4603   0.563   0.865  14.439  0.5515  0.7276  0.2454
  306TMC3    C4 4604   0.514   1.030  14.234 -0.3018  0.0435 -0.2419
  306TMC3    C5 4605   0.529   1.080  14.360  0.5169  0.0306 -0.0602
  306TMC3    C6 4606   0.553   0.996  14.467  0.0792  0.5885  0.3406
  306TMC3     C 4607   0.462   0.853  14.082  0.3280 -0.0845 -0.5331
  306TMC3     O 4608   0.428   0.938  13.998 -0.3050  0.3221  0.3808
  306TMC3     H 4609   0.565   0.708  14.304 -3.2255  0.2764 -0.9204
  306TMC3    H1 4610   0.504   1.100  14.151 -1.2889  2.3073  1.7586
  306TMC3    H2 4611   0.544   1.034  14.569  3.9678 -1.1381  1.3271
  306TMC3    C7 4612   0.483   1.216  14.374 -0.5021  0.0205 -0.4042
  306TMC3    C8 4613   0.614   0.775  14.545 -1.0855  0.3210 -0.1969
  306TMC3    O1 4614   0.409   1.258  14.281 -0.0310 -0.2677 -0.2752
  306TMC3    O2 4615   0.608   0.656  14.526  0.3646 -0.3455  0.5909
  307MPD2     C 4616   2.547   3.154   1.389  0.3065 -0.4507  0.0349
  307MPD2    C1 4617   2.561   3.226   1.268  0.6327 -0.6724  0.1910
  307MPD2    C2 4618   2.481   3.333   1.242  0.1534 -0.6346 -0.0423
  307MPD2    C3 4619   2.382   3.373   1.332  1.0062  0.4336  0.5621
  307MPD2    C4 4620   2.374   3.314   1.454 -0.4423  0.9800 -0.5120
  307MPD2    C5 4621   2.466   3.214   1.481 -0.4826 -0.5462  0.4432
  307MPD2     H 4622   2.484   3.367   1.139 -2.2360  1.9253  0.7200
  307MPD2    H1 4623   2.297   3.338   1.527  0.2810 -0.9824  0.8881
  307MPD2    H2 4624   2.589   3.056   1.411 -2.1841 -1.8994 -1.6458
  307MPD2    H3 4625   2.449   3.165   1.576 -1.9432  0.7290  0.8280
  307MPD2     N 4626   2.302   3.484   1.289  0.3073  0.1564 -0.0209
  307MPD2    H5 4627   2.306   3.503   1.189  3.8962  0.3609  0.1771
  307MPD2    N1 4628   2.645   3.193   1.161  0.1070  0.1240 -0.1452
  307MPD2    H7 4629   2.627   3.242   1.074  1.3353  1.3061  0.2698
  308TMC3    C1 4630   2.145   3.734   1.086 -0.3785 -0.2875  0.1464
  308TMC3    C2 4631   2.212   3.847   1.119  0.0681  0.3089 -0.3855
  308TMC3    C3 4632   2.247   3.866   1.253  0.1270 -0.8306  0.0022
  308TMC3    C4 4633   2.110   3.637   1.186 -0.0470  0.4380 -0.4294
  308TMC3    C5 4634   2.158   3.663   1.315 -0.5869 -0.1514 -0.5858
  308TMC3    C6 4635   2.214   3.785   1.358  0.3683  0.3384  0.2090
  308TMC3     C 4636   2.044   3.757   0.987 -0.5640 -0.2137 -0.3019
  308TMC3     O 4637   1.933   3.708   1.012  0.0312  0.1728  0.5076
  308TMC3     H 4638   2.204   3.932   1.052 -0.1747  0.2417 -0.4406
  308TMC3    H1 4639   2.053   3.550   1.155  1.3112 -1.1419  1.4866
  308TMC3    H2 4640   2.260   3.801   1.455  1.6039 -0.5300 -0.2237
  308TMC3    C7 4641   2.224   3.555   1.380 -0.4638  0.9477 -0.2227
  308TMC3    C8 4642   2.369   3.945   1.270 -0.0944 -0.3896  0.2268
  308TMC3    O1 4643   2.215   3.552   1.503  0.1507 -0.1046 -0.1483
  308TMC3    O2 4644   2.396   3.984   1.383  0.4820  0.6134  0.4644
  309MPD2     C 4645   2.258   4.033  16.640  0.3971 -0.4988 -0.0976
  309MPD2    C1 4646   2.256   4.155  16.588  0.1517 -0.3428 -0.0842
  309MPD2    C2 4647   2.152   4.237  16.625  0.0672 -0.1423  0.2010
  309MPD2    C3 4648   2.044   4.185  16.696  0.2971 -0.1047 -0.3752
  309MPD2    C4 4649   2.049   4.055  16.749  0.1161  0.7066 -0.0227
  309MPD2    C5 4650   2.163   3.980  16.722 -0.3215 -0.1483 -0.0189
  309MPD2     H 4651   2.159   4.341  16.595  0.6276 -0.7089 -1.6174
  309MPD2    H1 4652   1.963   4.011  16.799  0.8347  1.3124  1.7460
  309MPD2    H2 4653   2.344   3.970  16.621  0.0787 -0.9412 -0.0607
  309MPD2    H3 4654   2.176   3.882  16.766  1.1461 -0.2661 -0.7121
  309MPD2     N 4655   1.934   4.267  16.726  0.4568 -0.3758  0.3016
  309MPD2    H5 4656   1.870   4.219  16.788  0.9861 -1.2031  0.2205
  309MPD2    N1 4657   2.350   4.204  16.490 -0.2466  0.1651 -0.1920
  309MPD2    H7 4658   2.319   4.298  16.467 -1.2465  0.2512  1.5075
  310TMC3    C1 4659   2.542   4.234  16.340 -0.5810  0.6449  0.1280
  310TMC3    C2 4660   2.496   4.360  16.299  0.3134 -0.2295  0.0619
  310TMC3    C3 4661   2.565   4.423  16.199  0.4919  0.0691 -0.1388
  310TMC3    C4 4662   2.647   4.177  16.278  0.8891 -0.0584 -0.1033
  310TMC3    C5 4663   2.718   4.255  16.185 -0.0187 -0.5603 -0.4914
  310TMC3    C6 4664   2.681   4.382  16.158 -0.4296  0.2117 -0.3331
  310TMC3     C 4665   2.468   4.146  16.434  0.5162 -1.3003 -0.9053
  310TMC3     O 4666   2.512   4.039  16.466 -0.1987 -0.1930  0.1858
  310TMC3     H 4667   2.416   4.415  16.348 -1.0487 -1.9093 -0.2890
  310TMC3    H1 4668   2.667   4.072  16.293 -1.1602 -0.6178 -1.3094
  310TMC3    H2 4669   2.729   4.429  16.073  0.9026 -0.7003 -0.0904
  310TMC3    C7 4670   2.809   4.192  16.089  0.4430 -0.5484 -1.0207
  310TMC3    C8 4671   2.523   4.554  16.150 -0.1613  0.2011  0.2578
  310TMC3    O1 4672   2.797   4.076  16.070  0.3097 -0.5951 -0.2508
  310TMC3    O2 4673   2.615   4.632  16.114  0.3319 -0.3541  0.7022
  311MPD2     C 4674   3.910   0.801  12.712  0.1212 -0.1009  0.1072
  311MPD2    C1 4675   3.876   0.935  12.680  1.1822 -0.3845 -0.2599
  311MPD2    C2 4676   3.744   0.970  12.696  0.1257 -0.1029  0.6386
  311MPD2    C3 4677   3.644   0.882  12.722 -0.9982 -0.7059 -0.5122
  311MPD2    C4 4678   3.679   0.749  12.738 -0.3024 -0.0464 -0.1280
  311MPD2    C5 4679   3.809   0.711  12.735 -0.2643  0.0906  0.2734
  311MPD2     H 4680   3.716   1.074  12.687 -0.9130 -0.5972 -2.0004
  311MPD2    H1 4681   3.605   0.673  12.760 -2.3106  1.5967 -1.1173
  311MPD2    H2 4682   4.006   0.751  12.709 -0.3624 -1.1563  2.2977
  311MPD2    H3 4683   3.831   0.604  12.737  1.9887  0.5725  0.9445
  311MPD2     N 4684   3.520   0.934  12.735 -0.1324  0.5578  0.1088
  311MPD2    H5 4685   3.513   1.035  12.727  0.5100  0.6896  1.2736
  311MPD2    N1 4686   3.966   1.039  12.660 -0.4830  0.0615  0.2483
  311MPD2    H7 4687   3.930   1.132  12.643 -1.8948 -0.5925 -0.3455
  312TMC3    C1 4688   3.285   0.928  12.755  0.4818 -0.2024 -0.2508
  312TMC3    C2 4689   3.163   0.862  12.725 -0.7588  0.2225 -0.8538
  312TMC3    C3 4690   3.041   0.924  12.748 -0.1246  0.2021  0.0705
  312TMC3    C4 4691   3.292   1.059  12.801  0.7521 -0.0177 -0.0463
  312TMC3    C5 4692   3.165   1.106  12.821 -1.3991  0.0846  0.8753
  312TMC3    C6 4693   3.038   1.054  12.797 -0.3205 -0.5462  0.3450
  312TMC3     C 4694   3.408   0.854  12.728 -0.3011  1.1050 -0.1510
  312TMC3     O 4695   3.398   0.735  12.707  0.4602 -0.0742  0.0074
  312TMC3     H 4696   3.169   0.769  12.671  1.2615 -0.3900  0.4236
  312TMC3    H1 4697   3.379   1.101  12.851 -1.0428  0.9558  2.2859
  312TMC3    H2 4698   2.946   1.107  12.819  0.1021 -0.1189  1.0625
  312TMC3    C7 4699   3.162   1.230  12.891 -0.5687 -0.0362 -0.5538
  312TMC3    C8 4700   2.911   0.867  12.717 -0.0602  0.0608 -0.0913
  312TMC3    O1 4701   3.083   1.314  12.855 -0.4946  0.3803  0.4172
  312TMC3    O2 4702   2.819   0.943  12.706  0.0569 -0.1731 -0.3288
  313MPD2     C 4703   3.664   0.414  10.388  0.1401 -0.4500  0.2645
  313MPD2    C1 4704   3.550   0.456  10.314  0.3748  0.3115  0.3762
  313MPD2    C2 4705   3.513   0.383  10.204  0.2510  0.4911 -0.1566
  313MPD2    C3 4706   3.571   0.264  10.176  0.3903  0.0207  0.3829
  313MPD2    C4 4707   3.682   0.223  10.247  0.8108 -0.3764  0.6105
  313MPD2    C5 4708   3.727   0.302  10.351 -0.6518  0.4415 -0.1112
  313MPD2     H 4709   3.439   0.421  10.134 -2.2837 -0.6679  1.8799
  313MPD2    H1 4710   3.738   0.133  10.225 -0.2123 -0.6652 -0.8392
  313MPD2    H2 4711   3.698   0.473  10.472  0.3952  0.4075 -0.4425
  313MPD2    H3 4712   3.815   0.267  10.404  0.1466  0.8198 -1.1902
  313MPD2     N 4713   3.511   0.190  10.072  0.2490  0.2939  0.4137
  313MPD2    H5 4714   3.420   0.218  10.035  0.3687  1.9316  1.4035
  313MPD2    N1 4715   3.487   0.580  10.335 -0.0520 -0.2117 -0.1762
  313MPD2    H7 4716   3.418   0.606  10.267  0.8669  0.7291 -0.7464
  314TMC3    C1 4717   3.467   0.798  10.415  0.7001  0.3613 -0.5820
  314TMC3    C2 4718   3.433   0.867  10.528 -0.6336  0.5421  0.3941
  314TMC3    C3 4719   3.347   0.975  10.500  0.8862 -0.8697  0.1505
  314TMC3    C4 4720   3.444   0.841  10.290  0.1789 -0.0447 -0.1533
  314TMC3    C5 4721   3.396   0.969  10.272  0.1699  0.0191  0.3631
  314TMC3    C6 4722   3.343   1.032  10.375 -0.3738 -0.0147 -0.1748
  314TMC3     C 4723   3.510   0.663  10.439 -0.6615  0.6867 -1.0018
  314TMC3     O 4724   3.555   0.641  10.550 -0.2948  0.7080  0.5337
  314TMC3     H 4725   3.441   0.825  10.628 -0.0579 -2.1291 -0.7738
  314TMC3    H1 4726   3.475   0.782  10.204  1.3235 -0.1561  0.3432
  314TMC3    H2 4727   3.289   1.123  10.351 -2.4575 -2.0307 -3.1724
  314TMC3    C7 4728   3.455   1.051  10.177 -0.7492  0.2908 -0.2620
  314TMC3    C8 4729   3.349   1.076  10.604 -0.0310 -0.1156 -0.5920
  314TMC3    O1 4730   3.478   1.170  10.202 -0.1256 -0.2537 -0.4615
  314TMC3    O2 4731   3.343   1.193  10.570  0.3821 -0.2822  0.2546
  315MPD2     C 4732   3.325   4.446  17.678  0.1203  0.3434  0.0395
  315MPD2    C1 4733   3.459   4.412   0.001 -0.2987  0.1539  0.3592
  315MPD2    C2 4734   3.557   4.509  17.683 -0.2069  0.5714  0.9584
  315MPD2    C3 4735   3.537   4.630  17.622 -0.0173 -0.5672 -0.5402
  315MPD2    C4 4736   3.399   4.668  17.604  0.7023  0.4184  0.8486
  315MPD2    C5 4737   3.303   4.574  17.632 -0.5488 -0.2636 -0.4866
  315MPD2     H 4738   3.653   4.473   0.017 -0.2457 -0.6904 -0.2102
  315MPD2    H1 4739   3.357   0.040  17.577  0.9810  0.6224  1.1450
  315MPD2    H2 4740   3.243   4.380   0.002  2.4827 -2.8237 -0.5864
  315MPD2    H3 4741   3.205   4.617  17.617 -0.0442  1.4985  1.3046
  315MPD2     N 4742   3.646   4.706  17.590  0.6212  0.2376 -0.0621
  315MPD2    H5 4743   3.732   4.675  17.635  1.1434  1.4068 -0.2626
  315MPD2    N1 4744   3.499   4.283   0.043 -0.5073 -0.3026  0.2446
  315MPD2    H7 4745   3.599   4.275   0.062 -0.6733 -0.1458  1.1670
  316TMC3    C1 4746   3.767   0.183  17.513 -0.4772 -0.1408 -0.1552
  316TMC3    C2 4747   3.884   0.151  17.575  0.7829 -0.7641  0.1557
  316TMC3    C3 4748   3.976   0.252  17.600 -0.4744  0.6409  0.0258
  316TMC3    C4 4749   3.745   0.310  17.471 -0.4105  0.1062 -0.2215
  316TMC3    C5 4750   3.834   0.408  17.506  0.0961  0.2918 -0.5847
  316TMC3    C6 4751   3.956   0.384  17.566 -0.3058  0.1526 -0.0770
  316TMC3     C 4752   3.647   0.092  17.506  0.3367 -0.0035 -0.1778
  316TMC3     O 4753   3.549   0.135  17.449 -0.4898 -0.3156  0.0315
  316TMC3     H 4754   3.901   0.046  17.598 -0.2208 -0.5531  1.8118
  316TMC3    H1 4755   3.650   0.339  17.429  0.2217  1.3341 -0.7912
  316TMC3    H2 4756   4.027   0.461  17.597  2.5657 -1.5280 -2.4353
  316TMC3    C7 4757   3.828   0.523  17.415 -0.3590  0.0322 -0.1368
  316TMC3    C8 4758   4.115   0.222  17.641 -0.4202  0.4579  0.0361
  316TMC3    O1 4759   3.856   0.623  17.476 -0.6733 -0.0037  0.1258
  316TMC3    O2 4760   4.192   0.315  17.647 -0.3206  0.3196  0.1280
  317MPD2     C 4761   0.435   3.139  12.751  0.5797 -0.5132 -0.4429
  317MPD2    C1 4762   0.514   3.028  12.729 -0.2194 -0.2458  0.8543
  317MPD2    C2 4763   0.542   2.941  12.833 -0.0032  0.3446 -0.5223
  317MPD2    C3 4764   0.494   2.969  12.961 -0.4964  0.7450  1.5582
  317MPD2    C4 4765   0.424   3.090  12.989 -0.6167 -0.8326  0.4411
  317MPD2    C5 4766   0.386   3.161  12.876 -0.2235 -0.0211 -0.3665
  317MPD2     H 4767   0.608   2.856  12.822  1.3511  1.2507  0.5821
  317MPD2    H1 4768   0.373   3.113  13.082  0.8057 -0.3277  1.0811
  317MPD2    H2 4769   0.390   3.194  12.669  1.3674  0.6533 -0.0903
  317MPD2    H3 4770   0.309   3.236  12.882 -0.4394 -0.3353  0.6861
  317MPD2     N 4771   0.516   2.869  13.062  0.5340  0.1749  1.0919
  317MPD2    H5 4772   0.557   2.779  13.036  0.3617  0.3735  0.1458
  317MPD2    N1 4773   0.549   2.989  12.602 -0.2682  0.1882  0.0547
  317MPD2    H7 4774   0.581   2.893  12.594 -1.2257 -0.1822  0.6792
  318TMC3    C1 4775   0.580   2.766  13.263 -0.1861  1.0357 -0.5919
  318TMC3    C2 4776   0.523   2.645  13.241  0.4116 -0.1324  0.0001
  318TMC3    C3 4777   0.582   2.538  13.310 -0.9828  0.0263 -0.6771
  318TMC3    C4 4778   0.698   2.786  13.329  0.0378  0.3212 -0.4685
  318TMC3    C5 4779   0.766   2.674  13.368 -0.7233 -0.1675  0.2632
  318TMC3    C6 4780   0.707   2.547  13.369 -0.2342  0.6932  0.6182
  318TMC3     C 4781   0.522   2.887  13.200  0.2806 -0.4765 -0.1325
  318TMC3     O 4782   0.509   2.998  13.256  0.2533 -0.1597  0.1589
  318TMC3     H 4783   0.428   2.634  13.188 -1.5658  1.6066  3.2216
  318TMC3    H1 4784   0.740   2.886  13.339  2.8758 -0.6426 -2.5974
  318TMC3    H2 4785   0.762   2.462  13.408 -0.7399  0.7597  1.4545
  318TMC3    C7 4786   0.891   2.706  13.439 -0.0567 -0.0359  0.1363
  318TMC3    C8 4787   0.518   2.411  13.322 -0.2628  0.7848  0.2079
  318TMC3    O1 4788   0.915   2.828  13.459 -0.3558 -0.7341 -0.3057
  318TMC3    O2 4789   0.588   2.313  13.341  0.0702  0.0201 -0.0394
  319MPD2     C 4790   1.735   3.613  16.045 -0.3305 -0.6972  0.4752
  319MPD2    C1 4791   1.668   3.623  16.165 -0.0434  0.4351 -0.1526
  319MPD2    C2 4792   1.547   3.686  16.168 -0.0663  0.1098  0.2832
  319MPD2    C3 4793   1.488   3.745  16.055 -0.3886 -0.1974 -0.8524
  319MPD2    C4 4794   1.565   3.741  15.936  0.1839  0.3794 -0.3579
  319MPD2    C5 4795   1.684   3.674  15.936  0.5457 -0.2692 -0.2900
  319MPD2     H 4796   1.489   3.683  16.259 -3.0269  1.8360 -1.5606
  319MPD2    H1 4797   1.526   3.777  15.841 -1.7936  0.5366  0.5036
  319MPD2    H2 4798   1.832   3.565  16.045  0.0057 -0.0205 -1.2668
  319MPD2    H3 4799   1.746   3.665  15.847 -0.0683  0.0291 -0.7446
  319MPD2     N 4800   1.350   3.784  16.047 -0.0971  0.0181 -0.0826
  319MPD2    H5 4801   1.313   3.799  15.954 -0.7168  2.8531  0.6270
  319MPD2    N1 4802   1.704   3.554  16.282  0.1074 -0.4714 -0.1302
  319MPD2    H7 4803   1.642   3.564  16.362  0.1753 -0.6048 -0.0604
  320TMC3    C1 4804   1.137   3.827  16.100  0.5368  0.5117  0.1063
  320TMC3    C2 4805   1.113   3.918  16.002 -0.4127  0.0653 -0.0225
  320TMC3    C3 4806   1.006   3.915  15.917 -0.2077 -1.2168  0.6352
  320TMC3    C4 4807   1.056   3.722  16.117  0.3221 -0.1715  0.2989
  320TMC3    C5 4808   0.941   3.712  16.038 -0.0093  0.4133  0.2549
  320TMC3    C6 4809   0.921   3.809  15.940 -0.4116 -0.1351 -0.2714
  320TMC3     C 4810   1.262   3.804  16.147 -0.1616  0.0365 -0.6944
  320TMC3     O 4811   1.273   3.772  16.264  0.2514 -0.0020  0.1473
  320TMC3     H 4812   1.190   3.992  15.983 -2.4571  2.5975  1.5574
  320TMC3    H1 4813   1.087   3.652  16.193 -1.7282 -0.5605  0.7715
  320TMC3    H2 4814   0.829   3.816  15.883 -0.3561  2.1701 -0.1028
  320TMC3    C7 4815   0.888   3.583  16.029 -0.3486  0.2752  0.4452
  320TMC3    C8 4816   0.955   4.051  15.877 -0.5223 -0.7339 -0.3427
  320TMC3    O1 4817   0.849   3.557  15.918  0.2877 -0.5976  0.0247
  320TMC3    O2 4818   1.026   4.140  15.915 -0.2922  0.8494  0.4890
  321TMC3    C1 4819   1.784   3.375  16.412  0.0352 -0.7972  0.2541
  321TMC3    C2 4820   1.742   3.432  16.531  0.7604  0.5249  0.2623
  321TMC3    C3 4821   1.721   3.351  16.637  0.0865 -0.1209  1.0965
  321TMC3    C4 4822   1.828   3.248  16.402  0.8250 -0.6259  0.1565
  321TMC3    C5 4823   1.808   3.169  16.510  0.0810  0.6117  0.5199
  321TMC3    C6 4824   1.747   3.217  16.625 -0.5610  0.4585  0.0381
  321TMC3     C 4825   1.800   3.458  16.298 -0.2854  0.0129  0.3828
  321TMC3     O 4826   1.880   3.413  16.220  0.0783 -0.3252 -0.2126
  321TMC3     H 4827   1.730   3.539  16.539  1.1328  0.5836  0.0336
  321TMC3    H1 4828   1.866   3.206  16.309  1.9052  0.7299 -0.0143
  321TMC3    H2 4829   1.730   3.150  16.709  1.2415 -1.0220 -0.7886
  321TMC3    C7 4830   1.908   3.068  16.537  0.1852 -0.4722  0.0514
  321TMC3    C8 4831   1.799   3.399  16.750 -0.2808  0.1065  0.1911
  321TMC3    O1 4832   1.958   3.013  16.437  0.1763 -0.4262  0.0378
  321TMC3    O2 4833   1.832   3.308  16.820 -0.1872 -0.4027 -0.0909
  322MPD2     C 4834   0.600   0.623  13.130  0.0593 -0.1032 -0.0127
  322MPD2    C1 4835   0.614   0.581  13.255 -0.3566 -1.0042  0.1094
  322MPD2    C2 4836   0.607   0.443  13.269 -0.6296  0.3134 -0.9832
  322MPD2    C3 4837   0.584   0.355  13.166  0.0276 -0.4443  0.5227
  322MPD2    C4 4838   0.574   0.402  13.038  0.7564  0.2969 -0.2412
  322MPD2    C5 4839   0.578   0.538  13.023  0.3267  0.7775 -0.1670
  322MPD2     H 4840   0.613   0.394  13.365  1.5047  0.4854 -1.0299
  322MPD2    H1 4841   0.567   0.342  12.948  3.6518 -0.7429  0.2169
  322MPD2    H2 4842   0.596   0.729  13.108 -1.3824 -0.0331  0.5969
  322MPD2    H3 4843   0.593   0.574  12.922  1.7770 -0.3699 -0.3667
  322MPD2     N 4844   0.567   0.215  13.200 -0.2026 -0.1823 -0.5841
  322MPD2    H5 4845   0.572   0.182  13.296  0.8829  1.1012 -0.1956
  322MPD2    N1 4846   0.635   0.674  13.363 -0.5494 -0.2159 -0.3377
  322MPD2    H7 4847   0.648   0.771  13.337  3.2288 -0.7216 -0.4634
  323TMC3    C1 4848   0.680   0.729  13.587 -0.4471 -0.4616  0.4110
  323TMC3    C2 4849   0.774   0.822  13.544  0.5131 -0.5708 -0.3365
  323TMC3    C3 4850   0.849   0.892  13.639  0.0423  0.0234  0.1328
  323TMC3    C4 4851   0.669   0.699  13.715  0.8779 -0.0627 -0.5825
  323TMC3    C5 4852   0.735   0.773  13.805 -0.1654  0.3847 -0.0161
  323TMC3    C6 4853   0.834   0.863  13.774 -0.0382 -0.3618  0.3193
  323TMC3     C 4854   0.627   0.636  13.493  0.6038 -0.6226  0.8072
  323TMC3     O 4855   0.587   0.530  13.542 -0.4222  0.2844  0.5398
  323TMC3     H 4856   0.788   0.839  13.438  0.1563 -0.3714 -0.3504
  323TMC3    H1 4857   0.600   0.623  13.751  0.2703  0.8673  0.2288
  323TMC3    H2 4858   0.895   0.925  13.839 -1.2831  0.8174  0.3539
  323TMC3    C7 4859   0.748   0.698  13.927  0.6379  0.9652  0.4004
  323TMC3    C8 4860   0.949   0.993  13.593 -0.3042  0.7554  0.1298
  323TMC3    O1 4861   0.729   0.576  13.924 -0.3549 -0.0182  0.0391
  323TMC3    O2 4862   1.039   1.015  13.671 -1.1719 -0.4890 -0.5021
  324MPD2     C 4863   1.933   1.244  14.482  0.7007  0.4327  0.1350
  324MPD2    C1 4864   1.952   1.380  14.460  0.0516  0.3885 -0.2793
  324MPD2    C2 4865   1.855   1.452  14.385 -0.0418  0.3988 -0.3726
  324MPD2    C3 4866   1.739   1.387  14.337 -0.2180  0.0025 -0.4798
  324MPD2    C4 4867   1.724   1.255  14.365  0.1848  0.0653 -0.5414
  324MPD2    C5 4868   1.817   1.184  14.439  0.8483 -0.1859  0.5095
  324MPD2     H 4869   1.876   1.557  14.365 -0.4274 -0.0451 -3.0587
  324MPD2    H1 4870   1.639   1.197  14.333 -2.2420  2.0128  2.4135
  324MPD2    H2 4871   2.006   1.187  14.538 -1.0220 -0.8075  1.1314
  324MPD2    H3 4872   1.787   1.081  14.454  1.0647 -0.4271 -0.7722
  324MPD2     N 4873   1.633   1.452  14.272  0.2922 -0.3669  0.7346
  324MPD2    H5 4874   1.557   1.395  14.237  0.8040 -1.3159  1.1802
  324MPD2    N1 4875   2.072   1.442  14.508 -1.0289 -0.5369 -0.2810
  324MPD2    H7 4876   2.073   1.541  14.486 -2.6354 -0.8903 -1.9548
  325TMC3    C1 4877   1.517   1.637  14.174 -0.4388  0.3666  0.3501
  325TMC3    C2 4878   1.405   1.569  14.172  0.2794 -1.7509 -0.2606
  325TMC3    C3 4879   1.291   1.638  14.135  0.0184 -0.2857  0.4086
  325TMC3    C4 4880   1.522   1.762  14.112  0.1795  0.0814  0.4945
  325TMC3    C5 4881   1.408   1.821  14.073  0.3025  0.9877  0.3993
  325TMC3    C6 4882   1.282   1.766  14.084 -0.6731 -0.1107  0.0591
  325TMC3     C 4883   1.632   1.588  14.257  0.3486 -1.1326  0.5624
  325TMC3     O 4884   1.709   1.678  14.289  0.4514  0.0123  0.5050
  325TMC3     H 4885   1.372   1.495  14.244 -1.1781 -0.3772  0.5016
  325TMC3    H1 4886   1.605   1.829  14.131  0.7009 -0.5178  0.3201
  325TMC3    H2 4887   1.189   1.808  14.048  0.7385  2.4813 -0.6399
  325TMC3    C7 4888   1.427   1.964  14.046  0.2254 -0.9982  0.0263
  325TMC3    C8 4889   1.169   1.564  14.145  0.3601  0.4318  0.4238
  325TMC3    O1 4890   1.539   2.005  14.009 -0.3178  0.0763  0.3162
  325TMC3    O2 4891   1.178   1.443  14.164  0.0027 -0.1058 -0.0264
  326MPD2     C 4892   2.864   2.736  10.562 -0.6777  0.5450  0.1698
  326MPD2    C1 4893   2.988   2.744  10.497  0.1725  0.7958 -0.3060
  326MPD2    C2 4894   3.070   2.858  10.512 -0.2621 -0.0705 -0.6629
  326MPD2    C3 4895   3.024   2.965  10.583 -0.0227 -0.0825 -0.2160
  326MPD2    C4 4896   2.909   2.956  10.654 -0.5459  0.2181 -0.6245
  326MPD2    C5 4897   2.825   2.840  10.648  0.4789  0.0159  0.7472
  326MPD2     H 4898   3.174   2.856  10.480  0.4312  0.5612  1.5426
  326MPD2    H1 4899   2.866   3.037  10.711 -0.4484 -0.8266  0.9334
  326MPD2    H2 4900   2.803   2.646  10.566  0.7824 -0.4126  1.1003
  326MPD2    H3 4901   2.730   2.845  10.700  0.4444  1.8004  0.5048
  326MPD2     N 4902   3.102   3.086  10.581 -0.1560  0.6734 -0.0234
  326MPD2    H5 4903   3.085   3.151  10.656 -0.9751  1.0967 -0.5763
  326MPD2    N1 4904   3.035   2.644  10.407 -0.1688  0.2846 -0.2966
  326MPD2    H7 4905   3.109   2.673  10.345  0.2517  0.8540  0.4716
  327TMC3    C1 4906   3.037   2.461  10.260  0.6324 -0.0127 -0.3843
  327TMC3    C2 4907   2.952   2.464  10.150 -0.3082  0.3760 -0.4231
  327TMC3    C3 4908   3.012   2.514  10.031  0.0883  0.6272  0.3624
  327TMC3    C4 4909   3.169   2.505  10.238  0.1227  0.1917 -0.0562
  327TMC3    C5 4910   3.223   2.538  10.116  0.2326 -0.4340  0.3254
  327TMC3    C6 4911   3.141   2.547  10.010  0.4349  0.0502 -0.0472
  327TMC3     C 4912   2.972   2.522  10.377 -0.6403 -0.1644  0.0377
  327TMC3     O 4913   2.862   2.481  10.416 -0.1628 -0.0469 -0.2572
  327TMC3     H 4914   2.846   2.475  10.169  0.2822  2.2465  1.7107
  327TMC3    H1 4915   3.235   2.508  10.324  0.8767  2.1400 -0.7006
  327TMC3    H2 4916   3.171   2.596   9.918 -0.7337 -0.7156 -0.8215
  327TMC3    C7 4917   3.363   2.546  10.084  0.5131  0.1609 -0.0984
  327TMC3    C8 4918   2.931   2.615   9.972 -0.7050  0.3095 -0.2134
  327TMC3    O1 4919   3.399   2.537   9.967 -0.1851 -0.6305  0.7113
  327TMC3    O2 4920   2.983   2.726   9.959  0.6663  0.1123  0.5428
  328MPD2     C 4921   0.998   2.148  17.373 -0.5114  0.0766  0.1688
  328MPD2    C1 4922   0.886   2.140  17.293 -0.7958 -0.2828  0.1194
  328MPD2    C2 4923   0.843   2.246  17.216  0.5918  0.0731 -0.1352
  328MPD2    C3 4924   0.925   2.361  17.206  0.3699  0.1103 -0.0783
  328MPD2    C4 4925   1.044   2.362  17.283  0.2197 -0.1707 -0.1310
  328MPD2    C5 4926   1.071   2.263  17.377 -0.1616  0.2863 -0.5150
  328MPD2     H 4927   0.755   2.230  17.156  2.6937 -0.1874 -3.1706
  328MPD2    H1 4928   1.101   2.452  17.303 -1.4877  1.1842 -1.3365
  328MPD2    H2 4929   1.017   2.067  17.442  0.0909 -1.1846 -1.4703
  328MPD2    H3 4930   1.151   2.280  17.448  0.8803 -1.7023 -1.2200
  328MPD2     N 4931   0.899   2.479  17.124  0.3346  0.5679  0.2527
  328MPD2    H5 4932   0.955   2.564  17.133  0.6544  0.5877 -1.8961
  328MPD2    N1 4933   0.794   2.028  17.289  0.4423  0.1689  0.1415
  328MPD2    H7 4934   0.707   2.049  17.242  0.3988 -2.1925 -0.8287
  329TMC3    C1 4935   0.703   1.829  17.331  0.1547 -0.1505 -0.2997
  329TMC3    C2 4936   0.587   1.894  17.360 -0.1654 -0.0849 -0.3991
  329TMC3    C3 4937   0.482   1.850  17.290 -0.0280  0.6824 -0.5670
  329TMC3    C4 4938   0.723   1.729  17.244  0.2212 -0.3718 -0.2652
  329TMC3    C5 4939   0.617   1.696  17.167 -0.4793 -0.8902 -0.8964
  329TMC3    C6 4940   0.492   1.743  17.195 -0.5573  0.2074  0.5640
  329TMC3     C 4941   0.818   1.910  17.346  0.2165 -0.0513  0.0704
  329TMC3     O 4942   0.924   1.858  17.380 -0.3786  0.5193 -0.0416
  329TMC3     H 4943   0.591   1.963  17.444  0.9325  0.4719 -0.9061
  329TMC3    H1 4944   0.822   1.685  17.246  0.6368  0.6448  1.2318
  329TMC3    H2 4945   0.413   1.734  17.121  0.9994  0.7622 -1.1802
  329TMC3    C7 4946   0.645   1.630  17.046 -0.4612  0.1034 -0.1827
  329TMC3    C8 4947   0.365   1.937  17.281  0.1659  0.6018  0.2895
  329TMC3    O1 4948   0.562   1.618  16.960 -0.0839 -0.0844 -0.5701
  329TMC3    O2 4949   0.312   1.944  17.170 -0.0046 -0.3088 -0.1129
  330TMC3    C1 4950   3.385   2.376   9.117 -0.0987 -0.0441  0.0997
  330TMC3    C2 4951   3.342   2.258   9.057 -0.0472  0.5935  0.5610
  330TMC3    C3 4952   3.412   2.146   9.086 -0.8461  0.7590  0.2204
  330TMC3    C4 4953   3.490   2.373   9.206  0.4597  0.5489  0.6516
  330TMC3    C5 4954   3.547   2.260   9.225  0.1353  0.1154  0.0245
  330TMC3    C6 4955   3.517   2.140   9.173  0.8578  0.0201  0.6410
  330TMC3     C 4956   3.298   2.491   9.134 -0.1528  0.2929  0.1266
  330TMC3     O 4957   3.331   2.574   9.217 -0.6362 -0.3931 -0.1397
  330TMC3     H 4958   3.266   2.267   8.981 -0.0607  1.7985  0.7176
  330TMC3    H1 4959   3.515   2.467   9.254  1.1086  0.5330  0.3418
  330TMC3    H2 4960   3.577   2.051   9.185  0.5329 -0.6369 -2.6446
  330TMC3    C7 4961   3.662   2.268   9.313 -0.8471 -0.1973 -0.3166
  330TMC3    C8 4962   3.357   2.022   9.033 -0.5738  0.1718  0.4448
  330TMC3    O1 4963   3.699   2.383   9.335 -0.3588  0.2308 -0.0080
  330TMC3    O2 4964   3.304   2.028   8.921  0.1080 -0.2268 -0.2061
  331MPD2     C 4965   0.792   1.072  12.915  0.1097  0.1886 -0.2585
  331MPD2    C1 4966   0.768   1.083  12.777 -0.2676  0.4822  0.4387
  331MPD2    C2 4967   0.777   0.973  12.700  0.0531  0.0126 -0.5173
  331MPD2    C3 4968   0.799   0.848  12.762 -0.5547  0.7935  0.0911
  331MPD2    C4 4969   0.810   0.841  12.898  0.5514 -0.4988 -0.1655
  331MPD2    C5 4970   0.806   0.947  12.976  1.1603  0.3535  0.1227
  331MPD2     H 4971   0.777   0.992  12.593 -0.6118 -0.8731 -0.6756
  331MPD2    H1 4972   0.828   0.744  12.943 -1.1129 -1.3980 -1.4143
  331MPD2    H2 4973   0.794   1.160  12.978 -0.5540 -1.5673  2.2624
  331MPD2    H3 4974   0.832   0.931  13.080 -0.7208 -2.9363  0.0809
  331MPD2     N 4975   0.806   0.727  12.696  0.1911 -0.0166  0.1065
  331MPD2    H5 4976   0.811   0.644  12.756 -0.9657  0.0764  0.3303
  331MPD2    N1 4977   0.779   1.209  12.723 -0.5389  0.3024  0.4079
  331MPD2    H7 4978   0.794   1.285  12.789  1.4308  0.6114 -0.4114
  332TMC3    C1 4979   0.911   0.596  12.537  0.1453 -0.0674  0.4717
  332TMC3    C2 4980   0.940   0.572  12.409  0.2160 -0.8485 -0.1916
  332TMC3    C3 4981   1.067   0.518  12.371  0.5842  0.0483 -0.2078
  332TMC3    C4 4982   1.003   0.555  12.633 -0.0852 -0.4873 -0.2270
  332TMC3    C5 4983   1.124   0.510  12.591  0.0097  0.6766 -0.3273
  332TMC3    C6 4984   1.160   0.484  12.461 -0.1210 -0.3164  0.0387
  332TMC3     C 4985   0.842   0.717  12.569  0.1661 -0.7981  0.0153
  332TMC3     O 4986   0.854   0.810  12.490  0.3001  0.1118  0.5614
  332TMC3     H 4987   0.882   0.622  12.332 -0.2658 -1.4503 -0.2198
  332TMC3    H1 4988   0.996   0.582  12.738  1.7252 -3.0508  0.5448
  332TMC3    H2 4989   1.253   0.439  12.429  0.3703  0.4633  0.3838
  332TMC3    C7 4990   1.197   0.442  12.690 -0.0599 -0.0476 -0.0594
  332TMC3    C8 4991   1.124   0.589  12.262  0.0691 -0.1898 -0.9175
  332TMC3    O1 4992   1.133   0.399  12.787  0.6107 -0.5871 -0.2020
  332TMC3    O2 4993   1.231   0.641  12.291  0.8201 -0.2799 -0.5026
  333MPD2     C 4994   1.672   1.245  10.945  0.4232  0.3500 -0.3657
  333MPD2    C1 4995   1.647   1.197  10.816 -0.0392 -0.1227 -0.4567
  333MPD2    C2 4996   1.550   1.097  10.807  0.1401  0.8463 -0.0347
  333MPD2    C3 4997   1.494   1.036  10.919  0.3298 -0.0136  0.2100
  333MPD2    C4 4998   1.521   1.085  11.043  0.2466  0.0980  0.6396
  333MPD2    C5 4999   1.617   1.185  11.056  0.2958  0.3148  0.0200
  333MPD2     H 5000   1.531   1.064  10.706  0.5342 -1.6774  0.7080
  333MPD2    H1 5001   1.481   1.033  11.129 -1.0199  2.3183  1.3880
  333MPD2    H2 5002   1.742   1.326  10.960 -1.9785  2.1192  1.2754
  333MPD2    H3 5003   1.640   1.223  11.155  0.1449  2.3416 -0.7360
  333MPD2     N 5004   1.401   0.927  10.888 -0.1424 -0.7863  0.4042
  333MPD2    H5 5005   1.380   0.891  10.795 -1.2916  0.7416  0.0633
  333MPD2    N1 5006   1.705   1.260  10.703 -0.1917 -0.7252 -0.3000
  333MPD2    H7 5007   1.772   1.332  10.732 -4.3753  2.1841  2.0814
  334TMC3    C1 5008   1.775   1.303  10.489  0.0108 -0.6664 -0.1446
  334TMC3    C2 5009   1.855   1.256  10.384  0.1355  0.0475  0.0216
  334TMC3    C3 5010   1.944   1.349  10.331 -0.7291  0.5488  0.8801
  334TMC3    C4 5011   1.763   1.441  10.515  0.2826  0.2389 -0.4870
  334TMC3    C5 5012   1.837   1.526  10.438 -0.2099  0.2892  0.7933
  334TMC3    C6 5013   1.938   1.487  10.361 -0.7138 -0.0493  0.1247
  334TMC3     C 5014   1.709   1.213  10.575  0.2276 -0.0893  0.0740
  334TMC3     O 5015   1.685   1.105  10.529 -0.5298  0.0275 -0.0947
  334TMC3     H 5016   1.866   1.148  10.377  3.9580  0.4023  0.7383
  334TMC3    H1 5017   1.712   1.481  10.602  2.4011  1.1397  0.3319
  334TMC3    H2 5018   2.005   1.561  10.319 -0.1222  1.0375  3.0191
  334TMC3    C7 5019   1.835   1.668  10.476  0.2873 -0.6010  0.0439
  334TMC3    C8 5020   2.071   1.290  10.282  0.8372 -0.4210  0.6991
  334TMC3    O1 5021   1.804   1.695  10.593  0.0540  0.0008  0.3361
  334TMC3    O2 5022   2.076   1.172  10.251 -0.3928  0.4206  0.8300
  335TMC3    C1 5023   1.661   2.526  17.353 -0.1519 -0.3506  0.5809
  335TMC3    C2 5024   1.564   2.468  17.289  0.4393 -0.2266  0.7131
  335TMC3    C3 5025   1.599   2.419  17.166 -0.1839 -0.3104 -0.3681
  335TMC3    C4 5026   1.788   2.552  17.300  0.0931  0.1252  0.4404
  335TMC3    C5 5027   1.816   2.507  17.177  0.2851 -0.3697 -0.4315
  335TMC3    C6 5028   1.722   2.435  17.105  0.2482 -0.5205 -0.6150
  335TMC3     C 5029   1.633   2.569  17.489  0.3806 -0.4478  0.3457
  335TMC3     O 5030   1.706   2.655  17.535  0.1786  0.2358 -0.3011
  335TMC3     H 5031   1.461   2.455  17.320 -0.1958  1.3453 -0.7055
  335TMC3    H1 5032   1.858   2.616  17.351  2.6167 -1.2876 -1.2786
  335TMC3    H2 5033   1.748   2.394  17.009  0.1567  0.5220 -1.0881
  335TMC3    C7 5034   1.958   2.457  17.164  0.5198 -0.5371 -0.1283
  335TMC3    C8 5035   1.505   2.352  17.094  0.3325 -0.7902 -0.8339
  335TMC3    O1 5036   2.015   2.448  17.054 -0.0702 -0.2268  0.1803
  335TMC3    O2 5037   1.525   2.341  16.978  0.5500  0.0543  0.0270
  336MPD2     C 5038   1.370   0.299  16.144 -0.0544  0.0025 -0.3892
  336MPD2    C1 5039   1.334   0.252  16.016  0.1040  0.3719 -0.1674
  336MPD2    C2 5040   1.335   0.110  15.994 -0.4556  0.1644 -0.6090
  336MPD2    C3 5041   1.372   0.024  16.100 -0.4785 -0.2679 -0.0830
  336MPD2    C4 5042   1.399   0.081  16.226 -0.2063 -0.2897  0.6211
  336MPD2    C5 5043   1.402   0.214  16.249  0.1815 -0.3286 -0.2509
  336MPD2     H 5044   1.326   0.064  15.896  1.0538 -2.1878  0.3368
  336MPD2    H1 5045   1.430   0.012  16.302 -0.4003 -0.9666  0.0885
  336MPD2    H2 5046   1.368   0.405  16.166 -1.9632  0.7767 -4.2862
  336MPD2    H3 5047   1.410   0.252  16.350 -1.1954 -2.2346  0.5787
  336MPD2     N 5048   1.400   4.608  16.087  0.8085  0.0621 -0.1759
  336MPD2    H5 5049   1.424   4.566  16.176  1.0175 -1.5166 -0.9665
  336MPD2    N1 5050   1.306   0.343  15.908  0.0978  0.3441  0.2430
  336MPD2    H7 5051   1.293   0.310  15.813 -2.2278  0.8431  0.3952
  337TMC3    C1 5052   1.281   0.537  15.788  0.3719  1.1078 -0.4293
  337TMC3    C2 5053   1.157   0.510  15.736  0.7521 -0.0139  0.5688
  337TMC3    C3 5054   1.121   0.596  15.642  0.7439 -0.1299  0.0440
  337TMC3    C4 5055   1.355   0.652  15.762 -0.0654  1.1319 -0.1165
  337TMC3    C5 5056   1.306   0.738  15.666 -0.8453  0.0781 -0.7913
  337TMC3    C6 5057   1.195   0.702  15.596  0.1550 -0.5147  0.4104
  337TMC3     C 5058   1.307   0.478  15.914  0.0022  0.0594  0.7043
  337TMC3     O 5059   1.337   0.552  16.006  0.9509 -0.1614  0.3024
  337TMC3     H 5060   1.086   0.436  15.771 -0.6826 -0.0484 -2.4610
  337TMC3    H1 5061   1.459   0.654  15.793 -1.3831  1.6960  4.2536
  337TMC3    H2 5062   1.153   0.766  15.519 -1.4618 -1.3706  0.5887
  337TMC3    C7 5063   1.335   0.879  15.680  0.1269  0.5638  0.2482
  337TMC3    C8 5064   0.977   0.592  15.630  0.7249 -0.0830  0.1914
  337TMC3    O1 5065   1.273   0.955  15.608 -0.1193  0.1245  0.4999
  337TMC3    O2 5066   0.907   0.577  15.731 -0.9437  0.6591  0.1037
  338MPD2     C 5067   2.691   4.393   0.362 -0.6119 -0.3422  0.1575
  338MPD2    C1 5068   2.579   4.348   0.420 -0.1210 -0.0992  1.0131
  338MPD2    C2 5069   2.574   4.323   0.555  0.5594 -0.4646  0.4473
  338MPD2    C3 5070   2.681   4.356   0.635 -0.7208 -0.6704 -0.1141
  338MPD2    C4 5071   2.798   4.404   0.583 -0.0455  0.3162 -0.5929
  338MPD2    C5 5072   2.801   4.418   0.445 -0.0109  0.2451  0.2789
  338MPD2     H 5073   2.477   4.301   0.598  0.6191 -1.8633 -0.1133
  338MPD2    H1 5074   2.885   4.414   0.647  0.1697  3.1554 -1.3619
  338MPD2    H2 5075   2.699   4.416   0.256  1.6545  0.2396  0.4356
  338MPD2    H3 5076   2.893   4.448   0.397 -0.8498 -0.6913 -1.9303
  338MPD2     N 5077   2.657   4.353   0.774  0.3646  0.0350  0.8386
  338MPD2    H5 5078   2.562   4.337   0.806 -0.6413  1.9799 -1.1769
  338MPD2    N1 5079   2.461   4.310   0.352  0.2522  0.0105  0.0723
  338MPD2    H7 5080   2.386   4.286   0.415  0.1787 -0.3045 -0.1356
  339TMC3    C1 5081   2.651   4.439   0.995  0.0115 -0.5457  0.2666
  339TMC3    C2 5082   2.550   4.345   1.012  0.6205  0.3736  0.6056
  339TMC3    C3 5083   2.456   4.365   1.105 -0.4533  0.5388  0.3898
  339TMC3    C4 5084   2.652   4.555   1.060 -0.9213 -0.5390 -0.1522
  339TMC3    C5 5085   2.547   4.579   1.143 -0.3608 -0.3484  0.5589
  339TMC3    C6 5086   2.447   4.487   1.160  0.0832 -0.1145  0.3941
  339TMC3     C 5087   2.724   4.426   0.870 -0.0612 -0.1911  0.2422
  339TMC3     O 5088   2.810   4.515   0.860  0.0684 -0.2894 -0.3117
  339TMC3     H 5089   2.558   4.241   0.984  0.6097  0.6266 -0.3355
  339TMC3    H1 5090   2.735   4.621   1.039 -1.9205  0.4638 -0.9290
  339TMC3    H2 5091   2.370   4.517   1.230  0.8907  2.7013  0.0603
  339TMC3    C7 5092   2.522   4.720   1.170  0.2270 -0.9983  0.5775
  339TMC3    C8 5093   2.334   4.309   1.064 -0.2049  0.4978  0.4635
  339TMC3    O1 5094   2.461   0.024   1.271 -0.4174  0.0205  0.2543
  339TMC3    O2 5095   2.344   4.277   0.945  0.3388 -0.0180 -0.6671
  340MPD2     C 5096   1.228   2.703   8.684 -0.4570 -0.7206 -0.0048
  340MPD2    C1 5097   1.312   2.591   8.661  0.2592 -1.3202  0.6087
  340MPD2    C2 5098   1.438   2.598   8.709  0.5084 -0.0068 -0.4037
  340MPD2    C3 5099   1.487   2.707   8.775 -0.1285  0.2724  0.0445
  340MPD2    C4 5100   1.404   2.820   8.793  0.2615 -0.7698 -0.2016
  340MPD2    C5 5101   1.279   2.814   8.747  0.2599  0.2495 -0.0161
  340MPD2     H 5102   1.490   2.503   8.699 -1.8682 -1.2715 -0.8030
  340MPD2    H1 5103   1.440   2.915   8.830  0.9818 -1.6921  1.4499
  340MPD2    H2 5104   1.123   2.691   8.663 -0.6573 -0.5019  0.8621
  340MPD2    H3 5105   1.221   2.905   8.753  0.9649  0.8052 -1.7147
  340MPD2     N 5106   1.623   2.717   8.812  0.2492  0.5526 -0.3819
  340MPD2    H5 5107   1.676   2.636   8.780 -1.7809 -1.8426  2.3629
  340MPD2    N1 5108   1.263   2.482   8.591  0.1734 -0.4713 -0.0837
  340MPD2    H7 5109   1.164   2.481   8.567 -0.2478  2.0501  1.6370
  341TMC3    C1 5110   1.257   2.283   8.480 -0.8764 -0.4761  0.7692
  341TMC3    C2 5111   1.122   2.276   8.500  0.1691 -0.5244 -0.1428
  341TMC3    C3 5112   1.045   2.185   8.433  0.3190  0.6242  0.0446
  341TMC3    C4 5113   1.322   2.196   8.390  0.3327  0.5848  0.0328
  341TMC3    C5 5114   1.242   2.107   8.322 -0.3552 -0.4411  0.1132
  341TMC3    C6 5115   1.106   2.094   8.340 -0.2871 -0.6702  0.1502
  341TMC3     C 5116   1.339   2.367   8.556  0.1800  0.9297  0.1015
  341TMC3     O 5117   1.453   2.333   8.576 -0.5966 -0.2192 -0.1288
  341TMC3     H 5118   1.083   2.320   8.591  2.8552  0.0671  0.7141
  341TMC3    H1 5119   1.428   2.194   8.367  0.0334 -0.9854 -1.2359
  341TMC3    H2 5120   1.054   2.007   8.301 -0.5533 -1.9043  3.2901
  341TMC3    C7 5121   1.315   1.987   8.288  0.6661 -0.9293 -0.0467
  341TMC3    C8 5122   0.959   2.118   8.525  0.0261  0.3476 -0.0189
  341TMC3    O1 5123   1.421   1.968   8.345  0.3948  0.1623 -0.6202
  341TMC3    O2 5124   1.005   2.114   8.637 -0.3012 -0.4579  0.5998
  342MPD2     C 5125   4.439   0.959  17.071 -0.1010 -0.1037  0.3285
  342MPD2    C1 5126   4.489   0.919  17.191  0.1981 -0.0001  0.0006
  342MPD2    C2 5127   4.511   1.018  17.284  0.6826  0.2928  0.4491
  342MPD2    C3 5128   4.484   1.154  17.262  0.1216 -0.6022  0.0467
  342MPD2    C4 5129   4.422   1.188  17.141  0.0396  0.3922  0.4051
  342MPD2    C5 5130   4.407   1.091  17.044 -0.5037 -0.1274  0.6151
  342MPD2     H 5131   4.541   0.983  17.382  1.9658 -1.3234 -0.5271
  342MPD2    H1 5132   4.411   1.292  17.109  1.7171 -0.0037 -1.4170
  342MPD2    H2 5133   4.421   0.890  16.990 -4.3893  0.5380  0.7701
  342MPD2    H3 5134   4.367   1.116  16.946  0.6870  1.4473  0.5184
  342MPD2     N 5135   4.529   1.251  17.357  0.0860 -0.2798  0.1841
  342MPD2    H5 5136   4.498   1.345  17.334 -1.9273 -0.5863  1.6845
  342MPD2    N1 5137   4.523   0.783  17.217 -0.6060 -0.3606  0.0237
  342MPD2    H7 5138   4.550   0.754  17.311 -0.6838  0.2480  0.2285
  343TMC3    C1 5139   4.572   0.560  17.182  0.0379 -0.3527 -0.4164
  343TMC3    C2 5140   4.709   0.565  17.175 -0.9885  0.6554  0.1472
  343TMC3    C3 5141   0.054   0.446  17.162 -0.1292  0.5969 -0.2370
  343TMC3    C4 5142   4.508   0.441  17.173 -0.6085 -0.3033 -0.0036
  343TMC3    C5 5143   4.576   0.327  17.185 -0.7907 -0.2757  0.6936
  343TMC3    C6 5144   4.709   0.326  17.180 -0.3291 -0.3593 -0.0310
  343TMC3     C 5145   4.506   0.676  17.128 -0.5548  0.1683 -0.1947
  343TMC3     O 5146   4.444   0.671  17.023 -0.0884  0.0003  0.7281
  343TMC3     H 5147   0.030   0.661  17.154  0.2896 -0.1807 -0.8757
  343TMC3    H1 5148   4.404   0.441  17.141 -0.4652  3.1226 -0.4246
  343TMC3    H2 5149   0.031   0.229  17.185  1.4730  0.4525 -1.5259
  343TMC3    C7 5150   4.504   0.215  17.219  0.0123 -0.8122  1.2717
  343TMC3    C8 5151   0.183   0.441  17.095 -0.3229 -0.0863  0.4937
  343TMC3    O1 5152   4.393   0.211  17.166 -0.1023  0.5017 -0.0211
  343TMC3    O2 5153   0.252   0.535  17.124 -0.4007  0.2105 -0.7222
  344MPD2     C 5154   0.467   0.786  10.437 -0.3874 -0.1401  0.0721
  344MPD2    C1 5155   0.446   0.701  10.335 -0.1465 -0.1618 -0.3074
  344MPD2    C2 5156   0.505   0.722  10.210 -0.3961  0.0054 -0.1293
  344MPD2    C3 5157   0.591   0.824  10.187 -0.0784 -0.0880  0.1077
  344MPD2    C4 5158   0.627   0.907  10.297 -0.1801 -0.1891 -0.5818
  344MPD2    C5 5159   0.558   0.887  10.415 -0.1858  0.3121  0.4384
  344MPD2     H 5160   0.479   0.646  10.137 -1.0398  0.0580  0.0450
  344MPD2    H1 5161   0.703   0.984  10.293 -1.6104  1.3195  1.3747
  344MPD2    H2 5162   0.422   0.774  10.535 -1.0310  0.7222 -0.1218
  344MPD2    H3 5163   0.577   0.959  10.493  1.3714  0.8539 -0.4178
  344MPD2     N 5164   0.657   0.845  10.062  0.0143  0.1612  0.0158
  344MPD2    H5 5165   0.720   0.924  10.057 -0.0115  0.1228 -0.8888
  344MPD2    N1 5166   0.375   0.577  10.349  0.4566 -0.1834 -0.6965
  344MPD2    H7 5167   0.364   0.515  10.269 -1.9862 -0.7189  0.0509
  345TMC3    C1 5168   0.718   0.823   9.831  0.3859 -0.1617 -0.3965
  345TMC3    C2 5169   0.843   0.859   9.871  0.3375 -1.2652  0.1372
  345TMC3    C3 5170   0.918   0.933   9.781 -0.0418 -0.7416  0.5816
  345TMC3    C4 5171   0.661   0.871   9.712  0.6409  0.2621  0.8298
  345TMC3    C5 5172   0.743   0.947   9.628 -0.1964  0.2761  0.3713
  345TMC3    C6 5173   0.878   0.963   9.649 -0.6959 -0.1997  0.1649
  345TMC3     C 5174   0.628   0.783   9.939 -0.8112  0.0930 -0.1900
  345TMC3     O 5175   0.540   0.705   9.917  0.6611 -0.4260  0.2951
  345TMC3     H 5176   0.876   0.828   9.969  0.7478  1.0438  0.7286
  345TMC3    H1 5177   0.555   0.847   9.708  0.3224  2.0520 -1.7424
  345TMC3    H2 5178   0.929   1.032   9.583  1.6549 -1.9303  0.1702
  345TMC3    C7 5179   0.678   1.045   9.548 -0.3154 -0.5593  0.8263
  345TMC3    C8 5180   1.044   0.980   9.828 -0.2360  0.5485 -0.0865
  345TMC3    O1 5181   0.732   1.152   9.533 -0.0092  0.0246 -0.3582
  345TMC3    O2 5182   1.054   0.960   9.949 -0.0771 -0.1047  0.2901
  346MPD2     C 5183   0.423   1.925  14.193  0.3355  1.0264  0.3913
  346MPD2    C1 5184   0.412   2.036  14.115  0.2494  0.4259  0.0740
  346MPD2    C2 5185   0.424   2.162  14.171 -0.1415  0.0867 -0.1310
  346MPD2    C3 5186   0.466   2.181  14.305  0.4193 -0.1688  0.5530
  346MPD2    C4 5187   0.482   2.068  14.381  0.2920  0.1882 -0.0167
  346MPD2    C5 5188   0.459   1.949  14.327  0.6437  0.6441 -0.9195
  346MPD2     H 5189   0.407   2.253  14.114 -0.8129 -0.6693 -1.1569
  346MPD2    H1 5190   0.517   2.078  14.483  1.7182 -1.9448 -0.2942
  346MPD2    H2 5191   0.408   1.822  14.162 -0.9366  2.0942 -2.4648
  346MPD2    H3 5192   0.464   1.868  14.398  1.8819  1.1044 -0.4801
  346MPD2     N 5193   0.528   2.309  14.338 -0.7322 -0.2871 -0.2836
  346MPD2    H5 5194   0.537   2.372  14.259  0.4766 -0.1724 -0.0494
  346MPD2    N1 5195   0.377   2.023  13.980  0.2639 -0.2197  0.5023
  346MPD2    H7 5196   0.356   2.111  13.934 -2.0875 -0.4978  1.0508
  347TMC3    C1 5197   0.707   2.431  14.442 -1.2151  0.0462 -1.4951
  347TMC3    C2 5198   0.761   2.448  14.314 -0.0554 -0.1782  0.1333
  347TMC3    C3 5199   0.887   2.499  14.308  0.3984 -0.5705 -0.0477
  347TMC3    C4 5200   0.782   2.439  14.554  0.2244 -0.2846 -0.1358
  347TMC3    C5 5201   0.905   2.486  14.542  0.1205  0.2262  0.2843
  347TMC3    C6 5202   0.954   2.530  14.424  0.4568 -0.3266 -0.7329
  347TMC3     C 5203   0.602   2.330  14.454 -0.4481  0.1335  0.3496
  347TMC3     O 5204   0.586   2.270  14.562  0.2754  0.0966 -0.9107
  347TMC3     H 5205   0.719   2.407  14.223 -2.0540  1.0077  0.5169
  347TMC3    H1 5206   0.748   2.394  14.646 -0.5967 -1.7818 -1.1742
  347TMC3    H2 5207   1.060   2.547  14.408  0.0587  2.6759 -0.3093
  347TMC3    C7 5208   0.997   2.457  14.651 -0.7460 -0.1059 -0.5079
  347TMC3    C8 5209   0.964   2.411  14.225 -0.6181  1.4669  0.6990
  347TMC3    O1 5210   0.960   2.375  14.741 -0.3685  0.1704  0.3950
  347TMC3    O2 5211   0.926   2.299  14.200  1.1092 -0.7010  0.1364
  348MPD2     C 5212   3.896   1.853  11.935 -0.0445  0.5693  0.2357
  348MPD2    C1 5213   3.835   1.784  11.842 -0.4405 -0.5528  0.4067
  348MPD2    C2 5214   3.816   1.838  11.717  0.2966  0.3911 -0.2366
  348MPD2    C3 5215   3.847   1.971  11.692  0.4792  0.8961 -0.1180
  348MPD2    C4 5216   3.903   2.039  11.798  0.1867 -0.1455  0.8147
  348MPD2    C5 5217   3.939   1.981  11.908 -0.3282 -0.0106 -0.1121
  348MPD2     H 5218   3.773   1.774  11.641  0.5773  0.2722 -0.2923
  348MPD2    H1 5219   3.942   2.139  11.785  0.1420 -0.2999 -0.5368
  348MPD2    H2 5220   3.922   1.824  12.036 -1.4022 -1.0137  0.1180
  348MPD2    H3 5221   3.997   2.031  11.984  0.0669 -1.7072  0.7210
  348MPD2     N 5222   3.831   2.016  11.561  0.2279  0.5334  0.3764
  348MPD2    H5 5223   3.796   1.949  11.494  1.6788 -0.1787  0.3200
  348MPD2    N1 5224   3.814   1.650  11.853 -0.1437 -0.2497  0.9386
  348MPD2    H7 5225   3.773   1.610  11.769  1.9913  0.9564 -0.6788
  349TMC3    C1 5226   3.804   1.433  11.941  1.1155  0.1514 -0.4906
  349TMC3    C2 5227   3.872   1.332  11.999 -0.0493 -0.5666 -0.9836
  349TMC3    C3 5228   3.808   1.211  12.019  0.6057  0.0411  0.1082
  349TMC3    C4 5229   3.671   1.426  11.912  0.1344  0.4259  0.1402
  349TMC3    C5 5230   3.610   1.308  11.943 -0.1015 -0.6446  0.3692
  349TMC3    C6 5231   3.675   1.197  11.998  0.4774 -0.1575  0.4389
  349TMC3     C 5232   3.852   1.574  11.957 -0.5908  0.0334  0.4600
  349TMC3     O 5233   3.905   1.600  12.066  0.1730  0.4939 -0.4278
  349TMC3     H 5234   3.971   1.358  12.035 -0.0018 -1.9858 -0.0835
  349TMC3    H1 5235   3.623   1.515  11.870 -1.7383  1.2144  3.9343
  349TMC3    H2 5236   3.625   1.102  12.010  0.6122 -0.3189 -0.2469
  349TMC3    C7 5237   3.467   1.306  11.951  1.2385 -0.4882 -0.9445
  349TMC3    C8 5238   3.869   1.102  12.085  0.0444  0.5212  0.4074
  349TMC3    O1 5239   3.419   1.215  11.881 -0.0489  0.0456 -0.1958
  349TMC3    O2 5240   3.802   1.025  12.151 -0.6815  0.1662 -0.4807
  350MPD2     C 5241   2.708   4.570   9.782  0.3514  0.0006 -0.4549
  350MPD2    C1 5242   2.800   4.469   9.777 -0.5605 -0.1140  0.2499
  350MPD2    C2 5243   2.935   4.498   9.762 -0.0550  0.5532 -0.2252
  350MPD2    C3 5244   2.976   4.622   9.775 -0.5603 -0.5472  0.5605
  350MPD2    C4 5245   2.889   0.002   9.794 -0.4343 -1.0440  0.4708
  350MPD2    C5 5246   2.754   4.695   9.800 -0.2683  0.1618 -0.0360
  350MPD2     H 5247   3.009   4.419   9.751 -1.4941 -0.8227  0.0326
  350MPD2    H1 5248   2.919   0.105   9.812 -0.4439 -1.4257  2.6987
  350MPD2    H2 5249   2.602   4.551   9.772  0.2680  0.8802 -1.2254
  350MPD2    H3 5250   2.682   0.047   9.827 -0.8687 -1.1419  2.1108
  350MPD2     N 5251   3.117   4.637   9.761 -0.2888 -0.4858  0.1369
  350MPD2    H5 5252   3.169   4.550   9.764  0.2896 -0.1263  0.4897
  350MPD2    N1 5253   2.765   4.334   9.763 -0.2010 -0.3065 -0.5198
  350MPD2    H7 5254   2.838   4.263   9.760  0.1591  0.0370  0.0871
  351TMC3    C1 5255   2.637   4.139   9.781 -0.2112 -0.3324 -0.4481
  351TMC3    C2 5256   2.750   4.068   9.775  0.0736 -0.6956 -0.3916
  351TMC3    C3 5257   2.751   3.939   9.831  0.1120  1.2831 -0.8181
  351TMC3    C4 5258   2.525   4.092   9.850  0.6277 -0.1781 -0.3485
  351TMC3    C5 5259   2.539   3.969   9.906  0.0478 -0.0610  0.2044
  351TMC3    C6 5260   2.651   3.894   9.909 -0.3289  0.3575 -0.6094
  351TMC3     C 5261   2.640   4.285   9.769 -0.2203 -0.6768  0.2176
  351TMC3     O 5262   2.536   4.351   9.755 -0.4763  0.0896 -0.2383
  351TMC3     H 5263   2.840   4.097   9.723  1.2815  0.6511  2.4917
  351TMC3    H1 5264   2.428   4.140   9.846  0.6350 -0.1253  0.1237
  351TMC3    H2 5265   2.654   3.800   9.963 -3.0942  1.8171  2.0674
  351TMC3    C7 5266   2.425   3.912   9.971  0.0738 -0.3011 -0.0123
  351TMC3    C8 5267   2.872   3.862   9.798  0.2372 -0.5387 -0.1910
  351TMC3    O1 5268   2.334   3.981  10.021  0.3053  0.3877  0.4044
  351TMC3    O2 5269   2.961   3.908   9.727 -0.5241  0.4297  0.0854
  352MPD2     C 5270   2.167   1.819   1.364 -0.6699  0.6245 -0.3830
  352MPD2    C1 5271   2.067   1.744   1.311 -0.6297  0.2304 -0.0609
  352MPD2    C2 5272   2.018   1.633   1.379 -0.6748  0.2902 -0.4240
  352MPD2    C3 5273   2.071   1.608   1.506 -0.9367  0.1707 -0.5790
  352MPD2    C4 5274   2.179   1.676   1.552 -0.1599 -0.0745 -0.1353
  352MPD2    C5 5275   2.228   1.783   1.485 -0.0264  1.0402  0.3399
  352MPD2     H 5276   1.938   1.569   1.345 -0.7306  0.4607 -0.6111
  352MPD2    H1 5277   2.219   1.651   1.650  0.6565  2.7857  0.2690
  352MPD2    H2 5278   2.206   1.905   1.312  1.2630  0.6487  1.1060
  352MPD2    H3 5279   2.320   1.831   1.517  0.7938  1.2817 -2.3499
  352MPD2     N 5280   2.038   1.483   1.569  0.0640 -0.2909  0.0939
  352MPD2    H5 5281   2.088   1.458   1.654  2.5491  0.8304 -1.0556
  352MPD2    N1 5282   2.029   1.773   1.180  0.0499 -0.0335  0.6350
  352MPD2    H7 5283   2.079   1.839   1.121 -0.8560  0.7191  0.7051
  353TMC3    C1 5284   1.978   1.269   1.619 -0.2401 -0.8922  0.1987
  353TMC3    C2 5285   2.094   1.263   1.688 -0.6077 -0.0529 -0.1296
  353TMC3    C3 5286   2.171   1.148   1.683  0.4420 -0.0579 -0.1773
  353TMC3    C4 5287   1.932   1.152   1.567 -0.0338 -0.7243  0.1284
  353TMC3    C5 5288   2.010   1.040   1.561 -0.1313  0.5580  0.4482
  353TMC3    C6 5289   2.129   1.035   1.620 -0.1491  1.2301  0.3083
  353TMC3     C 5290   1.955   1.385   1.536  0.3105 -0.0745  0.3712
  353TMC3     O 5291   1.871   1.371   1.447  0.1882  0.1508  0.4839
  353TMC3     H 5292   2.143   1.345   1.739  0.3297  0.4531 -1.8383
  353TMC3    H1 5293   1.843   1.156   1.507 -1.4593 -2.2831  2.1266
  353TMC3    H2 5294   2.199   0.955   1.599  0.3343  1.7936 -0.2499
  353TMC3    C7 5295   1.990   0.947   1.454 -0.3302  0.4075 -0.3214
  353TMC3    C8 5296   2.309   1.155   1.728  0.0018 -0.3006  0.6431
  353TMC3    O1 5297   1.951   0.990   1.346 -0.2668  0.4646 -0.3525
  353TMC3    O2 5298   2.326   1.213   1.832  0.6426 -0.5694 -0.1287
  354TMC3    C1 5299   3.008   2.801  13.327  0.4500  0.3079  0.0778
  354TMC3    C2 5300   3.070   2.929  13.325  0.2092  0.5238  0.3235
  354TMC3    C3 5301   3.093   2.977  13.201 -0.3743 -0.0213 -0.1572
  354TMC3    C4 5302   2.970   2.731  13.223  0.3536  0.7762 -0.0285
  354TMC3    C5 5303   3.013   2.778  13.104 -0.2712 -0.2579  0.1947
  354TMC3    C6 5304   3.081   2.898  13.089 -0.1649  0.4856 -0.3427
  354TMC3     C 5305   2.992   2.737  13.461  0.4744 -0.9222 -0.0282
  354TMC3     O 5306   2.879   2.708  13.501 -0.0052  0.2088 -0.5778
  354TMC3     H 5307   3.088   2.985  13.416 -1.6810  0.7719  0.5256
  354TMC3    H1 5308   2.941   2.629  13.247  0.3692  1.0189  1.0321
  354TMC3    H2 5309   3.113   2.940  12.994 -2.2582  0.9133 -0.8526
  354TMC3    C7 5310   3.021   2.676  13.000 -0.5327 -0.4652  0.5818
  354TMC3    C8 5311   3.162   3.100  13.185 -0.3071  0.2499 -0.6746
  354TMC3    O1 5312   2.989   2.563  13.031 -0.0339  0.3917  0.1556
  354TMC3    O2 5313   3.217   3.148  13.283 -0.8691  0.2778 -0.1549
  355MPD2     C 5314   3.349   3.563  11.842  0.1928  0.3984 -0.5039
  355MPD2    C1 5315   3.352   3.611  11.710  0.7118 -0.3673  0.4617
  355MPD2    C2 5316   3.469   3.669  11.666 -0.4230 -0.3456  0.1723
  355MPD2    C3 5317   3.580   3.671  11.740  0.5542  0.1945 -0.3310
  355MPD2    C4 5318   3.585   3.616  11.866 -0.4699  0.7376 -0.0316
  355MPD2    C5 5319   3.465   3.566  11.913 -0.3855 -0.2553  0.5451
  355MPD2     H 5320   3.466   3.722  11.572  0.4969 -2.6841 -1.1622
  355MPD2    H1 5321   3.667   3.624  11.935  0.4994  0.6484 -1.1720
  355MPD2    H2 5322   3.262   3.521  11.889  0.5543 -2.1392 -2.0797
  355MPD2    H3 5323   3.467   3.514  12.008 -0.3670 -1.0076  0.1349
  355MPD2     N 5324   3.696   3.735  11.689  0.1412 -0.5608 -0.4125
  355MPD2    H5 5325   3.772   3.735  11.757 -0.7064 -2.5995  0.5283
  355MPD2    N1 5326   3.232   3.616  11.638  0.6265 -0.0827 -0.0094
  355MPD2    H7 5327   3.147   3.603  11.693  0.8391 -1.9868 -0.1263
  356TMC3    C1 5328   3.779   3.927  11.564 -0.0465 -0.1741  0.1176
  356TMC3    C2 5329   3.776   3.992  11.441 -0.4010 -0.6122 -0.9066
  356TMC3    C3 5330   3.782   4.124  11.459  0.2941  0.3765 -0.0795
  356TMC3    C4 5331   3.777   3.994  11.685 -0.0308  0.2814  1.3157
  356TMC3    C5 5332   3.769   4.127  11.696  0.0198 -0.0689 -0.6838
  356TMC3    C6 5333   3.774   4.193  11.582 -0.4253  0.0564  0.0908
  356TMC3     C 5334   3.706   3.798  11.564  0.5179 -0.2718 -0.1895
  356TMC3     O 5335   3.646   3.785  11.457 -0.0350 -0.1893 -0.4974
  356TMC3     H 5336   3.783   3.937  11.348  1.3337 -1.2469 -0.3989
  356TMC3    H1 5337   3.784   3.937  11.776 -1.3875 -0.9111  0.6811
  356TMC3    H2 5338   3.728   4.291  11.590  0.1633  0.1710  2.1416
  356TMC3    C7 5339   3.772   4.183  11.832  0.1675 -0.4566  0.3889
  356TMC3    C8 5340   3.808   4.202  11.336 -0.5351 -0.0947  0.2913
  356TMC3    O1 5341   3.771   4.102  11.924 -0.2574  0.5234  0.7977
  356TMC3    O2 5342   3.804   4.134  11.235  0.9790 -0.4397 -0.0647
  357MPD2     C 5343   3.360   3.487   0.964  0.4324 -0.2646  0.1826
  357MPD2    C1 5344   3.413   3.405   1.060 -0.0162  0.2518  0.4678
  357MPD2    C2 5345   3.333   3.354   1.162  0.0548 -1.0281  0.3211
  357MPD2    C3 5346   3.201   3.378   1.161 -0.6827  0.4872  0.0185
  357MPD2    C4 5347   3.154   3.473   1.073  1.4049  0.2569  0.0420
  357MPD2    C5 5348   3.229   3.535   0.975  0.4489 -0.4291  0.6245
  357MPD2     H 5349   3.377   3.285   1.233 -0.5126  2.2228  3.7650
  357MPD2    H1 5350   3.050   3.501   1.072  0.7708 -2.1749 -2.4484
  357MPD2    H2 5351   3.422   3.535   0.890 -0.2603  0.4600  0.0810
  357MPD2    H3 5352   3.184   3.595   0.897 -1.2782  0.3408  2.2066
  357MPD2     N 5353   3.113   3.329   1.266  0.7952 -0.4153  1.0742
  357MPD2    H5 5354   3.015   3.355   1.264  0.9581  0.0585 -0.6840
  357MPD2    N1 5355   3.545   3.376   1.041 -0.3524 -0.4390  0.0869
  357MPD2    H7 5356   3.588   3.423   0.962 -0.7318  0.2993  0.3232
  358TMC3    C1 5357   3.751   3.266   1.070 -0.1557  0.2014  0.6217
  358TMC3    C2 5358   3.748   3.241   0.939  0.4612  0.3446 -0.3047
  358TMC3    C3 5359   3.856   3.167   0.885  0.1663  0.4546 -0.1508
  358TMC3    C4 5360   3.842   3.221   1.159  0.2093  1.0032 -0.8820
  358TMC3    C5 5361   3.941   3.141   1.107 -0.3194  0.7440  0.5846
  358TMC3    C6 5362   3.948   3.114   0.969  0.2551  0.0277  0.5064
  358TMC3     C 5363   3.627   3.319   1.130 -0.0294  0.0151 -0.4171
  358TMC3     O 5364   3.613   3.297   1.251  1.1712 -0.0227  0.6018
  358TMC3     H 5365   3.669   3.271   0.871  0.7130  1.6610 -0.0177
  358TMC3    H1 5366   3.838   3.262   1.259 -0.7893 -0.0111 -0.5068
  358TMC3    H2 5367   4.042   3.074   0.933 -0.5120  0.7118 -2.2210
  358TMC3    C7 5368   4.060   3.100   1.184 -0.0870  0.3810 -0.5402
  358TMC3    C8 5369   3.860   3.146   0.739 -0.2056  0.3723 -0.5024
  358TMC3    O1 5370   4.148   3.038   1.129  0.0012  0.4358  0.0022
  358TMC3    O2 5371   3.755   3.144   0.684  0.5998  0.7074 -0.5904
  359MPD2     C 5372   2.946   2.700  11.364 -0.4867 -0.6185  0.2249
  359MPD2    C1 5373   2.972   2.606  11.464  0.5075 -1.0491 -0.3615
  359MPD2    C2 5374   2.879   2.498  11.477 -0.5816  0.0810 -0.1565
  359MPD2    C3 5375   2.770   2.488  11.388 -0.4954 -0.5815  0.0362
  359MPD2    C4 5376   2.742   2.591  11.294 -0.1475  0.2868 -0.0685
  359MPD2    C5 5377   2.835   2.685  11.277 -0.2969 -0.2726  0.2250
  359MPD2     H 5378   2.885   2.426  11.558 -0.1384 -0.4153 -0.6327
  359MPD2    H1 5379   2.658   2.592  11.226  1.1594 -0.0599 -1.6798
  359MPD2    H2 5380   3.015   2.781  11.347 -1.8039 -0.1039 -2.6206
  359MPD2    H3 5381   2.821   2.765  11.205 -0.3600  0.5833  1.2029
  359MPD2     N 5382   2.688   2.370  11.396 -0.2887  0.4003 -0.1881
  359MPD2    H5 5383   2.599   2.376  11.349  0.7918  1.6348 -2.0478
  359MPD2    N1 5384   3.085   2.598  11.553 -0.3508  0.5931 -0.8131
  359MPD2    H7 5385   3.097   2.518  11.616  0.4703  0.8513 -0.6294
  360TMC3    C1 5386   3.304   2.643  11.622 -1.3083  0.1921  0.1205
  360TMC3    C2 5387   3.388   2.733  11.678  0.4156 -0.3911  0.0693
  360TMC3    C3 5388   3.522   2.708  11.686  0.0693 -0.3841  0.4597
  360TMC3    C4 5389   3.354   2.523  11.579 -1.0674  0.7785  0.0974
  360TMC3    C5 5390   3.483   2.496  11.601  0.4222 -0.2049  0.6511
  360TMC3    C6 5391   3.569   2.582  11.659 -0.2220  0.0582  0.4183
  360TMC3     C 5392   3.186   2.692  11.557 -0.8041 -0.5852  0.3050
  360TMC3     O 5393   3.194   2.801  11.504 -0.3399 -0.6727 -0.5666
  360TMC3     H 5394   3.359   2.837  11.672  1.1751 -0.3469 -2.8540
  360TMC3    H1 5395   3.290   2.467  11.512  1.4243 -0.6162 -1.1132
  360TMC3    H2 5396   3.674   2.557  11.660  0.0768  1.3131 -0.5120
  360TMC3    C7 5397   3.554   2.417  11.502  0.5438  0.4555  0.8571
  360TMC3    C8 5398   3.613   2.826  11.673 -0.2561 -0.7745  0.2384
  360TMC3    O1 5399   3.671   2.442  11.477 -0.0980  0.0835 -0.3410
  360TMC3    O2 5400   3.559   2.937  11.671 -0.3159  0.9584 -0.0644
  361MPD2     C 5401   0.684   1.156  16.681  0.2596  0.0888 -0.0262
  361MPD2    C1 5402   0.667   1.155  16.820  0.3790  0.3937 -0.1393
  361MPD2    C2 5403   0.758   1.088  16.903 -0.0447 -0.0170 -0.3689
  361MPD2    C3 5404   0.868   1.031  16.837 -0.7115 -0.1951  0.5705
  361MPD2    C4 5405   0.883   1.027  16.699  0.2394  0.4622  0.5386
  361MPD2    C5 5406   0.783   1.082  16.618  0.0188  0.4189  0.2302
  361MPD2     H 5407   0.747   1.091  17.011  0.2324  1.0377 -0.3613
  361MPD2    H1 5408   0.960   0.968  16.651 -1.0727 -1.1440  0.4090
  361MPD2    H2 5409   0.618   1.206  16.611 -0.2161 -0.8578 -0.2594
  361MPD2    H3 5410   0.797   1.093  16.511  0.5111 -1.1964  0.1141
  361MPD2     N 5411   0.946   0.937  16.904 -0.2373 -0.4983 -0.0966
  361MPD2    H5 5412   0.991   0.865  16.849  2.2908  0.5660  0.5911
  361MPD2    N1 5413   0.552   1.233  16.860 -0.7796 -0.4328 -0.2567
  361MPD2    H7 5414   0.484   1.258  16.789 -2.2000  2.6948  2.1830
  362TMC3    C1 5415   0.390   1.320  17.002 -0.2083 -0.5491  0.3412
  362TMC3    C2 5416   0.351   1.338  17.132  0.3457  0.1200 -0.5111
  362TMC3    C3 5417   0.275   1.447  17.159  0.7179 -0.0549  0.3129
  362TMC3    C4 5418   0.345   1.397  16.901 -0.3375 -0.1052 -0.3437
  362TMC3    C5 5419   0.269   1.508  16.930 -0.2284 -0.4626  0.6820
  362TMC3    C6 5420   0.244   1.538  17.063 -0.4719 -0.0044  0.0259
  362TMC3     C 5421   0.509   1.236  16.989 -0.2233  0.4627 -0.0383
  362TMC3     O 5422   0.534   1.162  17.084  0.1710 -0.0076  0.1755
  362TMC3     H 5423   0.381   1.272  17.212  2.8925  0.2797 -1.3296
  362TMC3    H1 5424   0.371   1.384  16.796 -0.4908 -1.2189 -0.2332
  362TMC3    H2 5425   0.192   1.631  17.085 -0.3426  0.1104 -0.1578
  362TMC3    C7 5426   0.204   1.580  16.833 -0.2057 -0.5141 -0.5653
  362TMC3    C8 5427   0.252   1.478  17.298 -0.1840  0.6676  0.4534
  362TMC3    O1 5428   0.206   1.701  16.840  0.3645 -0.0970 -0.0254
  362TMC3    O2 5429   0.312   1.415  17.387 -0.2042 -0.0086  0.7490
  363TMC3    C1 5430   4.116   4.124   9.528 -0.0865  0.9055 -0.1942
  363TMC3    C2 5431   4.081   4.028   9.620 -0.2253  0.0011  0.4759
  363TMC3    C3 5432   3.950   4.004   9.647 -0.1498  0.4178 -0.3067
  363TMC3    C4 5433   4.022   4.210   9.476 -0.5072 -0.1585  0.0300
  363TMC3    C5 5434   3.895   4.196   9.519 -0.5782 -0.6227  0.8557
  363TMC3    C6 5435   3.860   4.090   9.605 -0.3199 -0.0594  0.0872
  363TMC3     C 5436   4.255   4.157   9.526 -0.6026 -0.0932 -0.4360
  363TMC3     O 5437   4.323   4.089   9.605 -0.0988 -0.0810 -0.0212
  363TMC3     H 5438   4.155   3.966   9.668  1.7001  1.5107 -0.5350
  363TMC3    H1 5439   4.044   4.294   9.411 -1.5978  0.1278  0.0365
  363TMC3    H2 5440   3.762   4.077   9.650 -0.2857  0.0046  0.1793
  363TMC3    C7 5441   3.786   4.272   9.459 -0.5813 -0.3331  0.6622
  363TMC3    C8 5442   3.924   3.896   9.739  0.1334  0.1398 -0.0337
  363TMC3    O1 5443   3.825   4.373   9.397 -0.3008  0.6389  0.2547
  363TMC3    O2 5444   3.833   3.915   9.823  0.4293 -0.4904 -1.0942
  364MPD2     C 5445   2.483   2.825   9.802 -0.3989  0.6839 -0.1942
  364MPD2    C1 5446   2.582   2.886   9.880 -0.2419 -0.4268 -0.2896
  364MPD2    C2 5447   2.691   2.806   9.920 -0.5565 -0.2662 -0.0479
  364MPD2    C3 5448   2.697   2.667   9.899  0.0703 -0.0710 -0.6760
  364MPD2    C4 5449   2.603   2.613   9.816 -0.0803 -0.4219  0.7657
  364MPD2    C5 5450   2.500   2.694   9.764  0.3805  0.5198 -0.3457
  364MPD2     H 5451   2.764   2.857   9.982  1.0410 -0.5388 -1.7045
  364MPD2    H1 5452   2.612   2.518   9.765  1.3589 -0.9587  2.0402
  364MPD2    H2 5453   2.389   2.872   9.778 -1.0412 -0.5041  0.0297
  364MPD2    H3 5454   2.421   2.642   9.710  1.0194 -1.1007  0.2887
  364MPD2     N 5455   2.798   2.577   9.943 -0.3650  0.0718  0.6216
  364MPD2    H5 5456   2.781   2.477   9.946  1.1442 -0.1679  0.9358
  364MPD2    N1 5457   2.554   3.017   9.935 -0.4069  0.1482 -0.1367
  364MPD2    H7 5458   2.458   3.049   9.930 -0.4492 -0.3581 -2.4999
  365TMC3    C1 5459   2.553   3.192  10.098  0.4184  0.9838  0.0036
  365TMC3    C2 5460   2.432   3.144  10.148 -0.4752  0.3639  0.1258
  365TMC3    C3 5461   2.366   3.227  10.236 -0.7381  0.5579  0.2134
  365TMC3    C4 5462   2.614   3.310  10.133  0.1530 -0.0773  0.2225
  365TMC3    C5 5463   2.542   3.388  10.219 -0.3280  0.2028 -0.3976
  365TMC3    C6 5464   2.420   3.351  10.262  1.3511  0.5558  0.7285
  365TMC3     C 5465   2.632   3.103  10.014 -0.1022 -0.1186  0.3424
  365TMC3     O 5466   2.752   3.095  10.025  0.1899 -0.6040  0.2292
  365TMC3     H 5467   2.399   3.042  10.138  0.0254  0.0947  1.3238
  365TMC3    H1 5468   2.716   3.335  10.105  0.8097 -2.2822  0.6238
  365TMC3    H2 5469   2.357   3.414  10.324 -0.1051 -0.0700 -0.1090
  365TMC3    C7 5470   2.589   3.529  10.230 -0.5230 -0.1478 -0.0620
  365TMC3    C8 5471   2.241   3.183  10.299 -0.0177 -0.2842  0.0253
  365TMC3    O1 5472   2.653   3.577  10.137  0.5789  0.1771 -0.4929
  365TMC3    O2 5473   2.199   3.234  10.401 -0.0918  0.1989 -0.0520
  366MPD2     C 5474   1.027   3.876  15.218  0.1282  0.1158 -0.3498
  366MPD2    C1 5475   1.017   3.986  15.130  0.6805  0.1172  0.2650
  366MPD2    C2 5476   1.092   3.995  15.020 -0.6625  0.3402 -0.6072
  366MPD2    C3 5477   1.192   3.901  14.988 -0.2197  0.1575  0.4946
  366MPD2    C4 5478   1.201   3.791  15.068  0.1074 -0.0349 -1.1449
  366MPD2    C5 5479   1.121   3.782  15.184  0.5271  0.5253  0.9441
  366MPD2     H 5480   1.077   4.084  14.960  0.0326  0.0410 -1.2411
  366MPD2    H1 5481   1.289   3.727  15.069 -0.4279 -0.7661 -0.4968
  366MPD2    H2 5482   0.972   3.870  15.312  0.1479 -0.6778 -0.3892
  366MPD2    H3 5483   1.146   3.712  15.264 -0.3597  0.8447  1.4979
  366MPD2     N 5484   1.288   3.932  14.891  0.0479 -0.0396 -1.0095
  366MPD2    H5 5485   1.281   4.027  14.855  0.0537  0.2123 -0.3514
  366MPD2    N1 5486   0.941   4.098  15.158  0.5680  0.5925 -0.6285
  366MPD2    H7 5487   0.947   4.174  15.090 -1.0545 -0.1608 -1.5983
  367TMC3    C1 5488   0.852   4.272  15.274 -0.5304  0.3421 -0.0638
  367TMC3    C2 5489   0.918   4.331  15.379 -0.4813 -0.7273  0.6566
  367TMC3    C3 5490   0.934   4.464  15.381 -0.2543 -0.1248 -0.2500
  367TMC3    C4 5491   0.818   4.345  15.163  0.1799 -0.4096  0.1910
  367TMC3    C5 5492   0.844   4.480  15.169  0.2455  0.2414 -0.5115
  367TMC3    C6 5493   0.900   4.549  15.274  0.1324 -0.8371  0.4706
  367TMC3     C 5494   0.875   4.132  15.272 -0.0130  0.2137  0.1574
  367TMC3     O 5495   0.877   4.070  15.376 -0.1386  0.2706  0.4819
  367TMC3     H 5496   0.964   4.264  15.451 -0.7291 -0.5339  0.9933
  367TMC3    H1 5497   0.763   4.307  15.077 -0.3513 -0.0279  0.3630
  367TMC3    H2 5498   0.920   4.655  15.274  1.0006 -0.9915 -3.0215
  367TMC3    C7 5499   0.794   4.569  15.066  0.2164 -0.2645 -0.0451
  367TMC3    C8 5500   1.020   4.517  15.484  1.0266  0.0616  0.4900
  367TMC3    O1 5501   0.853   4.674  15.046 -0.0428  0.2387  0.5616
  367TMC3    O2 5502   1.088   4.433  15.544 -0.0108  0.0466 -0.1935
  368MPD2     C 5503   1.730   1.800  12.908 -0.2523  0.8146  0.0633
  368MPD2    C1 5504   1.660   1.913  12.863 -1.0328 -0.9638 -0.7987
  368MPD2    C2 5505   1.712   1.972  12.747  0.0708 -0.5517  0.4439
  368MPD2    C3 5506   1.835   1.941  12.694  0.3212  0.4157  0.6943
  368MPD2    C4 5507   1.901   1.842  12.754  0.0671 -0.5256 -0.5162
  368MPD2    C5 5508   1.845   1.769  12.857  0.3942 -0.5117 -0.0765
  368MPD2     H 5509   1.673   2.067  12.712  1.8117 -0.1385 -0.3956
  368MPD2    H1 5510   1.995   1.801  12.718 -0.4273 -1.6347 -0.5599
  368MPD2    H2 5511   1.689   1.734  12.983 -0.1091 -0.0194 -0.5948
  368MPD2    H3 5512   1.893   1.680  12.896  1.9245 -0.3221 -1.5736
  368MPD2     N 5513   1.895   2.001  12.582  0.2251 -0.4965 -0.5478
  368MPD2    H5 5514   1.991   1.985  12.553  0.5302 -1.6590  1.1246
  368MPD2    N1 5515   1.543   1.949  12.936  0.2945 -0.1564  0.3172
  368MPD2    H7 5516   1.534   1.905  13.028  2.2692 -1.3239 -0.0524
  369TMC3    C1 5517   1.335   2.048  12.974  0.2460  0.6810 -0.0611
  369TMC3    C2 5518   1.248   2.138  12.926 -0.1560  0.0384 -0.2956
  369TMC3    C3 5519   1.116   2.122  12.944  0.1090  0.0218 -0.0292
  369TMC3    C4 5520   1.292   1.940  13.052 -0.4908  0.1891 -0.0470
  369TMC3    C5 5521   1.156   1.928  13.065 -0.4326  0.7217 -0.1778
  369TMC3    C6 5522   1.069   2.013  13.010 -0.3988  0.9534 -0.3428
  369TMC3     C 5523   1.451   2.043  12.892  0.3854 -0.5540  0.3350
  369TMC3     O 5524   1.438   2.099  12.783 -0.3959  0.1160 -0.1674
  369TMC3     H 5525   1.278   2.226  12.870  1.4322  0.3265  1.0313
  369TMC3    H1 5526   1.357   1.863  13.093 -2.7294 -1.6886 -0.0224
  369TMC3    H2 5527   0.963   1.992  12.999 -0.2394  0.3421 -0.7551
  369TMC3    C7 5528   1.113   1.827  13.162  0.9766  0.2908 -0.7993
  369TMC3    C8 5529   1.040   2.147  12.824  0.0572  0.2415  0.9233
  369TMC3    O1 5530   1.195   1.775  13.235 -0.6367  0.9540 -0.1503
  369TMC3    O2 5531   0.920   2.142  12.824 -0.1332 -0.4878  0.0126
  370TMC3    C1 5532   1.693   1.978  16.320 -0.1462 -0.8057 -0.1975
  370TMC3    C2 5533   1.641   1.898  16.410  1.1065 -0.4338 -0.0946
  370TMC3    C3 5534   1.589   1.777  16.369 -0.0963 -0.6867 -0.7768
  370TMC3    C4 5535   1.698   1.938  16.188  1.2434 -0.4969  0.2106
  370TMC3    C5 5536   1.634   1.824  16.150  0.3619 -0.6825  0.4035
  370TMC3    C6 5537   1.596   1.734  16.244  0.6764  0.4842  0.1277
  370TMC3     C 5538   1.802   2.066  16.360 -0.1996 -0.5692 -0.5083
  370TMC3     O 5539   1.856   2.021  16.462  0.5020  0.2328 -0.3142
  370TMC3     H 5540   1.664   1.906  16.516  0.0818  0.4559  0.0552
  370TMC3    H1 5541   1.756   2.001  16.122 -0.7042  0.9854 -0.0624
  370TMC3    H2 5542   1.551   1.639  16.217  0.9127  1.1736 -2.7113
  370TMC3    C7 5543   1.659   1.783  16.008 -0.3215 -0.2986 -0.5913
  370TMC3    C8 5544   1.564   1.677  16.476  0.1423  0.1711  0.1801
  370TMC3    O1 5545   1.659   1.879  15.932  0.6717 -0.3304 -0.0666
  370TMC3    O2 5546   1.549   1.557  16.459  0.4465  0.3040  0.2540
  371TMC3    C1 5547   2.910   0.156  15.863 -0.7304  0.2279 -0.3113
  371TMC3    C2 5548   2.782   0.146  15.826 -0.7598  0.0385 -0.8237
  371TMC3    C3 5549   2.697   0.254  15.837  0.0715  0.1825 -0.5816
  371TMC3    C4 5550   2.959   0.267  15.930  0.3167  0.1220 -0.8029
  371TMC3    C5 5551   2.870   0.370  15.949 -0.5434 -0.2015  0.4510
  371TMC3    C6 5552   2.734   0.363  15.910  0.1671 -0.8207 -0.0982
  371TMC3     C 5553   3.007   0.063  15.806  0.2178 -0.3556 -0.4323
  371TMC3     O 5554   3.110   0.120  15.764 -0.9544 -0.1490 -0.0546
  371TMC3     H 5555   2.746   0.070  15.757 -0.7237  0.0960 -0.9067
  371TMC3    H1 5556   3.067   0.274  15.935  0.4436 -0.4619 -2.6231
  371TMC3    H2 5557   2.673   0.452  15.916 -0.3953 -1.3427  1.8725
  371TMC3    C7 5558   2.922   0.498  15.920 -0.2438 -0.1068  0.2829
  371TMC3    C8 5559   2.583   0.260  15.747 -0.6417 -0.2032  0.2531
  371TMC3    O1 5560   2.856   0.560  15.839 -0.0629 -0.0023  0.4201
  371TMC3    O2 5561   2.555   0.169  15.671 -0.0945 -0.2896 -0.1216
  372MPD2     C 5562   2.727   2.136  13.279  0.0633  0.0241  0.3570
  372MPD2    C1 5563   2.763   2.061  13.396  0.4489  0.0279  0.0716
  372MPD2    C2 5564   2.707   1.936  13.409  0.7202  0.2985 -0.2591
  372MPD2    C3 5565   2.612   1.883  13.319 -0.2517 -0.3347 -0.3414
  372MPD2    C4 5566   2.580   1.956  13.209 -1.0499  0.7488  0.9914
  372MPD2    C5 5567   2.642   2.075  13.192 -0.3978 -0.4234 -0.0218
  372MPD2     H 5568   2.732   1.883  13.500 -0.4579 -1.7583 -1.1355
  372MPD2    H1 5569   2.505   1.922  13.138 -1.3043  2.3371  0.5082
  372MPD2    H2 5570   2.776   2.227  13.245  1.2222 -1.2794 -1.4522
  372MPD2    H3 5571   2.623   2.130  13.101  3.3564  2.3392  0.8530
  372MPD2     N 5572   2.556   1.750  13.336  0.2391  0.3567  0.3496
  372MPD2    H5 5573   2.599   1.698  13.413  1.6379  2.9030  1.2755
  372MPD2    N1 5574   2.843   2.105  13.507  0.0520  0.1783  0.5278
  372MPD2    H7 5575   2.880   2.032  13.567 -2.9756  0.6579  2.9765
  373TMC3    C1 5576   2.396   1.577  13.324 -0.2410  0.6731  0.3840
  373TMC3    C2 5577   2.296   1.581  13.422 -0.2004  0.1290 -0.1550
  373TMC3    C3 5578   2.292   1.477  13.507 -0.2737 -0.1751 -0.0544
  373TMC3    C4 5579   2.492   1.483  13.328 -0.1496 -0.3654  0.3406
  373TMC3    C5 5580   2.491   1.386  13.422 -0.2490 -0.5478 -0.5536
  373TMC3    C6 5581   2.387   1.386  13.523 -0.4560 -0.1343 -0.6105
  373TMC3     C 5582   2.435   1.708  13.283 -0.6232 -0.1993  0.6201
  373TMC3     O 5583   2.349   1.781  13.236 -0.0356  0.4768  0.7499
  373TMC3     H 5584   2.210   1.645  13.412  0.5102  1.0346 -0.4733
  373TMC3    H1 5585   2.577   1.490  13.262 -0.1347  1.3694  0.5277
  373TMC3    H2 5586   2.382   1.299  13.588  0.6828  0.9005  0.8567
  373TMC3    C7 5587   2.575   1.272  13.396 -0.4234 -0.3890 -0.3748
  373TMC3    C8 5588   2.193   1.474  13.619  0.0300 -0.3012  0.9023
  373TMC3    O1 5589   2.594   1.249  13.275  0.3621  0.6573 -0.4217
  373TMC3    O2 5590   2.195   1.378  13.694  0.6625  0.6425 -0.0353
  374TMC3    C1 5591   3.061   1.666   9.424 -0.2564 -0.4041  0.4879
  374TMC3    C2 5592   3.133   1.785   9.438  0.5330 -0.7087  0.6604
  374TMC3    C3 5593   3.119   1.874   9.335  0.1366 -0.0258 -0.0522
  374TMC3    C4 5594   2.971   1.641   9.324  0.6163  0.1369  0.2156
  374TMC3    C5 5595   2.968   1.739   9.231 -0.0943 -0.9349  0.1824
  374TMC3    C6 5596   3.035   1.856   9.232 -0.3475 -0.2301  0.3476
  374TMC3     C 5597   3.051   1.592   9.549 -0.3653  0.9035 -0.8104
  374TMC3     O 5598   3.061   1.660   9.652  0.3705  0.7883 -0.3942
  374TMC3     H 5599   3.206   1.796   9.516  1.6148 -1.5710 -0.2422
  374TMC3    H1 5600   2.927   1.543   9.310  1.4831 -0.3954  1.2050
  374TMC3    H2 5601   3.034   1.937   9.160 -1.6119 -1.3108 -0.8555
  374TMC3    C7 5602   2.877   1.724   9.121 -0.3228 -0.0221  0.5963
  374TMC3    C8 5603   3.168   2.010   9.353 -0.0995 -0.5721  0.4142
  374TMC3    O1 5604   2.781   1.652   9.139  0.1594  0.2806  0.0963
  374TMC3    O2 5605   3.143   2.094   9.265  0.0013 -0.6869  0.0717
  375MPD2     C 5606   3.230   2.002  16.886 -1.1245  0.3079  0.8993
  375MPD2    C1 5607   3.158   2.082  16.801 -0.5538 -0.1122  1.0220
  375MPD2    C2 5608   3.220   2.136  16.690 -0.1442  0.4814  0.8693
  375MPD2    C3 5609   3.352   2.127  16.667  0.0028  0.4142 -0.4553
  375MPD2    C4 5610   3.427   2.047  16.751 -0.7063 -0.7553 -0.1283
  375MPD2    C5 5611   3.366   1.979  16.854  0.6539  0.1109 -0.2685
  375MPD2     H 5612   3.149   2.199  16.638 -1.3265 -1.3001  0.3627
  375MPD2    H1 5613   3.535   2.038  16.746 -0.6175 -0.7628  1.8131
  375MPD2    H2 5614   3.192   1.969  16.982  1.3504 -1.8517  1.1442
  375MPD2    H3 5615   3.422   1.917  16.923  1.6179 -1.0027 -2.0603
  375MPD2     N 5616   3.405   2.172  16.539  0.7220 -0.0850  0.0393
  375MPD2    H5 5617   3.504   2.166  16.518 -0.0180 -1.3867 -3.0282
  375MPD2    N1 5618   3.024   2.129  16.824 -0.3680 -1.0355  0.0134
  375MPD2    H7 5619   2.974   2.190  16.760 -1.3554 -2.8569 -0.9550
  376TMC3    C1 5620   3.421   2.240  16.319 -0.5390  0.6452 -0.5114
  376TMC3    C2 5621   3.556   2.256  16.340  0.2054 -0.2393  0.2989
  376TMC3    C3 5622   3.635   2.264  16.229 -0.1459 -0.1489 -0.3823
  376TMC3    C4 5623   3.366   2.222  16.196  0.3244  0.4240 -0.2894
  376TMC3    C5 5624   3.455   2.227  16.088  0.3522  0.0570  0.2026
  376TMC3    C6 5625   3.589   2.244  16.103 -0.1473 -0.2485  0.3553
  376TMC3     C 5626   3.328   2.214  16.426 -0.3581 -0.3787  0.3308
  376TMC3     O 5627   3.209   2.225  16.403  0.3094 -0.1039  0.6379
  376TMC3     H 5628   3.590   2.302  16.432  0.8343  1.3060 -0.7293
  376TMC3    H1 5629   3.258   2.233  16.188  0.3650  1.8525  1.1274
  376TMC3    H2 5630   3.650   2.249  16.014  1.0785  0.4409  1.2328
  376TMC3    C7 5631   3.402   2.241  15.951 -0.2505  0.1594 -0.4827
  376TMC3    C8 5632   3.760   2.329  16.242 -0.3440 -0.0192 -0.8048
  376TMC3    O1 5633   3.480   2.278  15.864 -0.6373  0.1530 -0.5433
  376TMC3    O2 5634   3.785   2.396  16.141  0.1711  0.2442  0.0699
  377MPD2     C 5635   0.435   2.145  12.813 -0.8620 -0.6206 -0.0377
  377MPD2    C1 5636   0.445   2.043  12.718 -0.2306  0.4220  0.2519
  377MPD2    C2 5637   0.337   1.961  12.692  0.2457  0.2122  0.8469
  377MPD2    C3 5638   0.218   1.984  12.770 -0.6989 -0.0789  0.1894
  377MPD2    C4 5639   0.208   2.101  12.844  0.2265 -0.5525 -0.2127
  377MPD2    C5 5640   0.314   2.178  12.868  0.5662 -0.2926  0.1454
  377MPD2     H 5641   0.347   1.886  12.615 -0.5995  0.2181  0.7330
  377MPD2    H1 5642   0.115   2.119  12.897  1.2561  1.1945  1.0052
  377MPD2    H2 5643   0.516   2.213  12.832 -0.8615 -1.2782  2.3311
  377MPD2    H3 5644   0.291   2.256  12.940  1.5722 -0.2565  0.4319
  377MPD2     N 5645   0.097   1.914  12.770  1.2289  0.0300  0.0585
  377MPD2    H5 5646   0.029   1.941  12.840  0.2941 -1.5649 -0.2481
  377MPD2    N1 5647   0.566   2.029  12.653  0.1289 -0.2367 -0.0826
  377MPD2    H7 5648   0.642   2.083  12.693  0.5532 -0.0855 -1.1099
  378TMC3    C1 5649   0.866   1.862  12.332  0.0114 -0.7428 -0.3060
  378TMC3    C2 5650   0.747   1.913  12.380 -0.3206 -0.7106 -0.2396
  378TMC3    C3 5651   0.728   1.937  12.510 -0.1863  0.5614 -0.8425
  378TMC3    C4 5652   0.957   1.816  12.425  0.5273 -0.3784  0.4170
  378TMC3    C5 5653   0.938   1.842  12.563  0.7157 -0.2398  0.2287
  378TMC3    C6 5654   0.830   1.916  12.593 -0.2321 -0.2898  0.0371
  378TMC3     C 5655   0.877   1.841  12.185  0.0787  0.2557  0.7155
  378TMC3     O 5656   0.774   1.861  12.123 -0.2937 -0.6972  0.3572
  378TMC3     H 5657   0.665   1.941  12.316 -0.1490 -0.1272 -0.1981
  378TMC3    H1 5658   1.038   1.748  12.401  1.2116  0.1035  1.3162
  378TMC3    H2 5659   0.811   1.945  12.695 -0.0599 -0.6151  0.1618
  378TMC3    C7 5660   1.020   1.789  12.670  0.1177 -0.1677  0.3780
  378TMC3    C8 5661   0.593   1.946  12.546  0.2887  0.0973  0.0740
  378TMC3    O1 5662   0.988   1.805  12.785  0.0980 -0.3181  0.2858
  378TMC3    O2 5663   0.519   1.899  12.466 -0.1961  0.1128 -0.0395
  379MPD2     C 5664   2.141   0.117  15.964 -0.9205  0.1090 -0.1836
  379MPD2    C1 5665   2.087   4.724  16.005 -0.4090 -0.2047  0.5832
  379MPD2    C2 5666   2.167   4.633  16.073  0.3964 -0.3405 -0.6269
  379MPD2    C3 5667   2.308   4.659  16.088 -0.6501 -0.0400  0.1343
  379MPD2    C4 5668   2.360   0.051  16.043  0.5244 -0.8142  0.0083
  379MPD2    C5 5669   2.275   0.140  15.978 -0.3647  0.1688 -0.3699
  379MPD2     H 5670   2.111   4.554  16.122  0.9100  0.8489  1.8827
  379MPD2    H1 5671   2.464   0.076  16.060  0.3636  0.2135 -0.5250
  379MPD2    H2 5672   2.069   0.190  15.929  1.4061  1.0209 -3.0654
  379MPD2    H3 5673   2.327   0.228  15.943 -1.1746  2.1114  3.3106
  379MPD2     N 5674   2.389   4.553  16.142  0.5493  0.5676 -0.2515
  379MPD2    H5 5675   2.332   4.472  16.166  1.9840 -0.2398  0.4300
  379MPD2    N1 5676   1.953   4.696  15.981  0.5711 -0.4259 -0.5009
  379MPD2    H7 5677   1.906   0.056  15.950 -1.3650 -1.6617 -0.9673
  380TMC3    C1 5678   1.768   4.574  15.899 -0.1733  0.0024 -0.5750
  380TMC3    C2 5679   1.771   4.468  15.810  0.1819 -0.2667  0.2403
  380TMC3    C3 5680   1.743   4.486  15.683 -0.5029 -0.6955 -0.3435
  380TMC3    C4 5681   1.726   4.699  15.850 -0.2257  0.6094  0.2271
  380TMC3    C5 5682   1.670   4.703  15.722  0.0073  0.0112 -0.2036
  380TMC3    C6 5683   1.681   4.597  15.634 -0.3720 -0.1517 -0.4148
  380TMC3     C 5684   1.887   4.576  15.979 -0.2645  0.5429 -0.0400
  380TMC3     O 5685   1.931   4.464  16.003 -0.5143  0.4458 -0.3205
  380TMC3     H 5686   1.800   4.369  15.843  0.3022 -0.1738  0.4114
  380TMC3    H1 5687   1.715   0.062  15.913 -0.5593  0.0345  0.9718
  380TMC3    H2 5688   1.662   4.615  15.529  0.0473 -0.7253 -0.5903
  380TMC3    C7 5689   1.565   0.068  15.693 -0.0310  0.1625 -0.1879
  380TMC3    C8 5690   1.871   4.483  15.604  0.7418  0.0205  0.2147
  380TMC3    O1 5691   1.572   0.174  15.742 -0.0526  0.5076  0.4287
  380TMC3    O2 5692   1.856   4.514  15.487 -0.1772  0.0437  0.2600
  381TMC3    C1 5693   1.717   0.876  16.328  0.1237  0.4773  0.0027
  381TMC3    C2 5694   1.797   0.980  16.293  0.1562 -0.0397 -0.0323
  381TMC3    C3 5695   1.808   1.085  16.384  0.2907  0.4114 -0.0186
  381TMC3    C4 5696   1.632   0.875  16.433  0.4577 -0.0709  0.6771
  381TMC3    C5 5697   1.638   0.981  16.516 -0.7238  0.1747 -0.8487
  381TMC3    C6 5698   1.721   1.092  16.490  0.0319 -0.7835 -0.6460
  381TMC3     C 5699   1.728   0.748  16.262  0.2257  0.0158 -0.1954
  381TMC3     O 5700   1.670   0.653  16.313  0.2758  0.3278 -0.3592
  381TMC3     H 5701   1.887   0.964  16.234  0.1331 -3.5427  0.8874
  381TMC3    H1 5702   1.580   0.785  16.464 -2.8602  1.2990 -0.8863
  381TMC3    H2 5703   1.739   1.158  16.575  1.8429 -1.7797 -0.2560
  381TMC3    C7 5704   1.601   0.953  16.655 -0.5454  0.2967 -0.5929
  381TMC3    C8 5705   1.887   1.198  16.346  0.7820 -0.8133  0.1290
  381TMC3    O1 5706   1.622   0.838  16.687  0.3017  0.1284 -0.1621
  381TMC3    O2 5707   1.940   1.194  16.238  0.0762  0.5684 -0.3552
  382MPD2     C 5708   1.421   3.231  17.130  0.5216  0.5176  0.3016
  382MPD2    C1 5709   1.406   3.290  17.259 -0.2941 -0.0259 -0.1310
  382MPD2    C2 5710   1.313   3.244  17.355  0.6129  0.5182 -0.0124
  382MPD2    C3 5711   1.210   3.156  17.308  0.0999 -0.3360 -0.7778
  382MPD2    C4 5712   1.228   3.098  17.186  0.0329  0.5560 -0.3385
  382MPD2    C5 5713   1.331   3.135  17.097 -0.4006 -0.1709  0.1753
  382MPD2     H 5714   1.308   3.289  17.453  0.7536  0.0274  0.2203
  382MPD2    H1 5715   1.161   3.026  17.141 -0.7317  0.9228  0.2135
  382MPD2    H2 5716   1.503   3.254  17.063  2.8054 -1.4287  2.4186
  382MPD2    H3 5717   1.344   3.086  17.001 -1.2168 -0.3559  0.1603
  382MPD2     N 5718   1.094   3.118  17.378 -0.1266 -0.3431 -0.1011
  382MPD2    H5 5719   1.040   3.035  17.354 -1.2078  1.4953 -4.0607
  382MPD2    N1 5720   1.492   3.392  17.307 -0.0286  0.2649 -0.4784
  382MPD2    H7 5721   1.475   3.415  17.405  0.8579 -0.5106 -0.1476
  383TMC3    C1 5722   0.928   3.116  17.539  0.1306  0.3491  0.0329
  383TMC3    C2 5723   0.840   3.085  17.432  0.4164 -0.7458 -0.7938
  383TMC3    C3 5724   0.746   2.991  17.460  0.4421 -0.2796  0.0870
  383TMC3    C4 5725   0.917   3.063  17.662  0.5735  0.5408  0.0448
  383TMC3    C5 5726   0.825   2.965  17.681  0.1259  0.5304  0.0114
  383TMC3    C6 5727   0.732   2.924  17.582  0.0474  0.7721 -0.3972
  383TMC3     C 5728   1.056   3.168  17.497 -0.7509  0.1753  0.9217
  383TMC3     O 5729   1.116   3.257  17.558 -0.2362  0.4043 -0.4164
  383TMC3     H 5730   0.837   3.142  17.340 -0.7521  0.6345  0.1034
  383TMC3    H1 5731   0.979   3.106   0.039  0.2152 -0.1927  0.7282
  383TMC3    H2 5732   0.644   2.865  17.604  0.8136  0.1069  0.8797
  383TMC3    C7 5733   0.823   2.897   0.105  0.6152 -0.4642  1.0873
  383TMC3    C8 5734   0.644   2.977  17.357 -0.2560 -0.8671 -0.2456
  383TMC3    O1 5735   0.872   2.950   0.203 -0.6342 -0.3472  0.0443
  383TMC3    O2 5736   0.623   3.076  17.284  0.1143  0.1783 -0.0847
  384MPD2     C 5737   2.533   0.109  12.470 -0.6193  0.5696 -0.0524
  384MPD2    C1 5738   2.511   4.709  12.422 -0.0191 -0.7001 -0.6847
  384MPD2    C2 5739   2.565   4.671  12.300 -0.4416 -0.2581 -0.0108
  384MPD2    C3 5740   2.622   0.041  12.214 -0.3610 -0.4147 -0.3862
  384MPD2    C4 5741   2.638   0.164  12.261  0.6370 -0.3439  0.3958
  384MPD2    C5 5742   2.603   0.198  12.386  0.4572  0.0054  0.4561
  384MPD2     H 5743   2.549   4.572  12.260 -0.0781 -0.4468  0.3054
  384MPD2    H1 5744   2.689   0.235  12.197  0.3846 -1.1852 -0.7328
  384MPD2    H2 5745   2.488   0.149  12.561  1.3998 -0.0880  1.2411
  384MPD2    H3 5746   2.624   0.301  12.412  0.5398 -0.2242  1.3296
  384MPD2     N 5747   2.653   4.720  12.082  0.5430  0.4471 -0.2606
  384MPD2    H5 5748   2.623   4.625  12.064 -2.9074  1.4858 -0.1081
  384MPD2    N1 5749   2.431   4.612  12.487  0.6542  0.2959  0.3733
  384MPD2    H7 5750   2.428   4.525  12.434 -0.7594  1.0378 -0.7602
  385TMC3    C1 5751   2.717   4.692  11.864 -0.7126  0.1957 -0.4842
  385TMC3    C2 5752   2.663   0.008  11.746 -0.0339  0.2940 -0.3171
  385TMC3    C3 5753   2.584   4.648  11.681 -0.4347  1.0694 -0.0488
  385TMC3    C4 5754   2.718   4.559  11.908 -0.0976 -0.1194  0.4338
  385TMC3    C5 5755   2.636   4.475  11.838  0.4011 -0.4682  0.2312
  385TMC3    C6 5756   2.569   4.514  11.723  0.3175  0.0076 -0.4704
  385TMC3     C 5757   2.697   0.067  11.971 -0.2150  0.4672  0.3233
  385TMC3     O 5758   2.703   0.186  11.947  0.2186  0.5635  0.6485
  385TMC3     H 5759   2.670   0.112  11.718 -0.4859 -0.2650 -2.5159
  385TMC3    H1 5760   2.787   4.521  11.983  1.2636  2.6180  0.5521
  385TMC3    H2 5761   2.494   4.446  11.685 -0.1353  1.3927 -2.0743
  385TMC3    C7 5762   2.566   4.386  11.924  0.2782  0.8234  0.1536
  385TMC3    C8 5763   2.551   4.678  11.545  1.0988  0.0208  0.1424
  385TMC3    O1 5764   2.583   4.406  12.046  0.4723  0.0937 -0.0130
  385TMC3    O2 5765   2.597   0.054  11.497  0.3165  0.6540 -0.2031
  386TMC3    C1 5766   1.483   2.007  11.970  1.3059  0.3051 -0.6550
  386TMC3    C2 5767   1.557   2.010  11.855 -0.0887  0.2157 -0.0914
  386TMC3    C3 5768   1.492   2.017  11.740 -0.7114 -0.9355  0.2166
  386TMC3    C4 5769   1.344   2.018  11.970  0.7309  0.2364 -0.2026
  386TMC3    C5 5770   1.281   2.031  11.849  0.5483  0.9576 -0.0836
  386TMC3    C6 5771   1.353   2.035  11.729 -0.4583  0.0418 -0.3164
  386TMC3     C 5772   1.537   1.943  12.091 -0.0997 -0.1948 -0.4913
  386TMC3     O 5773   1.454   1.905  12.174  0.0748  0.2039 -0.2205
  386TMC3     H 5774   1.666   2.008  11.854 -0.0801  0.3121  0.7234
  386TMC3    H1 5775   1.285   2.033  12.059  0.4578  0.4807 -0.4242
  386TMC3    H2 5776   1.316   2.029  11.627  0.2033 -0.4120 -0.5348
  386TMC3    C7 5777   1.145   2.083  11.850  0.2255 -0.4599 -0.5612
  386TMC3    C8 5778   1.577   2.002  11.626 -0.1454  0.4552 -0.3783
  386TMC3    O1 5779   1.107   2.131  11.956  1.3677  0.3929  0.2281
  386TMC3    O2 5780   1.542   2.065  11.525 -0.7303 -0.3234  0.4068
  387MPD2     C 5781   0.210   2.501   9.238  0.6342 -0.1485 -0.4852
  387MPD2    C1 5782   0.316   2.466   9.322  0.0296  0.0082  0.7893
  387MPD2    C2 5783   0.376   2.342   9.301 -0.2193  0.1592  1.1770
  387MPD2    C3 5784   0.321   2.249   9.218 -0.2457  0.1790  0.0885
  387MPD2    C4 5785   0.221   2.286   9.130  0.5713  0.1248 -0.6708
  387MPD2    C5 5786   0.175   2.419   9.138  0.1023 -0.1192  0.2662
  387MPD2     H 5787   0.454   2.309   9.370  0.7059  0.5231  0.3037
  387MPD2    H1 5788   0.191   2.213   9.056 -0.8269 -0.0303  0.0347
  387MPD2    H2 5789   0.178   2.604   9.230  0.3171 -0.2908 -1.1024
  387MPD2    H3 5790   0.111   2.457   9.059  0.1123  0.7229  0.6592
  387MPD2     N 5791   0.392   2.126   9.217  0.3581 -0.6552  0.9253
  387MPD2    H5 5792   0.473   2.123   9.278  0.5415  0.8476  0.7575
  387MPD2    N1 5793   0.378   2.549   9.420  0.0621 -0.4142 -0.2250
  387MPD2    H7 5794   0.459   2.508   9.465 -0.7250 -1.5869  0.1506
  388TMC3    C1 5795   0.390   2.717   9.580 -0.0564 -0.4530  0.2644
  388TMC3    C2 5796   0.323   2.827   9.634 -0.1724  0.6714 -0.4957
  388TMC3    C3 5797   0.330   2.840   9.772 -0.0811  0.5184 -0.5056
  388TMC3    C4 5798   0.454   2.633   9.660 -0.0197  0.6094  0.0499
  388TMC3    C5 5799   0.459   2.650   9.792 -0.9591  0.2440 -0.3109
  388TMC3    C6 5800   0.405   2.757   9.854 -0.0924  0.2313  0.0528
  388TMC3     C 5801   0.336   2.673   9.459 -0.4556  0.8964  0.2269
  388TMC3     O 5802   0.243   2.740   9.409  0.0315 -0.2420  0.5401
  388TMC3     H 5803   0.256   2.883   9.569 -1.0183 -2.1015 -1.9815
  388TMC3    H1 5804   0.518   2.556   9.618 -1.9373  0.2631 -2.2539
  388TMC3    H2 5805   0.410   2.764   9.962 -2.5911 -1.9795  0.3053
  388TMC3    C7 5806   0.499   2.533   9.869  0.6648 -1.0352  0.0763
  388TMC3    C8 5807   0.265   2.958   9.830  0.3243 -0.1756 -0.3608
  388TMC3    O1 5808   0.574   2.556   9.964 -0.1775 -0.7684  0.3460
  388TMC3    O2 5809   0.173   3.012   9.766 -0.3226 -0.2644  0.5161
  389MPD2     C 5810   4.208   0.658  11.142 -0.2844  0.6035  0.1164
  389MPD2    C1 5811   4.157   0.588  11.027  0.1691  0.8620 -0.2015
  389MPD2    C2 5812   4.064   0.490  11.050  0.8098  0.1035  0.8226
  389MPD2    C3 5813   4.020   0.453  11.174 -0.2329  0.0414 -0.0162
  389MPD2    C4 5814   4.065   0.526  11.285 -0.2694  0.7753  0.1851
  389MPD2    C5 5815   4.159   0.623  11.269 -0.3151 -0.1940  0.1522
  389MPD2     H 5816   4.032   0.434  10.962  1.4744  1.0210  0.0084
  389MPD2    H1 5817   4.029   0.496  11.383 -0.6787  1.8833  0.3747
  389MPD2    H2 5818   4.271   0.746  11.135 -0.4361  0.7726  0.9715
  389MPD2    H3 5819   4.203   0.677  11.352  0.5257  0.8466 -0.9659
  389MPD2     N 5820   3.934   0.348  11.196  0.1387  0.6416  0.3027
  389MPD2    H5 5821   3.897   0.335  11.290 -0.1454 -0.6102  0.0191
  389MPD2    N1 5822   4.185   0.630  10.895  0.2298  0.0200  0.3430
  389MPD2    H7 5823   4.273   0.678  10.880 -0.9288  2.1384  0.3232
  390TMC3    C1 5824   3.789   0.157  11.149  0.3928  0.0290 -0.0331
  390TMC3    C2 5825   3.787   0.109  11.282 -0.0882  0.3541 -0.1810
  390TMC3    C3 5826   3.702   4.722  11.302 -0.3070  0.2068 -0.8930
  390TMC3    C4 5827   3.715   0.101  11.050 -0.2967 -0.4264  0.2352
  390TMC3    C5 5828   3.634   4.718  11.081  0.3164  0.2807  0.2095
  390TMC3    C6 5829   3.628   4.658  11.205  0.7604  0.6471  0.3241
  390TMC3     C 5830   3.882   0.261  11.100  0.1996  0.4438  0.3329
  390TMC3     O 5831   3.900   0.260  10.975 -0.2076 -0.7703 -0.0273
  390TMC3     H 5832   3.851   0.138  11.365 -0.2696  1.7954 -0.5327
  390TMC3    H1 5833   3.706   0.146  10.951  2.7438 -0.1517  0.0859
  390TMC3    H2 5834   3.596   4.555  11.219 -1.6718  1.1547 -1.3940
  390TMC3    C7 5835   3.569   4.647  10.972  0.1653  0.6341  0.8290
  390TMC3    C8 5836   3.693   4.666  11.435 -0.4483  0.7526 -0.8715
  390TMC3    O1 5837   3.617   4.662  10.857  0.1071  0.2141 -0.4719
  390TMC3    O2 5838   3.777   4.706  11.514 -0.3971 -0.0333 -1.1690
  391MPD2     C 5839   3.515   1.908  10.874  0.1902 -0.5403 -1.2380
  391MPD2    C1 5840   3.597   2.013  10.858 -0.1545 -0.1460  0.0896
  391MPD2    C2 5841   3.590   2.084  10.741 -0.3918 -0.2302 -0.2116
  391MPD2    C3 5842   3.479   2.062  10.655  0.4795 -0.1376  0.0423
  391MPD2    C4 5843   3.402   1.953  10.672  0.8310 -0.0476  0.3932
  391MPD2    C5 5844   3.420   1.877  10.785 -0.0109  0.2194  0.0747
  391MPD2     H 5845   3.656   2.171  10.744  0.0949 -0.5090 -2.9705
  391MPD2    H1 5846   3.330   1.915  10.601  1.6429  1.1248 -1.0472
  391MPD2    H2 5847   3.532   1.841  10.958 -0.5277  1.2409  0.3412
  391MPD2    H3 5848   3.359   1.789  10.801  1.2563 -0.1722  2.6739
  391MPD2     N 5849   3.488   2.134  10.534  0.4231 -0.5380  0.4494
  391MPD2    H5 5850   3.560   2.206  10.536  1.0024 -1.1349  0.9530
  391MPD2    N1 5851   3.690   2.058  10.950  0.3085 -0.2030 -0.6358
  391MPD2    H7 5852   3.761   2.122  10.919  1.0404 -0.7884 -0.1510
  392TMC3    C1 5853   3.445   2.183  10.313  0.4793 -0.1093  1.0924
  392TMC3    C2 5854   3.371   2.190  10.198 -0.3885  0.0355 -0.7043
  392TMC3    C3 5855   3.430   2.220  10.078  0.6409 -0.3690 -0.2922
  392TMC3    C4 5856   3.579   2.197  10.292 -0.7891 -0.2096  0.3552
  392TMC3    C5 5857   3.634   2.221  10.174 -0.9176 -0.6080 -0.2443
  392TMC3    C6 5858   3.566   2.240  10.060  0.2135  0.0955  0.0618
  392TMC3     C 5859   3.399   2.129  10.434  0.2754  0.8928 -0.1712
  392TMC3     O 5860   3.288   2.078  10.426 -0.0210  0.4518  0.0389
  392TMC3     H 5861   3.262   2.190  10.196 -0.3784 -0.9501 -1.1800
  392TMC3    H1 5862   3.651   2.186  10.372 -0.0913 -0.6357 -0.3435
  392TMC3    H2 5863   3.610   2.257   9.962 -1.2598  1.8034 -0.3170
  392TMC3    C7 5864   3.776   2.208  10.172 -0.3326  0.5958 -0.1792
  392TMC3    C8 5865   3.354   2.189   9.958 -0.0967  0.0339 -0.6508
  392TMC3    O1 5866   3.842   2.165  10.270 -0.1912 -0.0377 -0.4559
  392TMC3    O2 5867   3.272   2.100   9.963 -0.5588 -0.2100  0.3250
  393TMC3    C1 5868   2.578   4.586  10.131  1.0095  0.6135  0.1942
  393TMC3    C2 5869   2.456   4.543  10.179  0.2746 -0.3019  0.4024
  393TMC3    C3 5870   2.443   4.407  10.215  0.4866  0.4683 -0.0530
  393TMC3    C4 5871   2.681   4.498  10.119  0.2550  0.2101 -0.2398
  393TMC3    C5 5872   2.664   4.366  10.160 -0.2662  0.2608 -0.6153
  393TMC3    C6 5873   2.545   4.316  10.198 -0.1361  0.0935 -0.0102
  393TMC3     C 5874   2.605   4.722  10.122  0.4728 -0.5968 -0.5044
  393TMC3     O 5875   2.726   0.021  10.134 -0.5044 -0.2224 -0.4974
  393TMC3     H 5876   2.376   4.612  10.204  0.3908 -0.0430  0.0564
  393TMC3    H1 5877   2.778   4.530  10.081  0.3677  0.4058  0.2072
  393TMC3    H2 5878   2.535   4.213  10.231 -1.7368 -0.1484 -1.2553
  393TMC3    C7 5879   2.766   4.264  10.137 -0.0755 -0.2151  0.0044
  393TMC3    C8 5880   2.337   4.371  10.301  0.2495  0.2564  0.0802
  393TMC3    O1 5881   2.734   4.150  10.123 -0.3339 -0.1793  0.0102
  393TMC3    O2 5882   2.280   4.456  10.371  0.4739 -0.8567 -0.6945
  394TMC3    C1 5883   4.141   0.681  10.669  0.3028 -0.3292 -0.4138
  394TMC3    C2 5884   4.037   0.711  10.576 -0.1235 -0.9138 -0.3158
  394TMC3    C3 5885   4.069   0.776  10.463  0.2807 -0.0631  0.0025
  394TMC3    C4 5886   4.274   0.699  10.641  0.2936  0.7057  0.3314
  394TMC3    C5 5887   4.294   0.752  10.514  0.3090 -0.6126 -0.1354
  394TMC3    C6 5888   4.198   0.795  10.429  0.2886  0.7405  0.0173
  394TMC3     C 5889   4.102   0.618  10.785 -0.4824 -0.4299 -0.9816
  394TMC3     O 5890   3.985   0.581  10.786  0.1212  0.1321  0.1507
  394TMC3     H 5891   3.934   0.683  10.596  0.8517 -2.7114  2.3063
  394TMC3    H1 5892   4.361   0.664  10.694  0.7114 -0.5951 -1.2103
  394TMC3    H2 5893   4.225   0.825  10.328  1.8920 -1.3154 -0.1425
  394TMC3    C7 5894   4.425   0.734  10.468 -0.2100  0.8072  0.4811
  394TMC3    C8 5895   3.967   0.768  10.365  0.1510 -0.0568  0.0456
  394TMC3    O1 5896   4.521   0.789  10.526 -0.0213 -0.0100 -0.0548
  394TMC3    O2 5897   3.858   0.825  10.379  0.0517  0.5576  0.0576
  395TMC3    C1 5898   3.933   2.646  14.334  0.1958 -0.0276  0.1468
  395TMC3    C2 5899   3.838   2.743  14.349 -0.1918 -0.7160  0.1382
  395TMC3    C3 5900   3.863   2.868  14.385  0.3412  0.3745 -0.0962
  395TMC3    C4 5901   4.058   2.677  14.366 -0.2722  0.4082  0.6859
  395TMC3    C5 5902   4.092   2.809  14.393  0.0685 -0.5010 -0.2087
  395TMC3    C6 5903   3.991   2.904  14.415 -0.7851 -0.2537 -0.5393
  395TMC3     C 5904   3.886   2.518  14.366  0.6124 -0.3510 -0.5576
  395TMC3     O 5905   3.898   2.433  14.278  0.4586 -0.3843  0.2570
  395TMC3     H 5906   3.737   2.717  14.319 -0.7850  0.8427  0.7826
  395TMC3    H1 5907   4.132   2.597  14.364 -1.2641 -0.5001  0.5874
  395TMC3    H2 5908   4.014   3.005  14.448  2.7630  0.0745 -4.0417
  395TMC3    C7 5909   4.224   2.856  14.440 -0.6874  0.3907  0.4519
  395TMC3    C8 5910   3.770   2.909  14.497 -0.6618 -0.4554  0.2322
  395TMC3    O1 5911   4.224   2.960  14.509  0.0837  0.1810 -0.4539
  395TMC3    O2 5912   3.827   2.985  14.571 -0.8024 -0.0137  0.1289
  396MPD2     C 5913   3.876   3.387  16.669  0.4496 -0.7542  0.2917
  396MPD2    C1 5914   3.987   3.444  16.728  0.0306 -0.4390  0.1888
  396MPD2    C2 5915   4.063   3.524  16.652 -0.3528  0.5406  0.6796
  396MPD2    C3 5916   4.023   3.556  16.520 -0.6797 -0.2370  0.5529
  396MPD2    C4 5917   3.912   3.500  16.469  0.1519 -0.4177  0.1702
  396MPD2    C5 5918   3.845   3.408  16.541 -0.3652 -0.0458 -0.4352
  396MPD2     H 5919   4.147   3.578  16.694 -0.3883  3.6550 -3.2154
  396MPD2    H1 5920   3.882   3.523  16.367  0.4278  1.4317  0.5199
  396MPD2    H2 5921   3.805   3.318  16.714 -0.3344 -1.4578 -2.0584
  396MPD2    H3 5922   3.751   3.366  16.507  0.0384 -0.6129 -0.8647
  396MPD2     N 5923   4.102   3.655  16.456 -0.4198  0.1070 -0.1065
  396MPD2    H5 5924   4.187   3.682  16.503 -0.2524 -0.2270 -0.2134
  396MPD2    N1 5925   4.013   3.422  16.867  0.0767 -0.0259  0.4940
  396MPD2    H7 5926   3.964   3.346  16.913 -0.7115  1.9815  2.9385
  397TMC3    C1 5927   4.093   3.436  17.086 -0.4805  0.1134  0.5677
  397TMC3    C2 5928   4.220   3.420  17.140 -0.2650  0.6535 -0.5448
  397TMC3    C3 5929   4.254   3.295  17.185 -0.7028  0.0874  0.3818
  397TMC3    C4 5930   3.996   3.342  17.107  0.1044  0.1748 -0.7898
  397TMC3    C5 5931   4.032   3.227  17.177 -0.3010  0.1706 -0.3431
  397TMC3    C6 5932   4.159   3.206  17.213 -0.4778 -0.1738  0.5992
  397TMC3     C 5933   4.098   3.489  16.952 -1.3427  0.1004 -0.3818
  397TMC3     O 5934   4.175   3.580  16.923  0.8633 -0.2050  0.3065
  397TMC3     H 5935   4.296   3.495  17.123 -0.5166  1.0432  0.0366
  397TMC3    H1 5936   3.892   3.362  17.083  0.0465 -0.6661 -1.2159
  397TMC3    H2 5937   4.193   3.109  17.249 -1.3845 -0.9930 -0.7412
  397TMC3    C7 5938   3.919   3.148  17.232 -0.5430  0.2318  0.4033
  397TMC3    C8 5939   4.355   3.238  17.091 -0.4941 -0.0421 -0.4232
  397TMC3    O1 5940   3.807   3.169  17.197 -0.0146  0.2971 -0.2372
  397TMC3    O2 5941   4.318   3.142  17.025  0.9198  0.6566  0.1617
  398MPD2     C 5942   2.278   3.866   0.005 -0.1660  0.0369  0.4895
  398MPD2    C1 5943   2.273   3.828   0.136 -0.1508 -0.5043  0.1489
  398MPD2    C2 5944   2.375   3.862   0.221  0.1395  0.9229  0.6316
  398MPD2    C3 5945   2.484   3.935   0.182  0.3967  0.0451 -0.7652
  398MPD2    C4 5946   2.491   3.973   0.050  0.0295  0.1052 -0.2551
  398MPD2    C5 5947   2.380   3.946  17.667 -0.3198  0.5917 -0.4146
  398MPD2     H 5948   2.372   3.835   0.326  0.0973 -0.2904  0.3088
  398MPD2    H1 5949   2.568   4.041   0.016  2.6303 -2.7249 -0.0161
  398MPD2    H2 5950   2.207   3.835  17.631 -0.7655  0.5716  0.8345
  398MPD2    H3 5951   2.392   3.974  17.563 -2.6698  0.1162 -0.8158
  398MPD2     N 5952   2.583   3.970   0.269 -0.0779  0.0441 -0.6545
  398MPD2    H5 5953   2.565   3.943   0.365  1.1381 -1.4996 -0.8712
  398MPD2    N1 5954   2.161   3.752   0.181  0.7713 -0.1983  0.6172
  398MPD2    H7 5955   2.182   3.711   0.271 -0.7097 -1.1632  0.5358
  399TMC3    C1 5956   1.953   3.628   0.185  0.1589 -0.5663  0.3036
  399TMC3    C2 5957   1.964   3.633   0.318 -0.1161  0.4054 -0.3025
  399TMC3    C3 5958   1.863   3.569   0.391 -0.1128 -0.0297  0.6714
  399TMC3    C4 5959   1.843   3.583   0.123 -0.2885 -0.0988 -0.3874
  399TMC3    C5 5960   1.749   3.516   0.198  0.0312  0.4764  0.6862
  399TMC3    C6 5961   1.762   3.499   0.333  0.3651 -0.2006  0.4379
  399TMC3     C 5962   2.041   3.718   0.114 -0.0083 -0.3544 -0.2609
  399TMC3     O 5963   1.998   3.745   0.001 -0.7453 -0.5106  0.1634
  399TMC3     H 5964   2.036   3.695   0.370 -0.3088 -0.6119  1.1997
  399TMC3    H1 5965   1.824   3.603   0.018  3.1931  1.0838 -0.7603
  399TMC3    H2 5966   1.701   3.432   0.393  0.5096  2.2434  3.3169
  399TMC3    C7 5967   1.672   3.411   0.137  0.7419  0.1181 -0.1619
  399TMC3    C8 5968   1.877   3.542   0.536  0.0141 -0.0030  0.5678
  399TMC3    O1 5969   1.562   3.389   0.192 -0.3100 -0.2082 -0.4619
  399TMC3    O2 5970   1.776   3.519   0.595 -0.0356  0.3282 -0.5751
  400TMC3    C1 5971   0.743   2.619  17.013 -0.7291 -0.0847  0.1769
  400TMC3    C2 5972   0.634   2.626  16.935  0.1106  0.0998 -0.4416
  400TMC3    C3 5973   0.576   2.745  16.910 -0.6426  0.4478  0.0351
  400TMC3    C4 5974   0.800   2.727  17.063 -0.2164  0.4467  0.0014
  400TMC3    C5 5975   0.740   2.843  17.039  0.8836 -0.0382  0.8550
  400TMC3    C6 5976   0.623   2.861  16.972  0.0971  0.2630  0.0538
  400TMC3     C 5977   0.785   2.487  17.053  1.0078  0.5985  0.3240
  400TMC3     O 5978   0.705   2.401  17.018 -0.1357  0.5595 -0.4672
  400TMC3     H 5979   0.587   2.531  16.914 -2.3615  1.0019  1.0708
  400TMC3    H1 5980   0.898   2.729  17.108 -1.7808  0.5096  3.3863
  400TMC3    H2 5981   0.573   2.955  16.951 -0.0085  0.4729  1.2871
  400TMC3    C7 5982   0.838   2.949  17.017 -0.1801 -0.7595  0.2863
  400TMC3    C8 5983   0.444   2.747  16.852 -0.4619  0.0377  0.1422
  400TMC3    O1 5984   0.952   2.916  16.986  0.1967 -0.2690 -0.5654
  400TMC3    O2 5985   0.389   2.855  16.845  0.0881 -0.5086  0.1226
  401MPD2     C 5986   3.513   1.525   0.365 -0.0996  0.2281  0.6457
  401MPD2    C1 5987   3.532   1.472   0.490 -0.2849 -0.7322 -0.5038
  401MPD2    C2 5988   3.584   1.342   0.499 -0.1742 -0.0769 -0.3688
  401MPD2    C3 5989   3.629   1.272   0.389  0.7183 -0.0183 -0.4573
  401MPD2    C4 5990   3.618   1.336   0.264  0.8067  0.9829 -0.1738
  401MPD2    C5 5991   3.541   1.448   0.254 -0.0338  0.2087 -0.8778
  401MPD2     H 5992   3.606   1.300   0.597 -1.0227  3.3639  1.3026
  401MPD2    H1 5993   3.653   1.285   0.175 -2.8819  0.9875 -1.6012
  401MPD2    H2 5994   3.467   1.623   0.352 -0.4063 -0.2362 -1.7331
  401MPD2    H3 5995   3.519   1.483   0.153 -3.3123 -0.6452 -0.4392
  401MPD2     N 5996   3.690   1.146   0.411  0.0218  0.5080  0.3824
  401MPD2    H5 5997   3.707   1.118   0.507 -0.8490 -2.3682 -0.3197
  401MPD2    N1 5998   3.504   1.544   0.608 -0.4303 -0.0254 -0.1874
  401MPD2    H7 5999   3.531   1.497   0.694 -1.1301 -0.2281 -0.0809
  402TMC3    C1 6000   3.788   0.940   0.352  0.5072 -0.7545 -0.3931
  402TMC3    C2 6001   3.872   0.955   0.462  0.5684 -0.2509  0.4591
  402TMC3    C3 6002   3.942   0.844   0.495  0.3485  0.0112 -0.1670
  402TMC3    C4 6003   3.769   0.826   0.278 -0.1421 -0.6298  0.2388
  402TMC3    C5 6004   3.832   0.716   0.331  0.3785 -0.8288  0.1528
  402TMC3    C6 6005   3.915   0.720   0.447 -0.2678 -0.0742  0.6098
  402TMC3     C 6006   3.717   1.061   0.306 -0.5034 -0.1375 -0.4189
  402TMC3     O 6007   3.667   1.060   0.196  0.2540 -0.1330  0.1419
  402TMC3     H 6008   3.893   1.051   0.509  0.4557 -0.6486  1.3268
  402TMC3    H1 6009   3.706   0.826   0.190 -2.9571 -0.5134  2.2348
  402TMC3    H2 6010   3.965   0.634   0.491 -1.1053 -0.9475 -0.1460
  402TMC3    C7 6011   3.771   0.598   0.283 -0.0954 -0.7000  0.2868
  402TMC3    C8 6012   4.027   0.834   0.609  0.7820 -0.2090  0.6177
  402TMC3    O1 6013   3.652   0.592   0.253  0.0340 -0.0924  0.5042
  402TMC3    O2 6014   4.132   0.774   0.612 -0.4407  0.1286 -0.0227
  403MPD2     C 6015   1.818   4.464  12.953  0.3056 -0.4349  0.5080
  403MPD2    C1 6016   1.862   4.342  12.999 -0.8329  0.0331  0.5821
  403MPD2    C2 6017   1.981   4.325  13.067  0.0013  0.0306 -0.0638
  403MPD2    C3 6018   2.063   4.438  13.080 -0.5838 -0.0004  0.5800
  403MPD2    C4 6019   2.026   4.554  13.019  0.3685 -0.0085  0.0964
  403MPD2    C5 6020   1.903   4.568  12.956 -0.6811 -0.2946 -1.1724
  403MPD2     H 6021   2.010   4.228  13.106  1.8908  0.1779 -1.1182
  403MPD2    H1 6022   2.103   4.631  13.017 -0.4956  0.8307 -0.7574
  403MPD2    H2 6023   1.719   4.478  12.911  0.8364  2.5791  0.2528
  403MPD2    H3 6024   1.887   4.663  12.906  2.1703  2.1385  2.4910
  403MPD2     N 6025   2.178   4.434  13.165  0.5630 -0.0137  0.2660
  403MPD2    H5 6026   2.215   4.346  13.199  0.2135 -0.1556  0.2841
  403MPD2    N1 6027   1.774   4.235  12.968  0.6763 -0.1147 -0.1989
  403MPD2    H7 6028   1.692   4.265  12.916 -0.3295 -2.3652  0.0628
  404TMC3    C1 6029   1.664   4.038  12.945 -0.1324  0.4439  0.3788
  404TMC3    C2 6030   1.608   3.935  13.010  0.0308 -0.4643 -0.2134
  404TMC3    C3 6031   1.506   3.878  12.948  0.0772 -0.0984 -0.4959
  404TMC3    C4 6032   1.627   4.086  12.822  0.7543  0.0469 -0.5945
  404TMC3    C5 6033   1.523   4.023  12.764  0.1355 -0.6260 -0.1317
  404TMC3    C6 6034   1.452   3.921  12.830  0.1360  1.1752  0.7018
  404TMC3     C 6035   1.779   4.107  13.008  0.3875  0.8300 -0.1726
  404TMC3     O 6036   1.871   4.050  13.061 -0.2305 -0.1711 -0.3553
  404TMC3     H 6037   1.654   3.907  13.104 -1.1383  0.2215  0.5601
  404TMC3    H1 6038   1.693   4.150  12.766  1.2373 -1.2827 -1.5426
  404TMC3    H2 6039   1.358   3.876  12.801  1.7500 -0.7574 -1.5368
  404TMC3    C7 6040   1.459   4.068  12.648 -0.5780  0.6221 -0.3702
  404TMC3    C8 6041   1.426   3.812  13.047 -0.2857 -0.2991 -0.2233
  404TMC3    O1 6042   1.352   4.013  12.625 -0.3264  0.6171 -0.3684
  404TMC3    O2 6043   1.373   3.709  13.008  0.0477 -0.1528 -0.3803
  405MPD2     C 6044   2.100   4.420  14.128 -0.2066 -0.6406 -0.4871
  405MPD2    C1 6045   2.011   4.389  14.026  0.1891 -0.2617 -0.0006
  405MPD2    C2 6046   1.948   4.492  13.970  0.4012 -0.0072  0.4810
  405MPD2    C3 6047   1.963   4.626  14.004  0.2756 -0.2469  0.2645
  405MPD2    C4 6048   2.040   4.656  14.114 -0.0266 -0.4462 -0.0028
  405MPD2    C5 6049   2.108   4.550  14.170 -0.5835  0.5803  0.2538
  405MPD2     H 6050   1.881   4.480  13.885  1.4004  4.6716 -0.9952
  405MPD2    H1 6051   2.054   0.032  14.152 -0.8706  0.6170 -2.5408
  405MPD2    H2 6052   2.164   4.347  14.175 -0.4668  1.1613  2.6338
  405MPD2    H3 6053   2.179   4.573  14.248  0.8302  1.3908 -1.2665
  405MPD2     N 6054   1.887   4.719  13.927 -0.3489  0.1965 -0.1817
  405MPD2    H5 6055   1.846   4.677  13.844 -0.3812  1.5292 -0.8414
  405MPD2    N1 6056   1.991   4.256  13.976  0.0405  0.2063 -0.0338
  405MPD2    H7 6057   2.031   4.175  14.022  0.1439  0.5362  0.4543
  406TMC3    C1 6058   1.566   0.229  13.837  0.0647  0.1251 -0.4044
  406TMC3    C2 6059   1.556   0.167  13.716 -0.2764 -0.0768  0.2389
  406TMC3    C3 6060   1.671   0.112  13.663 -0.1272 -0.0346 -0.9749
  406TMC3    C4 6061   1.690   0.259  13.899 -0.0831 -0.2784  0.5292
  406TMC3    C5 6062   1.804   0.194  13.845 -0.1619  0.0778  0.1715
  406TMC3    C6 6063   1.798   0.124  13.722 -0.1112  0.4351  0.0182
  406TMC3     C 6064   1.442   0.278  13.889 -0.5512 -1.2748  0.0704
  406TMC3     O 6065   1.361   0.311  13.806 -0.1590  0.3013 -0.4462
  406TMC3     H 6066   1.457   0.156  13.672 -0.6322 -3.6040  1.9316
  406TMC3    H1 6067   1.691   0.312  13.994  0.5210 -0.7122  0.7592
  406TMC3    H2 6068   1.879   0.069  13.676  1.2216  2.6559 -0.2814
  406TMC3    C7 6069   1.878   0.131  13.951  0.4004  0.2059  0.3222
  406TMC3    C8 6070   1.659   4.696  13.612  0.2958  0.1300 -0.2856
  406TMC3    O1 6071   1.892   0.189  14.063  0.0476  0.1393  0.0889
  406TMC3    O2 6072   1.766   4.637  13.600  0.5883  1.2436  0.3211
  407MPD2     C 6073   4.553   1.815   9.091 -0.2728 -0.1377 -0.3336
  407MPD2    C1 6074   4.688   1.850   9.123 -0.1832  0.2519 -0.2963
  407MPD2    C2 6075   4.723   1.893   9.249  0.1373  1.0340 -0.2413
  407MPD2    C3 6076   4.628   1.896   9.357  0.4490 -0.4599 -0.0450
  407MPD2    C4 6077   4.500   1.865   9.325  0.1747 -0.5654 -0.3887
  407MPD2    C5 6078   4.473   1.827   9.193  0.0662 -0.6066  0.1534
  407MPD2     H 6079   0.105   1.911   9.262  0.5451 -2.4601  1.1443
  407MPD2    H1 6080   4.425   1.866   9.402 -0.2913  1.3177 -0.8698
  407MPD2    H2 6081   4.513   1.785   8.995  0.0507 -1.4575 -0.0493
  407MPD2    H3 6082   4.371   1.800   9.169 -0.4924  1.1905  0.5253
  407MPD2     N 6083   4.656   1.943   9.491  0.2207 -0.5355 -0.2596
  407MPD2    H5 6084   4.580   1.942   9.558 -0.6374 -6.1043 -1.2698
  407MPD2    N1 6085   0.056   1.849   9.020 -0.2818  0.3141  0.0682
  407MPD2    H7 6086   0.148   1.889   9.039 -0.5098  1.1753 -0.6679
  408TMC3    C1 6087   0.152   1.822   8.809  1.0583 -0.2374 -0.5779
  408TMC3    C2 6088   0.231   1.729   8.754  0.5361  0.1512  0.4117
  408TMC3    C3 6089   0.342   1.773   8.698  0.3817  0.1779 -0.1060
  408TMC3    C4 6090   0.177   1.953   8.798 -0.0671 -0.0570  0.4906
  408TMC3    C5 6091   0.276   1.986   8.710  0.3595 -0.5335 -0.2875
  408TMC3    C6 6092   0.352   1.898   8.644 -0.8770  0.0228  0.7865
  408TMC3     C 6093   0.051   1.786   8.900 -0.3649  0.1693 -0.5031
  408TMC3     O 6094   4.713   1.689   8.866  0.1685 -0.0962  0.2588
  408TMC3     H 6095   0.219   1.627   8.790  0.4396  0.6513  1.7985
  408TMC3    H1 6096   0.133   2.032   8.858  0.5960  1.6756 -1.2867
  408TMC3    H2 6097   0.433   1.924   8.576 -1.0239 -2.5434 -0.3803
  408TMC3    C7 6098   0.335   2.114   8.729  0.8484 -0.0646  0.3005
  408TMC3    C8 6099   0.455   1.755   8.790  0.2135  0.2542  0.1298
  408TMC3    O1 6100   0.455   2.123   8.707 -0.4366  0.3129 -0.0253
  408TMC3    O2 6101   0.457   1.644   8.848 -0.2617  0.5767 -0.1577
  409MPD2     C 6102   4.214   2.505  17.039 -0.3099 -0.0695 -0.3518
  409MPD2    C1 6103   4.340   2.523  17.087 -0.1379  0.0922  0.3765
  409MPD2    C2 6104   4.423   2.621  17.030 -0.7303  0.7487 -0.2869
  409MPD2    C3 6105   4.384   2.691  16.922  0.5944  0.1394  0.0312
  409MPD2    C4 6106   4.261   2.670  16.861 -0.3537  0.0825 -0.7186
  409MPD2    C5 6107   4.185   2.570  16.916  1.1506 -0.2057 -0.1305
  409MPD2     H 6108   4.521   2.625  17.076  0.3621  4.6758 -3.0058
  409MPD2    H1 6109   4.224   2.732  16.780 -0.2956  2.2421  0.8865
  409MPD2    H2 6110   4.137   2.437  17.073 -1.0849  0.3487 -1.3051
  409MPD2    H3 6111   4.086   2.561  16.873  1.2155 -1.6401  0.0075
  409MPD2     N 6112   4.459   2.801  16.882  0.5397 -0.5299 -0.3264
  409MPD2    H5 6113   4.422   2.858  16.807 -2.5345  1.1251  2.4836
  409MPD2    N1 6114   4.381   2.459  17.203 -0.2792 -0.0844 -1.2816
  409MPD2    H7 6115   4.467   2.493  17.243  1.1243 -2.2343 -2.4934
  410TMC3    C1 6116   4.622   2.978  16.897 -0.1916  0.2436  0.9818
  410TMC3    C2 6117   4.712   3.018  16.984  0.2979 -0.0062 -0.3567
  410TMC3    C3 6118   0.109   3.072  16.941 -0.6900 -0.1401 -0.1536
  410TMC3    C4 6119   4.649   2.972  16.764  0.6725  1.6237  0.0678
  410TMC3    C5 6120   0.042   3.031  16.722  0.2112  0.1819  0.5076
  410TMC3    C6 6121   0.134   3.077  16.805 -0.0218 -0.0517  0.3807
  410TMC3     C 6122   4.570   2.851  16.945  0.4840  0.1496  0.1310
  410TMC3     O 6123   4.645   2.798  17.026  0.4263 -0.7414  0.3348
  410TMC3     H 6124   4.687   3.029  17.089 -0.4482  2.4263 -0.7802
  410TMC3    H1 6125   4.572   2.940  16.695  0.4487 -0.3903  1.2566
  410TMC3    H2 6126   0.228   3.106  16.760  0.7655 -2.4069  0.4982
  410TMC3    C7 6127   0.047   3.076  16.582 -0.6110  0.5813  0.1012
  410TMC3    C8 6128   0.213   3.048  17.037  0.5202  0.1709 -0.6745
  410TMC3    O1 6129   4.717   3.007  16.499 -0.1826  0.4247  0.3010
  410TMC3    O2 6130   0.303   3.134  17.041  0.5923  0.2624  0.4309
  411MPD2     C 6131   0.246   3.151  14.220  0.2506  0.4000  0.1975
  411MPD2    C1 6132   0.138   3.207  14.164 -0.3455  0.5886  0.0712
  411MPD2    C2 6133   0.044   3.118  14.099 -0.8756 -0.7862 -0.3821
  411MPD2    C3 6134   0.065   2.980  14.099  0.0475 -0.4645 -0.3644
  411MPD2    C4 6135   0.184   2.929  14.144 -0.6928  0.2252  0.3770
  411MPD2    C5 6136   0.264   3.016  14.220 -0.9186  0.0322  0.1060
  411MPD2     H 6137   4.693   3.165  14.037 -0.6954  0.2065  0.1363
  411MPD2    H1 6138   0.207   2.823  14.146  1.7198  0.7391 -0.6548
  411MPD2    H2 6139   0.311   3.216  14.279 -1.1310  0.3684  1.7441
  411MPD2    H3 6140   0.347   2.970  14.273 -0.0729 -0.9501 -2.0409
  411MPD2     N 6141   4.687   2.890  14.050  0.0758  0.2011  0.2062
  411MPD2    H5 6142   4.712   2.794  14.027 -0.4633  0.0798  0.1170
  411MPD2    N1 6143   0.112   3.352  14.185 -0.6142 -0.6479 -0.1653
  411MPD2    H7 6144   0.167   3.394  14.258 -0.9425  0.1572 -0.3851
  412TMC3    C1 6145   4.475   2.830  13.985  0.1477 -0.5972  0.0201
  412TMC3    C2 6146   4.344   2.820  14.030 -0.5468  0.3229  0.0174
  412TMC3    C3 6147   4.256   2.727  13.976  0.6667 -0.0498  1.2177
  412TMC3    C4 6148   4.518   2.773  13.873 -0.3965 -0.3435  0.0254
  412TMC3    C5 6149   4.428   2.693  13.807  0.5510 -0.2489 -0.2496
  412TMC3    C6 6150   4.307   2.657  13.870 -0.3937  0.2726  0.0767
  412TMC3     C 6151   4.553   2.924  14.049  1.0057 -0.1050  0.4593
  412TMC3     O 6152   4.501   3.024  14.091  0.3459 -0.2261  0.1799
  412TMC3     H 6153   4.312   2.879  14.114  0.0509 -4.5998  3.6983
  412TMC3    H1 6154   4.606   2.817  13.827 -1.2850  1.4563  0.0238
  412TMC3    H2 6155   4.248   2.581  13.819  1.4382 -0.0873 -1.5117
  412TMC3    C7 6156   4.388   2.751  13.679  0.0598 -1.2802  0.1770
  412TMC3    C8 6157   4.111   2.736  14.006 -0.5071  0.5317  0.1003
  412TMC3    O1 6158   4.284   2.708  13.626  0.2496  0.0432  0.4785
  412TMC3    O2 6159   4.075   2.831  14.075 -0.1299  0.8027 -0.3280
  413MPD2     C 6160   1.409   1.847  15.232  0.2390  0.5313 -0.6084
  413MPD2    C1 6161   1.342   1.725  15.207  0.1089  0.6720  0.5154
  413MPD2    C2 6162   1.418   1.605  15.209  0.0106  0.3599 -0.0098
  413MPD2    C3 6163   1.552   1.601  15.242 -0.3251 -0.2218 -0.2396
  413MPD2    C4 6164   1.616   1.716  15.253  0.4962 -1.0623  0.3746
  413MPD2    C5 6165   1.548   1.829  15.248 -0.1906  0.5961  0.2232
  413MPD2     H 6166   1.372   1.513  15.176 -1.3196  0.3740  1.7986
  413MPD2    H1 6167   1.723   1.714  15.273  1.1516  1.6521 -2.8145
  413MPD2    H2 6168   1.362   1.944  15.223  1.4161  1.2820  1.2958
  413MPD2    H3 6169   1.591   1.928  15.259 -0.7619  0.4919  3.4099
  413MPD2     N 6170   1.611   1.474  15.213 -0.1459  0.3438  0.1769
  413MPD2    H5 6171   1.538   1.404  15.211  0.0136  0.2509 -2.2964
  413MPD2    N1 6172   1.204   1.736  15.180  0.0860 -0.1391  0.5110
  413MPD2    H7 6173   1.166   1.829  15.164 -2.5700 -1.1613  0.9871
  414TMC3    C1 6174   1.746   1.305  15.147  0.2793  0.1443 -0.1795
  414TMC3    C2 6175   1.830   1.208  15.183 -0.0868 -0.2826  0.4908
  414TMC3    C3 6176   1.813   1.078  15.143  0.1204  0.0253 -0.5225
  414TMC3    C4 6177   1.648   1.279  15.056 -0.4732 -0.4822 -0.1253
  414TMC3    C5 6178   1.639   1.153  15.009 -0.5266 -0.0977 -0.0211
  414TMC3    C6 6179   1.712   1.043  15.061 -0.1155  0.6657 -0.1613
  414TMC3     C 6180   1.744   1.428  15.214 -0.3012  0.0045 -0.4233
  414TMC3     O 6181   1.847   1.491  15.237 -1.0354  0.0594 -0.0848
  414TMC3     H 6182   1.905   1.238  15.256 -1.4990  0.6757  1.5519
  414TMC3    H1 6183   1.585   1.355  15.011  1.8392 -0.1579 -2.8119
  414TMC3    H2 6184   1.702   0.943  15.021 -1.1131  1.2890 -1.4859
  414TMC3    C7 6185   1.548   1.134  14.898 -0.3604 -0.0539 -0.5279
  414TMC3    C8 6186   1.906   0.970  15.178  0.2798 -0.6542  0.9007
  414TMC3    O1 6187   1.442   1.193  14.911 -0.3023 -0.3867  0.1746
  414TMC3    O2 6188   1.894   0.861  15.120  0.1699 -0.0376 -0.0885
  415TMC3    C1 6189   1.975   3.551   9.752  0.0026 -0.0779  0.3034
  415TMC3    C2 6190   2.094   3.494   9.735 -0.3417  0.2270 -0.5257
  415TMC3    C3 6191   2.093   3.361   9.702  0.1117  0.4411  0.5037
  415TMC3    C4 6192   1.860   3.477   9.749  0.0234 -0.7236  0.4971
  415TMC3    C5 6193   1.859   3.345   9.716  0.9020 -0.0689  0.1133
  415TMC3    C6 6194   1.978   3.276   9.699 -0.5511  0.4912  0.0173
  415TMC3     C 6195   1.962   3.697   9.773  0.2599  0.4764  0.6637
  415TMC3     O 6196   1.862   3.739   9.825  0.7689  0.0894  0.5108
  415TMC3     H 6197   2.187   3.545   9.755 -0.3184  0.0455 -0.1833
  415TMC3    H1 6198   1.768   3.535   9.755  0.3701 -0.0123 -1.1164
  415TMC3    H2 6199   1.984   3.170   9.681 -0.7252  0.6729 -1.0756
  415TMC3    C7 6200   1.736   3.273   9.679 -0.3061  0.0213  0.3991
  415TMC3    C8 6201   2.216   3.290   9.683  0.2244 -0.2064  0.1616
  415TMC3    O1 6202   1.743   3.167   9.615  0.3968 -0.0566  0.1639
  415TMC3    O2 6203   2.222   3.177   9.728  0.1030  0.3181 -0.0077
  416MPD2     C 6204   3.810   3.302  11.126  0.4248 -0.8367  0.6396
  416MPD2    C1 6205   3.716   3.201  11.153  0.1276 -0.3205  0.4744
  416MPD2    C2 6206   3.710   3.084  11.084 -0.6198  0.4029  0.4655
  416MPD2    C3 6207   3.817   3.060  10.991 -0.4924  0.1640 -0.1185
  416MPD2    C4 6208   3.920   3.157  10.968  0.2640 -0.3909 -0.7235
  416MPD2    C5 6209   3.915   3.271  11.041 -0.0565 -0.0018 -0.0614
  416MPD2     H 6210   3.633   3.011  11.105  0.7888 -0.9111  1.0504
  416MPD2    H1 6211   4.015   3.130  10.923  0.0558 -0.5186 -1.0808
  416MPD2    H2 6212   3.831   3.388  11.189  1.2573 -1.6296  1.4416
  416MPD2    H3 6213   3.999   3.340  11.041 -0.4630  0.4926 -0.9701
  416MPD2     N 6214   3.826   2.926  10.930 -0.0560 -0.5998 -0.0529
  416MPD2    H5 6215   3.764   2.856  10.970 -1.6162 -0.3870 -2.0916
  416MPD2    N1 6216   3.620   3.226  11.255 -0.4862  0.0640 -0.3242
  416MPD2    H7 6217   3.618   3.315  11.303 -0.5405 -1.5613  2.7220
  417TMC3    C1 6218   3.403   3.203  11.347  0.7277 -0.1227 -0.0659
  417TMC3    C2 6219   3.334   3.136  11.441  0.6745 -0.1819 -0.1889
  417TMC3    C3 6220   3.212   3.189  11.472 -0.0631 -0.4137  0.2252
  417TMC3    C4 6221   3.364   3.317  11.290 -0.2848  0.7575 -0.2087
  417TMC3    C5 6222   3.241   3.360  11.316  0.2016  0.1849  0.4481
  417TMC3    C6 6223   3.161   3.291  11.404  0.0482  0.2498  0.1054
  417TMC3     C 6224   3.516   3.138  11.288  0.5175 -0.1794 -0.3806
  417TMC3     O 6225   3.513   3.015  11.286 -0.0182 -0.1085 -0.1138
  417TMC3     H 6226   3.387   3.058  11.494  3.6538  1.8731 -0.1345
  417TMC3    H1 6227   3.427   3.375  11.224  1.3486 -0.4861  0.2594
  417TMC3    H2 6228   3.064   3.333  11.429 -0.3313 -1.0972  0.8517
  417TMC3    C7 6229   3.177   3.442  11.217  0.3691 -0.0450  0.2124
  417TMC3    C8 6230   3.180   3.207  11.608 -0.1222 -0.0068 -0.8204
  417TMC3    O1 6231   3.241   3.533  11.163 -0.1405 -0.6846  0.4923
  417TMC3    O2 6232   3.149   3.323  11.644 -0.1687 -0.0177  0.2007
  418TMC3    C1 6233   2.977   3.953   0.466  0.0762  0.1454 -0.6493
  418TMC3    C2 6234   2.909   3.978   0.348  0.2048 -0.2749  0.2289
  418TMC3    C3 6235   2.787   4.026   0.362  0.2410 -0.9823 -0.2519
  418TMC3    C4 6236   2.917   3.980   0.587  0.1865 -0.0711 -0.1324
  418TMC3    C5 6237   2.790   4.026   0.591  0.2304  0.1055  0.2019
  418TMC3    C6 6238   2.714   4.047   0.479 -0.3139 -0.3578  0.5894
  418TMC3     C 6239   3.080   3.852   0.456 -0.6279 -0.5809  0.0943
  418TMC3     O 6240   3.146   3.858   0.352 -0.0843  0.3756 -0.1929
  418TMC3     H 6241   2.950   3.959   0.250 -0.8109 -0.5363 -0.1505
  418TMC3    H1 6242   2.979   3.970   0.676  2.5558 -1.5340 -1.9538
  418TMC3    H2 6243   2.622   4.104   0.478 -0.1651 -0.1392 -0.9209
  418TMC3    C7 6244   2.714   4.032   0.714 -0.2773  0.4265 -0.1849
  418TMC3    C8 6245   2.703   4.027   0.243 -0.3407 -0.4976 -0.4831
  418TMC3    O1 6246   2.592   4.048   0.697  0.3054  0.4544 -0.4545
  418TMC3    O2 6247   2.756   4.037   0.130 -0.1917  0.1839 -0.2795
  419MPD2     C 6248   0.988   2.955  12.120 -0.5705  0.0930 -1.2199
  419MPD2    C1 6249   0.892   3.054  12.111 -0.1592  0.4511 -0.2397
  419MPD2    C2 6250   0.860   3.105  12.237 -0.6643  0.1113  0.5397
  419MPD2    C3 6251   0.914   3.061  12.360 -0.1745  0.0732 -0.7396
  419MPD2    C4 6252   0.990   2.948  12.357 -0.2085  0.7339 -0.6358
  419MPD2    C5 6253   1.047   2.910  12.233 -0.1807  0.1312 -0.4396
  419MPD2     H 6254   0.789   3.187  12.237  0.4082  1.0324  0.0034
  419MPD2    H1 6255   1.022   2.889  12.441  0.8022  1.7789 -0.2823
  419MPD2    H2 6256   1.010   2.902  12.028  2.1023 -1.1750  0.1495
  419MPD2    H3 6257   1.117   2.827  12.225  0.4391  0.8375 -2.1575
  419MPD2     N 6258   0.881   3.122  12.483 -0.4198 -0.2041  0.2044
  419MPD2    H5 6259   0.844   3.216  12.469  1.5824  0.8787  2.2356
  419MPD2    N1 6260   0.834   3.100  11.992 -0.4589  0.1505  0.2098
  419MPD2    H7 6261   0.781   3.185  12.009 -1.4773 -0.1294 -1.4517
  420TMC3    C1 6262   0.855   3.166  12.719  0.1477 -0.0321 -0.0738
  420TMC3    C2 6263   0.775   3.276  12.686  0.7168 -0.0720  0.0902
  420TMC3    C3 6264   0.726   3.348  12.787 -0.6017  0.9450 -0.1422
  420TMC3    C4 6265   0.878   3.135  12.849 -0.0436 -0.5743 -0.4925
  420TMC3    C5 6266   0.829   3.218  12.949  0.2148 -0.1668  0.0372
  420TMC3    C6 6267   0.754   3.330  12.926 -0.5405  0.1799 -0.1448
  420TMC3     C 6268   0.892   3.068  12.611 -0.4193 -0.0453 -0.3454
  420TMC3     O 6269   0.907   2.947  12.633 -0.7167 -0.3459  0.5083
  420TMC3     H 6270   0.728   3.287  12.589  1.0724  0.2840 -0.0430
  420TMC3    H1 6271   0.941   3.049  12.869 -0.8900 -1.0498  0.1134
  420TMC3    H2 6272   0.720   3.399  13.002 -0.1577  0.6075 -0.3559
  420TMC3    C7 6273   0.878   3.184  13.080 -0.2880 -0.2526 -0.4650
  420TMC3    C8 6274   0.643   3.468  12.756  0.1578  0.2466 -0.2462
  420TMC3    O1 6275   0.906   3.065  13.105  0.0009 -0.1467  0.3354
  420TMC3    O2 6276   0.630   3.497  12.638 -0.5110  0.3085 -0.3405
  421TMC3    C1 6277   2.368   4.528  13.292 -0.1136 -0.3884  1.0255
  421TMC3    C2 6278   2.410   4.630  13.372  0.1959 -0.0841  0.7460
  421TMC3    C3 6279   2.536   4.621  13.423  0.0538  0.1258  0.1676
  421TMC3    C4 6280   2.446   4.413  13.267 -1.1917  0.5048 -0.5543
  421TMC3    C5 6281   2.569   4.404  13.310  0.3955  0.4176 -0.7650
  421TMC3    C6 6282   2.616   4.510  13.397  0.0291 -0.2457 -0.1320
  421TMC3     C 6283   2.239   4.544  13.225 -0.0845 -0.1063  0.2441
  421TMC3     O 6284   2.201   4.663  13.225  0.1057 -0.5135  0.0815
  421TMC3     H 6285   2.350   4.719  13.389  0.9590  0.1558  2.1955
  421TMC3    H1 6286   2.417   4.344  13.189  0.8087 -1.9037  0.8524
  421TMC3    H2 6287   2.718   4.502  13.432  0.3113 -1.3000 -1.1741
  421TMC3    C7 6288   2.625   4.278  13.347 -0.0880 -0.5568  0.2106
  421TMC3    C8 6289   2.576   4.706  13.535  0.7926  0.7938  0.1144
  421TMC3    O1 6290   2.742   4.274  13.384  0.6217 -0.3400 -0.2810
  421TMC3    O2 6291   2.695   4.705  13.559 -0.5045 -0.4196  0.1894
  422TMC3    C1 6292   4.303   1.201  12.390 -0.2602 -0.2703 -0.1208
  422TMC3    C2 6293   4.280   1.334  12.423 -0.4079 -0.1861  0.5496
  422TMC3    C3 6294   4.198   1.351  12.535 -0.1026  0.1093  0.3348
  422TMC3    C4 6295   4.238   1.099  12.459  0.5730  0.1125  0.0987
  422TMC3    C5 6296   4.168   1.126  12.573  0.1363 -0.4199 -1.1287
  422TMC3    C6 6297   4.135   1.256  12.613 -0.5169 -0.5498 -1.1972
  422TMC3     C 6298   4.425   1.181  12.301  0.1248 -0.9898  0.4072
  422TMC3     O 6299   4.454   1.265  12.216 -0.3034 -0.5643 -0.9874
  422TMC3     H 6300   4.341   1.411  12.379 -1.3345  0.0246 -0.3683
  422TMC3    H1 6301   4.253   0.995  12.435  3.4379  0.2441  1.2491
  422TMC3    H2 6302   4.084   1.281  12.706  0.6831  0.6071 -0.8411
  422TMC3    C7 6303   4.103   1.014  12.642 -0.0957 -0.0973  0.1152
  422TMC3    C8 6304   4.197   1.488  12.576  0.1635  0.1305 -1.0240
  422TMC3    O1 6305   4.173   0.912  12.647 -0.4234  0.0322  0.4098
  422TMC3    O2 6306   4.227   1.512  12.689  0.1151 -0.1540 -0.4884
  423MPD2     C 6307   2.227   1.630   0.430 -0.4923  0.0290  0.2098
  423MPD2    C1 6308   2.090   1.605   0.454 -0.5063 -0.3400 -0.1199
  423MPD2    C2 6309   2.012   1.552   0.352  0.0741  0.2212 -0.1046
  423MPD2    C3 6310   2.073   1.530   0.229  0.1679 -0.0213 -0.5604
  423MPD2    C4 6311   2.203   1.563   0.205  0.0299  0.2626 -0.2915
  423MPD2    C5 6312   2.280   1.620   0.305 -0.7366 -0.1269  0.3488
  423MPD2     H 6313   1.907   1.532   0.371  0.1245  1.1964  1.1752
  423MPD2    H1 6314   2.255   1.546   0.112 -1.5339  0.8691 -1.2745
  423MPD2    H2 6315   2.298   1.657   0.507  0.6724 -3.2947  0.3143
  423MPD2    H3 6316   2.375   1.670   0.293 -0.9405  0.5346  1.4114
  423MPD2     N 6317   1.994   1.477   0.126 -0.1586 -0.4008 -0.4716
  423MPD2    H5 6318   1.900   1.444   0.146 -0.5760  0.7450 -0.5276
  423MPD2    N1 6319   2.027   1.647   0.578  0.2990 -0.1113 -0.1761
  423MPD2    H7 6320   1.927   1.628   0.586  0.6889 -0.5481  3.5464
  424TMC3    C1 6321   1.976   1.769   0.767  0.1563  0.1833  0.1066
  424TMC3    C2 6322   1.999   1.774   0.901 -0.0019  0.0455  0.9001
  424TMC3    C3 6323   1.900   1.786   0.987  0.5158  0.2333  0.7433
  424TMC3    C4 6324   1.852   1.795   0.712  0.1565 -0.0708 -0.6142
  424TMC3    C5 6325   1.747   1.793   0.798  0.5378  0.6524  0.2354
  424TMC3    C6 6326   1.767   1.777   0.934 -1.0402  0.2934  0.4409
  424TMC3     C 6327   2.084   1.716   0.681 -0.0602  0.8089 -0.8488
  424TMC3     O 6328   2.197   1.725   0.714 -0.2959  0.0283  0.1706
  424TMC3     H 6329   2.101   1.764   0.937 -0.4141 -3.6536  1.0103
  424TMC3    H1 6330   1.825   1.798   0.607 -0.3484  2.0877 -0.4231
  424TMC3    H2 6331   1.679   1.787   0.996 -0.2616  2.0244  1.2750
  424TMC3    C7 6332   1.621   1.847   0.750  0.3637  0.2768  0.1229
  424TMC3    C8 6333   1.914   1.723   1.117 -0.4780  0.7498  0.5902
  424TMC3    O1 6334   1.628   1.930   0.658 -0.0399 -0.2489  0.1954
  424TMC3    O2 6335   1.814   1.667   1.160  0.3222  0.0011 -0.0991
  425MPD2     C 6336   0.657   1.225   0.111  0.4020  0.2065 -1.2291
  425MPD2    C1 6337   0.612   1.201  17.685 -0.0651 -0.5394 -0.0969
  425MPD2    C2 6338   0.505   1.276  17.631  0.1047 -0.0029  0.9734
  425MPD2    C3 6339   0.427   1.356   0.018  0.6254  0.5363 -0.4316
  425MPD2    C4 6340   0.469   1.374   0.148  0.3719 -0.3572 -0.5939
  425MPD2    C5 6341   0.581   1.310   0.190  0.1384  0.4253 -0.3302
  425MPD2     H 6342   0.474   1.263  17.528 -1.6629 -0.2905  1.5429
  425MPD2    H1 6343   0.408   1.420   0.226  0.6137 -1.5964  0.3348
  425MPD2    H2 6344   0.737   1.174   0.163 -1.1853  0.1534  1.1601
  425MPD2    H3 6345   0.610   1.314   0.294  3.3435 -5.6762 -1.0126
  425MPD2     N 6346   0.295   1.386  17.679  0.0228 -0.3883  0.4152
  425MPD2    H5 6347   0.271   1.373  17.581  2.9191  0.1159 -0.3605
  425MPD2    N1 6348   0.682   1.101  17.611 -0.6551 -0.0950  0.1536
  425MPD2    H7 6349   0.759   1.060  17.664  0.2673  0.9071 -0.4002
  426TMC3    C1 6350   0.695   0.918  17.470 -0.5280 -0.0401  0.1676
  426TMC3    C2 6351   0.677   0.878  17.342  0.0380 -0.0609  0.3664
  426TMC3    C3 6352   0.661   0.748  17.323 -0.8821 -0.7698 -0.0667
  426TMC3    C4 6353   0.687   0.834  17.567  0.3875  0.4059 -0.2672
  426TMC3    C5 6354   0.676   0.697  17.544 -0.0548 -0.4809  0.0403
  426TMC3    C6 6355   0.662   0.649  17.417 -0.0352  0.4555 -0.5457
  426TMC3     C 6356   0.637   1.044  17.493 -0.2095 -0.4849  0.2494
  426TMC3     O 6357   0.555   1.082  17.413  0.1871  0.2081 -0.0180
  426TMC3     H 6358   0.659   0.952  17.266 -0.1176 -0.0164  0.4473
  426TMC3    H1 6359   0.712   0.867  17.668  0.6218 -0.9196  0.1086
  426TMC3    H2 6360   0.637   0.545  17.397  1.1377  0.1955 -0.6777
  426TMC3    C7 6361   0.633   0.611  17.650  0.1892  0.0733  0.6574
  426TMC3    C8 6362   0.639   0.699  17.188  0.0831  0.4335  0.1206
  426TMC3    O1 6363   0.657   0.488  17.649 -0.1243  0.3673  0.4824
  426TMC3    O2 6364   0.669   0.584  17.166  0.1322  0.3561  0.1788
  427MPD2     C 6365   3.772   3.489  14.669  0.1062  0.5192  0.2622
  427MPD2    C1 6366   3.758   3.354  14.636 -0.0485 -0.0633  0.0250
  427MPD2    C2 6367   3.642   3.305  14.576  0.8111  0.3786  0.4344
  427MPD2    C3 6368   3.537   3.390  14.557  0.4003  0.2308  0.0882
  427MPD2    C4 6369   3.551   3.525  14.583 -0.1519  0.5475 -0.8074
  427MPD2    C5 6370   3.667   3.572  14.642 -0.6095  0.4151 -0.9380
  427MPD2     H 6371   3.636   3.198  14.560 -0.2515  0.9068 -2.6343
  427MPD2    H1 6372   3.473   3.598  14.564  0.0872  0.7186 -1.1364
  427MPD2    H2 6373   3.856   3.547  14.705 -0.4843  1.0817  0.7344
  427MPD2    H3 6374   3.677   3.679  14.655 -0.2828  0.1327  1.1296
  427MPD2     N 6375   3.416   3.350  14.496 -0.3067  0.0410  0.4804
  427MPD2    H5 6376   3.354   3.426  14.469  1.2795  0.5939 -1.5802
  427MPD2    N1 6377   3.857   3.261  14.677 -0.0717  0.1094 -0.3215
  427MPD2    H7 6378   3.832   3.164  14.666  0.0671 -0.0787  0.9822
  428TMC3    C1 6379   4.066   3.172  14.750 -0.0000 -0.3743  0.0806
  428TMC3    C2 6380   3.999   3.066  14.810 -0.0199  0.0063  0.3110
  428TMC3    C3 6381   4.076   3.003  14.905  0.4395  0.2151 -0.3902
  428TMC3    C4 6382   4.194   3.198  14.759 -0.0365  0.4798  0.4194
  428TMC3    C5 6383   4.269   3.109  14.834  0.4208  0.0328 -0.4637
  428TMC3    C6 6384   4.212   3.012  14.908  0.1461 -0.0822 -0.4837
  428TMC3     C 6385   3.983   3.284  14.713 -0.6779  0.1408 -0.1477
  428TMC3     O 6386   4.039   3.393  14.710 -0.3136  0.7292  0.5742
  428TMC3     H 6387   3.892   3.048  14.814  0.1838 -0.7040  2.2569
  428TMC3    H1 6388   4.245   3.280  14.710  1.0904  0.2337  1.1838
  428TMC3    H2 6389   4.279   2.955  14.971  0.2559 -0.0163 -0.5389
  428TMC3    C7 6390   4.405   3.145  14.858 -0.9112  0.3182  0.0038
  428TMC3    C8 6391   4.010   2.909  14.994 -0.6954  0.1008 -0.8028
  428TMC3    O1 6392   4.451   3.107  14.965  0.2941 -0.4163  0.2942
  428TMC3    O2 6393   3.906   2.857  14.953 -0.4057 -0.1419 -0.0627
  429MPD2     C 6394   0.238   3.649   0.273  0.2858  0.4878  0.2635
  429MPD2    C1 6395   0.240   3.547   0.185  0.2584  0.1024 -0.1263
  429MPD2    C2 6396   0.283   3.565   0.058  0.1880 -0.5300  0.0924
  429MPD2    C3 6397   0.312   3.697   0.012  0.0568 -0.3093 -0.2183
  429MPD2    C4 6398   0.302   3.800   0.100  0.5266  0.6515  0.2940
  429MPD2    C5 6399   0.256   3.776   0.221 -0.6309 -0.8102  0.1557
  429MPD2     H 6400   0.292   3.485  17.686  1.3407  0.9705 -1.3942
  429MPD2    H1 6401   0.317   3.902   0.068 -0.2659  0.7599  0.2620
  429MPD2    H2 6402   0.194   3.641   0.372 -1.1436  2.4096 -0.2266
  429MPD2    H3 6403   0.244   3.862   0.287 -0.9324  0.1121 -1.0963
  429MPD2     N 6404   0.356   3.702  17.578  0.1916 -0.2332  0.3546
  429MPD2    H5 6405   0.359   3.615  17.527  2.2691  0.4112 -0.5821
  429MPD2    N1 6406   0.209   3.419   0.239  0.5385 -0.1360 -0.6178
  429MPD2    H7 6407   0.188   3.414   0.338  0.6846 -3.5677 -0.7664
  430TMC3    C1 6408   0.459   3.810  17.384 -0.5916 -0.8366  0.4404
  430TMC3    C2 6409   0.478   3.921  17.307  0.6999 -0.5134  0.4288
  430TMC3    C3 6410   0.548   3.904  17.191 -0.3673 -0.2372  0.0078
  430TMC3    C4 6411   0.531   3.693  17.363 -0.8668 -0.1736 -0.0196
  430TMC3    C5 6412   0.604   3.683  17.242  0.3341  0.3802  0.2762
  430TMC3    C6 6413   0.609   3.784  17.156 -0.2998  0.4166  0.5405
  430TMC3     C 6414   0.394   3.816  17.511 -0.5570  0.6167 -0.2047
  430TMC3     O 6415   0.396   3.932  17.557  0.7803 -0.1731 -0.7948
  430TMC3     H 6416   0.407   4.002  17.321 -0.8054 -1.6874 -0.3527
  430TMC3    H1 6417   0.530   3.605  17.426 -0.2457 -1.8532 -2.3676
  430TMC3    H2 6418   0.674   3.775  17.069 -1.4755  1.8271 -0.4754
  430TMC3    C7 6419   0.654   3.544  17.217 -0.0246  0.2091  0.4299
  430TMC3    C8 6420   0.519   3.969  17.069 -0.4135  0.1756  0.3031
  430TMC3    O1 6421   0.579   3.452  17.247 -0.0511 -0.1345 -0.5369
  430TMC3    O2 6422   0.529   3.909  16.963  0.2888 -0.1545 -0.0960
  431MPD2     C 6423   0.484   3.697  12.116 -0.4234 -0.4371 -0.4079
  431MPD2    C1 6424   0.592   3.715  12.034  1.1412 -0.7772  0.3248
  431MPD2    C2 6425   0.604   3.636  11.917  0.1952 -0.2149  0.0297
  431MPD2    C3 6426   0.511   3.538  11.890 -0.1901 -0.1145  0.2955
  431MPD2    C4 6427   0.416   3.510  11.984  0.7168  0.2267  0.3830
  431MPD2    C5 6428   0.409   3.588  12.098 -0.2068 -0.5857 -0.8899
  431MPD2     H 6429   0.694   3.646  11.857  1.7698 -0.9271  2.3005
  431MPD2    H1 6430   0.346   3.428  11.977 -0.6740  1.3513  1.1247
  431MPD2    H2 6431   0.465   3.753  12.207 -2.8295 -0.3491 -0.9590
  431MPD2    H3 6432   0.326   3.571  12.166 -0.0505  2.3288  0.0163
  431MPD2     N 6433   0.534   3.442  11.789 -0.1599  0.7620  0.4505
  431MPD2    H5 6434   0.482   3.355  11.801  0.1354  0.5770  0.3926
  431MPD2    N1 6435   0.693   3.812  12.056  0.2028 -0.3424 -0.0546
  431MPD2    H7 6436   0.760   3.824  11.981  1.6772  1.1470  1.4958
  432TMC3    C1 6437   0.675   3.310  11.668 -1.0565 -0.2103  0.2156
  432TMC3    C2 6438   0.719   3.298  11.544  0.9030 -0.7502 -0.4784
  432TMC3    C3 6439   0.829   3.216  11.535  0.2126  0.1968  0.3535
  432TMC3    C4 6440   0.716   3.231  11.773 -0.4065  0.0501  0.8229
  432TMC3    C5 6441   0.824   3.150  11.757  0.2102 -0.3104 -0.1497
  432TMC3    C6 6442   0.879   3.139  11.636  0.0233 -0.4300 -0.4012
  432TMC3     C 6443   0.646   3.441  11.715 -0.0870 -0.3648  0.7035
  432TMC3     O 6444   0.702   3.528  11.657  0.6392  0.3216  0.3144
  432TMC3     H 6445   0.689   3.374  11.473 -2.0375 -3.1294 -1.7660
  432TMC3    H1 6446   0.666   3.248  11.867 -1.7452  1.5202 -0.1547
  432TMC3    H2 6447   0.959   3.068  11.620  0.9427  0.6741 -0.6879
  432TMC3    C7 6448   0.874   3.064  11.860  0.4543  0.3240  0.3906
  432TMC3    C8 6449   0.919   3.244  11.425  0.0991 -0.2094 -0.0934
  432TMC3    O1 6450   0.954   2.974  11.834 -0.6266  0.5894 -0.4558
  432TMC3    O2 6451   0.872   3.279  11.314 -0.4813  0.2468 -0.2262
  433MPD2     C 6452   0.002   2.583  10.677 -0.8677  0.3662 -0.0305
  433MPD2    C1 6453   4.634   2.489  10.702 -0.2533  0.7841 -0.2413
  433MPD2    C2 6454   4.576   2.491  10.825  0.2609  0.2713  0.4583
  433MPD2    C3 6455   4.597   2.583  10.925 -0.0763  0.0340  0.8006
  433MPD2    C4 6456   4.699   2.675  10.895 -0.0987  0.0849  0.6907
  433MPD2    C5 6457   0.037   2.669  10.774 -0.2158  0.5266 -0.0498
  433MPD2     H 6458   4.507   2.412  10.853 -1.4942  1.9710  0.9553
  433MPD2    H1 6459   0.010   2.737  10.976 -4.6866 -0.9041  3.4651
  433MPD2    H2 6460   0.061   2.591  10.587 -0.9137  0.3173 -0.0649
  433MPD2    H3 6461   0.112   2.747  10.765  0.4620 -0.2338 -1.1433
  433MPD2     N 6462   4.533   2.570  11.048  0.1087  0.2002 -0.2203
  433MPD2    H5 6463   4.487   2.486  11.080  0.7788 -0.5828 -1.3168
  433MPD2    N1 6464   4.592   2.401  10.598  0.4457  0.3184  0.1854
  433MPD2    H7 6465   4.650   2.392  10.516  1.5585 -0.0796  1.0155
  434TMC3    C1 6466   4.500   2.200  10.515 -0.2955  0.4887 -0.1515
  434TMC3    C2 6467   4.462   2.080  10.572  0.0386 -0.0710  0.2808
  434TMC3    C3 6468   4.513   1.974  10.516  0.0614 -0.1972 -0.5077
  434TMC3    C4 6469   4.566   2.213  10.399  0.1812 -0.4369 -0.5091
  434TMC3    C5 6470   4.607   2.103  10.332  0.3910 -0.4094 -0.1694
  434TMC3    C6 6471   4.586   1.980  10.394 -0.1144  0.2040  0.5141
  434TMC3     C 6472   4.485   2.314  10.610  0.7833 -0.3344  1.4563
  434TMC3     O 6473   4.393   2.301  10.685 -0.6014 -0.1776 -0.1687
  434TMC3     H 6474   4.409   2.078  10.666  1.4664 -1.7839  1.0338
  434TMC3    H1 6475   4.584   2.310  10.354  1.0830 -1.2615 -1.9623
  434TMC3    H2 6476   4.594   1.888  10.336 -2.4837  2.4708 -3.3900
  434TMC3    C7 6477   4.554   2.103  10.194  0.1494 -0.0768  0.4670
  434TMC3    C8 6478   4.562   1.878  10.614 -0.7409 -0.0035 -0.7212
  434TMC3    O1 6479   4.518   2.211  10.145  0.1808  0.1477  0.4142
  434TMC3    O2 6480   4.492   1.860  10.710  0.0400  0.3708  0.7187
  435MPD2     C 6481   1.768   2.018  15.487  0.0852 -0.8993  0.3005
  435MPD2    C1 6482   1.762   1.986  15.625  0.6714  0.4018  0.0352
  435MPD2    C2 6483   1.866   1.916  15.686  0.6947  0.0461 -0.4175
  435MPD2    C3 6484   1.976   1.868  15.615  0.5686  0.2917 -0.3925
  435MPD2    C4 6485   1.969   1.889  15.477 -0.2736  1.0206 -0.4028
  435MPD2    C5 6486   1.865   1.959  15.414  0.6179 -0.1218 -0.3150
  435MPD2     H 6487   1.848   1.896  15.791  2.0346 -0.2844 -0.2432
  435MPD2    H1 6488   2.041   1.844  15.409  0.3560 -3.2591  3.0958
  435MPD2    H2 6489   1.679   2.058  15.440  0.9421 -1.5223 -1.8506
  435MPD2    H3 6490   1.869   1.968  15.306  4.3696  2.2271  0.0180
  435MPD2     N 6491   2.066   1.786  15.686  0.3635  0.0863  0.0669
  435MPD2    H5 6492   2.059   1.795  15.787 -0.7725  0.0628 -0.0075
  435MPD2    N1 6493   1.655   2.022  15.709 -0.0012 -0.0923 -0.1687
  435MPD2    H7 6494   1.654   1.989  15.805 -0.6176 -0.4491 -0.2966
  436TMC3    C1 6495   1.452   2.165  16.018 -1.1782 -0.5533  0.5081
  436TMC3    C2 6496   1.521   2.147  15.903 -0.1629  0.8269  0.0386
  436TMC3    C3 6497   1.464   2.141  15.781 -0.0063 -0.6890  0.2239
  436TMC3    C4 6498   1.315   2.162  16.009  0.5042 -0.7437 -0.3549
  436TMC3    C5 6499   1.258   2.170  15.884 -0.1570 -0.4786 -0.1923
  436TMC3    C6 6500   1.329   2.165  15.763  0.7208  0.6703  0.9135
  436TMC3     C 6501   1.515   2.226  16.130  0.2905  0.0065 -0.3600
  436TMC3     O 6502   1.634   2.246  16.125  0.3405 -0.0398  0.2684
  436TMC3     H 6503   1.629   2.163  15.905 -0.1173  0.4535  0.6623
  436TMC3    H1 6504   1.260   2.190  16.098  1.2466 -1.7219  0.4078
  436TMC3    H2 6505   1.284   2.157  15.665  1.9647  1.2382  0.2984
  436TMC3    C7 6506   1.109   2.194  15.884 -0.1614 -0.0001 -0.4715
  436TMC3    C8 6507   1.541   2.090  15.670 -0.1757  0.5374 -0.1929
  436TMC3    O1 6508   1.047   2.193  15.990  0.2672 -0.1816 -0.6645
  436TMC3    O2 6509   1.525   2.158  15.568 -0.1366 -0.4210 -0.0665
  437TMC3    C1 6510   0.228   4.495  12.379 -0.2239 -0.1695  0.4650
  437TMC3    C2 6511   0.136   4.591  12.392  0.7660 -0.2948 -0.1347
  437TMC3    C3 6512   0.145   4.704  12.315 -0.1260 -0.6073 -0.1643
  437TMC3    C4 6513   0.342   4.525  12.304 -0.1374 -0.4979 -0.7706
  437TMC3    C5 6514   0.356   4.643  12.236  0.2271 -0.2004  0.3013
  437TMC3    C6 6515   0.262   0.012  12.243 -0.0810 -0.3688  0.1952
  437TMC3     C 6516   0.250   4.404  12.487  0.2651  0.2397 -0.2255
  437TMC3     O 6517   0.373   4.381  12.503 -0.1592  0.1448 -0.3667
  437TMC3     H 6518   0.055   4.584  12.463  0.1849  1.2260 -0.6410
  437TMC3    H1 6519   0.413   4.444  12.290  1.6254  1.4601 -3.0904
  437TMC3    H2 6520   0.276   0.109  12.197 -1.9487 -0.7464 -1.1849
  437TMC3    C7 6521   0.494   4.676  12.199 -0.2966  0.2839  0.1396
  437TMC3    C8 6522   0.063   0.086  12.366 -0.0055 -0.1300  0.4486
  437TMC3    O1 6523   0.517   0.013  12.096  0.4072  0.0832  0.0917
  437TMC3    O2 6524   4.673   0.063  12.397  0.6177 -0.1787 -0.2780
  438MPD2     C 6525   3.006   0.190  16.518 -0.0929  0.7232  0.0868
  438MPD2    C1 6526   3.066   0.069  16.535 -0.0094 -0.1515  0.4334
  438MPD2    C2 6527   3.021   4.717  16.639 -0.2862  1.0148  0.0867
  438MPD2    C3 6528   2.918   0.034  16.721 -0.3498  0.0890 -0.0933
  438MPD2    C4 6529   2.865   0.159  16.698 -0.0815  0.2948  0.0399
  438MPD2    C5 6530   2.916   0.240  16.605  0.0057 -0.1845 -0.4708
  438MPD2     H 6531   3.059   4.616  16.652 -1.4290  0.4920 -0.5921
  438MPD2    H1 6532   2.794   0.201  16.768  0.6263  2.2640 -0.4261
  438MPD2    H2 6533   3.028   0.256  16.435 -0.0308  0.2377 -0.2818
  438MPD2    H3 6534   2.881   0.342  16.595 -4.7307 -1.7521  0.1273
  438MPD2     N 6535   2.871   4.678  16.825 -0.3735  0.5117  0.9661
  438MPD2    H5 6536   2.786   4.712  16.870 -2.4200 -3.7573  0.3112
  438MPD2    N1 6537   3.161   0.014  16.443  0.6174  0.1958 -0.0426
  438MPD2    H7 6538   3.193   4.645  16.465  1.6190  0.5996  0.2642
  439TMC3    C1 6539   3.315   0.017  16.263  0.5431  0.2159  0.5723
  439TMC3    C2 6540   3.313   0.021  16.130  0.1322 -0.0955 -0.0233
  439TMC3    C3 6541   3.397   4.659  16.067  0.6183 -0.0366  0.3968
  439TMC3    C4 6542   3.394   4.660  16.339 -0.8290  0.0512  0.3280
  439TMC3    C5 6543   3.481   4.576  16.272 -0.2802  1.0109 -0.3429
  439TMC3    C6 6544   3.485   4.577  16.137  0.4924  0.5596 -0.1759
  439TMC3     C 6545   3.205   0.082  16.330  0.6623  0.5762 -0.0207
  439TMC3     O 6546   3.190   0.194  16.284  0.2310 -0.1196  0.1576
  439TMC3     H 6547   3.242   0.072  16.067  0.9759  1.9098  0.6485
  439TMC3    H1 6548   3.392   4.655  16.447 -3.4428 -0.8410  0.2320
  439TMC3    H2 6549   3.573   4.534  16.091  1.0323  0.5099  0.9118
  439TMC3    C7 6550   3.582   4.499  16.344  0.4286 -0.2802  0.9093
  439TMC3    C8 6551   3.433   4.675  15.928  0.0813 -0.2730 -0.4959
  439TMC3    O1 6552   3.596   4.516  16.463 -0.1121 -0.9103  0.4340
  439TMC3    O2 6553   3.471   4.569  15.880  0.2408 -0.4858 -0.1580
  440MPD2     C 6554   1.633   0.385  14.675  0.5232  0.2447  0.4065
  440MPD2    C1 6555   1.657   0.449  14.794 -0.1812 -0.2772  0.1736
  440MPD2    C2 6556   1.772   0.414  14.864 -0.4078  0.6499 -0.5118
  440MPD2    C3 6557   1.849   0.305  14.823 -0.4308 -0.0824  0.7642
  440MPD2    C4 6558   1.809   0.226  14.715 -0.7110 -0.4966  0.5201
  440MPD2    C5 6559   1.703   0.273  14.637  0.6424 -0.2338 -0.6817
  440MPD2     H 6560   1.811   0.474  14.946 -0.0278 -0.2494 -0.0349
  440MPD2    H1 6561   1.872   0.147  14.677 -0.3416 -0.8059  1.7632
  440MPD2    H2 6562   1.552   0.414  14.610 -0.3712 -1.9319  0.5216
  440MPD2    H3 6563   1.667   0.212  14.555  0.1204  0.5542 -1.0361
  440MPD2     N 6564   1.973   0.273  14.884 -0.3457  0.1625 -0.4863
  440MPD2    H5 6565   2.016   0.183  14.866 -0.3840 -0.2445  1.5373
  440MPD2    N1 6566   1.587   0.564  14.836  0.2603  0.0910  0.2657
  440MPD2    H7 6567   1.616   0.610  14.922  1.8298  0.7017 -0.5798
  441TMC3    C1 6568   2.171   0.281  15.011 -0.2197 -0.6279 -0.6232
  441TMC3    C2 6569   2.249   0.383  15.063  0.4759 -0.8347  0.7621
  441TMC3    C3 6570   2.324   0.362  15.174  1.3789  0.3290 -0.0166
  441TMC3    C4 6571   2.169   0.165  15.084  0.7508  0.1876  0.3614
  441TMC3    C5 6572   2.244   0.147  15.191 -0.7406 -0.1278 -0.5206
  441TMC3    C6 6573   2.327   0.245  15.243  0.5182  0.6875 -0.0619
  441TMC3     C 6574   2.044   0.341  14.975 -0.7279 -0.4885 -0.2970
  441TMC3     O 6575   2.030   0.451  15.023  0.1222  0.0954  0.3407
  441TMC3     H 6576   2.254   0.476  15.007 -1.7158 -0.3642  1.3628
  441TMC3    H1 6577   2.100   0.083  15.068  1.8352 -0.4975 -0.8567
  441TMC3    H2 6578   2.398   0.241  15.324  2.1590  1.4260 -1.4434
  441TMC3    C7 6579   2.199   0.037  15.283 -0.0971  0.2864 -0.4451
  441TMC3    C8 6580   2.352   0.480  15.251 -0.1163 -0.7347  0.3361
  441TMC3    O1 6581   2.110   4.683  15.254 -0.3309  0.3313 -0.4425
  441TMC3    O2 6582   2.444   0.490  15.332  0.6344  0.4544 -0.0435
  442MPD2     C 6583   4.688   1.335  17.016  0.4969  0.1407  0.4447
  442MPD2    C1 6584   4.651   1.307  16.883  0.4219  0.1934 -0.4415
  442MPD2    C2 6585   4.705   1.209  16.812 -0.3184 -0.5045 -0.0816
  442MPD2    C3 6586   0.070   1.120  16.875 -0.0912 -0.1286 -0.9819
  442MPD2    C4 6587   0.089   1.131  17.008 -0.3601  0.0534  0.4243
  442MPD2    C5 6588   0.039   1.242  17.074 -0.0670 -0.5023 -0.4821
  442MPD2     H 6589   4.673   1.195  16.710 -2.3125  2.2547  0.1782
  442MPD2    H1 6590   0.149   1.061  17.065 -1.8355 -1.2480  0.3636
  442MPD2    H2 6591   4.647   1.421  17.066 -1.4638  0.8312 -2.3103
  442MPD2    H3 6592   0.058   1.237  17.180 -1.2094  0.3852 -0.2331
  442MPD2     N 6593   0.119   1.001  16.812  1.1695  0.1169  0.6914
  442MPD2    H5 6594   0.147   0.924  16.872  0.0606  0.6119  1.8525
  442MPD2    N1 6595   4.545   1.375  16.826 -0.2856 -0.4949 -0.3134
  442MPD2    H7 6596   4.510   1.342  16.737  0.3081 -0.8433 -0.4148
  443TMC3    C1 6597   4.344   1.490  16.796  0.3326 -0.1791  0.2860
  443TMC3    C2 6598   4.374   1.487  16.666  0.7839 -0.3489 -0.0330
  443TMC3    C3 6599   4.279   1.437  16.584 -0.3034  0.3776 -0.5825
  443TMC3    C4 6600   4.224   1.439  16.854  0.1065  0.5984 -0.7680
  443TMC3    C5 6601   4.139   1.379  16.770  0.0682  0.0577  0.3815
  443TMC3    C6 6602   4.166   1.384  16.638 -0.1642  0.0212  0.7084
  443TMC3     C 6603   4.463   1.476  16.880 -0.2100 -0.5267 -0.7654
  443TMC3     O 6604   4.465   1.530  16.990  0.4559 -0.3962  0.1096
  443TMC3     H 6605   4.474   1.510  16.629  0.2911  1.5659 -0.1581
  443TMC3    H1 6606   4.211   1.436  16.961 -2.6789  1.4130 -1.0950
  443TMC3    H2 6607   4.096   1.342  16.568 -0.7866  2.0633  0.1192
  443TMC3    C7 6608   4.091   1.249  16.821 -0.1113  0.3533 -0.0347
  443TMC3    C8 6609   4.317   1.392  16.452 -0.4731 -0.8882 -0.2297
  443TMC3    O1 6610   4.098   1.151  16.752 -0.4201 -0.3398  0.2155
  443TMC3    O2 6611   4.252   1.296  16.413  0.3902  0.3914 -0.0565
  444MPD2     C 6612   0.449   0.345  17.004 -0.0401 -0.4218  1.4473
  444MPD2    C1 6613   0.329   0.300  16.960  0.6218  0.3709 -0.7397
  444MPD2    C2 6614   0.326   0.194  16.874 -0.2284  0.9580  0.5121
  444MPD2    C3 6615   0.432   0.124  16.839  0.7193  0.0442 -0.1398
  444MPD2    C4 6616   0.553   0.164  16.888  0.7266  0.1698  0.2904
  444MPD2    C5 6617   0.566   0.275  16.965  0.0991 -0.4023  0.2839
  444MPD2     H 6618   0.231   0.150  16.845  0.2572 -0.5932  1.2834
  444MPD2    H1 6619   0.649   0.116  16.876 -0.8822 -2.6055 -1.3634
  444MPD2    H2 6620   0.457   0.435  17.064  1.6156  0.2634  0.2050
  444MPD2    H3 6621   0.665   0.309  16.992  1.1367 -2.4717 -0.9073
  444MPD2     N 6622   0.422   0.001  16.761  0.6928 -0.1222  1.0617
  444MPD2    H5 6623   0.329   4.723  16.719 -0.1281 -1.5020  3.0004
  444MPD2    N1 6624   0.204   0.333  17.015  0.1995  0.4798  0.7712
  444MPD2    H7 6625   0.124   0.282  16.979  1.2352 -0.4215 -0.2352
  445TMC3    C1 6626   0.512   4.532  16.638 -0.4775 -0.6799 -0.0508
  445TMC3    C2 6627   0.407   4.549  16.558 -0.2917  0.5861  0.2059
  445TMC3    C3 6628   0.410   4.467  16.448  0.4064 -0.1374 -0.2912
  445TMC3    C4 6629   0.608   4.433  16.628  0.9218 -0.5203 -0.1788
  445TMC3    C5 6630   0.603   4.347  16.516 -0.6313 -0.0887  0.8128
  445TMC3    C6 6631   0.505   4.370  16.423  0.3702 -0.0576 -0.3358
  445TMC3     C 6632   0.525   4.632  16.739 -0.3749  0.4268  0.0141
  445TMC3     O 6633   0.640   4.626  16.776 -0.7176 -0.6823 -0.2818
  445TMC3     H 6634   0.333   4.628  16.566  0.4808  1.4393 -1.0645
  445TMC3    H1 6635   0.677   4.422  16.711  0.7520 -0.9084 -0.0837
  445TMC3    H2 6636   0.503   4.311  16.332 -1.7099  0.4760 -0.6397
  445TMC3    C7 6637   0.720   4.272  16.476 -0.4121  1.3176  0.2075
  445TMC3    C8 6638   0.320   4.513  16.343  0.6952  0.0173 -0.3094
  445TMC3    O1 6639   0.721   4.209  16.369  0.4831  0.5483  0.3019
  445TMC3    O2 6640   0.249   4.610  16.365 -0.4649 -0.2881 -0.2930
  446MPD2     C 6641   4.127   1.904  11.143  0.4976 -0.2766  0.9983
  446MPD2    C1 6642   4.137   1.877  11.006  0.2323  0.2895  0.1016
  446MPD2    C2 6643   4.264   1.912  10.945 -0.1418 -0.3303  0.3598
  446MPD2    C3 6644   4.368   1.964  11.017 -0.2500 -0.7189 -0.2580
  446MPD2    C4 6645   4.350   1.979  11.153 -0.1450 -0.8905 -0.1823
  446MPD2    C5 6646   4.229   1.954  11.219  0.2960  0.3824 -0.6576
  446MPD2     H 6647   4.272   1.896  10.838  1.0079  0.4180  0.3365
  446MPD2    H1 6648   4.423   2.019  11.222 -0.7580  1.3455 -0.7900
  446MPD2    H2 6649   4.036   1.888  11.200 -1.6780 -0.6552 -2.5403
  446MPD2    H3 6650   4.207   1.972  11.323  2.6286 -2.7346  0.3837
  446MPD2     N 6651   4.493   1.995  10.948 -0.1075 -0.1781 -0.3657
  446MPD2    H5 6652   4.510   1.954  10.857  1.1887 -1.9322  0.6768
  446MPD2    N1 6653   4.028   1.827  10.930 -0.3679  0.1067 -0.1055
  446MPD2    H7 6654   4.043   1.814  10.830  0.9936  0.2811  0.0695
  447TMC3    C1 6655   4.723   2.028  10.935 -0.3813  0.3391  0.0817
  447TMC3    C2 6656   0.031   2.110  10.833  0.0856 -0.1895 -0.0245
  447TMC3    C3 6657   0.158   2.119  10.795 -0.1359 -1.0291  0.5454
  447TMC3    C4 6658   0.098   1.968  11.012  0.1212 -0.6114  0.2848
  447TMC3    C5 6659   0.227   1.982  10.974  0.7620  0.5777  0.2740
  447TMC3    C6 6660   0.261   2.050  10.860  0.7822  0.1737  0.2047
  447TMC3     C 6661   4.604   2.054  11.013  0.2441  0.3233 -0.0478
  447TMC3     O 6662   4.612   2.095  11.130 -0.8591  0.3234 -0.4439
  447TMC3     H 6663   4.677   2.157  10.775  2.0022  0.9597 -1.7065
  447TMC3    H1 6664   0.056   1.906  11.090 -0.3957 -0.0738  0.4399
  447TMC3    H2 6665   0.365   2.070  10.834  0.5334  0.2716 -0.7150
  447TMC3    C7 6666   0.324   1.893  11.026 -0.1201  0.0839  0.0262
  447TMC3    C8 6667   0.175   2.136  10.646  0.6350 -0.8907  0.5408
  447TMC3    O1 6668   0.435   1.888  10.968 -0.2271 -0.0672 -0.1689
  447TMC3    O2 6669   0.079   2.178  10.583  0.2367 -0.3148  0.1173
  448TMC3    C1 6670   2.579   0.949  17.040 -0.2459 -0.3476  0.6085
  448TMC3    C2 6671   2.588   0.864  16.928 -0.2378 -0.4619  0.3414
  448TMC3    C3 6672   2.632   0.732  16.949 -0.2387 -0.0185  0.4201
  448TMC3    C4 6673   2.611   0.904  17.171  0.0070  0.2587 -0.3303
  448TMC3    C5 6674   2.640   0.771  17.180  0.2615 -0.1054  0.1077
  448TMC3    C6 6675   2.657   0.685  17.072  0.0534  0.2521 -0.6868
  448TMC3     C 6676   2.585   1.095  17.020  0.3598  0.3487 -0.2348
  448TMC3     O 6677   2.538   1.137  16.915  0.1485  0.2076 -0.4278
  448TMC3     H 6678   2.568   0.902  16.828 -1.2237 -2.7319 -0.3259
  448TMC3    H1 6679   2.612   0.972  17.255  1.6880  0.5729 -0.5893
  448TMC3    H2 6680   2.699   0.586  17.088  1.5887  0.8679 -0.8350
  448TMC3    C7 6681   2.669   0.721  17.318  0.3834  0.1371  0.0913
  448TMC3    C8 6682   2.702   0.660  16.848 -0.4977  0.2176 -0.0914
  448TMC3    O1 6683   2.667   0.811  17.404 -0.3498  0.3086  0.0826
  448TMC3    O2 6684   2.781   0.571  16.884  0.6436 -0.0408  0.0292
  449MPD2     C 6685   4.025   4.132  13.552 -1.1352  0.8097  0.1131
  449MPD2    C1 6686   3.945   4.238  13.572  0.1611 -0.2742  0.3345
  449MPD2    C2 6687   3.810   4.232  13.541  0.3326  0.7006 -0.1392
  449MPD2    C3 6688   3.753   4.115  13.506 -0.3101 -0.6209  0.3671
  449MPD2    C4 6689   3.834   4.003  13.494  0.5442 -0.2234 -0.6260
  449MPD2    C5 6690   3.967   4.014  13.520 -0.8228  0.7700 -0.3349
  449MPD2     H 6691   3.752   4.322  13.556  0.3199  0.4675  1.1816
  449MPD2    H1 6692   3.804   3.903  13.463  1.3588 -0.3353 -1.0806
  449MPD2    H2 6693   4.133   4.126  13.564 -1.1400 -0.9257 -0.7538
  449MPD2    H3 6694   4.036   3.930  13.516 -1.9274 -0.1274 -0.5235
  449MPD2     N 6695   3.616   4.118  13.474 -0.1960  0.2287  0.9418
  449MPD2    H5 6696   3.570   4.208  13.484 -1.1985 -0.0864 -0.8748
  449MPD2    N1 6697   4.000   4.368  13.591  0.1350  0.2538 -0.9245
  449MPD2    H7 6698   3.934   4.444  13.579 -1.0365 -0.1435  2.8300
  450TMC3    C1 6699   4.137   4.547  13.638  0.1998  0.7152  0.1646
  450TMC3    C2 6700   4.221   4.604  13.547 -0.0932  0.9489 -0.5158
  450TMC3    C3 6701   4.184   4.722  13.487 -0.1097  0.2507 -0.4671
  450TMC3    C4 6702   4.016   4.605  13.662  0.7977  0.3797  0.2401
  450TMC3    C5 6703   3.983   4.718  13.599 -0.0092  0.5012  0.1408
  450TMC3    C6 6704   4.065   0.061  13.516  0.1809 -0.0505 -0.4083
  450TMC3     C 6705   4.130   4.400  13.627 -0.2904  0.3409 -0.7581
  450TMC3     O 6706   4.225   4.328  13.641 -0.2449 -0.5781 -0.9652
  450TMC3     H 6707   4.318   4.558  13.539 -0.6040 -0.6378  2.2416
  450TMC3    H1 6708   3.963   4.561  13.745 -1.2734  0.7729 -0.8920
  450TMC3    H2 6709   4.021   0.146  13.464 -0.1702 -1.0648 -1.7811
  450TMC3    C7 6710   3.842   4.708  13.568  0.3542  0.0778 -0.0044
  450TMC3    C8 6711   4.275   0.081  13.408 -0.1448 -0.1765 -0.5979
  450TMC3    O1 6712   3.786   4.606  13.606 -0.6508 -0.0180  0.1811
  450TMC3    O2 6713   4.239   0.199  13.420  0.1026  0.5728 -0.0334
  451MPD2     C 6714   1.566   3.214   1.421 -0.3610 -0.8784  0.0518
  451MPD2    C1 6715   1.465   3.218   1.328  1.1158 -0.6310 -0.0384
  451MPD2    C2 6716   1.422   3.098   1.271 -0.8977  0.0602 -0.2711
  451MPD2    C3 6717   1.491   2.975   1.291  0.1694  0.0454  0.3355
  451MPD2    C4 6718   1.595   2.978   1.380 -0.0524 -0.1395  0.0809
  451MPD2    C5 6719   1.634   3.092   1.444  0.3684  0.4906 -0.1424
  451MPD2     H 6720   1.338   3.102   1.201 -1.2693 -1.1102  0.0961
  451MPD2    H1 6721   1.646   2.888   1.414 -2.4604 -1.1633  0.9949
  451MPD2    H2 6722   1.597   3.304   1.472 -0.0136 -0.3660 -1.0636
  451MPD2    H3 6723   1.718   3.076   1.511 -0.1004 -1.2828  0.0384
  451MPD2     N 6724   1.459   2.850   1.233 -0.4042 -0.2955  0.3799
  451MPD2    H5 6725   1.530   2.779   1.250  0.4626  0.6559  0.7903
  451MPD2    N1 6726   1.387   3.338   1.315  0.5385 -0.6007  0.5566
  451MPD2    H7 6727   1.417   3.424   1.358  1.7875 -0.2289 -1.0476
  452TMC3    C1 6728   1.344   2.684   1.122 -0.3008  0.4213  0.4381
  452TMC3    C2 6729   1.397   2.583   1.197  0.2746 -0.0181  0.0204
  452TMC3    C3 6730   1.402   2.458   1.137  0.6255  0.3524  0.0554
  452TMC3    C4 6731   1.287   2.656   1.000  0.4893  0.4816 -0.1550
  452TMC3    C5 6732   1.276   2.525   0.951 -0.3293 -0.0567  0.0290
  452TMC3    C6 6733   1.326   2.423   1.024  0.7663 -0.1727 -0.1663
  452TMC3     C 6734   1.360   2.829   1.145 -0.0310  0.4577  0.3403
  452TMC3     O 6735   1.280   2.910   1.099  0.2621 -0.0970 -0.2468
  452TMC3     H 6736   1.446   2.606   1.290 -1.6965  0.8891  0.8296
  452TMC3    H1 6737   1.241   2.742   0.952  0.6194  1.9493  2.3192
  452TMC3    H2 6738   1.321   2.321   0.987 -1.0289 -0.8748  2.0010
  452TMC3    C7 6739   1.235   2.527   0.816  1.2758  0.9803  0.3906
  452TMC3    C8 6740   1.464   2.353   1.214 -0.1927 -0.6741 -0.1731
  452TMC3    O1 6741   1.231   2.638   0.764 -0.8346  0.1545  0.4881
  452TMC3    O2 6742   1.399   2.259   1.251 -0.1845  0.3163  0.0767
  453TMC3    C1 6743   1.454   0.489  11.651  0.3857 -0.0623  0.2525
  453TMC3    C2 6744   1.395   0.385  11.727 -0.0463  0.0925  0.3798
  453TMC3    C3 6745   1.272   0.348  11.678 -0.1693  0.3010  0.4759
  453TMC3    C4 6746   1.410   0.531  11.528  0.1160  0.3278 -0.3666
  453TMC3    C5 6747   1.307   0.468  11.474 -0.6455  0.2065 -0.3080
  453TMC3    C6 6748   1.230   0.384  11.553  0.4755 -0.3717 -0.0527
  453TMC3     C 6749   1.588   0.535  11.688 -0.5447  0.5445  0.0330
  453TMC3     O 6750   1.629   0.641  11.639  0.1932  0.4556  0.2827
  453TMC3     H 6751   1.428   0.362  11.827 -0.1758 -2.1087 -0.0842
  453TMC3    H1 6752   1.483   0.586  11.470  0.4790  0.9398  0.6617
  453TMC3    H2 6753   1.141   0.343  11.505 -1.3398  1.3544  1.8095
  453TMC3    C7 6754   1.331   0.397  11.348  0.1699  0.0841  0.1678
  453TMC3    C8 6755   1.207   0.235  11.732  0.1896 -0.8388 -0.1016
  453TMC3    O1 6756   1.310   0.276  11.349  0.5230 -0.0947  0.3558
  453TMC3    O2 6757   1.084   0.220  11.710  0.6626 -0.1174 -0.8162
  454MPD2     C 6758   1.101   4.620  16.367 -0.5129 -1.0462  0.3909
  454MPD2    C1 6759   1.025   0.006  16.349  0.2043 -0.4416  0.7759
  454MPD2    C2 6760   0.986   0.073  16.459 -0.2224  0.1547  0.1807
  454MPD2    C3 6761   0.990   0.023  16.591  0.4896 -0.0582  0.4768
  454MPD2    C4 6762   1.060   4.630  16.605 -0.1540  0.6126 -0.0070
  454MPD2    C5 6763   1.117   4.565  16.494 -0.0621 -0.9581 -0.0996
  454MPD2     H 6764   0.946   0.173  16.447 -1.0271 -0.3777 -1.6218
  454MPD2    H1 6765   1.071   4.575  16.698  0.3919 -0.9736 -1.0297
  454MPD2    H2 6766   1.144   4.578  16.277  0.2812 -0.9643  0.7292
  454MPD2    H3 6767   1.179   4.476  16.502 -0.2872 -0.9727  1.4544
  454MPD2     N 6768   0.932   0.085  16.707  0.6693 -0.0605 -0.0455
  454MPD2    H5 6769   0.975   0.053  16.793  1.7293  1.1330 -0.1342
  454MPD2    N1 6770   1.008   0.072  16.225 -0.8405  0.1065 -0.2703
  454MPD2    H7 6771   0.990   0.172  16.228 -3.8212 -0.3398 -2.9773
  455TMC3    C1 6772   0.779   0.249  16.602  0.3279  0.0172 -0.2518
  455TMC3    C2 6773   0.761   0.384  16.589  0.1150 -0.0693  0.3192
  455TMC3    C3 6774   0.657   0.421  16.504  0.1969 -0.6934 -1.3788
  455TMC3    C4 6775   0.693   0.155  16.535 -0.1627  0.1094 -0.4813
  455TMC3    C5 6776   0.601   0.201  16.441  0.2416 -0.6097  0.3778
  455TMC3    C6 6777   0.586   0.333  16.423 -0.1191 -0.2646  0.4431
  455TMC3     C 6778   0.856   0.201  16.715  0.4362 -0.4770 -0.5217
  455TMC3     O 6779   0.848   0.278  16.809 -0.5298 -0.4656 -0.1727
  455TMC3     H 6780   0.824   0.454  16.643 -0.5679 -0.1725  1.2492
  455TMC3    H1 6781   0.708   0.049  16.553 -0.6344 -0.3260 -2.7154
  455TMC3    H2 6782   0.505   0.374  16.364 -1.7374 -0.6835  2.4125
  455TMC3    C7 6783   0.567   0.110  16.332 -0.4680  0.3160 -0.2948
  455TMC3    C8 6784   0.593   0.547  16.544 -0.3802 -0.0500 -0.4866
  455TMC3    O1 6785   0.473   0.146  16.262  0.0703 -0.5181  0.0487
  455TMC3    O2 6786   0.521   0.607  16.466 -0.5839 -0.3182 -0.2985
  456MPD2     C 6787   3.786   0.083  16.007 -0.2811  0.2775 -0.4327
  456MPD2    C1 6788   3.832   0.034  16.130 -0.1004  0.0439  0.1501
  456MPD2    C2 6789   3.766   0.089  16.240  0.0382  0.6963  0.5915
  456MPD2    C3 6790   3.674   0.190  16.229 -0.5653 -0.4937  0.3398
  456MPD2    C4 6791   3.650   0.242  16.105 -0.7173  0.0225  0.3494
  456MPD2    C5 6792   3.705   0.185  15.995  0.0521  0.3762  0.2399
  456MPD2     H 6793   3.797   0.058  16.340  3.7422 -0.7105 -0.9897
  456MPD2    H1 6794   3.570   0.311  16.079  2.9949  4.5567  1.1430
  456MPD2    H2 6795   3.831   0.035  15.921 -2.5904 -4.3126  0.9291
  456MPD2    H3 6796   3.669   0.217  15.897 -1.2413 -0.0716  0.5658
  456MPD2     N 6797   3.600   0.239  16.342 -0.0265 -0.5618  0.6945
  456MPD2    H5 6798   3.609   0.184  16.427  1.0380 -2.0351 -0.3928
  456MPD2    N1 6799   3.943   4.668  16.138  0.2845 -0.7808 -0.2934
  456MPD2    H7 6800   3.983   4.651  16.046  0.0886  1.2681 -0.7468
  457TMC3    C1 6801   3.448   0.357  16.479  0.3880  0.4052  0.2419
  457TMC3    C2 6802   3.329   0.420  16.481 -0.1911  0.0290  0.2606
  457TMC3    C3 6803   3.306   0.493  16.596 -0.1487 -0.4591 -0.3324
  457TMC3    C4 6804   3.541   0.367  16.581 -0.9887 -0.9739  0.0890
  457TMC3    C5 6805   3.500   0.424  16.699  0.3047 -0.2582 -0.6135
  457TMC3    C6 6806   3.390   0.499  16.705 -0.1626  0.1332 -0.1263
  457TMC3     C 6807   3.501   0.338  16.343  0.2435  0.0855  0.1538
  457TMC3     O 6808   3.449   0.398  16.249 -0.3611 -0.1641  0.6985
  457TMC3     H 6809   3.255   0.406  16.402  0.3673  1.2400 -0.4834
  457TMC3    H1 6810   3.634   0.313  16.571 -1.6577 -1.7343 -1.8841
  457TMC3    H2 6811   3.350   0.535  16.799  1.9617  0.0681  0.8050
  457TMC3    C7 6812   3.598   0.441  16.800  0.0311 -0.2390  0.6140
  457TMC3    C8 6813   3.172   0.536  16.623 -0.1671  0.6161 -0.2394
  457TMC3    O1 6814   3.651   0.340  16.846 -0.1138  0.4873 -0.2163
  457TMC3    O2 6815   3.141   0.538  16.738 -0.3992 -0.1025 -0.0113
  458MPD2     C 6816   0.993   4.642  12.312  0.8414 -0.3070 -0.1637
  458MPD2    C1 6817   0.923   4.557  12.400 -0.2348  0.7140 -0.0757
  458MPD2    C2 6818   0.787   4.549  12.385  0.2579  0.0547 -0.1459
  458MPD2    C3 6819   0.724   4.627  12.291  0.3240 -0.3456  0.0508
  458MPD2    C4 6820   0.796   4.700  12.194 -0.6343  0.3395 -0.4443
  458MPD2    C5 6821   0.926   4.714  12.213 -0.2575  0.1613 -0.0842
  458MPD2     H 6822   0.737   4.491  12.462  0.3452  1.0531  0.6526
  458MPD2    H1 6823   0.747   0.032  12.116 -0.7142  0.8419 -0.0355
  458MPD2    H2 6824   1.098   4.652  12.336  0.8072  1.5510 -0.7248
  458MPD2    H3 6825   0.971   0.053  12.138 -0.7187  1.5212  0.7873
  458MPD2     N 6826   0.584   4.623  12.290 -0.1894 -0.3269  0.6504
  458MPD2    H5 6827   0.538   4.575  12.367 -1.0861 -2.5522 -1.2508
  458MPD2    N1 6828   1.005   4.498  12.496 -0.6163 -0.7823  0.5709
  458MPD2    H7 6829   1.104   4.516  12.486 -1.0230  0.9191 -0.3626
  459TMC3    C1 6830   1.075   4.368  12.682  0.6125  0.4764 -0.2651
  459TMC3    C2 6831   1.198   4.423  12.691  0.0041  0.1506  0.9224
  459TMC3    C3 6832   1.284   4.373  12.791 -0.1330  0.1343  0.2501
  459TMC3    C4 6833   1.039   4.258  12.746 -0.1069 -0.1406 -0.2512
  459TMC3    C5 6834   1.130   4.203  12.831 -0.0229 -0.0850 -0.2406
  459TMC3    C6 6835   1.256   4.257  12.856  0.2646  0.2765  0.4684
  459TMC3     C 6836   0.963   4.420  12.604 -0.1026 -0.3452 -0.6973
  459TMC3     O 6837   0.845   4.389  12.632  0.3885  0.6054  0.0715
  459TMC3     H 6838   1.218   4.518  12.643 -2.8176  1.3134  2.0310
  459TMC3    H1 6839   0.934   4.233  12.747  0.0792 -0.9054  0.6194
  459TMC3    H2 6840   1.322   4.202  12.921  0.5715 -0.9920 -0.9149
  459TMC3    C7 6841   1.116   4.062  12.860 -0.3201 -0.0943 -0.4591
  459TMC3    C8 6842   1.427   4.431  12.801 -0.4366 -0.2483  0.0858
  459TMC3    O1 6843   1.178   4.011  12.954 -0.2483 -0.3239 -1.0487
  459TMC3    O2 6844   1.515   4.368  12.856 -0.1010  0.3337 -0.7243
  460MPD2     C 6845   0.432   1.957  10.444 -0.1379  0.9577 -0.4304
  460MPD2    C1 6846   0.323   2.036  10.464  0.1268  0.4788  0.4100
  460MPD2    C2 6847   0.252   2.085  10.354  0.1350  0.2801  0.2735
  460MPD2    C3 6848   0.288   2.039  10.227  0.0757  0.4208 -0.0837
  460MPD2    C4 6849   0.402   1.962  10.212  0.8745  0.5498  0.1267
  460MPD2    C5 6850   0.475   1.923  10.319  0.1508  0.1461 -0.4493
  460MPD2     H 6851   0.162   2.145  10.365  0.7294  1.3448 -0.5630
  460MPD2    H1 6852   0.436   1.931  10.113 -2.6627  0.2934 -1.0188
  460MPD2    H2 6853   0.492   1.926  10.529 -1.3412 -1.8728 -0.6214
  460MPD2    H3 6854   0.564   1.864  10.300 -0.2595  0.0453 -2.1184
  460MPD2     N 6855   0.211   2.063  10.113  0.1394 -0.4174  0.9560
  460MPD2    H5 6856   0.147   2.141  10.121  0.6714  0.0047  1.1664
  460MPD2    N1 6857   0.286   2.062  10.597  0.2564  0.4430  0.6547
  460MPD2    H7 6858   0.348   2.022  10.667  0.0142 -2.1025 -0.5665
  461TMC3    C1 6859   0.116   2.056   9.891 -0.4285 -0.0203 -0.7485
  461TMC3    C2 6860   0.114   1.983   9.771  0.2223  0.2023 -0.0370
  461TMC3    C3 6861   0.033   2.033   9.673  0.3017  0.0353 -0.2877
  461TMC3    C4 6862   0.035   2.167   9.912 -0.2125  0.0417  0.2327
  461TMC3    C5 6863   4.678   2.202   9.812 -0.7817  0.8034  0.5473
  461TMC3    C6 6864   4.685   2.149   9.686  0.1645 -0.8562 -0.1966
  461TMC3     C 6865   0.216   2.001   9.991  0.2485 -0.1076 -0.6184
  461TMC3     O 6866   0.273   1.897   9.964 -0.0779  0.4277  0.3941
  461TMC3     H 6867   0.179   1.900   9.748  0.2249  0.3397 -0.5244
  461TMC3    H1 6868   0.020   2.212  10.009  4.4524  0.9968  0.5026
  461TMC3    H2 6869   4.633   2.198   9.605 -2.1498 -1.9212  0.6510
  461TMC3    C7 6870   4.623   2.336   9.816 -0.2879  1.2069 -0.1083
  461TMC3    C8 6871   0.050   1.994   9.537 -0.4514 -0.0980 -0.0298
  461TMC3    O1 6872   4.528   2.364   9.744  0.3721  0.4610  0.1098
  461TMC3    O2 6873   0.160   1.981   9.490 -0.4956  0.5687  0.6762
  462TMC3    C1 6874   0.411   2.727   0.249 -0.0953 -0.0961 -0.1995
  462TMC3    C2 6875   0.338   2.694   0.143  0.6715  0.0824  0.6009
  462TMC3    C3 6876   0.307   2.559   0.122 -0.9125 -0.8409  0.3870
  462TMC3    C4 6877   0.467   2.629   0.329  0.0808  0.0385 -0.3981
  462TMC3    C5 6878   0.437   2.496   0.313  0.0252  0.2636 -0.3739
  462TMC3    C6 6879   0.353   2.462   0.211 -0.0239  0.5153 -0.5282
  462TMC3     C 6880   0.455   2.863   0.265  0.0859 -0.6286 -0.1405
  462TMC3     O 6881   0.472   2.906   0.379 -0.2808  0.5475 -0.2767
  462TMC3     H 6882   0.300   2.772   0.079 -0.1157  0.7392  1.8848
  462TMC3    H1 6883   0.535   2.646   0.411 -2.9330  0.6655  1.9586
  462TMC3    H2 6884   0.298   2.369   0.209  0.1845  0.3786  0.1707
  462TMC3    C7 6885   0.417   2.412   0.429  0.0989  0.6258  0.2469
  462TMC3    C8 6886   0.245   2.516  17.696 -0.0317  0.4558 -0.0481
  462TMC3    O1 6887   0.379   2.298   0.407  0.2468  0.9411  0.6980
  462TMC3    O2 6888   0.208   2.606  17.618  0.4434  0.2389 -0.2182
  463MPD2     C 6889   2.024   1.412   2.031  0.4188 -0.4003  0.0722
  463MPD2    C1 6890   1.904   1.404   1.960  0.2855  0.2295  0.0097
  463MPD2    C2 6891   1.868   1.506   1.877  0.2293 -0.0565 -0.1559
  463MPD2    C3 6892   1.942   1.622   1.872  0.3533 -0.1921 -0.3564
  463MPD2    C4 6893   2.060   1.628   1.936 -0.0750  0.0142  0.1189
  463MPD2    C5 6894   2.099   1.529   2.021  0.2410  0.3465  0.2515
  463MPD2     H 6895   1.780   1.500   1.814  0.5778  1.5629 -0.7980
  463MPD2    H1 6896   2.123   1.712   1.909  0.5624 -0.4393  0.1851
  463MPD2    H2 6897   2.065   1.335   2.095 -0.0546 -1.5772 -1.0479
  463MPD2    H3 6898   2.197   1.543   2.065 -0.8558  1.5159  2.2877
  463MPD2     N 6899   1.930   1.730   1.778 -0.1044 -0.0890 -0.3844
  463MPD2    H5 6900   2.013   1.786   1.762 -0.0881 -0.1192 -0.4068
  463MPD2    N1 6901   1.816   1.299   1.958 -0.7164  1.0436  0.3744
  463MPD2    H7 6902   1.725   1.314   1.916 -1.1942  0.5987  1.2564
  464TMC3    C1 6903   1.721   1.090   2.008  0.4476  0.0830  0.9197
  464TMC3    C2 6904   1.599   1.148   2.023 -0.3336 -0.3073  0.1753
  464TMC3    C3 6905   1.490   1.066   1.999  0.8476 -0.0547 -0.1959
  464TMC3    C4 6906   1.730   0.954   1.979  1.0938 -0.0296  0.4961
  464TMC3    C5 6907   1.618   0.887   1.935  0.1955  0.0791 -0.3857
  464TMC3    C6 6908   1.500   0.937   1.952  0.6051 -0.0220  0.4625
  464TMC3     C 6909   1.839   1.171   2.003  0.0197  0.5081 -0.0497
  464TMC3     O 6910   1.947   1.109   2.025 -0.1970  0.3176 -0.0210
  464TMC3     H 6911   1.582   1.253   2.043  1.6025  0.0295  0.0076
  464TMC3    H1 6912   1.829   0.914   1.957  1.1120 -0.5753  1.5465
  464TMC3    H2 6913   1.414   0.871   1.950 -0.2037  1.0141  0.7543
  464TMC3    C7 6914   1.631   0.831   1.803  0.0325 -0.1451 -0.1195
  464TMC3    C8 6915   1.366   1.127   1.953  0.0878  0.7420 -0.6915
  464TMC3    O1 6916   1.732   0.764   1.779  0.0597 -0.4115  0.0858
  464TMC3    O2 6917   1.298   1.060   1.880 -0.7113 -0.3149 -0.2155
  465MPD2     C 6918   2.709   4.494  16.563  0.5591  0.2973 -0.1328
  465MPD2    C1 6919   2.591   4.464  16.626  0.3705 -0.2859  0.3396
  465MPD2    C2 6920   2.473   4.536  16.597  0.6293  0.1571 -0.3202
  465MPD2    C3 6921   2.482   4.644  16.516  0.6978  0.0180 -0.1560
  465MPD2    C4 6922   2.606   4.673  16.457 -0.0841 -0.0803  0.4934
  465MPD2    C5 6923   2.721   4.601  16.485 -0.0774 -0.5338 -0.1649
  465MPD2     H 6924   2.383   4.495  16.641 -0.4853  2.5962 -0.3360
  465MPD2    H1 6925   2.621   0.034  16.391  2.4892 -0.0452  1.1281
  465MPD2    H2 6926   2.794   4.431  16.585  1.3783  1.2151 -0.6962
  465MPD2    H3 6927   2.810   4.622  16.427  1.0730 -1.5365  1.2339
  465MPD2     N 6928   2.359   4.708  16.485  0.1799  0.1584 -0.1735
  465MPD2    H5 6929   2.280   4.665  16.531 -0.4687 -0.0405 -1.4960
  465MPD2    N1 6930   2.574   4.345  16.711 -0.0358  0.2858 -0.1199
  465MPD2    H7 6931   2.477   4.340  16.741  0.3421  0.0265  1.0407
  466TMC3    C1 6932   2.021   0.198  16.506  0.0604  0.5057  0.0292
  466TMC3    C2 6933   2.015   0.323  16.452 -0.5618 -0.1882  0.7135
  466TMC3    C3 6934   2.122   0.352  16.364  0.3418 -0.4836 -0.0559
  466TMC3    C4 6935   2.118   0.107  16.481 -0.0312 -0.6821 -0.0181
  466TMC3    C5 6936   2.211   0.139  16.383 -0.5725  0.2300 -0.2882
  466TMC3    C6 6937   2.210   0.257  16.320 -0.1363 -0.5458 -0.4597
  466TMC3     C 6938   1.933   0.160  16.613 -0.4578  0.6590  0.0674
  466TMC3     O 6939   1.979   0.078  16.693 -0.4152 -0.4455  0.4962
  466TMC3     H 6940   1.938   0.397  16.468  0.0450  1.0840 -2.2223
  466TMC3    H1 6941   2.107   0.008  16.524 -1.4469 -0.5425 -0.0736
  466TMC3    H2 6942   2.293   0.288  16.257 -1.2461  1.7951 -0.7754
  466TMC3    C7 6943   2.346   0.088  16.403 -0.0123 -0.0734  0.2257
  466TMC3    C8 6944   2.138   0.487  16.317  0.2477  0.0023 -0.7211
  466TMC3    O1 6945   2.431   0.175  16.371  0.0835 -1.0324 -0.0889
  466TMC3    O2 6946   2.199   0.503  16.214  0.1230 -0.0943 -0.5112
  467TMC3    C1 6947   3.151   3.503  13.387 -0.9904 -0.2849 -0.4879
  467TMC3    C2 6948   3.136   3.613  13.308 -0.1599 -0.1165  1.0934
  467TMC3    C3 6949   3.025   3.622  13.234  0.5519  0.9629  0.4340
  467TMC3    C4 6950   3.064   3.399  13.391 -0.4288 -0.7492 -0.4251
  467TMC3    C5 6951   2.942   3.419  13.331 -0.8668  0.0670  0.2295
  467TMC3    C6 6952   2.919   3.537  13.257  0.0115 -0.0678  0.5369
  467TMC3     C 6953   3.273   3.502  13.457 -0.1166 -0.9078  0.4296
  467TMC3     O 6954   3.323   3.608  13.499 -0.2660  0.1271  0.2947
  467TMC3     H 6955   3.219   3.680  13.289 -0.0042 -0.8112 -0.6274
  467TMC3    H1 6956   3.080   3.305  13.443  2.0148  0.0193  0.2345
  467TMC3    H2 6957   2.819   3.554  13.219  0.1491 -0.7606 -0.1287
  467TMC3    C7 6958   2.839   3.322  13.355 -0.5296  0.3798 -0.5517
  467TMC3    C8 6959   3.024   3.730  13.138 -0.0595 -0.1002  0.0134
  467TMC3    O1 6960   2.870   3.202  13.362  0.3519 -0.2922  0.3045
  467TMC3    O2 6961   3.098   3.824  13.164 -0.0822  0.1956  0.0870
  468MPD2     C 6962   1.964   2.153  10.441 -0.1615 -0.2397 -0.8503
  468MPD2    C1 6963   1.917   2.080  10.544 -0.1310  0.2742 -0.5283
  468MPD2    C2 6964   1.863   1.957  10.528  0.4174 -0.7870  0.7040
  468MPD2    C3 6965   1.856   1.903  10.400 -0.2456 -0.0550 -0.1834
  468MPD2    C4 6966   1.890   1.982  10.292 -0.4196 -0.2461 -0.2284
  468MPD2    C5 6967   1.930   2.110  10.315  0.6029  0.1144  0.1442
  468MPD2     H 6968   1.827   1.908  10.618 -2.9030  1.8842  0.8174
  468MPD2    H1 6969   1.894   1.933  10.195  3.0033  0.7225 -0.5814
  468MPD2    H2 6970   2.010   2.249  10.458  2.2403 -1.2721 -1.4730
  468MPD2    H3 6971   1.946   2.177  10.231 -0.6301 -0.7572 -0.7803
  468MPD2     N 6972   1.841   1.760  10.372 -0.5985  0.1602 -0.5140
  468MPD2    H5 6973   1.858   1.733  10.275  1.1743 -0.4970 -0.0209
  468MPD2    N1 6974   1.930   2.132  10.676  0.5551  0.5087 -0.3412
  468MPD2    H7 6975   1.888   2.079  10.752  0.3261 -0.5909 -1.2345
  469TMC3    C1 6976   1.994   2.265  10.866 -0.1649  0.3206 -0.4802
  469TMC3    C2 6977   1.994   2.143  10.938  0.1004 -0.8286  0.6234
  469TMC3    C3 6978   2.004   2.154  11.078  0.4252 -0.5686 -0.1617
  469TMC3    C4 6979   2.009   2.389  10.931  0.4997 -0.4504  0.0707
  469TMC3    C5 6980   2.017   2.390  11.067 -0.0269 -0.2939 -0.2860
  469TMC3    C6 6981   2.012   2.271  11.141 -0.0691 -0.9151  0.6428
  469TMC3     C 6982   1.984   2.250  10.718  0.3652  0.2933 -0.7285
  469TMC3     O 6983   2.042   2.338  10.655 -0.3337  0.0019  0.3428
  469TMC3     H 6984   1.995   2.050  10.884  1.9132  0.0509 -0.8685
  469TMC3    H1 6985   2.014   2.475  10.866 -2.3207 -0.2825  0.0496
  469TMC3    H2 6986   1.979   2.276  11.244  0.1645 -2.1973  0.7792
  469TMC3    C7 6987   2.062   2.508  11.135 -0.2911  0.1288 -0.6780
  469TMC3    C8 6988   1.990   2.029  11.143 -0.2260 -0.1515 -0.2503
  469TMC3    O1 6989   2.057   2.607  11.063 -0.5573 -0.8739  0.0281
  469TMC3    O2 6990   2.057   1.935  11.100  0.0065 -0.4184 -0.2675
  470TMC3    C1 6991   4.438   2.340   1.133 -0.0110  0.1071  0.3912
  470TMC3    C2 6992   4.504   2.457   1.109 -0.5458  0.2608  0.1454
  470TMC3    C3 6993   4.624   2.480   1.181 -0.5461  0.3018 -0.6549
  470TMC3    C4 6994   4.462   2.274   1.242 -0.4432  0.4990 -0.2027
  470TMC3    C5 6995   4.571   2.302   1.322 -0.1822  0.1092 -0.3300
  470TMC3    C6 6996   4.654   2.405   1.293 -0.4024  0.3297  0.0389
  470TMC3     C 6997   4.300   2.341   1.074 -0.4621 -0.3268 -0.0012
  470TMC3     O 6998   4.296   2.384   0.961 -0.7329 -0.2848 -0.3683
  470TMC3     H 6999   4.480   2.520   1.024  0.2645 -0.9135 -0.9426
  470TMC3    H1 7000   4.412   2.179   1.252 -0.6914  0.9531  2.8732
  470TMC3    H2 7001   0.013   2.428   1.358  0.6664 -2.6245 -0.2734
  470TMC3    C7 7002   4.616   2.196   1.417 -0.5116 -0.3272 -0.8392
  470TMC3    C8 7003   4.687   2.607   1.145 -0.1250 -0.0033  0.3944
  470TMC3    O1 7004   4.718   2.225   1.482 -0.3447 -0.0391  0.1344
  470TMC3    O2 7005   4.618   2.688   1.083  0.2719  0.0938  0.0316
  471MPD2     C 7006   0.278   4.321  16.787  0.1467 -0.4893  0.5858
  471MPD2    C1 7007   0.299   4.185  16.774  0.0980  0.1981  0.4233
  471MPD2    C2 7008   0.348   4.106  16.873  0.2897 -0.0966 -0.6703
  471MPD2    C3 7009   0.402   4.169  16.980 -0.2072 -0.4460 -0.0189
  471MPD2    C4 7010   0.383   4.296  16.998 -0.5159  0.5062  0.3438
  471MPD2    C5 7011   0.329   4.373  16.896 -0.6557  0.0440 -0.0438
  471MPD2     H 7012   0.366   4.002  16.845  1.7658  0.2153 -0.8707
  471MPD2    H1 7013   0.438   4.351  17.073 -1.0233  1.7327 -0.1827
  471MPD2    H2 7014   0.228   4.382  16.713 -0.8210 -1.9958 -0.0125
  471MPD2    H3 7015   0.329   4.479  16.920 -2.2307 -0.4646  2.1953
  471MPD2     N 7016   0.469   4.097  17.089 -0.6542  0.5621 -0.3787
  471MPD2    H5 7017   0.490   4.144  17.177 -2.6963  2.5054 -0.9206
  471MPD2    N1 7018   0.272   4.112  16.660 -0.3665 -0.2862 -0.5331
  471MPD2    H7 7019   0.276   4.011  16.665  1.8970 -0.0356  2.2475
  472TMC3    C1 7020   0.213   4.061  16.440 -0.1116  0.0206  0.4569
  472TMC3    C2 7021   0.122   4.090  16.338  0.2505 -0.1469 -0.7902
  472TMC3    C3 7022   0.102   4.001  16.239 -0.4783  0.2809 -0.0236
  472TMC3    C4 7023   0.259   3.931  16.460 -0.8433  1.0436 -0.0859
  472TMC3    C5 7024   0.234   3.841  16.362 -0.0408 -0.0396 -0.4073
  472TMC3    C6 7025   0.160   3.880  16.254 -0.0720  0.4374  0.5946
  472TMC3     C 7026   0.215   4.162  16.545  0.0233  0.4437 -0.4796
  472TMC3     O 7027   0.175   4.273  16.521 -0.1853  0.2153 -0.2207
  472TMC3     H 7028   0.054   4.175  16.347  1.4689  0.6497  0.8283
  472TMC3    H1 7029   0.328   3.905  16.539  0.4830  1.8959 -0.9580
  472TMC3    H2 7030   0.140   3.803  16.181 -0.3467  0.8017  0.2806
  472TMC3    C7 7031   0.236   3.697  16.403 -0.2477 -0.1314 -0.6036
  472TMC3    C8 7032   4.693   3.997  16.185  0.6915 -0.9007 -0.2822
  472TMC3    O1 7033   0.235   3.682  16.521  0.3009  0.4173  0.6607
  472TMC3    O2 7034   4.600   4.004  16.264  0.5518 -0.0119  0.2592
  473MPD2     C 7035   4.572   1.361  13.272  0.4034 -0.3400 -0.6308
  473MPD2    C1 7036   4.487   1.465  13.243  0.0627  0.5384 -0.2216
  473MPD2    C2 7037   4.517   1.593  13.280 -0.5662 -1.0117 -0.1978
  473MPD2    C3 7038   4.646   1.628  13.333 -0.8147  0.5539 -0.2973
  473MPD2    C4 7039   0.008   1.522  13.361 -0.4550 -0.2913 -0.1539
  473MPD2    C5 7040   4.696   1.394  13.329  0.6413 -0.6112 -0.4702
  473MPD2     H 7041   4.446   1.671  13.257  0.5913  0.0048 -0.3457
  473MPD2    H1 7042   0.103   1.544  13.408  0.3037 -2.0620 -0.8712
  473MPD2    H2 7043   4.554   1.260  13.239  0.2446  0.0255 -1.6408
  473MPD2    H3 7044   0.049   1.318  13.331 -1.3813 -2.6191  1.7306
  473MPD2     N 7045   4.674   1.756  13.395  0.0887 -0.1514  0.0450
  473MPD2    H5 7046   0.040   1.755  13.439  0.5269  0.6780 -0.8527
  473MPD2    N1 7047   4.371   1.446  13.169  0.2889  0.4695 -0.0010
  473MPD2    H7 7048   4.344   1.533  13.125 -2.2985 -1.7565 -2.8168
  474TMC3    C1 7049   4.657   1.968  13.459 -0.1886  0.3177 -0.2458
  474TMC3    C2 7050   4.646   2.098  13.428 -0.2111  0.0333  0.2701
  474TMC3    C3 7051   4.676   2.192  13.520  0.2962 -0.3598 -0.4429
  474TMC3    C4 7052   4.704   1.924  13.580  0.5817 -0.3554  0.5699
  474TMC3    C5 7053   4.725   2.022  13.677 -0.1353 -0.1136  0.0100
  474TMC3    C6 7054   4.712   2.159  13.651  0.2911 -0.2967 -0.1910
  474TMC3     C 7055   4.591   1.863  13.387 -0.0707 -0.0047 -0.1088
  474TMC3     O 7056   4.484   1.877  13.327  0.1538  0.3295  0.3326
  474TMC3     H 7057   4.586   2.126  13.342 -0.1022  0.8486  0.4615
  474TMC3    H1 7058   4.682   1.824  13.617 -1.1567  0.0211  0.5681
  474TMC3    H2 7059   4.718   2.240  13.723  0.6526 -1.8488  1.5311
  474TMC3    C7 7060   0.011   1.981  13.818 -0.0186 -0.6790  0.3623
  474TMC3    C8 7061   4.645   2.332  13.487 -0.0755 -0.6137  0.4203
  474TMC3    O1 7062   0.005   2.064  13.908 -0.3006  0.1765  0.2107
  474TMC3    O2 7063   4.563   2.347  13.396 -0.1775  0.1464  0.2420
  475MPD2     C 7064   3.226   4.186   9.924 -0.7549  0.1508 -0.2083
  475MPD2    C1 7065   3.215   4.320   9.963  0.2532  0.5511  0.7423
  475MPD2    C2 7066   3.108   4.356  10.036  0.3944 -0.5966  0.2135
  475MPD2    C3 7067   3.001   4.273  10.054 -0.1565 -0.4270 -0.2130
  475MPD2    C4 7068   3.004   4.142  10.008 -0.0407  0.3439 -0.0664
  475MPD2    C5 7069   3.121   4.097   9.950 -1.1012  0.1537  1.0869
  475MPD2     H 7070   3.085   4.460  10.059 -1.0174 -0.1063 -3.3874
  475MPD2    H1 7071   2.927   4.068  10.024  0.5601 -0.2521  0.0749
  475MPD2    H2 7072   3.311   4.148   9.868 -1.3986 -0.1190 -0.9984
  475MPD2    H3 7073   3.126   3.991   9.930  0.9183  0.7913 -1.8352
  475MPD2     N 7074   2.887   4.326  10.122 -0.1099 -0.0921  0.2418
  475MPD2    H5 7075   2.899   4.420  10.158 -0.5935  0.6074 -1.3973
  475MPD2    N1 7076   3.305   4.419   9.924  0.5130  0.0989  0.3266
  475MPD2    H7 7077   3.292   4.515   9.952  2.3294  0.5296 -0.2690
  476TMC3    C1 7078   3.458   4.532   9.800  0.1042  0.4728 -0.0692
  476TMC3    C2 7079   3.364   4.589   9.723 -0.4779 -0.6993  0.0649
  476TMC3    C3 7080   3.340   0.001   9.751  0.0067 -0.0776  0.3673
  476TMC3    C4 7081   3.531   4.604   9.892  0.5231  0.4223  0.3238
  476TMC3    C5 7082   3.515   0.013   9.903 -0.2919 -0.0825  0.3667
  476TMC3    C6 7083   3.416   0.076   9.836 -0.2717  0.2892  0.1985
  476TMC3     C 7084   3.412   4.403   9.843 -0.4581  0.8886 -1.2150
  476TMC3     O 7085   3.416   4.322   9.752  0.4477 -0.3219  0.2259
  476TMC3     H 7086   3.309   4.538   9.644 -2.2007 -1.9317  2.0708
  476TMC3    H1 7087   3.585   4.543   9.963 -1.2339 -0.2800  1.0778
  476TMC3    H2 7088   3.389   0.179   9.859  0.0854  0.2680  0.7005
  476TMC3    C7 7089   3.570   0.073  10.028  0.0038  0.2538  0.5256
  476TMC3    C8 7090   3.193   0.028   9.771  0.2351  0.1632 -0.3237
  476TMC3    O1 7091   3.676   0.016  10.060  0.0477  0.4107 -0.3146
  476TMC3    O2 7092   3.163   0.146   9.792 -0.0570 -0.1107  0.0813
  477MPD2     C 7093   4.591   1.074  11.725  0.1668  0.6872  0.1208
  477MPD2    C1 7094   4.707   1.105  11.647  0.4548 -0.1208  0.2127
  477MPD2    C2 7095   0.103   1.033  11.674 -0.5767  1.0542 -0.1044
  477MPD2    C3 7096   0.106   0.936  11.776  0.5495  0.5791 -0.6631
  477MPD2    C4 7097   4.714   0.907  11.850 -0.2388  0.5352 -0.1372
  477MPD2    C5 7098   4.601   0.976  11.819  0.0175  0.6738 -0.3328
  477MPD2     H 7099   0.194   1.062  11.623 -0.8184  1.0433 -0.5439
  477MPD2    H1 7100   4.709   0.837  11.933 -0.3402  0.0305 -0.5658
  477MPD2    H2 7101   4.497   1.121  11.699 -0.4027 -1.5245 -1.7465
  477MPD2    H3 7102   4.508   0.953  11.870 -0.0551  1.4715 -0.1016
  477MPD2     N 7103   0.222   0.861  11.803  0.7520  0.7556 -0.4911
  477MPD2    H5 7104   0.217   0.806  11.889 -0.9948 -0.9941 -1.7124
  477MPD2    N1 7105   4.704   1.224  11.571 -0.0381 -0.4430  0.6274
  477MPD2    H7 7106   4.615   1.272  11.579 -0.7484 -1.5034 -0.8231
  478TMC3    C1 7107   0.038   1.380  11.408 -0.2811  0.4050  0.1426
  478TMC3    C2 7108   4.679   1.470  11.463 -0.0592 -0.0817 -0.0091
  478TMC3    C3 7109   4.653   1.592  11.402 -0.2293 -0.0572 -0.0033
  478TMC3    C4 7110   0.091   1.399  11.287 -0.3040 -0.6337 -0.7348
  478TMC3    C5 7111   0.051   1.512  11.218 -0.6961  0.1587  0.7548
  478TMC3    C6 7112   4.693   1.608  11.268 -0.3138  0.2120  0.1881
  478TMC3     C 7113   0.063   1.253  11.472 -0.5941 -0.2688 -0.7815
  478TMC3     O 7114   0.145   1.179  11.417  0.2913  0.4318 -0.5715
  478TMC3     H 7115   4.637   1.451  11.561  0.5426  0.7570  0.4100
  478TMC3    H1 7116   0.163   1.323  11.257  0.1549 -0.3261 -0.4120
  478TMC3    H2 7117   4.660   1.697  11.216  1.9334  0.3662 -0.9460
  478TMC3    C7 7118   0.118   1.530  11.092  0.6698  0.6592 -0.1430
  478TMC3    C8 7119   4.527   1.648  11.440  0.6528  0.6788  0.2589
  478TMC3    O1 7120   0.208   1.452  11.061 -0.5511 -0.4986 -0.2287
  478TMC3    O2 7121   4.454   1.583  11.513 -0.6724  0.3252 -0.2414
  479MPD2     C 7122   4.646   3.316  14.619  0.5362 -0.1769  0.1736
  479MPD2    C1 7123   4.592   3.267  14.740  0.1738 -0.5805 -0.0362
  479MPD2    C2 7124   4.641   3.326  14.858 -0.2399 -0.3862 -0.0182
  479MPD2    C3 7125   0.015   3.429  14.854  0.4354 -1.2141  0.3136
  479MPD2    C4 7126   0.062   3.475  14.735 -0.6240 -0.1033 -0.4063
  479MPD2    C5 7127   0.021   3.412  14.623  0.6135  0.3705 -0.0323
  479MPD2     H 7128   4.584   3.307  14.948  0.3041  0.8952  0.5940
  479MPD2    H1 7129   0.128   3.561  14.731 -0.2787 -0.2542  1.9373
  479MPD2    H2 7130   4.608   3.296  14.520  0.3629 -0.4537  0.2980
  479MPD2    H3 7131   0.060   3.454  14.531  0.1218  0.8110 -0.0410
  479MPD2     N 7132   0.034   3.507  14.971 -0.0012 -0.2419 -0.5711
  479MPD2    H5 7133   0.076   3.599  14.961  0.2452 -0.1897  1.0417
  479MPD2    N1 7134   4.466   3.200  14.747 -0.7881  0.6227  0.0360
  479MPD2    H7 7135   4.421   3.196  14.656  0.4130  1.4212 -0.5962
  480TMC3    C1 7136   4.565   3.557  15.377 -0.4084 -0.3394 -0.1260
  480TMC3    C2 7137   4.488   3.648  15.304  0.4514  0.0003 -0.5391
  480TMC3    C3 7138   4.541   3.712  15.198  0.0612  0.5987  0.7826
  480TMC3    C4 7139   4.681   3.515  15.321 -0.4191 -0.2591  0.4141
  480TMC3    C5 7140   0.000   3.561  15.199  0.0910  0.3904 -0.6127
  480TMC3    C6 7141   4.662   3.675  15.145  0.2904  0.6011 -0.4111
  480TMC3     C 7142   4.518   3.491  15.500  0.1113  0.2548 -0.0717
  480TMC3     O 7143   4.592   3.409  15.558  0.0571  0.7118 -0.5971
  480TMC3     H 7144   4.398   3.691  15.347  0.3686  0.0507 -0.7636
  480TMC3    H1 7145   4.720   3.416  15.343  0.3683 -0.2324 -0.8723
  480TMC3    H2 7146   4.704   3.726  15.059  0.7415  0.5591 -0.2137
  480TMC3    C7 7147   0.024   3.457  15.094  0.0760  0.0190 -0.2433
  480TMC3    C8 7148   4.444   3.737  15.088  0.3770 -0.9548 -0.8530
  480TMC3    O1 7149   0.004   3.341  15.124 -0.5530 -0.6808  0.3397
  480TMC3    O2 7150   4.337   3.784  15.123  0.0393  0.1951  0.8913
  481MPD2     C 7151   1.447   2.999  14.312  0.7791 -0.7939 -0.0097
  481MPD2    C1 7152   1.327   2.929  14.298  0.6616  0.0494 -0.9143
  481MPD2    C2 7153   1.259   2.885  14.416  0.6482  0.3922  0.0215
  481MPD2    C3 7154   1.299   2.925  14.545  0.1044  0.2513 -0.3645
  481MPD2    C4 7155   1.413   2.997  14.554 -0.0144 -0.2182 -0.5977
  481MPD2    C5 7156   1.489   3.029  14.440 -0.1823 -0.0980  0.0271
  481MPD2     H 7157   1.162   2.840  14.397  0.6760 -0.7566  2.5561
  481MPD2    H1 7158   1.437   3.046  14.647  1.4965 -1.2907 -0.4157
  481MPD2    H2 7159   1.500   3.033  14.224 -0.7459 -1.9967 -1.3976
  481MPD2    H3 7160   1.577   3.090  14.457 -0.6336  0.2367  1.1840
  481MPD2     N 7161   1.225   2.898  14.665 -0.0218  0.8371 -0.0701
  481MPD2    H5 7162   1.269   2.921  14.754  0.1925  0.6583 -0.1313
  481MPD2    N1 7163   1.278   2.913  14.163  0.0604 -0.6252 -0.1410
  481MPD2    H7 7164   1.334   2.958  14.092 -0.2692  2.2810  1.4456
  482TMC3    C1 7165   1.133   2.838  13.986 -0.2843 -0.0242  0.1262
  482TMC3    C2 7166   1.051   2.736  13.937 -0.2421 -0.3348 -0.3408
  482TMC3    C3 7167   0.972   2.757  13.829  0.6131 -0.1650 -0.2547
  482TMC3    C4 7168   1.137   2.955  13.916 -0.3756  0.5541  0.5390
  482TMC3    C5 7169   1.058   2.973  13.796  0.4216  0.1817 -0.0368
  482TMC3    C6 7170   0.971   2.876  13.761 -0.4758  0.1281 -0.4246
  482TMC3     C 7171   1.180   2.827  14.127  0.4157  1.1888  0.0662
  482TMC3     O 7172   1.144   2.727  14.194 -0.6932  0.9577 -0.0492
  482TMC3     H 7173   1.041   2.649  14.001  0.2340 -1.2207 -1.4581
  482TMC3    H1 7174   1.207   3.033  13.940 -0.5265  0.4340  1.3712
  482TMC3    H2 7175   0.901   2.879  13.679 -0.6200 -0.2526 -0.3145
  482TMC3    C7 7176   1.079   3.087  13.713  1.3865  0.1730 -0.1846
  482TMC3    C8 7177   0.860   2.668  13.814  0.4406  0.1369  0.8720
  482TMC3    O1 7178   1.132   3.181  13.766 -0.4816  0.0119 -0.2287
  482TMC3    O2 7179   0.875   2.548  13.842  0.1990  0.1772  0.8091
  483TMC3    C1 7180   3.486   1.738   0.753  0.0978  0.0040  0.2870
  483TMC3    C2 7181   3.569   1.842   0.779 -0.2625  0.6001 -0.1502
  483TMC3    C3 7182   3.601   1.868   0.910 -0.5574  0.4222  0.1271
  483TMC3    C4 7183   3.429   1.662   0.850 -0.3697  0.4487  0.1478
  483TMC3    C5 7184   3.451   1.695   0.979  0.4694  0.3715  0.5430
  483TMC3    C6 7185   3.540   1.794   1.008  0.4098 -0.2247 -0.3867
  483TMC3     C 7186   3.483   1.686   0.616 -1.2162  0.2804  0.2549
  483TMC3     O 7187   3.494   1.768   0.530  0.2636 -0.3650  0.6014
  483TMC3     H 7188   3.611   1.899   0.697  0.5781 -0.0238 -0.1543
  483TMC3    H1 7189   3.363   1.581   0.821 -1.0552  1.1868 -0.3475
  483TMC3    H2 7190   3.564   1.813   1.113  0.8613  1.7264 -0.8360
  483TMC3    C7 7191   3.444   1.590   1.078 -0.0727 -0.3306  0.2629
  483TMC3    C8 7192   3.736   1.919   0.930  0.3733  0.1453 -0.0139
  483TMC3    O1 7193   3.482   1.480   1.038  0.0324 -0.1585 -0.0362
  483TMC3    O2 7194   3.807   1.935   0.830  0.3824  0.4312 -0.0435
  484MPD2     C 7195   1.547   0.046  12.750  0.9040  0.1671  0.9156
  484MPD2    C1 7196   1.549   4.635  12.742 -0.7058  0.1409 -1.1410
  484MPD2    C2 7197   1.656   4.571  12.691  0.1893 -1.0698  0.1421
  484MPD2    C3 7198   1.758   4.646  12.642 -0.2039  0.4734  0.2171
  484MPD2    C4 7199   1.755   0.058  12.631 -0.0331 -0.0493  0.5300
  484MPD2    C5 7200   1.652   0.125  12.696 -0.2647  0.3680 -0.8370
  484MPD2     H 7201   1.667   4.463  12.683 -0.0486 -1.0406 -0.6140
  484MPD2    H1 7202   1.837   0.110  12.582  0.3683  0.5020  1.7866
  484MPD2    H2 7203   1.456   0.090  12.789  0.0923 -0.9440  0.2827
  484MPD2    H3 7204   1.641   0.233  12.696 -1.2429  0.2590  0.4866
  484MPD2     N 7205   1.882   4.587  12.596 -0.7510  1.0554 -0.1085
  484MPD2    H5 7206   1.945   4.650  12.548  0.4801 -0.2079 -0.1606
  484MPD2    N1 7207   1.428   4.569  12.771 -0.1752  0.2306  0.5822
  484MPD2    H7 7208   1.341   4.622  12.768  0.3846  1.0987 -0.0159
  485TMC3    C1 7209   2.056   4.442  12.567 -0.2215 -0.6102  0.1597
  485TMC3    C2 7210   2.098   4.337  12.492  0.4576 -0.3603 -0.1299
  485TMC3    C3 7211   2.231   4.319  12.487 -1.3534  0.3136  0.9127
  485TMC3    C4 7212   2.137   4.532  12.638  0.5297 -0.2548 -0.1541
  485TMC3    C5 7213   2.275   4.516  12.620  0.1876  0.1600 -0.0851
  485TMC3    C6 7214   2.318   4.399  12.562  0.0274 -0.0642  0.1945
  485TMC3     C 7215   1.912   4.455  12.574 -0.1216 -0.2149 -0.1507
  485TMC3     O 7216   1.849   4.347  12.562 -0.4445 -0.1048  0.3867
  485TMC3     H 7217   2.025   4.283  12.434 -0.8799  0.9265  0.3513
  485TMC3    H1 7218   2.099   4.597  12.716 -0.0901 -1.7980  0.8255
  485TMC3    H2 7219   2.424   4.385  12.548  0.4507  2.4712  0.7665
  485TMC3    C7 7220   2.350   4.632  12.591 -0.0452 -0.0857  0.0169
  485TMC3    C8 7221   2.287   4.295  12.358 -0.4189  0.4127 -0.5135
  485TMC3    O1 7222   2.323   0.009  12.655  0.3106  0.3147  0.2888
  485TMC3    O2 7223   2.381   4.368  12.334  0.1372 -0.0593 -0.0243
  486MPD2     C 7224   3.473   3.573  12.543 -0.2429  1.2381 -0.2999
  486MPD2    C1 7225   3.417   3.486  12.450  0.5472 -0.4004  0.1508
  486MPD2    C2 7226   3.372   3.531  12.330  0.5192  0.4034  0.3587
  486MPD2    C3 7227   3.380   3.669  12.302 -0.0849  0.2101 -0.2070
  486MPD2    C4 7228   3.444   3.750  12.386  0.0814  0.4231  0.1608
  486MPD2    C5 7229   3.473   3.705  12.516  0.7487  0.1711  0.4514
  486MPD2     H 7230   3.310   3.469  12.265  0.0837  1.8139 -0.5619
  486MPD2    H1 7231   3.460   3.856  12.368 -0.8369  0.6302  0.5976
  486MPD2    H2 7232   3.496   3.549  12.646 -0.2746  0.1055 -0.5489
  486MPD2    H3 7233   3.520   3.773  12.586  1.9291 -0.2144  0.0364
  486MPD2     N 7234   3.313   3.722  12.190  0.2121 -0.3092 -0.0880
  486MPD2    H5 7235   3.251   3.660  12.139  1.6584 -1.3533 -0.5815
  486MPD2    N1 7236   3.423   3.346  12.490  0.6556 -0.3295 -0.3158
  486MPD2    H7 7237   3.468   3.336  12.580 -0.1128  0.0049  0.1012
  487TMC3    C1 7238   3.366   3.123  12.498  0.3766  0.5230  0.7808
  487TMC3    C2 7239   3.304   3.016  12.434 -0.1960  0.0209  0.0814
  487TMC3    C3 7240   3.335   2.891  12.474 -0.0981  0.6759 -0.5711
  487TMC3    C4 7241   3.446   3.100  12.603  0.2294  0.0322  0.8251
  487TMC3    C5 7242   3.476   2.976  12.649 -0.6309  0.3551 -0.0874
  487TMC3    C6 7243   3.426   2.866  12.574 -0.2175  0.4122 -0.4297
  487TMC3     C 7244   3.371   3.240  12.419  0.5563 -0.2860 -0.5858
  487TMC3     O 7245   3.323   3.234  12.305  0.8590 -0.3035  0.1800
  487TMC3     H 7246   3.228   3.033  12.359  0.0251  3.0948  0.5529
  487TMC3    H1 7247   3.499   3.179  12.655  0.2379  0.6001 -0.0613
  487TMC3    H2 7248   3.488   2.778  12.563  0.4409  0.7737  0.3376
  487TMC3    C7 7249   3.492   2.963  12.797  0.0531  0.8498 -0.1146
  487TMC3    C8 7250   3.303   2.786  12.380  1.0375 -0.2496 -1.0691
  487TMC3    O1 7251   3.535   3.058  12.864 -0.0835  0.5954  0.4949
  487TMC3    O2 7252   3.330   2.805  12.263 -0.4900 -0.2241 -0.1145
  488MPD2     C 7253   4.294   0.337  16.199 -0.4947  0.4985  0.1298
  488MPD2    C1 7254   4.356   0.446  16.254 -0.2588 -0.5178 -0.1098
  488MPD2    C2 7255   4.338   0.472  16.392  0.8154  0.2299  0.1293
  488MPD2    C3 7256   4.290   0.382  16.478  1.1781  0.1154 -0.6530
  488MPD2    C4 7257   4.244   0.260  16.417  1.2144 -0.3583 -1.2824
  488MPD2    C5 7258   4.242   0.250  16.284  0.0730 -0.6123 -0.0934
  488MPD2     H 7259   4.381   0.565  16.426  0.9338  0.1071  0.3193
  488MPD2    H1 7260   4.198   0.188  16.484  2.1831 -1.8108 -2.1817
  488MPD2    H2 7261   4.293   0.310  16.094  2.5412  0.0383  0.2307
  488MPD2    H3 7262   4.209   0.155  16.243  0.9892 -1.0826  0.2573
  488MPD2     N 7263   4.284   0.407  16.618  0.9438 -0.7383 -0.5753
  488MPD2    H5 7264   4.321   0.493  16.657 -1.1086 -0.1394  0.0639
  488MPD2    N1 7265   4.407   0.556  16.172 -0.6047  0.5248  0.2388
  488MPD2    H7 7266   4.452   0.630  16.225 -1.9306  0.3254  1.6408
  489TMC3    C1 7267   4.210   0.386  16.845  1.1667 -0.4319  0.3717
  489TMC3    C2 7268   4.199   0.523  16.846  0.6408 -0.0439 -0.0092
  489TMC3    C3 7269   4.138   0.588  16.949 -0.2606  0.0891 -0.1284
  489TMC3    C4 7270   4.166   0.310  16.953  0.1555 -0.0946 -0.2365
  489TMC3    C5 7271   4.103   0.379  17.049 -0.3013 -0.1557 -0.1270
  489TMC3    C6 7272   4.081   0.510  17.043  0.3318 -0.1136  0.1591
  489TMC3     C 7273   4.246   0.317  16.721 -0.2149  0.1136  0.4794
  489TMC3     O 7274   4.235   0.195  16.717 -0.0658  0.2673 -0.3424
  489TMC3     H 7275   4.231   0.591  16.767  0.3259  0.2333  0.1012
  489TMC3    H1 7276   4.179   0.203  16.954  1.8227  0.1156 -0.1048
  489TMC3    H2 7277   3.999   0.549  17.102  0.9874  0.4414  0.7034
  489TMC3    C7 7278   4.026   0.295  17.129  0.1579 -0.0039  0.1497
  489TMC3    C8 7279   4.135   0.733  16.961 -0.6553 -0.3519 -0.2578
  489TMC3    O1 7280   3.912   0.331  17.147  0.0442  0.2063  0.7990
  489TMC3    O2 7281   4.158   0.792  16.851  0.0048  0.3235 -0.6509
  490MPD2     C 7282   0.346   0.132  17.241 -0.0254 -0.4996  0.9529
  490MPD2    C1 7283   0.389   0.005  17.220  0.2982 -0.1798  0.3888
  490MPD2    C2 7284   0.524   4.703  17.230 -0.2830  0.2165 -0.5710
  490MPD2    C3 7285   0.614   0.076  17.267  0.5326  0.7031  0.0614
  490MPD2    C4 7286   0.569   0.196  17.297  0.3012 -0.7713  0.5729
  490MPD2    C5 7287   0.436   0.223  17.289  0.1850 -0.4541  0.5563
  490MPD2     H 7288   0.562   4.603  17.215  0.0623  0.5999 -2.2818
  490MPD2    H1 7289   0.640   0.273  17.325 -1.5189  1.1398 -0.0633
  490MPD2    H2 7290   0.239   0.144  17.223  0.2678 -1.0149 -1.1701
  490MPD2    H3 7291   0.397   0.321  17.315  2.4208  1.0439 -1.6651
  490MPD2     N 7292   0.750   0.054  17.284 -0.2261 -0.0003 -0.5852
  490MPD2    H5 7293   0.809   0.133  17.311 -0.9899  0.1615  0.6450
  490MPD2    N1 7294   0.304   4.614  17.185 -0.0696  0.1088 -0.2369
  490MPD2    H7 7295   0.339   4.520  17.199 -0.2515  0.3159  1.7081
  491TMC3    C1 7296   0.091   4.503  17.124  0.5723 -0.1892 -0.4884
  491TMC3    C2 7297   0.127   4.394  17.197 -0.2911  0.8247 -0.4972
  491TMC3    C3 7298   0.066   4.275  17.169  0.5781  0.4840 -0.3016
  491TMC3    C4 7299   4.716   4.494  17.036 -0.1664 -0.2734 -0.0543
  491TMC3    C5 7300   4.665   4.371  17.006  0.2706 -0.6247 -0.1407
  491TMC3    C6 7301   4.707   4.261  17.069 -0.1754 -0.2176 -0.0979
  491TMC3     C 7302   0.175   4.625  17.127 -0.0026  0.4734  0.1130
  491TMC3     O 7303   0.119   0.001  17.091  0.3159  0.5078 -0.2337
  491TMC3     H 7304   0.206   4.392  17.272  0.6577 -1.0678 -1.5450
  491TMC3    H1 7305   4.676   4.586  16.993 -0.6790 -0.4853 -0.0291
  491TMC3    H2 7306   4.665   4.165  17.039  1.0017 -0.0580 -2.2616
  491TMC3    C7 7307   4.603   4.340  16.875  0.3539  0.7924 -0.0508
  491TMC3    C8 7308   0.080   4.168  17.274 -0.1294  0.0271 -0.3991
  491TMC3    O1 7309   4.540   4.235  16.873  0.2160  0.3946 -0.0255
  491TMC3    O2 7310   0.119   4.206  17.383 -0.1365  0.1600  0.4743
  492MPD2     C 7311   0.335   0.214  11.010  0.4281  0.1324 -0.2086
  492MPD2    C1 7312   0.222   0.173  10.942 -0.0863  0.5217  0.3025
  492MPD2    C2 7313   0.117   0.104  11.002 -0.6640  0.6416 -0.3443
  492MPD2    C3 7314   0.129   0.094  11.141 -0.0801 -0.6026  0.2167
  492MPD2    C4 7315   0.247   0.129  11.206  0.1948  0.2386 -0.7368
  492MPD2    C5 7316   0.344   0.189  11.146 -0.5027  0.0853  0.4555
  492MPD2     H 7317   0.032   0.062  10.950  0.2585 -1.8187  0.1278
  492MPD2    H1 7318   0.255   0.090  11.307  1.1984 -0.5143 -1.1132
  492MPD2    H2 7319   0.422   0.258  10.963  1.3931 -1.2759  0.2808
  492MPD2    H3 7320   0.429   0.219  11.206 -0.4212  0.1888  0.2851
  492MPD2     N 7321   0.025   0.045  11.221 -0.2089  0.3469  0.6062
  492MPD2    H5 7322   0.048   0.021  11.317 -3.6153 -0.9513  1.1081
  492MPD2    N1 7323   0.226   0.201  10.803 -0.2821 -0.0341  0.1466
  492MPD2    H7 7324   0.316   0.241  10.776 -0.1015 -0.5461 -0.0256
  493TMC3    C1 7325   0.161   0.232  10.587 -0.0200 -0.3868 -0.9407
  493TMC3    C2 7326   0.234   0.346  10.584  0.3707 -0.0016 -0.1738
  493TMC3    C3 7327   0.249   0.411  10.466  0.1266  0.0684 -0.6119
  493TMC3    C4 7328   0.090   0.183  10.474 -0.0754  0.3879 -0.1627
  493TMC3    C5 7329   0.118   0.246  10.355  0.1682  0.0231 -0.4922
  493TMC3    C6 7330   0.185   0.370  10.352  0.2335 -0.3857  0.0951
  493TMC3     C 7331   0.126   0.170  10.713  0.1725  0.1352 -0.4112
  493TMC3     O 7332   0.024   0.105  10.730 -0.2454 -0.2402  0.3057
  493TMC3     H 7333   0.273   0.393  10.674  0.8319  0.2134 -0.4878
  493TMC3    H1 7334   0.040   0.088  10.483  0.3297  0.3730  2.0535
  493TMC3    H2 7335   0.190   0.428  10.260 -0.3431  0.4099  0.5586
  493TMC3    C7 7336   0.047   0.195  10.237  0.0795  0.2103  0.3731
  493TMC3    C8 7337   0.330   0.535  10.473 -0.3611 -0.1083 -0.4031
  493TMC3    O1 7338   4.685   0.111  10.252 -0.2449  0.1794 -0.1434
  493TMC3    O2 7339   0.349   0.572  10.587  0.2382 -0.0821 -0.2921
  494TMC3    C1 7340   1.162   1.368   0.799  0.0581 -0.3309  0.7912
  494TMC3    C2 7341   1.262   1.284   0.805  0.1451  0.0424  0.1548
  494TMC3    C3 7342   1.349   1.272   0.700  0.0063 -0.2304  0.0796
  494TMC3    C4 7343   1.142   1.457   0.698 -0.0032  0.6174 -1.1052
  494TMC3    C5 7344   1.239   1.455   0.594  0.4248 -0.1366  0.3874
  494TMC3    C6 7345   1.336   1.362   0.599 -0.0657 -0.6830  0.6183
  494TMC3     C 7346   1.068   1.364   0.909  0.2366 -0.2494  0.6414
  494TMC3     O 7347   1.105   1.315   1.012 -0.1059 -0.3766 -0.0077
  494TMC3     H 7348   1.270   1.202   0.876  0.4513  0.4643  0.6090
  494TMC3    H1 7349   1.073   1.538   0.714 -1.3117 -1.0524  1.6529
  494TMC3    H2 7350   1.402   1.358   0.512 -0.2717 -0.9631  0.4746
  494TMC3    C7 7351   1.201   1.490   0.458  0.5940 -0.1981  0.1565
  494TMC3    C8 7352   1.436   1.158   0.688 -0.1256 -0.2800  0.3341
  494TMC3    O1 7353   1.244   1.421   0.369 -0.4389 -0.2510  0.0947
  494TMC3    O2 7354   1.530   1.177   0.608 -0.0777  0.5233 -0.0597
  495TMC3    C1 7355   0.007   3.560  14.142 -0.8540  0.2347  0.1177
  495TMC3    C2 7356   4.657   3.623  14.052  0.2228 -0.4509  0.5164
  495TMC3    C3 7357   4.552   3.702  14.093  0.2581 -0.1337  0.6881
  495TMC3    C4 7358   4.720   3.584  14.271 -0.1421 -0.0057 -0.0973
  495TMC3    C5 7359   4.615   3.668  14.312  0.4091  0.0411  0.7345
  495TMC3    C6 7360   4.526   3.716  14.225 -0.4341 -0.0362 -0.1716
  495TMC3     C 7361   0.017   3.420  14.108  0.9017  0.5385  0.1593
  495TMC3     O 7362   4.679   3.384  14.007  0.1847  0.2375 -0.3282
  495TMC3     H 7363   4.672   3.608  13.946  3.5523  1.7796  0.6496
  495TMC3    H1 7364   0.058   3.552  14.354 -1.8189 -1.7645  0.5047
  495TMC3    H2 7365   4.437   3.769  14.254 -0.4930  0.1150 -0.6232
  495TMC3    C7 7366   4.585   3.680  14.455  0.4914  0.6587 -0.4194
  495TMC3    C8 7367   4.428   3.659  14.022 -0.7751 -0.3594 -0.6523
  495TMC3    O1 7368   4.677   3.666  14.538  0.3055  0.1145 -0.1040
  495TMC3    O2 7369   4.322   3.717  14.041  0.5409 -0.3858  0.3473
  496MPD2     C 7370   1.483   3.800  15.291  0.1097 -1.0787  0.4233
  496MPD2    C1 7371   1.545   3.680  15.308 -0.4581  0.0905  0.0417
  496MPD2    C2 7372   1.528   3.613  15.427 -0.0382 -0.8413 -0.1135
  496MPD2    C3 7373   1.433   3.650  15.522 -0.1737  0.0628 -0.0318
  496MPD2    C4 7374   1.372   3.772  15.497  0.3622 -0.6609  0.3928
  496MPD2    C5 7375   1.407   3.846  15.389 -0.7194  0.1165 -0.1081
  496MPD2     H 7376   1.581   3.524  15.461 -1.2036 -0.6107  2.2924
  496MPD2    H1 7377   1.306   3.823  15.566  0.2765  0.5894 -0.6229
  496MPD2    H2 7378   1.495   3.863  15.204  1.1873 -0.0823  1.2968
  496MPD2    H3 7379   1.375   3.950  15.386 -0.5822  0.1602 -0.0537
  496MPD2     N 7380   1.403   3.571  15.632  0.5537 -0.2585  0.2165
  496MPD2    H5 7381   1.433   3.474  15.631  0.8239 -0.1745  0.1427
  496MPD2    N1 7382   1.638   3.634  15.214 -0.1464  0.3087 -0.3728
  496MPD2    H7 7383   1.632   3.683  15.126 -2.4306  0.2328 -0.2633
  497TMC3    C1 7384   1.269   3.493  15.813 -0.2489  0.0430  0.2053
  497TMC3    C2 7385   1.141   3.464  15.791  0.7089  0.3419 -0.2969
  497TMC3    C3 7386   1.104   3.333  15.816  0.1306 -0.1684 -0.6971
  497TMC3    C4 7387   1.357   3.402  15.844 -0.9237  0.8823  0.9304
  497TMC3    C5 7388   1.318   3.277  15.871 -0.6325  0.6640 -0.9802
  497TMC3    C6 7389   1.194   3.240  15.857  0.3555  0.0674 -0.1285
  497TMC3     C 7390   1.321   3.605  15.741  0.1205 -0.1650  0.5689
  497TMC3     O 7391   1.252   3.705  15.757  0.0634  0.0188  0.2674
  497TMC3     H 7392   1.076   3.545  15.760 -0.6669  0.1658  2.0562
  497TMC3    H1 7393   1.460   3.432  15.860 -0.2964 -1.4749  1.2701
  497TMC3    H2 7394   1.175   3.133  15.848  1.3676  0.1258 -2.9796
  497TMC3    C7 7395   1.424   3.179  15.875 -0.5196  0.3322 -0.4813
  497TMC3    C8 7396   0.988   3.274  15.750  0.1502  0.0275  0.1426
  497TMC3    O1 7397   1.392   3.064  15.847 -0.1329 -0.2204  0.0018
  497TMC3    O2 7398   0.961   3.162  15.782 -0.1122  0.3270 -0.5378
  498MPD2     C 7399   2.731   3.280   9.600  0.6038  0.5541  0.1735
  498MPD2    C1 7400   2.681   3.402   9.553  0.4832 -0.1486  0.2829
  498MPD2    C2 7401   2.546   3.429   9.561  0.5686 -0.8404  0.8987
  498MPD2    C3 7402   2.453   3.336   9.613  0.2818  0.0522 -0.6413
  498MPD2    C4 7403   2.500   3.213   9.649  0.2263 -0.0712 -0.0929
  498MPD2    C5 7404   2.636   3.197   9.645  0.0754  0.4550 -0.9678
  498MPD2     H 7405   2.510   3.526   9.531 -0.3613 -0.9236  1.7307
  498MPD2    H1 7406   2.441   3.139   9.702  1.2318 -0.9921 -0.2649
  498MPD2    H2 7407   2.837   3.259   9.613  0.1036 -1.3391  1.1751
  498MPD2    H3 7408   2.681   3.104   9.676  1.1735  0.9607 -1.0321
  498MPD2     N 7409   2.319   3.374   9.630 -0.3756 -0.0431 -0.4719
  498MPD2    H5 7410   2.290   3.463   9.590 -2.5760 -0.5570 -0.0079
  498MPD2    N1 7411   2.765   3.508   9.507  0.1930  0.0194 -0.0430
  498MPD2    H7 7412   2.717   3.592   9.476 -0.3494 -0.9681 -1.8944
  499TMC3    C1 7413   2.953   3.605   9.411 -0.4390 -0.4297 -0.5559
  499TMC3    C2 7414   3.069   3.593   9.339 -0.1236 -0.3145 -0.2710
  499TMC3    C3 7415   3.146   3.702   9.329  0.0757  0.6231 -0.1282
  499TMC3    C4 7416   2.900   3.726   9.444  0.0234  0.0925 -0.0567
  499TMC3    C5 7417   2.977   3.838   9.407  0.5365 -0.0649 -0.3666
  499TMC3    C6 7418   3.097   3.826   9.349  0.2339 -0.3866 -0.2776
  499TMC3     C 7419   2.894   3.487   9.459  0.3924  1.0109  0.2602
  499TMC3     O 7420   2.956   3.386   9.434  0.4151  0.1723  0.1013
  499TMC3     H 7421   3.101   3.501   9.290  1.3339  0.6149 -1.0771
  499TMC3    H1 7422   2.833   3.740   9.527 -0.2638 -0.2032 -0.2347
  499TMC3    H2 7423   3.160   3.913   9.332 -0.1405  0.3930  2.3367
  499TMC3    C7 7424   2.921   3.969   9.424  0.2615 -0.4668 -0.2348
  499TMC3    C8 7425   3.272   3.692   9.262 -1.1343 -0.3622 -0.2089
  499TMC3    O1 7426   2.993   4.066   9.396  0.6407 -0.1646  0.1073
  499TMC3    O2 7427   3.327   3.794   9.217 -0.6211 -0.4074  1.1038
  500MPD2     C 7428   4.458   0.705   9.710  0.8682  0.3519  0.0259
  500MPD2    C1 7429   4.408   0.826   9.656 -0.2563  0.7027 -0.5036
  500MPD2    C2 7430   4.292   0.816   9.573 -0.7226 -1.2405  0.0361
  500MPD2    C3 7431   4.243   0.687   9.548  0.3069  1.1951 -0.2539
  500MPD2    C4 7432   4.292   0.571   9.595 -0.0497 -0.2074 -0.5040
  500MPD2    C5 7433   4.407   0.585   9.675  0.1960  0.1292  0.3476
  500MPD2     H 7434   4.257   0.914   9.542 -1.6183 -1.3790  0.6196
  500MPD2    H1 7435   4.239   0.480   9.570 -2.3318  1.9501 -3.5288
  500MPD2    H2 7436   4.549   0.707   9.768  0.5055 -0.1821  0.6227
  500MPD2    H3 7437   4.449   0.497   9.721  0.8574  0.9785  1.3803
  500MPD2     N 7438   4.126   0.667   9.469  0.0079  0.1634 -0.2207
  500MPD2    H5 7439   4.078   0.578   9.477  0.6142 -0.1063  0.3485
  500MPD2    N1 7440   4.465   0.946   9.691 -0.0659  0.1798 -0.0261
  500MPD2    H7 7441   4.559   0.930   9.727  1.1489  3.0474 -1.9840
  501TMC3    C1 7442   4.510   1.177   9.741 -0.5507  0.0220 -0.2605
  501TMC3    C2 7443   4.497   1.308   9.704 -0.5098 -0.0050  0.7124
  501TMC3    C3 7444   4.576   1.400   9.760  0.2249  0.4814  0.4454
  501TMC3    C4 7445   4.588   1.140   9.848 -0.0997  0.2522  0.2833
  501TMC3    C5 7446   4.648   1.238   9.921  0.4102 -0.5614  0.2894
  501TMC3    C6 7447   4.651   1.367   9.872  0.1505  0.0082  0.2449
  501TMC3     C 7448   4.418   1.078   9.682  0.1971  0.3291 -0.1674
  501TMC3     O 7449   4.315   1.112   9.631  0.0126  0.5700  0.3724
  501TMC3     H 7450   4.433   1.334   9.620  1.2089 -1.4912 -1.0335
  501TMC3    H1 7451   4.587   1.036   9.880 -0.3080 -0.7460 -2.9177
  501TMC3    H2 7452   4.720   1.438   9.914 -0.2101  1.4316 -1.5978
  501TMC3    C7 7453   4.678   1.209  10.063  0.1528  0.0964  0.6338
  501TMC3    C8 7454   4.529   1.535   9.741  0.4363  0.3304  0.5274
  501TMC3    O1 7455   4.663   1.093  10.092 -0.5041 -0.9394  0.2898
  501TMC3    O2 7456   4.427   1.548   9.676  0.4146  0.0186  0.1418
  502TMC3    C1 7457   3.624   3.948  14.624 -0.1080 -0.3081 -0.3535
  502TMC3    C2 7458   3.614   4.022  14.509  1.5167 -0.5020  0.2490
  502TMC3    C3 7459   3.540   4.139  14.505  0.1609 -0.5643 -0.8771
  502TMC3    C4 7460   3.533   3.969  14.717  0.2217 -0.4730  0.4321
  502TMC3    C5 7461   3.442   4.074  14.703  0.2106 -0.0359  0.3626
  502TMC3    C6 7462   3.449   4.165  14.602  0.1692 -0.0937  0.2641
  502TMC3     C 7463   3.755   3.934  14.671  0.6454  0.1686 -0.6947
  502TMC3     O 7464   3.844   3.902  14.593 -0.5328 -0.1126 -0.2384
  502TMC3     H 7465   3.692   3.990  14.441  1.7090  1.1778 -0.3167
  502TMC3    H1 7466   3.541   3.902  14.802 -0.8183 -1.0203  0.0981
  502TMC3    H2 7467   3.403   4.262  14.614 -0.8907 -0.5729  0.0195
  502TMC3    C7 7468   3.401   4.139  14.821 -0.4356  0.3929  0.2975
  502TMC3    C8 7469   3.599   4.261  14.444 -0.1004  0.5349  0.5089
  502TMC3    O1 7470   3.475   4.118  14.916  0.0912  0.2171  0.1105
  502TMC3    O2 7471   3.530   4.362  14.446 -0.1219  0.0737 -0.1135
  503MPD2     C 7472   1.181   0.343  16.639 -0.3892  0.0193 -0.1786
  503MPD2    C1 7473   1.200   0.318  16.771 -0.0548  0.2511 -0.7668
  503MPD2    C2 7474   1.280   0.208  16.814 -0.1266 -0.3779 -0.0827
  503MPD2    C3 7475   1.351   0.137  16.720  0.0051  0.2361  0.4339
  503MPD2    C4 7476   1.324   0.158  16.588 -0.1666  0.4825  0.3929
  503MPD2    C5 7477   1.239   0.257  16.552 -0.1129 -0.2609  0.2275
  503MPD2     H 7478   1.277   0.192  16.921  0.5138 -1.1345 -0.1759
  503MPD2    H1 7479   1.370   0.103  16.506  2.3597 -2.0228  3.4451
  503MPD2    H2 7480   1.113   0.416  16.597  0.8929  0.8930 -0.7413
  503MPD2    H3 7481   1.208   0.279  16.451 -0.0853 -0.7484  0.1124
  503MPD2     N 7482   1.454   0.045  16.761 -0.2111 -0.0621  0.1841
  503MPD2    H5 7483   1.469   0.035  16.861  0.5864 -0.8005 -0.0134
  503MPD2    N1 7484   1.148   0.395  16.876  0.0192  0.4705 -0.0482
  503MPD2    H7 7485   1.168   0.361  16.970 -1.4843  1.3674  0.5836
  504TMC3    C1 7486   1.633   4.615  16.758  0.2218 -0.4070 -0.2729
  504TMC3    C2 7487   1.643   4.629  16.893 -0.2315 -0.0753 -0.1107
  504TMC3    C3 7488   1.729   4.541  16.956 -0.0181  0.1175  0.4814
  504TMC3    C4 7489   1.699   4.519  16.692 -0.2297 -0.1125 -0.3319
  504TMC3    C5 7490   1.785   4.437  16.754 -1.1408  0.2991 -0.0113
  504TMC3    C6 7491   1.794   4.441  16.888 -0.1712 -0.0555 -0.3920
  504TMC3     C 7492   1.545   4.693  16.681  0.3047 -0.0097  1.2904
  504TMC3     O 7493   1.538   4.663  16.560 -0.6910 -0.4310 -0.0857
  504TMC3     H 7494   1.598   4.709  16.950  1.2297  0.3765  0.4049
  504TMC3    H1 7495   1.705   4.510  16.584  0.6595 -0.1255 -0.2843
  504TMC3    H2 7496   1.875   4.391  16.939 -0.3922 -0.8734 -0.8436
  504TMC3    C7 7497   1.898   4.387  16.682 -0.2206 -0.5835  0.1295
  504TMC3    C8 7498   1.697   4.526  17.096 -0.0565 -0.2080 -0.7449
  504TMC3    O1 7499   1.942   4.454  16.587  0.4803 -0.1643 -0.3328
  504TMC3    O2 7500   1.595   4.577  17.137  0.3137  0.1620 -0.2274
  505MPD2     C 7501   1.096   4.192   9.285  0.7738  0.0391 -0.2018
  505MPD2    C1 7502   1.097   4.169   9.423 -0.3445 -0.2407 -0.3168
  505MPD2    C2 7503   1.175   4.259   9.502 -0.2177  0.2673 -0.3066
  505MPD2    C3 7504   1.262   4.352   9.443 -0.1776 -0.7830  0.4893
  505MPD2    C4 7505   1.267   4.364   9.308 -0.6522 -0.4675  0.0478
  505MPD2    C5 7506   1.178   4.291   9.229 -0.1095 -0.6068  0.3552
  505MPD2     H 7507   1.158   4.272   9.608  0.6450  0.9905 -0.2556
  505MPD2    H1 7508   1.332   4.430   9.251 -0.5268  1.2097  2.1157
  505MPD2    H2 7509   1.025   4.138   9.223 -0.8716 -0.2668  1.9147
  505MPD2    H3 7510   1.166   4.320   9.126  1.9145 -2.9990 -0.5356
  505MPD2     N 7511   1.350   4.409   9.536 -0.0725  0.1923 -0.1744
  505MPD2    H5 7512   1.324   4.405   9.634 -0.2683 -0.5270 -0.2524
  505MPD2    N1 7513   1.025   4.060   9.474 -0.0770  0.2683 -0.0524
  505MPD2    H7 7514   0.959   4.009   9.416 -0.8295  0.9380  0.2161
  506TMC3    C1 7515   0.956   3.901   9.642 -0.0120  0.6850 -0.1155
  506TMC3    C2 7516   0.965   3.782   9.570  0.4868  0.3827  0.0942
  506TMC3    C3 7517   1.008   3.674   9.637  0.3931  0.6948  0.0732
  506TMC3    C4 7518   0.954   3.895   9.779  0.2024  0.9802 -0.2263
  506TMC3    C5 7519   0.998   3.785   9.846  0.7983 -0.1087 -0.1067
  506TMC3    C6 7520   1.027   3.672   9.772  1.0143  0.3111  0.6123
  506TMC3     C 7521   1.042   4.013   9.604  0.0893  0.0342  0.2386
  506TMC3     O 7522   1.124   4.040   9.687  0.2965 -0.5380 -0.2946
  506TMC3     H 7523   0.982   3.769   9.464 -3.1832  0.9645 -0.5932
  506TMC3    H1 7524   0.927   3.988   9.828 -0.9455 -1.2454  3.3279
  506TMC3    H2 7525   1.062   3.584   9.825  1.0216 -1.4710 -2.3803
  506TMC3    C7 7526   1.072   3.813   9.967  0.2289  0.1639 -0.0473
  506TMC3    C8 7527   1.086   3.575   9.563  0.0963  1.1267  0.6862
  506TMC3    O1 7528   1.069   3.733  10.057  0.6345  0.0605  0.0887
  506TMC3    O2 7529   1.041   3.537   9.451 -0.0678  0.3838  0.3346
  507TMC3    C1 7530   1.748   3.942  13.940  0.5403  0.2838  0.2696
  507TMC3    C2 7531   1.685   3.916  13.828 -0.5174 -0.1992 -0.5527
  507TMC3    C3 7532   1.730   3.984  13.714  0.2157 -0.1714 -0.0553
  507TMC3    C4 7533   1.858   4.031  13.948  0.2502 -0.1146  0.5230
  507TMC3    C5 7534   1.910   4.088  13.834  0.2597  0.0824 -0.0700
  507TMC3    C6 7535   1.845   4.061  13.714 -0.2838  0.5050 -0.3160
  507TMC3     C 7536   1.705   3.864  14.060  0.1177 -0.1783 -0.7525
  507TMC3     O 7537   1.720   3.916  14.170  0.2891  0.2279  0.2528
  507TMC3     H 7538   1.588   3.870  13.816  0.1753 -1.4814 -1.1603
  507TMC3    H1 7539   1.912   4.039  14.041  1.5770 -0.3879 -0.2241
  507TMC3    H2 7540   1.881   4.106  13.622 -2.6675  1.4781 -0.7800
  507TMC3    C7 7541   1.929   4.229  13.856 -0.1845  0.3268 -1.0606
  507TMC3    C8 7542   1.621   4.050  13.642  0.2176  0.3599 -0.0195
  507TMC3    O1 7543   1.867   4.294  13.770 -0.4947  0.0765 -0.1120
  507TMC3    O2 7544   1.526   3.981  13.608 -0.1964 -0.1482  0.5990
  508MPD2     C 7545   3.114   2.059  15.845  0.5551  0.3559  0.1185
  508MPD2    C1 7546   3.207   2.161  15.826 -0.2008 -0.4379 -0.4571
  508MPD2    C2 7547   3.218   2.236  15.713 -0.4401 -0.2819  0.1345
  508MPD2    C3 7548   3.135   2.204  15.607 -0.5119  0.0531  0.0948
  508MPD2    C4 7549   3.042   2.107  15.629  0.5018  0.7506  0.5175
  508MPD2    C5 7550   3.033   2.032  15.744 -0.4244 -0.8726  0.2165
  508MPD2     H 7551   3.282   2.322  15.705 -2.0694  0.7579 -1.5978
  508MPD2    H1 7552   2.975   2.090  15.545  2.3853 -3.4218 -0.1547
  508MPD2    H2 7553   3.105   2.002  15.937 -2.1543  0.1494 -0.2703
  508MPD2    H3 7554   2.953   1.961  15.763 -0.6787 -0.8299 -0.7140
  508MPD2     N 7555   3.139   2.295  15.502  0.5342 -0.5444 -0.1624
  508MPD2    H5 7556   3.194   2.380  15.513  3.3853 -2.6989  2.3212
  508MPD2    N1 7557   3.287   2.172  15.940 -0.1665  0.3037  0.3180
  508MPD2    H7 7558   3.264   2.108  16.015  0.2625  1.3565  1.3315
  509TMC3    C1 7559   3.003   2.570  15.157  0.2677 -0.2082 -0.2131
  509TMC3    C2 7560   3.102   2.656  15.183  0.2477  0.1856 -0.2475
  509TMC3    C3 7561   3.199   2.605  15.267 -0.6844  0.3540  0.0843
  509TMC3    C4 7562   2.985   2.448  15.213  0.7808 -0.2066  0.3387
  509TMC3    C5 7563   3.083   2.405  15.302 -0.2683 -0.7757 -1.3427
  509TMC3    C6 7564   3.198   2.481  15.328  0.0849  0.3097  0.0692
  509TMC3     C 7565   2.888   2.633  15.099  0.4007 -0.1088  0.0739
  509TMC3     O 7566   2.783   2.632  15.160 -1.0251  0.1196  0.2752
  509TMC3     H 7567   3.100   2.762  15.161 -0.5066  0.1878 -0.1786
  509TMC3    H1 7568   2.896   2.386  15.204  1.2926 -0.9639  0.5216
  509TMC3    H2 7569   3.282   2.453  15.389 -0.4927  1.6859  1.5072
  509TMC3    C7 7570   3.046   2.302  15.400  0.3964 -0.3043  0.4494
  509TMC3    C8 7571   3.310   2.697  15.311  0.2870  0.1224 -0.2590
  509TMC3    O1 7572   2.945   2.236  15.373  0.0267 -0.3347 -0.4988
  509TMC3    O2 7573   3.362   2.672  15.417 -0.6941 -0.3528  0.3797
  510MPD2     C 7574   0.709   4.370  14.360 -0.1206  0.6739 -0.4381
  510MPD2    C1 7575   0.825   4.296  14.382  0.2848  0.2845  0.0157
  510MPD2    C2 7576   0.910   4.281  14.271  0.1408 -0.1009 -0.0466
  510MPD2    C3 7577   0.876   4.321  14.153 -0.5707  0.4797 -0.8298
  510MPD2    C4 7578   0.754   4.386  14.133  0.0115 -0.5712 -0.2923
  510MPD2    C5 7579   0.666   4.406  14.232 -0.2743 -0.6934  0.2891
  510MPD2     H 7580   1.008   4.233  14.278  0.6785  0.6105 -2.7890
  510MPD2    H1 7581   0.732   4.419  14.033 -1.9996 -2.6047 -0.5229
  510MPD2    H2 7582   0.634   4.380  14.438 -0.0178 -0.5683 -0.1797
  510MPD2    H3 7583   0.568   4.447  14.213 -0.8123 -1.7657  0.7193
  510MPD2     N 7584   0.971   4.295  14.049  0.0821  0.0187  0.2373
  510MPD2    H5 7585   1.064   4.263  14.075  0.2806 -0.5598 -1.1861
  510MPD2    N1 7586   0.834   4.231  14.506 -0.3412 -0.5566 -0.2548
  510MPD2    H7 7587   0.754   4.240  14.569  0.7644  0.6089  0.9869
  511TMC3    C1 7588   0.929   4.089  14.670 -0.2518  0.3311 -0.2167
  511TMC3    C2 7589   0.828   4.116  14.759  0.5344 -0.2192  0.2187
  511TMC3    C3 7590   0.789   4.023  14.853  0.2592 -0.1485  0.1065
  511TMC3    C4 7591   0.995   3.968  14.683  1.0275  0.3827 -0.3464
  511TMC3    C5 7592   0.933   3.870  14.752  0.0443  0.1316 -0.1145
  511TMC3    C6 7593   0.834   3.890  14.843 -0.0353 -0.1826  0.0936
  511TMC3     C 7594   0.946   4.161  14.542  0.4871  0.3032 -0.1397
  511TMC3     O 7595   1.039   4.123  14.474  0.0608  0.6828 -0.0044
  511TMC3     H 7596   0.780   4.213  14.754  1.0413  0.0968  1.7314
  511TMC3    H1 7597   1.071   3.945  14.609  0.3618  0.7838 -1.1725
  511TMC3    H2 7598   0.784   3.801  14.880 -0.9089  0.5852  0.7669
  511TMC3    C7 7599   0.930   3.739  14.680 -0.0524  0.2471  0.8058
  511TMC3    C8 7600   0.685   4.057  14.947 -0.0742 -0.2315 -0.2959
  511TMC3    O1 7601   0.993   3.736  14.573 -0.5420 -0.4786  0.3742
  511TMC3    O2 7602   0.636   4.170  14.947  0.2844 -0.2401 -0.2164
  512TMC3    C1 7603   4.146   3.366  13.245  0.9197 -0.1864 -0.3651
  512TMC3    C2 7604   4.274   3.326  13.272 -0.2474 -0.8215  0.2841
  512TMC3    C3 7605   4.292   3.188  13.274 -0.2064 -0.3149  0.0451
  512TMC3    C4 7606   4.047   3.276  13.205  0.6339  0.2631 -0.4878
  512TMC3    C5 7607   4.069   3.140  13.213 -0.6969  0.8136 -0.1519
  512TMC3    C6 7608   4.195   3.097  13.247 -0.3937 -0.0776 -0.7465
  512TMC3     C 7609   4.119   3.513  13.230 -0.8986 -0.1775  0.4847
  512TMC3     O 7610   4.020   3.544  13.164 -0.2199  0.2086 -0.0290
  512TMC3     H 7611   4.351   3.393  13.309  0.2492 -0.7019 -0.9455
  512TMC3    H1 7612   3.955   3.309  13.158  0.3169  0.5574  0.3358
  512TMC3    H2 7613   4.207   2.991  13.262 -0.5931  0.1560  1.0136
  512TMC3    C7 7614   3.967   3.046  13.152 -0.4013 -0.3810 -0.0513
  512TMC3    C8 7615   4.428   3.132  13.280 -0.3120  0.6394 -0.7039
  512TMC3    O1 7616   3.849   3.062  13.173 -0.5534 -0.7557 -0.2665
  512TMC3    O2 7617   4.434   3.008  13.264 -0.3380 -0.9648  0.5588
  513MPD2     C 7618   1.220   2.923  13.014 -0.0399 -0.2401 -0.7277
  513MPD2    C1 7619   1.322   2.872  12.936  0.3055 -0.5488  0.2544
  513MPD2    C2 7620   1.434   2.820  13.001  0.8632 -0.1215  0.1919
  513MPD2    C3 7621   1.442   2.829  13.139  0.2270 -0.0737 -0.2195
  513MPD2    C4 7622   1.342   2.879  13.216  0.7439  0.0851  0.7541
  513MPD2    C5 7623   1.237   2.925  13.154 -0.9914  0.1325 -0.1591
  513MPD2     H 7624   1.512   2.771  12.944 -0.7666 -0.2107 -1.9740
  513MPD2    H1 7625   1.345   2.869  13.324 -0.5144  0.5909  0.8299
  513MPD2    H2 7626   1.125   2.949  12.969  1.3210  1.8869 -2.3047
  513MPD2    H3 7627   1.156   2.963  13.216 -1.7877 -2.1341  0.1948
  513MPD2     N 7628   1.560   2.779  13.192 -0.0860 -0.2457  0.1854
  513MPD2    H5 7629   1.638   2.754  13.132 -0.2283 -0.9500  0.2995
  513MPD2    N1 7630   1.312   2.874  12.799  0.2072 -0.2650  0.6972
  513MPD2    H7 7631   1.378   2.808  12.758 -1.2221 -0.5168 -1.2056
  514TMC3    C1 7632   1.268   2.934  12.589 -0.3061 -0.5860  0.4806
  514TMC3    C2 7633   1.288   3.060  12.533  0.1476  0.1707  0.0880
  514TMC3    C3 7634   1.404   3.087  12.465  0.2671  0.4353 -0.0753
  514TMC3    C4 7635   1.358   2.836  12.558  0.0164 -0.1313 -0.5236
  514TMC3    C5 7636   1.482   2.872  12.497 -1.0220  0.5678 -0.8385
  514TMC3    C6 7637   1.504   2.999  12.460 -0.4030 -0.2080 -0.0457
  514TMC3     C 7638   1.218   2.944  12.726 -0.1855  0.5337  0.7686
  514TMC3     O 7639   1.169   3.051  12.761  1.1440 -0.8568 -0.8382
  514TMC3     H 7640   1.206   3.130  12.537  0.2020  0.1151  1.9532
  514TMC3    H1 7641   1.338   2.730  12.571  1.1645 -0.4498 -1.3559
  514TMC3    H2 7642   1.596   3.024  12.409 -1.9918  1.3449 -2.1745
  514TMC3    C7 7643   1.589   2.796  12.560  0.2989 -0.0281  0.0751
  514TMC3    C8 7644   1.415   3.222  12.404 -0.1810 -0.6536  0.3067
  514TMC3    O1 7645   1.544   2.727  12.655  0.5761 -0.4061  0.0564
  514TMC3    O2 7646   1.347   3.310  12.456 -0.0399  0.4662  0.4214
  515MPD2     C 7647   4.505   0.711  14.560  0.2142  0.0858  0.4453
  515MPD2    C1 7648   4.572   0.598  14.514  0.0125 -0.3952  0.2748
  515MPD2    C2 7649   4.701   0.578  14.547 -0.4208  0.7397 -0.0722
  515MPD2    C3 7650   0.040   0.669  14.631 -0.0524  0.8717  0.5594
  515MPD2    C4 7651   4.706   0.779  14.668  0.1176  0.4412  0.6682
  515MPD2    C5 7652   4.579   0.806  14.623 -0.8591 -0.6627 -0.3612
  515MPD2     H 7653   0.031   0.490  14.517 -0.0707  0.3642  1.6882
  515MPD2    H1 7654   0.034   0.848  14.733  2.4692  0.1195 -0.9314
  515MPD2    H2 7655   4.400   0.719  14.534 -0.1786  0.9265  2.2698
  515MPD2    H3 7656   4.528   0.899  14.643  3.3683  1.0695  2.2682
  515MPD2     N 7657   0.171   0.636  14.682 -0.6930 -0.0868  0.7742
  515MPD2    H5 7658   0.208   0.699  14.753  2.0913 -1.9108  0.9516
  515MPD2    N1 7659   4.509   0.491  14.453  0.3542 -0.2222 -0.0305
  515MPD2    H7 7660   4.561   0.405  14.438  0.2229 -0.6586  1.9500
  516TMC3    C1 7661   4.338   0.359  14.368 -0.9980 -0.2421  0.7855
  516TMC3    C2 7662   4.241   0.339  14.277 -0.5514 -0.2557  0.1869
  516TMC3    C3 7663   4.200   0.211  14.244 -0.3190  0.0928  0.6695
  516TMC3    C4 7664   4.393   0.254  14.431  0.3556  0.7731 -0.0196
  516TMC3    C5 7665   4.351   0.127  14.402  0.3368  0.2500 -0.4374
  516TMC3    C6 7666   4.256   0.098  14.296 -0.4447  0.1134 -0.9906
  516TMC3     C 7667   4.378   0.489  14.415  0.8172 -0.7044  0.1385
  516TMC3     O 7668   4.292   0.577  14.405 -0.0513 -0.0669 -0.4238
  516TMC3     H 7669   4.180   0.423  14.247 -1.0115 -0.1356  1.4446
  516TMC3    H1 7670   4.468   0.266  14.508  0.0239  1.8840  0.1184
  516TMC3    H2 7671   4.209   0.003  14.272 -0.1609 -0.3592  0.3033
  516TMC3    C7 7672   4.420   0.013  14.463 -0.4214 -0.3778  0.0504
  516TMC3    C8 7673   4.081   0.203  14.161 -0.2034  0.1226 -1.0907
  516TMC3    O1 7674   4.473   0.032  14.573  0.3728 -0.2715 -0.1826
  516TMC3    O2 7675   3.993   0.119  14.190  0.0772  0.0991  0.6717
  517MPD2     C 7676   4.265   1.745   0.174  0.3807  0.4763 -0.0038
  517MPD2    C1 7677   4.400   1.751   0.193  0.6651  0.4416  0.5918
  517MPD2    C2 7678   4.439   1.805   0.312  1.0734  0.0153 -0.3049
  517MPD2    C3 7679   4.351   1.854   0.408 -0.4393  0.7255 -0.0111
  517MPD2    C4 7680   4.215   1.835   0.380 -0.4348  0.1971  0.0700
  517MPD2    C5 7681   4.176   1.783   0.267 -0.2822  0.2291  0.5398
  517MPD2     H 7682   4.545   1.817   0.332  0.7802  1.1152  0.5934
  517MPD2    H1 7683   4.136   1.862   0.449  0.5697  3.0774  0.0706
  517MPD2    H2 7684   4.219   1.709   0.083 -1.3162  1.8480  0.3124
  517MPD2    H3 7685   4.073   1.756   0.248 -0.3405  0.0468  1.1216
  517MPD2     N 7686   4.382   1.915   0.534 -0.1127  0.2737  0.6658
  517MPD2    H5 7687   4.305   1.953   0.588 -1.0991  0.9096 -1.2171
  517MPD2    N1 7688   4.497   1.699   0.107 -0.1936 -0.2958  0.1332
  517MPD2    H7 7689   4.589   1.729   0.137 -0.1337  1.3247 -1.6328
  518TMC3    C1 7690   4.571   1.516  17.658  0.3584 -0.1101  0.8085
  518TMC3    C2 7691   4.543   1.426  17.554 -0.2593  0.3433  0.3086
  518TMC3    C3 7692   4.648   1.341  17.526  0.3818  0.1551  0.4631
  518TMC3    C4 7693   4.694   1.531   0.011 -0.0136 -0.4382  0.0754
  518TMC3    C5 7694   0.069   1.451  17.678 -0.3466 -0.5694  0.7057
  518TMC3    C6 7695   0.048   1.358  17.583 -0.2797 -0.0643 -0.1676
  518TMC3     C 7696   4.466   1.609   0.001 -0.4077 -0.4038 -0.6284
  518TMC3     O 7697   4.361   1.581  17.650  0.2824  0.0542  0.3116
  518TMC3     H 7698   4.455   1.430  17.490 -0.3815  2.8448  0.6472
  518TMC3    H1 7699   4.708   1.593   0.099  0.7345  0.4320 -0.6508
  518TMC3    H2 7700   0.120   1.280  17.562  0.5330  0.4737  0.6014
  518TMC3    C7 7701   0.196   1.451   0.045 -0.3900  0.0808  0.3104
  518TMC3    C8 7702   4.637   1.230  17.435 -0.1072  0.0045 -0.4593
  518TMC3    O1 7703   0.192   1.501   0.157 -0.9353 -0.0937 -0.1766
  518TMC3    O2 7704   4.719   1.144  17.431 -0.1375 -0.4385 -0.2872
  519MPD2     C 7705   1.667   0.471  13.500  0.4813 -0.3099 -0.5501
  519MPD2    C1 7706   1.548   0.402  13.464 -0.2864 -0.1032 -0.1442
  519MPD2    C2 7707   1.562   0.286  13.396 -0.4341  0.5977 -0.4610
  519MPD2    C3 7708   1.681   0.226  13.354  0.1317  0.3867  0.3256
  519MPD2    C4 7709   1.795   0.290  13.395  0.3121  0.1052 -0.2044
  519MPD2    C5 7710   1.781   0.407  13.472 -0.3878 -0.2048 -0.1600
  519MPD2     H 7711   1.463   0.246  13.374 -1.1464  2.0475  0.1336
  519MPD2    H1 7712   1.895   0.260  13.367  1.0097  0.9794  1.3722
  519MPD2    H2 7713   1.664   0.566  13.551  1.1336  0.0011 -1.0906
  519MPD2    H3 7714   1.872   0.454  13.505 -0.6137  2.4481 -3.3591
  519MPD2     N 7715   1.697   0.095  13.290 -0.3216  0.0551  0.5093
  519MPD2    H5 7716   1.791   0.058  13.302 -0.1651 -0.1218 -1.2889
  519MPD2    N1 7717   1.420   0.451  13.495  0.0855 -0.0241 -0.1161
  519MPD2    H7 7718   1.339   0.393  13.476 -1.7421  1.2505  3.7868
  520TMC3    C1 7719   1.633   4.598  13.223 -0.2943  0.4767  0.0758
  520TMC3    C2 7720   1.529   4.523  13.179 -0.0619  0.3801 -0.1501
  520TMC3    C3 7721   1.535   4.388  13.192  0.0822  0.2777  0.0305
  520TMC3    C4 7722   1.734   4.539  13.299 -0.0912  0.5737  0.1298
  520TMC3    C5 7723   1.740   4.404  13.303  0.7285 -0.3584  0.6580
  520TMC3    C6 7724   1.644   4.324  13.249  0.6678 -0.2840  0.1710
  520TMC3     C 7725   1.601   0.020  13.227  0.1732 -0.6573  1.1457
  520TMC3     O 7726   1.487   0.056  13.199  0.3042 -0.8524  0.1820
  520TMC3     H 7727   1.452   4.567  13.117  0.6005  1.7569  0.0170
  520TMC3    H1 7728   1.795   4.604  13.360  0.1432 -0.0681  0.5741
  520TMC3    H2 7729   1.643   4.218  13.276 -1.2084  0.0246  1.3230
  520TMC3    C7 7730   1.849   4.343  13.382 -0.6058  0.4185  0.3587
  520TMC3    C8 7731   1.419   4.303  13.189 -0.2917  0.5344  0.2500
  520TMC3    O1 7732   1.855   4.220  13.400 -0.1477 -0.2845 -0.0506
  520TMC3    O2 7733   1.441   4.181  13.174 -0.3844  0.3668  0.1957
  521MPD2     C 7734   2.189   2.419  17.459  0.2316 -0.2386 -0.3083
  521MPD2    C1 7735   2.153   2.425  17.328  0.6850  0.3586  0.1653
  521MPD2    C2 7736   2.255   2.399  17.233 -0.0970 -0.4215  0.2604
  521MPD2    C3 7737   2.381   2.378  17.270 -0.5770 -0.1663 -0.1816
  521MPD2    C4 7738   2.413   2.383  17.404 -0.7775  0.3752  0.0033
  521MPD2    C5 7739   2.317   2.398  17.496  0.1410  0.0238 -0.5855
  521MPD2     H 7740   2.223   2.410  17.130  0.5286  0.0026  0.1152
  521MPD2    H1 7741   2.514   2.360  17.436 -1.5766 -3.4205 -0.2020
  521MPD2    H2 7742   2.109   2.430  17.531  1.2659  2.0294  0.5192
  521MPD2    H3 7743   2.344   2.387  17.600  0.8521  1.5529 -0.6236
  521MPD2     N 7744   2.469   2.353  17.169  0.2930  0.8109  0.1205
  521MPD2    H5 7745   2.424   2.351  17.078  0.1525 -0.0042  0.2151
  521MPD2    N1 7746   2.018   2.448  17.292 -0.2509 -0.3629 -0.6759
  521MPD2    H7 7747   1.952   2.460  17.368  0.1942  0.2222 -0.3839
  522TMC3    C1 7748   2.656   2.282  17.052  0.5915  0.1683  1.0543
  522TMC3    C2 7749   2.757   2.192  17.046  0.2940 -0.1683  0.2212
  522TMC3    C3 7750   2.805   2.149  16.924 -0.0961  0.3957  0.2578
  522TMC3    C4 7751   2.609   2.333  16.935  0.4982  0.9301 -0.0123
  522TMC3    C5 7752   2.647   2.278  16.814 -0.2392  0.9455  0.6227
  522TMC3    C6 7753   2.751   2.193  16.811  0.7714 -0.0878 -0.0913
  522TMC3     C 7754   2.600   2.314  17.179  0.2304 -0.6812  1.1258
  522TMC3     O 7755   2.656   2.268  17.280 -0.5229 -0.8341  0.0506
  522TMC3     H 7756   2.805   2.151  17.135  0.6888 -0.2101 -0.0080
  522TMC3    H1 7757   2.545   2.420  16.932  0.2661  0.7323 -0.6428
  522TMC3    H2 7758   2.785   2.143  16.721  2.5437 -0.8034  0.9819
  522TMC3    C7 7759   2.631   2.357  16.693  0.1932 -0.8288  0.1356
  522TMC3    C8 7760   2.941   2.098  16.935 -0.8049 -0.0142 -0.1604
  522TMC3    O1 7761   2.719   2.362  16.608  0.1684  0.1884  0.6951
  522TMC3    O2 7762   2.974   2.024  17.028 -0.0455 -0.0205  0.2984
  523MPD2     C 7763   0.071   2.641   9.960 -0.9065  0.4689  0.0912
  523MPD2    C1 7764   4.695   2.568   9.896  0.0090  0.2471  0.1090
  523MPD2    C2 7765   4.585   2.634   9.846  0.1480 -0.0176 -0.2811
  523MPD2    C3 7766   4.584   2.770   9.852 -0.4198 -0.0876  0.2008
  523MPD2    C4 7767   4.681   2.836   9.921  0.1496 -0.5146 -0.0151
  523MPD2    C5 7768   0.056   2.775   9.981  0.1296 -0.7029  0.0378
  523MPD2     H 7769   4.503   2.580   9.801  0.9054 -1.1961 -0.2564
  523MPD2    H1 7770   4.681   2.944   9.925  0.3740 -0.4970 -0.4512
  523MPD2    H2 7771   0.152   2.595  10.016 -1.4363  0.4266  0.8255
  523MPD2    H3 7772   0.134   2.826  10.037 -0.5899  0.2768  0.1618
  523MPD2     N 7773   4.481   2.850   9.799 -0.0047  0.7252  0.6258
  523MPD2    H5 7774   4.479   2.950   9.816 -2.4387  0.6641  0.8334
  523MPD2    N1 7775   4.707   2.426   9.885 -0.0271  0.2936  0.5812
  523MPD2    H7 7776   0.055   2.382   9.939 -0.8065  0.3796  1.7014
  524TMC3    C1 7777   4.326   2.914   9.648  0.7501 -0.1377 -0.4461
  524TMC3    C2 7778   4.315   2.923   9.512  0.5321 -0.1730 -0.3523
  524TMC3    C3 7779   4.227   3.009   9.454  0.7448 -0.1471 -0.0332
  524TMC3    C4 7780   4.261   3.008   9.728  0.1342  0.1423 -0.4427
  524TMC3    C5 7781   4.185   3.105   9.668 -0.0849  0.6579  0.0832
  524TMC3    C6 7782   4.168   3.110   9.532 -0.7537 -0.4745 -0.1848
  524TMC3     C 7783   4.397   2.807   9.698 -0.5438 -0.0564 -0.0100
  524TMC3     O 7784   4.401   2.703   9.634  0.5244 -0.2426  0.3484
  524TMC3     H 7785   4.355   2.843   9.450 -2.9523 -2.6173  0.5437
  524TMC3    H1 7786   4.264   2.992   9.836 -1.2471 -0.9172 -0.5669
  524TMC3    H2 7787   4.105   3.184   9.485  1.2676  1.4141  0.0809
  524TMC3    C7 7788   4.128   3.202   9.766  0.5856  0.1459  0.9363
  524TMC3    C8 7789   4.166   2.984   9.320  0.0193  0.0233 -0.1646
  524TMC3    O1 7790   4.162   3.193   9.881 -0.1052  0.2000 -0.0335
  524TMC3    O2 7791   4.053   3.027   9.302 -0.2642  0.5734  0.2049
  525MPD2     C 7792   2.644   4.341  14.034  0.4231  0.6613  0.3040
  525MPD2    C1 7793   2.761   4.354  14.105 -0.6365  0.0831 -0.3008
  525MPD2    C2 7794   2.820   4.481  14.101 -0.1556 -0.2991 -0.1676
  525MPD2    C3 7795   2.763   4.592  14.043  0.2421 -0.2929 -0.2950
  525MPD2    C4 7796   2.637   4.579  13.985 -0.3383 -0.2038  0.0207
  525MPD2    C5 7797   2.582   4.452  13.979  0.2565 -0.1431  0.1331
  525MPD2     H 7798   2.917   4.489  14.149  0.5317 -1.1496 -1.4048
  525MPD2    H1 7799   2.599   4.668  13.936 -1.6844 -1.5669 -1.3906
  525MPD2    H2 7800   2.601   4.242  14.023 -0.7933  1.0589  1.5656
  525MPD2    H3 7801   2.502   4.425  13.912  1.4006 -1.0937 -0.8640
  525MPD2     N 7802   2.821   4.724  14.034 -0.7426  0.4571 -0.5733
  525MPD2    H5 7803   2.755   0.067  13.996 -1.9049 -0.5781 -0.4262
  525MPD2    N1 7804   2.819   4.249  14.172 -0.0608  0.4428  0.2011
  525MPD2    H7 7805   2.915   4.259  14.204  0.8283 -1.6440 -1.7942
  526TMC3    C1 7806   2.822   4.089  14.351 -0.4288 -0.7499 -0.1991
  526TMC3    C2 7807   2.751   4.057  14.460  0.9809 -0.3046  0.1706
  526TMC3    C3 7808   2.822   4.005  14.561  0.3389 -0.5966  1.0083
  526TMC3    C4 7809   2.956   4.070  14.329 -0.4901 -0.5974 -0.4064
  526TMC3    C5 7810   3.022   4.015  14.440  0.2135  0.0004 -0.2167
  526TMC3    C6 7811   2.957   3.980  14.555  0.3770 -0.2184  0.5827
  526TMC3     C 7812   2.749   4.148  14.236  0.3580  0.1295  0.6384
  526TMC3     O 7813   2.628   4.132  14.237  0.3041 -0.1204 -0.3031
  526TMC3     H 7814   2.647   4.087  14.471  0.8365 -0.4417 -0.8499
  526TMC3    H1 7815   2.995   4.092  14.231  2.6824 -2.4006  0.4754
  526TMC3    H2 7816   3.010   3.925  14.632  0.7550  3.2545  2.7812
  526TMC3    C7 7817   3.162   3.974  14.435 -0.0653 -0.1568 -0.4001
  526TMC3    C8 7818   2.774   4.025  14.700  0.0627  0.5640 -0.0505
  526TMC3    O1 7819   3.203   3.883  14.501  0.4978  0.0651 -0.2393
  526TMC3    O2 7820   2.855   4.056  14.790 -0.0935 -0.1396 -0.1383
  527MPD2     C 7821   1.105   1.865   0.708  0.1964  0.0259  0.3849
  527MPD2    C1 7822   1.139   1.807   0.827  0.0428 -0.4240  0.2233
  527MPD2    C2 7823   1.272   1.788   0.865 -0.6081 -0.6461  0.5563
  527MPD2    C3 7824   1.377   1.821   0.774  0.0631 -0.5379  0.1507
  527MPD2    C4 7825   1.341   1.888   0.660 -0.6860 -0.0010 -0.2245
  527MPD2    C5 7826   1.206   1.903   0.627 -0.3672  0.0277  0.2271
  527MPD2     H 7827   1.295   1.745   0.961 -1.1880 -3.5210 -0.5926
  527MPD2    H1 7828   1.405   1.914   0.577  1.2648 -1.2332  0.8608
  527MPD2    H2 7829   1.005   1.886   0.672  1.0729  1.3481 -1.2749
  527MPD2    H3 7830   1.184   1.950   0.532 -0.7322  0.3636  0.4785
  527MPD2     N 7831   1.510   1.796   0.812 -0.2050 -0.6149 -0.0765
  527MPD2    H5 7832   1.527   1.735   0.891 -3.6547  0.1063  1.2509
  527MPD2    N1 7833   1.040   1.759   0.917 -0.7698 -0.0867 -0.1493
  527MPD2    H7 7834   1.081   1.745   1.009  1.2540 -0.1378 -1.0577
  528TMC3    C1 7835   0.822   1.750   1.020 -0.0980 -0.0486  0.2080
  528TMC3    C2 7836   0.886   1.718   1.136  0.6946 -0.6508 -0.5420
  528TMC3    C3 7837   0.812   1.705   1.250  0.0340  0.0484 -0.1065
  528TMC3    C4 7838   0.687   1.769   1.013  0.3856  0.6924 -0.2789
  528TMC3    C5 7839   0.611   1.763   1.127 -0.1419 -0.2764  0.5967
  528TMC3    C6 7840   0.678   1.730   1.244  0.5998 -0.0794 -0.1633
  528TMC3     C 7841   0.901   1.777   0.900 -0.9218 -0.0946  0.6375
  528TMC3     O 7842   0.836   1.824   0.806 -0.4699 -0.2399  0.6057
  528TMC3     H 7843   0.991   1.694   1.127  0.8332 -1.0847  2.2678
  528TMC3    H1 7844   0.643   1.798   0.918  2.8548  2.3222 -0.9163
  528TMC3    H2 7845   0.620   1.723   1.335 -2.3937  2.9762 -1.8168
  528TMC3    C7 7846   0.470   1.744   1.120  0.2445 -0.4788 -0.0410
  528TMC3    C8 7847   0.887   1.686   1.370 -0.5174 -0.3564  0.1099
  528TMC3    O1 7848   0.422   1.674   1.206  0.3351  0.8652  0.0918
  528TMC3    O2 7849   1.008   1.675   1.364 -0.1885  0.7929  0.0048
  529MPD2     C 7850   3.321   0.956   0.945  1.1472  0.2238 -0.7767
  529MPD2    C1 7851   3.343   0.834   0.885 -1.1493  0.0164  0.5574
  529MPD2    C2 7852   3.242   0.794   0.791  0.2860  0.3777 -0.8145
  529MPD2    C3 7853   3.128   0.872   0.763 -0.7135  0.2365 -0.2290
  529MPD2    C4 7854   3.124   0.996   0.823  1.3377 -0.5310  0.4545
  529MPD2    C5 7855   3.218   1.039   0.911 -0.5949 -0.2860  0.1136
  529MPD2     H 7856   3.264   0.702   0.737 -0.0185 -1.5350  2.2990
  529MPD2    H1 7857   3.039   1.058   0.797  1.7387  0.0096  0.4333
  529MPD2    H2 7858   3.393   1.014   1.001 -1.5107  0.9814  1.8632
  529MPD2    H3 7859   3.218   1.142   0.942  2.8457  0.6786 -3.0586
  529MPD2     N 7860   3.027   0.841   0.676  0.4861  0.3940  0.4712
  529MPD2    H5 7861   2.957   0.913   0.668  0.4575  0.3107 -0.0254
  529MPD2    N1 7862   3.457   0.752   0.902  0.0042  0.3786  0.1038
  529MPD2    H7 7863   3.463   0.669   0.844 -1.1047  1.2805 -1.3054
  530TMC3    C1 7864   3.669   0.692   0.973  1.0483 -0.1330 -0.1642
  530TMC3    C2 7865   3.755   0.693   1.082  0.3808 -0.6263 -0.3046
  530TMC3    C3 7866   3.872   0.615   1.066 -0.1833  0.3417  0.2271
  530TMC3    C4 7867   3.697   0.645   0.845  0.0425 -0.1831  0.2863
  530TMC3    C5 7868   3.820   0.582   0.833 -0.4999  0.0791 -0.2316
  530TMC3    C6 7869   3.908   0.563   0.943 -0.1960  0.4114 -0.4120
  530TMC3     C 7870   3.559   0.781   0.986 -0.2140  0.7791 -0.3467
  530TMC3     O 7871   3.562   0.862   1.079 -0.5446 -0.0851 -0.3560
  530TMC3     H 7872   3.725   0.732   1.179  1.7197  0.0679 -0.1620
  530TMC3    H1 7873   3.627   0.648   0.761 -0.8950  2.0255  1.1264
  530TMC3    H2 7874   4.009   0.528   0.930  0.1905  1.3644  0.0197
  530TMC3    C7 7875   3.846   0.473   0.737 -0.0363  0.3088  0.5065
  530TMC3    C8 7876   3.952   0.592   1.184  0.2600 -0.2714 -1.0771
  530TMC3    O1 7877   3.958   0.426   0.713  0.2933  0.4106  0.6252
  530TMC3    O2 7878   3.922   0.643   1.292  0.7381 -0.3535 -0.3624
  531MPD2     C 7879   2.047   2.689  12.718  0.0834  0.4249 -0.1734
  531MPD2    C1 7880   1.933   2.711  12.783  0.3917 -0.1468 -0.6326
  531MPD2    C2 7881   1.821   2.752  12.719 -0.1862 -0.9387 -0.1491
  531MPD2    C3 7882   1.826   2.776  12.582  0.1575  0.1750 -0.5451
  531MPD2    C4 7883   1.947   2.767  12.516  0.1139  0.4297  0.7597
  531MPD2    C5 7884   2.057   2.713  12.585 -0.1907  0.0492  0.1344
  531MPD2     H 7885   1.734   2.775  12.780  0.1727 -0.3210  0.1345
  531MPD2    H1 7886   1.955   2.778  12.408  0.3117  0.8202  0.8186
  531MPD2    H2 7887   2.128   2.640  12.771 -1.3672 -0.8963  0.8674
  531MPD2    H3 7888   2.140   2.689  12.520 -0.3809 -1.9005  0.6273
  531MPD2     N 7889   1.711   2.812  12.509 -0.4648 -0.4844 -0.2484
  531MPD2    H5 7890   1.722   2.849  12.416 -0.7431  0.1813 -0.0166
  531MPD2    N1 7891   1.953   2.670  12.916 -0.4634 -0.0148 -0.6285
  531MPD2    H7 7892   2.048   2.644  12.942 -0.7583  0.5028  0.9512
  532TMC3    C1 7893   1.891   2.650  13.150 -0.1015 -0.2754 -0.3061
  532TMC3    C2 7894   1.770   2.647  13.223 -0.1435 -0.0251 -0.1355
  532TMC3    C3 7895   1.738   2.744  13.320 -0.5399 -0.4381 -0.3873
  532TMC3    C4 7896   1.976   2.744  13.183 -0.0879 -0.1061 -1.1783
  532TMC3    C5 7897   1.952   2.829  13.298 -0.2003  0.0010 -0.0001
  532TMC3    C6 7898   1.833   2.838  13.350 -0.0811  0.4353 -0.3100
  532TMC3     C 7899   1.858   2.670  13.011  0.4309 -0.0696  0.0137
  532TMC3     O 7900   1.738   2.697  12.998  0.3897 -0.6214  0.5437
  532TMC3     H 7901   1.690   2.579  13.193 -0.3464 -0.0332  0.4179
  532TMC3    H1 7902   2.070   2.753  13.130  0.6228 -2.5334 -0.3308
  532TMC3    H2 7903   1.805   2.915  13.421  0.3033 -0.4675  0.8233
  532TMC3    C7 7904   2.068   2.860  13.380 -0.0673 -0.3136  0.5709
  532TMC3    C8 7905   1.602   2.779  13.324 -0.1377 -0.2567 -0.3714
  532TMC3    O1 7906   2.053   2.957  13.454  0.5319 -0.0542 -0.1223
  532TMC3    O2 7907   1.551   2.827  13.423  0.0677 -0.1470  0.2278
  533TMC3    C1 7908   2.958   0.164  14.100 -0.1129  0.1664 -0.2844
  533TMC3    C2 7909   3.084   0.197  14.138 -0.3138  0.8082  0.5335
  533TMC3    C3 7910   3.091   0.289  14.236  0.7938 -0.0009 -0.2742
  533TMC3    C4 7911   2.851   0.231  14.152 -0.5594 -0.1621  0.1084
  533TMC3    C5 7912   2.865   0.314  14.260 -0.2720 -0.3784  0.2747
  533TMC3    C6 7913   2.989   0.337  14.315  0.4292 -0.4568  0.4659
  533TMC3     C 7914   2.944   0.027  14.072 -0.1896  0.6106 -0.8424
  533TMC3     O 7915   3.034   4.671  14.104  0.4555 -0.0578 -0.0941
  533TMC3     H 7916   3.172   0.160  14.086  0.7459  1.1514  2.0928
  533TMC3    H1 7917   2.757   0.222  14.098 -0.2671 -0.5699 -0.3319
  533TMC3    H2 7918   3.003   0.379  14.414 -0.0511 -1.1713  0.8355
  533TMC3    C7 7919   2.761   0.294  14.358 -0.4379 -0.6050 -1.1040
  533TMC3    C8 7920   3.227   0.340  14.260  0.1423  0.3453  0.5659
  533TMC3    O1 7921   2.679   0.211  14.334 -0.1338 -0.2007 -0.5454
  533TMC3    O2 7922   3.272   0.345  14.377  0.2683 -0.1385  0.1435
  534MPD2     C 7923   1.643   0.810   1.508 -0.2936  0.7474 -0.6072
  534MPD2    C1 7924   1.530   0.851   1.583 -0.1374  0.1368  0.4575
  534MPD2    C2 7925   1.405   0.886   1.529  0.0574 -1.4075  0.5256
  534MPD2    C3 7926   1.395   0.877   1.392  0.3538 -0.5689 -0.3012
  534MPD2    C4 7927   1.508   0.843   1.313  0.1451 -0.0323  0.3818
  534MPD2    C5 7928   1.627   0.802   1.369 -0.0659  0.0942  0.6334
  534MPD2     H 7929   1.321   0.915   1.591 -0.0720 -1.9541  0.6108
  534MPD2    H1 7930   1.495   0.835   1.206  1.7577 -1.2910  0.2875
  534MPD2    H2 7931   1.738   0.780   1.551 -1.3176 -1.1710  0.3516
  534MPD2    H3 7932   1.712   0.771   1.309 -0.1392 -0.0887  0.6239
  534MPD2     N 7933   1.274   0.904   1.324 -0.0701 -0.0213 -0.6128
  534MPD2    H5 7934   1.289   0.901   1.224 -1.4159 -0.5565 -0.7900
  534MPD2    N1 7935   1.530   0.871   1.723 -1.0484 -0.3391 -0.1783
  534MPD2    H7 7936   1.450   0.922   1.759 -0.6581  0.3843 -0.3235
  535TMC3    C1 7937   1.041   0.959   1.270 -0.1916  0.0727  0.3075
  535TMC3    C2 7938   0.914   0.942   1.312  0.1688  0.1725 -0.4890
  535TMC3    C3 7939   0.817   0.963   1.219 -0.3559 -0.3030  0.4180
  535TMC3    C4 7940   1.077   1.018   1.149 -0.0132  0.0193  0.5675
  535TMC3    C5 7941   0.975   1.039   1.064 -0.2496  0.0907  0.2166
  535TMC3    C6 7942   0.848   1.008   1.098 -0.7617  0.1023  1.4469
  535TMC3     C 7943   1.146   0.923   1.374 -0.1366 -0.1966 -0.5573
  535TMC3     O 7944   1.120   0.925   1.495  0.2717 -0.1777  0.0621
  535TMC3     H 7945   0.897   0.909   1.414 -0.0526  0.4942 -0.4235
  535TMC3    H1 7946   1.177   1.057   1.133 -1.0759  2.2440 -0.7093
  535TMC3    H2 7947   0.771   1.009   1.022  0.8955 -0.7968 -0.2448
  535TMC3    C7 7948   1.007   1.033   0.920  0.0058  0.1074 -0.0367
  535TMC3    C8 7949   0.680   0.948   1.257  0.2994  1.4115 -0.3351
  535TMC3    O1 7950   1.127   1.020   0.889  0.2924 -0.3502  0.5011
  535TMC3    O2 7951   0.603   0.996   1.174 -0.0416 -0.6496  0.3072
  536MPD2     C 7952   4.191   3.860  15.710  0.1832 -0.1992 -1.1697
  536MPD2    C1 7953   4.171   3.975  15.786 -0.1641  0.1674  0.2773
  536MPD2    C2 7954   4.155   4.098  15.726 -0.9328 -0.2310  0.0194
  536MPD2    C3 7955   4.151   4.099  15.589 -0.2330  0.0227  0.0438
  536MPD2    C4 7956   4.155   3.980  15.512 -0.3035 -0.6167 -0.2819
  536MPD2    C5 7957   4.189   3.866  15.574 -0.7432 -0.4354  0.1998
  536MPD2     H 7958   4.120   4.184  15.783 -0.7045 -0.5655  0.6698
  536MPD2    H1 7959   4.143   3.987  15.404 -0.4180 -0.1084 -0.2349
  536MPD2    H2 7960   4.218   3.767  15.758 -0.9479  1.1266  2.0179
  536MPD2    H3 7961   4.208   3.773  15.523  2.0230 -0.9038  2.0864
  536MPD2     N 7962   4.130   4.211  15.512  0.4226 -0.6331 -0.2958
  536MPD2    H5 7963   4.134   4.203  15.411  0.0211 -0.3960 -0.3303
  536MPD2    N1 7964   4.184   3.960  15.926 -0.5214  0.6406 -0.2592
  536MPD2    H7 7965   4.168   3.866  15.958 -2.4725  1.7003  1.8397
  537TMC3    C1 7966   4.197   4.000  16.153  0.2685  0.1725 -0.0129
  537TMC3    C2 7967   4.250   4.072  16.249 -0.4016  0.0608 -0.2168
  537TMC3    C3 7968   4.277   4.012  16.368 -0.6219  0.7024 -0.4024
  537TMC3    C4 7969   4.156   3.870  16.179 -0.0424  0.2388 -0.4518
  537TMC3    C5 7970   4.167   3.816  16.301 -0.1999 -0.4557 -0.5305
  537TMC3    C6 7971   4.232   3.888  16.397 -0.3836  0.3377  0.0404
  537TMC3     C 7972   4.201   4.056  16.020  0.7803  0.5545 -0.1983
  537TMC3     O 7973   4.235   4.174  16.002 -0.1520  0.0324  0.0340
  537TMC3     H 7974   4.267   4.177  16.228  2.0541 -0.1443  0.6873
  537TMC3    H1 7975   4.106   3.812  16.103 -0.6368  1.3412 -0.8991
  537TMC3    H2 7976   4.245   3.851  16.498 -0.5179  0.0613 -0.0451
  537TMC3    C7 7977   4.083   3.703  16.335  0.0174  0.2167 -0.2898
  537TMC3    C8 7978   4.368   4.076  16.461 -0.6767 -0.7264 -0.3043
  537TMC3    O1 7979   4.012   3.651  16.255 -0.3017 -0.0884 -0.1830
  537TMC3    O2 7980   4.383   4.027  16.572  0.0395 -0.5963 -0.0968
  538TMC3    C1 7981   0.663   2.233  10.495  0.2486 -0.0645  0.0150
  538TMC3    C2 7982   0.774   2.245  10.410  0.0913  0.9102  0.8951
  538TMC3    C3 7983   0.767   2.325  10.298 -0.2193 -0.4512  0.4219
  538TMC3    C4 7984   0.543   2.291  10.460 -0.1786 -0.6818  0.1095
  538TMC3    C5 7985   0.549   2.364  10.342  0.5069 -0.6897 -1.1143
  538TMC3    C6 7986   0.655   2.386  10.261 -1.1197  0.4754 -0.1195
  538TMC3     C 7987   0.666   2.148  10.619  0.4267  1.2622  0.2377
  538TMC3     O 7988   0.600   2.185  10.714 -0.1672 -0.0557  0.0756
  538TMC3     H 7989   0.867   2.207  10.450  1.7264  2.0796 -1.8909
  538TMC3    H1 7990   0.447   2.269  10.506  0.4052  1.3830  2.3712
  538TMC3    H2 7991   0.639   2.421  10.159  0.2248 -0.9306 -0.8140
  538TMC3    C7 7992   0.425   2.445  10.318  0.1659 -0.6405 -0.5039
  538TMC3    C8 7993   0.870   2.311  10.197  0.0978 -0.1318 -0.3076
  538TMC3    O1 7994   0.325   2.401  10.370 -0.1697  0.3184  0.2906
  538TMC3    O2 7995   0.945   2.215  10.213 -0.0380 -0.5230  0.0350
  539MPD2     C 7996   4.309   1.827  11.524 -0.1466 -0.2762  0.5908
  539MPD2    C1 7997   4.438   1.873  11.487  0.1039  0.3290  0.3836
  539MPD2    C2 7998   4.460   2.009  11.504  0.0654  0.2175 -0.7507
  539MPD2    C3 7999   4.368   2.104  11.551  0.0105  0.5496 -0.5513
  539MPD2    C4 8000   4.252   2.056  11.601 -0.2403  0.0203 -0.3980
  539MPD2    C5 8001   4.216   1.920  11.583  0.0778 -0.2667 -0.1349
  539MPD2     H 8002   4.563   2.038  11.491  0.0195  1.0970  0.8956
  539MPD2    H1 8003   4.178   2.123  11.642  0.4581  0.1432  0.6725
  539MPD2    H2 8004   4.274   1.726  11.507  0.9638 -0.6222  0.3676
  539MPD2    H3 8005   4.121   1.874  11.609  1.6754 -3.1472  0.7030
  539MPD2     N 8006   4.391   2.242  11.531 -0.3163  0.4852 -0.7026
  539MPD2    H5 8007   4.325   2.306  11.572 -0.3680  1.2251 -1.9620
  539MPD2    N1 8008   4.530   1.789  11.420  0.3511  0.5946 -0.2310
  539MPD2    H7 8009   4.616   1.833  11.390 -0.5415  0.1356 -3.4791
  540TMC3    C1 8010   4.480   2.441  11.430 -0.2910  0.7855 -0.4517
  540TMC3    C2 8011   4.526   2.500  11.317 -0.0509  0.3373  0.0919
  540TMC3    C3 8012   4.480   2.623  11.273 -0.2089 -0.3791 -0.0410
  540TMC3    C4 8013   4.386   2.511  11.510 -0.1915 -0.1808 -0.0532
  540TMC3    C5 8014   4.353   2.642  11.471  0.1471  0.1903  0.3191
  540TMC3    C6 8015   4.398   2.697  11.348 -0.9200 -0.9915  0.0340
  540TMC3     C 8016   4.496   2.298  11.456  0.8807  0.7881  0.0933
  540TMC3     O 8017   4.588   2.241  11.400  0.3704  0.4926  0.2396
  540TMC3     H 8018   4.595   2.435  11.263 -1.3333 -0.2183 -0.8974
  540TMC3    H1 8019   4.342   2.463  11.597  0.7455 -1.1422 -0.1237
  540TMC3    H2 8020   4.359   2.782  11.292  0.5039 -0.2470  0.1806
  540TMC3    C7 8021   4.227   2.692  11.520  0.4349 -0.3089  0.3199
  540TMC3    C8 8022   4.521   2.671  11.145  0.0381  0.7710 -0.2620
  540TMC3    O1 8023   4.173   2.617  11.601  0.0361  0.5646  0.6027
  540TMC3    O2 8024   4.540   2.794  11.131  0.1241  0.5626 -0.0941
  541MPD2     C 8025   3.254   3.382  13.078  0.9463  0.0786  0.4499
  541MPD2    C1 8026   3.161   3.298  13.023 -0.5240 -0.0047  0.5287
  541MPD2    C2 8027   3.096   3.330  12.901  0.1109  0.0119  0.1192
  541MPD2    C3 8028   3.118   3.452  12.838  1.1900  0.4079 -0.5030
  541MPD2    C4 8029   3.202   3.542  12.903  0.0417  0.1703 -0.2543
  541MPD2    C5 8030   3.273   3.501  13.014  0.7026 -0.0382  0.5940
  541MPD2     H 8031   3.033   3.254  12.857  2.0389 -1.2726 -0.4500
  541MPD2    H1 8032   3.230   3.634  12.853  0.6131  1.5151  2.5653
  541MPD2    H2 8033   3.310   3.367  13.169  1.8494 -1.1336 -0.2974
  541MPD2    H3 8034   3.351   3.563  13.057  1.0308 -0.6691  0.9001
  541MPD2     N 8035   3.065   3.479  12.711  0.4406 -0.3940  0.1837
  541MPD2    H5 8036   3.089   3.573  12.680 -0.8901 -0.2326 -0.3415
  541MPD2    N1 8037   3.119   3.171  13.072  0.2403  0.6168  0.2210
  541MPD2    H7 8038   3.039   3.132  13.023  0.2958 -1.0492  1.4270
  542TMC3    C1 8039   3.019   3.445  12.488 -0.6636  0.0687 -0.3844
  542TMC3    C2 8040   3.038   3.361  12.382  0.4271 -0.0186  0.5379
  542TMC3    C3 8041   3.018   3.408  12.257  0.0166 -0.3068 -1.0934
  542TMC3    C4 8042   2.980   3.570  12.472 -0.1239 -0.0412 -0.0648
  542TMC3    C5 8043   2.972   3.617  12.341  0.4905  0.1372  0.2332
  542TMC3    C6 8044   2.996   3.533  12.236  0.7859 -1.0022 -0.1601
  542TMC3     C 8045   3.031   3.388  12.620 -0.5389 -0.3093  0.0686
  542TMC3     O 8046   3.044   3.265  12.618  0.1790  0.0645 -0.7616
  542TMC3     H 8047   3.081   3.262  12.397  4.2679  1.3590 -1.2164
  542TMC3    H1 8048   2.954   3.636  12.555 -2.6989 -0.4733 -0.5338
  542TMC3    H2 8049   2.979   3.578  12.138 -0.0550  1.7830  1.2436
  542TMC3    C7 8050   2.876   3.723  12.319  0.6564 -0.2054  0.3837
  542TMC3    C8 8051   3.066   3.336  12.139 -0.3023 -0.1200 -1.2217
  542TMC3    O1 8052   2.862   3.760  12.205 -0.3908 -0.5235  0.5034
  542TMC3    O2 8053   3.109   3.407  12.050 -0.1410 -0.3480  0.0811
  543TMC3    C1 8054   2.837   4.512  16.978 -0.1367  0.4476 -0.5145
  543TMC3    C2 8055   2.846   4.378  17.010  0.5157  0.1834 -0.1488
  543TMC3    C3 8056   2.770   4.328  17.112  0.4634 -0.2397  0.1070
  543TMC3    C4 8057   2.732   4.584  17.027  0.5361  0.0598 -0.3118
  543TMC3    C5 8058   2.651   4.531  17.124 -0.2593  0.3407  0.2042
  543TMC3    C6 8059   2.679   4.405  17.178 -0.2766 -0.0417 -0.3364
  543TMC3     C 8060   2.910   4.557  16.867  1.0567  0.3484 -0.2873
  543TMC3     O 8061   2.997   4.482  16.824 -0.1332  0.2879  0.8220
  543TMC3     H 8062   2.931   4.320  16.976 -1.3167 -3.5814  1.5960
  543TMC3    H1 8063   2.725   4.692  17.013  2.0766  0.4698  2.0886
  543TMC3    H2 8064   2.627   4.360  17.261  0.7975  1.4408  1.1373
  543TMC3    C7 8065   2.561   4.623  17.190 -0.5898  0.8756 -0.2180
  543TMC3    C8 8066   2.779   4.189  17.145 -0.4852 -0.2697  0.0037
  543TMC3    O1 8067   2.559   0.016  17.154  0.0361  0.3423  0.5027
  543TMC3    O2 8068   2.833   4.117  17.069 -0.0845  0.0330 -0.3765
  544MPD2     C 8069   2.724   3.780  17.449  0.1859 -0.1935  0.6510
  544MPD2    C1 8070   2.728   3.781  17.316 -0.1201 -0.1791  0.1842
  544MPD2    C2 8071   2.757   3.908  17.252 -0.8001  0.4213 -0.5497
  544MPD2    C3 8072   2.738   4.026  17.327  0.5892 -0.2802 -0.4935
  544MPD2    C4 8073   2.732   4.018  17.465 -0.5902 -0.4941  0.4243
  544MPD2    C5 8074   2.735   3.892  17.524  0.4019  0.3190  0.3951
  544MPD2     H 8075   2.783   3.909  17.147  1.1997  2.0600 -0.0304
  544MPD2    H1 8076   2.720   4.106  17.529 -1.3991 -0.1919 -0.1448
  544MPD2    H2 8077   2.717   3.686  17.502  0.2587 -0.1724  0.6992
  544MPD2    H3 8078   2.739   3.880  17.631 -0.4781  2.3593  0.6554
  544MPD2     N 8079   2.740   4.157  17.268  0.0747  0.3811 -0.8798
  544MPD2    H5 8080   2.712   4.233  17.329 -0.3069 -0.9027  0.5421
  544MPD2    N1 8081   2.727   3.656  17.252  0.3693  0.6079  0.1197
  544MPD2    H7 8082   2.703   3.575  17.308 -0.8272 -0.1130 -1.4133
  545TMC3    C1 8083   2.701   3.499  17.076 -0.3091  0.3323 -0.7522
  545TMC3    C2 8084   2.646   3.483  16.955 -0.4923  0.7833 -0.3005
  545TMC3    C3 8085   2.661   3.355  16.898 -0.4331 -0.6191 -0.3268
  545TMC3    C4 8086   2.775   3.403  17.138 -0.4705  0.5183  0.1672
  545TMC3    C5 8087   2.801   3.280  17.069 -0.6830  0.1416  0.4264
  545TMC3    C6 8088   2.737   3.257  16.949 -0.1882 -0.3836 -0.6095
  545TMC3     C 8089   2.723   3.638  17.117 -0.5087 -0.4050 -0.0057
  545TMC3     O 8090   2.758   3.709  17.026 -0.2333  0.6011 -0.1384
  545TMC3     H 8091   2.601   3.561  16.896 -1.1829  0.0644 -0.7170
  545TMC3    H1 8092   2.813   3.425  17.237  2.7822 -0.6201 -0.8236
  545TMC3    H2 8093   2.761   3.167  16.894  1.6531  0.9715 -2.0337
  545TMC3    C7 8094   2.826   3.169  17.156 -0.1601 -0.4833  0.6822
  545TMC3    C8 8095   2.557   3.312  16.804  0.4143  0.2895  0.3452
  545TMC3    O1 8096   2.783   3.061  17.115  0.4426 -0.2032  0.7548
  545TMC3    O2 8097   2.555   3.189  16.778 -0.2900  0.0741  0.3150
  546MPD2     C 8098   4.458   4.441  17.294  0.7399  0.3890  0.3980
  546MPD2    C1 8099   4.393   4.517  17.202  0.3758  0.0615  0.0281
  546MPD2    C2 8100   4.424   4.655  17.192 -0.4048 -0.2850 -0.8729
  546MPD2    C3 8101   4.526   4.703  17.271  0.4879 -0.4147  0.0847
  546MPD2    C4 8102   4.598   4.620  17.357 -0.6430 -0.0941  0.3185
  546MPD2    C5 8103   4.565   4.491  17.365 -0.4622  0.3915 -0.4813
  546MPD2     H 8104   4.365   4.714  17.123  0.6965  0.7987 -0.8896
  546MPD2    H1 8105   4.685   4.654  17.411  0.1240  1.3645 -1.8152
  546MPD2    H2 8106   4.441   4.335  17.306 -0.2090  0.2392 -2.4455
  546MPD2    H3 8107   4.632   4.428  17.422 -1.8359 -0.5356  0.0977
  546MPD2     N 8108   4.576   0.109  17.268  0.2730 -0.1172 -0.1345
  546MPD2    H5 8109   4.645   0.131  17.339 -1.0230 -0.8893  1.3781
  546MPD2    N1 8110   4.288   4.443  17.125 -0.1115 -0.0901  0.6290
  546MPD2    H7 8111   4.283   4.345  17.150  2.0862 -0.3951 -0.1415
  547TMC3    C1 8112   4.149   4.371  16.978 -0.5249 -0.1562 -0.5609
  547TMC3    C2 8113   4.112   4.376  16.842  1.4883 -0.4697  0.3276
  547TMC3    C3 8114   4.049   4.264  16.791  0.5556 -0.1509  0.4037
  547TMC3    C4 8115   4.118   4.261  17.053  0.4012 -0.9686 -0.4921
  547TMC3    C5 8116   4.050   4.159  16.999  0.4826  0.1121 -0.5199
  547TMC3    C6 8117   4.009   4.159  16.870  0.2617  0.1152 -0.7081
  547TMC3     C 8118   4.230   4.483  17.014 -0.4582 -0.0579 -0.0215
  547TMC3     O 8119   4.262   4.572  16.932  0.3770 -0.0460 -0.5421
  547TMC3     H 8120   4.154   4.457  16.784  2.8030 -1.1403  0.3438
  547TMC3    H1 8121   4.120   4.265  17.162 -0.5124  1.0775 -0.5607
  547TMC3    H2 8122   3.951   4.074  16.836 -3.0142  0.6155  3.6779
  547TMC3    C7 8123   3.976   4.081  17.093 -0.2358  1.0934 -0.1483
  547TMC3    C8 8124   3.967   4.301  16.676 -0.0795 -0.4985 -0.3142
  547TMC3    O1 8125   4.022   4.068  17.207 -0.0207 -0.3123  0.0521
  547TMC3    O2 8126   3.965   4.421  16.652  0.3431 -0.0294  0.7207
  548MPD2     C 8127   3.640   0.704  11.932 -0.0219 -0.5899  0.5903
  548MPD2    C1 8128   3.618   0.566  11.961 -0.2677 -0.2826  0.1309
  548MPD2    C2 8129   3.727   0.484  11.976 -0.3230  0.3164 -0.1837
  548MPD2    C3 8130   3.854   0.544  11.972  0.1372  0.5117  0.0326
  548MPD2    C4 8131   3.875   0.675  11.936 -0.1063  0.0394  0.1640
  548MPD2    C5 8132   3.763   0.749  11.906 -0.3360 -0.2575 -0.0626
  548MPD2     H 8133   3.724   0.381  12.009 -0.0677 -0.4097 -2.4449
  548MPD2    H1 8134   3.968   0.731  11.941 -0.5568  1.0567 -2.5161
  548MPD2    H2 8135   3.549   0.764  11.934 -0.0836 -0.7076  1.4423
  548MPD2    H3 8136   3.774   0.854  11.885 -0.1002  0.0495  1.5860
  548MPD2     N 8137   3.966   0.463  12.005  0.2278 -0.4576 -0.5626
  548MPD2    H5 8138   3.942   0.369  12.034  2.6914 -1.3453 -1.4883
  548MPD2    N1 8139   3.484   0.522  11.974  0.4119 -0.0295  0.6914
  548MPD2    H7 8140   3.411   0.590  11.994 -0.9975 -0.8634 -1.6751
  549TMC3    C1 8141   3.309   0.370  12.002 -0.0146 -0.0515 -0.5288
  549TMC3    C2 8142   3.224   0.471  11.967 -0.0862 -0.2329  0.5396
  549TMC3    C3 8143   3.091   0.452  11.982  0.5479  0.0317  0.6105
  549TMC3    C4 8144   3.261   0.244  12.037  0.1091  0.6685 -0.4449
  549TMC3    C5 8145   3.123   0.230  12.046 -0.3507 -0.7612  0.1508
  549TMC3    C6 8146   3.041   0.334  12.019 -0.1164  0.3970  0.2982
  549TMC3     C 8147   3.452   0.385  11.977  0.0360  0.0250 -0.6241
  549TMC3     O 8148   3.518   0.285  11.958 -0.3149 -0.2271  0.1588
  549TMC3     H 8149   3.256   0.571  11.939 -2.2551  0.0038 -1.1360
  549TMC3    H1 8150   3.330   0.168  12.075  1.6719  1.9099 -0.8079
  549TMC3    H2 8151   2.936   0.315  12.039 -0.3133  1.1646 -0.0209
  549TMC3    C7 8152   3.072   0.141  12.143  0.1838  0.0701 -0.5682
  549TMC3    C8 8153   2.997   0.555  11.957 -0.0383  0.7386 -0.3594
  549TMC3    O1 8154   2.998   0.195  12.222  0.1748 -0.6694 -0.0272
  549TMC3    O2 8155   2.887   0.513  11.910  0.7100  0.1621  0.0539
  550TMC3    C1 8156   2.745   3.129  12.103 -0.0961 -0.2150 -0.5735
  550TMC3    C2 8157   2.695   3.127  12.228 -0.1721  0.0598 -0.1976
  550TMC3    C3 8158   2.646   3.243  12.276 -0.1611  0.3310  0.0825
  550TMC3    C4 8159   2.747   3.243  12.028 -0.1648 -0.0292 -0.2038
  550TMC3    C5 8160   2.673   3.350  12.075 -0.2778 -0.3420  0.2779
  550TMC3    C6 8161   2.626   3.350  12.206 -0.0128  0.9331  0.0867
  550TMC3     C 8162   2.761   2.996  12.035  0.5006 -0.5983  0.2246
  550TMC3     O 8163   2.762   2.898  12.113  0.1477 -0.6385  0.3102
  550TMC3     H 8164   2.719   3.043  12.293  2.8264  0.8318 -0.3155
  550TMC3    H1 8165   2.780   3.240  11.925  0.5216 -0.0781  0.0163
  550TMC3    H2 8166   2.571   3.439  12.234  0.5602  1.5252 -0.6557
  550TMC3    C7 8167   2.579   3.411  11.983 -0.0610 -0.0496  0.2884
  550TMC3    C8 8168   2.593   3.252  12.410  0.3795 -0.4868 -0.7038
  550TMC3    O1 8169   2.475   3.441  12.036  0.5463 -0.0748 -0.3780
  550TMC3    O2 8170   2.611   3.357  12.479 -1.2025  0.1290  0.0422
  551TMC3    C1 8171   0.120   0.712  13.234 -0.4912 -0.1060 -0.2375
  551TMC3    C2 8172   0.211   0.761  13.145 -0.2327 -0.4180  0.6467
  551TMC3    C3 8173   0.317   0.818  13.200 -0.7334 -0.6106 -0.5197
  551TMC3    C4 8174   0.134   0.713  13.366 -0.0591  0.7891  0.1693
  551TMC3    C5 8175   0.245   0.776  13.420  0.2925  1.1281 -0.1096
  551TMC3    C6 8176   0.333   0.835  13.333 -0.3015 -0.7369 -0.1991
  551TMC3     C 8177   4.716   0.675  13.169  0.0033  0.0212 -0.4518
  551TMC3     O 8178   4.723   0.633  13.055 -0.0739 -0.3406 -0.3889
  551TMC3     H 8179   0.209   0.732  13.041 -1.9351 -1.6930  1.0455
  551TMC3    H1 8180   0.055   0.672  13.428  1.2260  0.3968  1.5572
  551TMC3    H2 8181   0.423   0.879  13.373 -1.1804  0.5821  0.2986
  551TMC3    C7 8182   0.287   0.772  13.560 -0.2395  0.3912 -0.6219
  551TMC3    C8 8183   0.367   0.924  13.122 -0.1518  0.2230 -0.1536
  551TMC3    O1 8184   0.348   0.869  13.603 -0.4716  0.6804  0.1123
  551TMC3    O2 8185   0.489   0.935  13.133  0.3171  0.0067 -0.1810
  552MPD2     C 8186   2.184   3.145  13.970 -0.4304  0.1256 -0.7838
  552MPD2    C1 8187   2.181   3.014  13.994 -0.3935  0.5811 -0.5553
  552MPD2    C2 8188   2.295   2.953  14.040 -0.0756 -1.1250 -0.7428
  552MPD2    C3 8189   2.406   3.027  14.071  0.1546  0.3237 -0.4879
  552MPD2    C4 8190   2.400   3.173  14.069  0.2467  0.3205  0.2027
  552MPD2    C5 8191   2.292   3.224  14.004 -0.3980  0.0228  0.5039
  552MPD2     H 8192   2.291   2.847  14.062  0.6446 -0.7167  1.3457
  552MPD2    H1 8193   2.477   3.239  14.106  0.6623 -0.4174  0.6655
  552MPD2    H2 8194   2.098   3.194  13.925  1.0207  2.5033 -1.0085
  552MPD2    H3 8195   2.276   3.330  13.992 -0.5753  0.1809  2.1079
  552MPD2     N 8196   2.531   2.976  14.119  0.2110 -0.5409 -0.0759
  552MPD2    H5 8197   2.608   3.039  14.138 -0.8881 -0.4501  3.9627
  552MPD2    N1 8198   2.068   2.934  13.956  0.3631 -0.0169  0.6031
  552MPD2    H7 8199   2.087   2.834  13.956 -2.2869 -0.5139  0.5484
  553TMC3    C1 8200   1.877   2.843  13.878 -0.5315 -0.1019  0.1214
  553TMC3    C2 8201   1.861   2.801  13.742  0.0569  0.3074 -0.0677
  553TMC3    C3 8202   1.815   2.672  13.726  0.9372  1.1255  0.2967
  553TMC3    C4 8203   1.849   2.767  13.988 -0.9430  0.3543  0.0801
  553TMC3    C5 8204   1.797   2.646  13.962  0.4008  0.1037 -0.2375
  553TMC3    C6 8205   1.776   2.594  13.834 -0.2102  0.0916  0.4783
  553TMC3     C 8206   1.956   2.966  13.891  0.1150  0.5286  0.8623
  553TMC3     O 8207   1.934   3.066  13.826 -0.0233  0.4317  0.4276
  553TMC3     H 8208   1.895   2.860  13.658 -1.0728  1.2807  0.1537
  553TMC3    H1 8209   1.847   2.810  14.087 -2.2216 -0.9669  0.6354
  553TMC3    H2 8210   1.762   2.488  13.817  1.0851 -0.2647  1.6262
  553TMC3    C7 8211   1.832   2.547  14.061  0.1418  0.2479  0.5880
  553TMC3    C8 8212   1.889   2.596  13.629  0.2317 -0.0416 -0.5524
  553TMC3    O1 8213   1.766   2.444  14.061  0.4946 -0.2474 -0.3825
  553TMC3    O2 8214   2.003   2.635  13.617 -0.5100  0.0496  0.0180
  554TMC3    C1 8215   3.859   2.168  11.378  0.9227  0.2007  0.0967
  554TMC3    C2 8216   3.767   2.092  11.304 -0.4628  0.8862  0.3058
  554TMC3    C3 8217   3.783   2.082  11.168 -0.7464  0.2809 -0.5152
  554TMC3    C4 8218   3.960   2.235  11.318 -0.2943 -0.0355  0.9495
  554TMC3    C5 8219   3.982   2.211  11.185  0.0141 -0.0768  0.0584
  554TMC3    C6 8220   3.896   2.139  11.112 -0.3662 -0.0255  0.1021
  554TMC3     C 8221   3.857   2.146  11.518  0.1081  0.1520 -0.6795
  554TMC3     O 8222   3.909   2.231  11.589 -0.5111 -0.6811 -0.1684
  554TMC3     H 8223   3.693   2.025  11.345  2.2197 -1.9394  0.5843
  554TMC3    H1 8224   4.035   2.284  11.379  0.6199  0.1958 -0.3548
  554TMC3    H2 8225   3.924   2.120  11.009 -1.3117  0.3298 -0.2147
  554TMC3    C7 8226   4.079   2.302  11.110  0.4073 -0.1479  0.6807
  554TMC3    C8 8227   3.682   2.018  11.086 -0.1895  0.0216  0.4282
  554TMC3    O1 8228   4.122   2.255  11.008 -0.3135  0.4516  0.4032
  554TMC3    O2 8229   3.589   1.961  11.143 -0.2979 -0.0434  0.2568
  555TMC3    C1 8230   3.019   1.150  15.372  0.4483  0.1826  0.1356
  555TMC3    C2 8231   3.040   1.282  15.410  0.5780 -0.1265  0.5161
  555TMC3    C3 8232   3.067   1.310  15.540  0.0948 -0.5320  0.0192
  555TMC3    C4 8233   3.022   1.053  15.459  0.3281 -0.3059  0.3277
  555TMC3    C5 8234   3.059   1.078  15.586 -0.4307 -0.6914 -0.0663
  555TMC3    C6 8235   3.082   1.207  15.627  0.9677  0.0909  0.1786
  555TMC3     C 8236   2.967   1.112  15.243  0.4571  0.1850  0.4719
  555TMC3     O 8237   2.968   0.992  15.211  0.0172 -0.0530 -0.1494
  555TMC3     H 8238   3.020   1.362  15.341  1.2220 -1.3563 -1.0902
  555TMC3    H1 8239   2.984   0.954  15.440  0.5419 -0.4140  0.4599
  555TMC3    H2 8240   3.101   1.230  15.731 -1.2118 -1.9406  1.0358
  555TMC3    C7 8241   3.044   0.969  15.680  0.0970 -0.0506 -0.4687
  555TMC3    C8 8242   3.104   1.444  15.580  0.1729  0.0927  0.0227
  555TMC3    O1 8243   2.983   0.867  15.643 -0.0888 -0.3745  0.3652
  555TMC3    O2 8244   3.108   1.521  15.485  0.2239  0.3948  0.2578
  556MPD2     C 8245   0.674   3.615  10.244  0.3822 -0.6965  0.4927
  556MPD2    C1 8246   0.743   3.515  10.305  0.1857  0.5614  0.4428
  556MPD2    C2 8247   0.827   3.426  10.228 -0.2284 -0.1643 -0.6256
  556MPD2    C3 8248   0.828   3.440  10.088 -0.1048 -0.5082  0.3112
  556MPD2    C4 8249   0.748   3.537  10.034  0.7723 -1.0984  0.3899
  556MPD2    C5 8250   0.676   3.623  10.109 -0.2323  0.0206 -0.0578
  556MPD2     H 8251   0.885   3.347  10.274  1.3827  0.9095 -0.8422
  556MPD2    H1 8252   0.741   3.563   9.929 -2.5524  0.0325  0.8944
  556MPD2    H2 8253   0.611   3.688  10.293  1.3742  0.2377  0.3790
  556MPD2    H3 8254   0.624   3.700  10.053 -2.1026 -0.5925  0.8496
  556MPD2     N 8255   0.904   3.347  10.011 -0.9295 -0.3630  0.0932
  556MPD2    H5 8256   0.955   3.277  10.064 -0.2275  1.2525  1.5316
  556MPD2    N1 8257   0.766   3.512  10.450 -0.2933  0.1617 -0.8007
  556MPD2    H7 8258   0.837   3.446  10.480  0.3075  1.0767 -0.2223
  557TMC3    C1 8259   0.994   3.231   9.816 -0.1436 -0.1549  0.0816
  557TMC3    C2 8260   0.983   3.220   9.675 -0.5684  0.3815  0.0664
  557TMC3    C3 8261   1.005   3.097   9.618 -0.2269 -0.5025 -0.0514
  557TMC3    C4 8262   1.014   3.118   9.895  0.1870 -0.0463 -0.0778
  557TMC3    C5 8263   1.037   2.999   9.825 -0.6732 -0.3067 -0.2036
  557TMC3    C6 8264   1.033   2.980   9.690 -0.2099 -0.2563 -1.0007
  557TMC3     C 8265   0.919   3.345   9.875  0.4874  0.5526 -0.1645
  557TMC3     O 8266   0.867   3.421   9.797 -0.0568  0.3205 -0.0900
  557TMC3     H 8267   0.939   3.299   9.614 -0.9607 -0.1354 -0.3214
  557TMC3    H1 8268   1.023   3.118  10.003 -0.3074  1.6199 -0.0419
  557TMC3    H2 8269   1.028   2.878   9.655 -2.6137 -0.3079 -0.4977
  557TMC3    C7 8270   1.024   2.880   9.907 -0.4825 -0.5431  0.7009
  557TMC3    C8 8271   0.975   3.081   9.474  0.5363 -0.1397  0.2825
  557TMC3    O1 8272   0.973   2.886  10.016 -0.0972  0.0375  0.0019
  557TMC3    O2 8273   0.897   3.167   9.428  0.3704 -0.0523 -0.1620
  558TMC3    C1 8274   3.931   0.730   9.357 -0.4631  0.6048 -0.6595
  558TMC3    C2 8275   3.847   0.841   9.358  0.5068 -0.2296  0.3227
  558TMC3    C3 8276   3.725   0.831   9.418 -0.3814  0.3663 -0.1778
  558TMC3    C4 8277   3.877   0.608   9.383 -0.4642 -0.9876 -0.6354
  558TMC3    C5 8278   3.743   0.600   9.412 -0.6257 -0.3194 -0.9407
  558TMC3    C6 8279   3.667   0.711   9.444  0.3464  0.2844  0.5362
  558TMC3     C 8280   4.068   0.764   9.388 -0.8498  0.4168 -0.3579
  558TMC3     O 8281   4.098   0.881   9.365 -0.1104 -0.0851  0.7551
  558TMC3     H 8282   3.883   0.935   9.316  0.3735 -0.1533  0.3808
  558TMC3    H1 8283   3.936   0.521   9.355 -0.4180 -2.1793  3.1497
  558TMC3    H2 8284   3.571   0.696   9.492  0.7449 -0.0666  1.2186
  558TMC3    C7 8285   3.699   0.466   9.440  0.2749 -0.5604  0.0395
  558TMC3    C8 8286   3.680   0.947   9.488 -0.0166 -0.3012 -0.7149
  558TMC3    O1 8287   3.793   0.387   9.465 -0.3394 -0.0239  0.7871
  558TMC3    O2 8288   3.755   1.044   9.478  0.5079 -0.3002  0.3042
  559MPD2     C 8289   3.471   1.886  10.080  0.1074  0.4070  0.0682
  559MPD2    C1 8290   3.382   1.838  10.169 -0.9333 -0.1210 -0.5094
  559MPD2    C2 8291   3.426   1.802  10.293  0.5524  0.3169  0.5300
  559MPD2    C3 8292   3.559   1.819  10.328  0.2777 -0.6025  0.7461
  559MPD2    C4 8293   3.650   1.874  10.236 -0.9681  0.2388  0.1402
  559MPD2    C5 8294   3.606   1.913  10.115  1.2806 -0.1013  0.2296
  559MPD2     H 8295   3.363   1.761  10.371  0.6035  0.9064  0.8811
  559MPD2    H1 8296   3.752   1.899  10.262 -1.0579 -0.1686  0.9058
  559MPD2    H2 8297   3.432   1.898   9.979 -3.2835 -0.7706  1.2723
  559MPD2    H3 8298   3.681   1.967  10.059  2.3591 -0.4511  1.3330
  559MPD2     N 8299   3.591   1.786  10.462  0.0818  0.1143  0.2474
  559MPD2    H5 8300   3.511   1.757  10.518  0.5648  0.1167  0.9483
  559MPD2    N1 8301   3.243   1.817  10.132  0.7218  0.0741  0.0669
  559MPD2    H7 8302   3.214   1.842  10.038 -0.0078 -0.2874  0.1975
  560TMC3    C1 8303   3.721   1.750  10.649 -0.0582 -0.2725  0.3478
  560TMC3    C2 8304   3.636   1.651  10.674 -0.7091  0.0290  0.7452
  560TMC3    C3 8305   3.633   1.597  10.801  0.0399  0.8066 -0.5102
  560TMC3    C4 8306   3.815   1.787  10.744 -0.3301 -0.5326  0.1590
  560TMC3    C5 8307   3.812   1.729  10.872 -0.2415 -1.1471 -0.4181
  560TMC3    C6 8308   3.717   1.638  10.905 -0.3409  0.3014  0.0579
  560TMC3     C 8309   3.708   1.818  10.526 -0.1593  0.3006 -0.2012
  560TMC3     O 8310   3.813   1.873  10.491 -0.2301 -0.0910  0.6111
  560TMC3     H 8311   3.558   1.616  10.608 -0.1689  0.8705 -0.3421
  560TMC3    H1 8312   3.874   1.877  10.729 -3.4146  1.3807 -0.2720
  560TMC3    H2 8313   3.704   1.602  11.006  0.7639 -0.6418 -0.1440
  560TMC3    C7 8314   3.911   1.762  10.982 -0.1293  0.6271 -0.3101
  560TMC3    C8 8315   3.535   1.499  10.828 -0.6919 -0.2127  0.1815
  560TMC3    O1 8316   3.886   1.741  11.099 -0.3012  0.4375 -0.1884
  560TMC3    O2 8317   3.441   1.501  10.750  0.4541 -0.3165  0.0591
  561TMC3    C1 8318   1.280   0.565  10.778  0.2181 -0.0475  0.7231
  561TMC3    C2 8319   1.187   0.503  10.860  0.0341  0.6838  0.1526
  561TMC3    C3 8320   1.144   0.560  10.972  0.1305  0.1821  0.1848
  561TMC3    C4 8321   1.314   0.696  10.810 -0.1056 -0.1341 -0.3276
  561TMC3    C5 8322   1.261   0.752  10.929  0.1447  0.0425 -0.2006
  561TMC3    C6 8323   1.187   0.678  11.016  0.0557 -0.5365 -0.3380
  561TMC3     C 8324   1.345   0.500  10.664 -0.4449 -0.0809 -0.1613
  561TMC3     O 8325   1.422   0.561  10.592  0.1694  0.5290  0.4246
  561TMC3     H 8326   1.153   0.402  10.840 -2.3480  1.0257  2.5537
  561TMC3    H1 8327   1.381   0.740  10.737  0.2090 -0.0451  0.0200
  561TMC3    H2 8328   1.155   0.721  11.111  1.3961 -0.2737 -0.0158
  561TMC3    C7 8329   1.317   0.871  10.984 -0.0968 -0.2383  0.7501
  561TMC3    C8 8330   1.080   0.473  11.076 -0.1350  0.6433  0.9019
  561TMC3    O1 8331   1.289   0.913  11.097  0.3041 -0.1096  1.1136
  561TMC3    O2 8332   1.093   0.354  11.059 -0.6418 -0.4879  0.4498
  562TMC3    C1 8333   2.621   2.173  16.218  0.0154  0.6078 -0.0088
  562TMC3    C2 8334   2.616   2.303  16.171 -0.4328  0.3985  0.5661
  562TMC3    C3 8335   2.661   2.326  16.041 -0.6599  0.7144  0.1649
  562TMC3    C4 8336   2.669   2.076  16.132  0.0125  0.5489  0.4046
  562TMC3    C5 8337   2.716   2.107  16.005 -0.0901 -0.1617  0.3194
  562TMC3    C6 8338   2.717   2.235  15.962 -0.7867  0.3735 -0.2138
  562TMC3     C 8339   2.585   2.149  16.353  0.0066 -0.7447  0.2866
  562TMC3     O 8340   2.514   2.232  16.409 -0.0173 -0.5425 -0.0387
  562TMC3     H 8341   2.578   2.374  16.243 -0.2426  0.2905  0.7717
  562TMC3    H1 8342   2.647   1.973  16.157 -0.5955  0.1209 -1.8841
  562TMC3    H2 8343   2.749   2.263  15.862  1.4059 -0.0906  0.3415
  562TMC3    C7 8344   2.730   2.004  15.907  0.3940  0.4779 -0.5416
  562TMC3    C8 8345   2.662   2.460  15.998 -0.3105 -0.4207 -0.2452
  562TMC3    O1 8346   2.709   2.026  15.788  0.4468  0.5172 -0.3292
  562TMC3    O2 8347   2.696   2.551  16.074  0.2896 -0.0201 -0.2951
  563MPD2     C 8348   0.328   3.030  15.500 -0.2264 -0.3357  0.0339
  563MPD2    C1 8349   0.360   3.080  15.622 -0.5315 -0.4773  0.1861
  563MPD2    C2 8350   0.472   3.030  15.675  0.2521  0.7632 -0.1187
  563MPD2    C3 8351   0.547   2.916  15.642 -0.2687 -0.3042 -0.3370
  563MPD2    C4 8352   0.494   2.862  15.523 -0.1160  0.3409 -0.4773
  563MPD2    C5 8353   0.400   2.929  15.454 -0.8337  0.2993 -0.0811
  563MPD2     H 8354   0.517   3.101  15.744 -0.7279  2.1486 -0.8953
  563MPD2    H1 8355   0.544   2.785  15.465  1.6782  1.6327 -0.6285
  563MPD2    H2 8356   0.239   3.066  15.448  1.5557  2.0555 -1.3543
  563MPD2    H3 8357   0.369   2.887  15.359  2.2639  0.3185 -1.1032
  563MPD2     N 8358   0.662   2.880  15.710 -0.0736  0.6877  0.0192
  563MPD2    H5 8359   0.687   2.949  15.781  1.1023  2.8280 -2.4772
  563MPD2    N1 8360   0.299   3.195  15.667 -0.4247  0.0325 -0.4148
  563MPD2    H7 8361   0.236   3.238  15.599  2.4291  3.1095 -1.1055
  564TMC3    C1 8362   0.343   3.183  15.899 -0.0153 -0.4756 -0.8037
  564TMC3    C2 8363   0.261   3.081  15.919 -0.2704  0.0201  0.2652
  564TMC3    C3 8364   0.263   3.024  16.042 -0.4162 -0.0604  0.3639
  564TMC3    C4 8365   0.449   3.208  15.979 -0.6221 -0.2003  0.1043
  564TMC3    C5 8366   0.465   3.138  16.092  0.6722 -0.1928  0.2310
  564TMC3    C6 8367   0.354   3.068  16.136 -0.3412  0.2542  0.4605
  564TMC3     C 8368   0.327   3.263  15.779 -0.6550  0.1691  0.0820
  564TMC3     O 8369   0.286   3.376  15.794 -0.2193 -0.0332 -0.3616
  564TMC3     H 8370   0.177   3.059  15.854 -0.1839 -1.2228  0.5650
  564TMC3    H1 8371   0.529   3.278  15.956 -0.1542 -0.6008  0.5007
  564TMC3    H2 8372   0.360   3.009  16.226  0.3647 -0.5915 -0.1412
  564TMC3    C7 8373   0.588   3.054  16.089 -0.5641  0.1083 -0.0569
  564TMC3    C8 8374   0.247   2.882  16.037 -0.0740 -0.4018 -0.4739
  564TMC3    O1 8375   0.649   3.056  15.980  0.1881 -0.0190  0.0529
  564TMC3    O2 8376   0.212   2.829  16.142 -0.2410  0.0690 -0.2720
  565TMC3    C1 8377   0.655   4.708   9.172 -0.3318 -0.3885 -0.3048
  565TMC3    C2 8378   0.644   4.662   9.304 -0.1118 -0.3803 -0.4020
  565TMC3    C3 8379   0.539   4.579   9.333 -0.6324  0.7787  0.9321
  565TMC3    C4 8380   0.556   4.680   9.079 -0.5417  0.2375  0.4336
  565TMC3    C5 8381   0.469   4.579   9.114 -0.2251 -0.3516 -0.7474
  565TMC3    C6 8382   0.456   4.530   9.241 -0.2319  0.9565  0.1296
  565TMC3     C 8383   0.745   0.083   9.132  0.0620  0.0094  0.8224
  565TMC3     O 8384   0.734   0.131   9.022  0.8534  0.3501  0.0075
  565TMC3     H 8385   0.706   4.695   9.386 -0.4184  1.5922 -0.9619
  565TMC3    H1 8386   0.568   4.710   8.975 -0.9561  0.3949  0.4324
  565TMC3    H2 8387   0.361   4.483   9.267  0.2792  0.4812  1.1457
  565TMC3    C7 8388   0.392   4.523   9.006  0.6310 -0.6147 -0.2566
  565TMC3    C8 8389   0.513   4.555   9.478  0.1933 -0.0819 -0.0490
  565TMC3    O1 8390   0.376   4.596   8.910  0.0453  0.0132 -0.2607
  565TMC3    O2 8391   0.572   4.622   9.558  0.1488  0.2122  0.2270
  566MPD2     C 8392   1.985   1.734  14.009  1.2837  0.6766 -0.5767
  566MPD2    C1 8393   2.071   1.628  14.013 -0.2931  0.5367  0.0622
  566MPD2    C2 8394   2.110   1.574  13.887 -0.7423 -0.1735  0.6767
  566MPD2    C3 8395   2.071   1.629  13.768  0.1102 -0.2291  0.1010
  566MPD2    C4 8396   1.988   1.744  13.771 -0.2392  0.1337  0.5214
  566MPD2    C5 8397   1.954   1.792  13.892 -0.3351 -0.5906  0.2343
  566MPD2     H 8398   2.192   1.504  13.884  0.8035  1.5877  1.8969
  566MPD2    H1 8399   1.964   1.796  13.679 -2.5139  2.7740  2.6007
  566MPD2    H2 8400   1.943   1.776  14.099 -0.1753 -2.9182  0.4181
  566MPD2    H3 8401   1.889   1.879  13.893 -0.9969 -1.0778 -0.4817
  566MPD2     N 8402   2.133   1.596  13.641  0.4519 -0.7781 -0.0982
  566MPD2    H5 8403   2.149   1.678  13.584  2.4265 -1.6413 -0.8130
  566MPD2    N1 8404   2.131   1.585  14.132 -0.2143  0.3442  0.2561
  566MPD2    H7 8405   2.134   1.654  14.207  1.9632  2.2832 -1.5956
  567TMC3    C1 8406   2.331   1.493  14.227  0.0768  0.1091 -0.1740
  567TMC3    C2 8407   2.395   1.612  14.223  0.1067 -0.3667 -0.3396
  567TMC3    C3 8408   2.522   1.609  14.269  0.4101 -0.9111 -0.0668
  567TMC3    C4 8409   2.397   1.378  14.266 -0.1413 -0.2143  0.3374
  567TMC3    C5 8410   2.513   1.387  14.327 -0.7971 -0.3665 -0.3611
  567TMC3    C6 8411   2.580   1.504  14.335 -0.3317  0.4298 -0.0044
  567TMC3     C 8412   2.214   1.478  14.142 -1.0662 -0.6536 -0.6169
  567TMC3     O 8413   2.188   1.366  14.094  0.3161 -0.3409 -0.5390
  567TMC3     H 8414   2.348   1.700  14.180 -1.2793 -0.3861  1.1350
  567TMC3    H1 8415   2.351   1.284  14.237  0.0553 -0.5222  1.0460
  567TMC3    H2 8416   2.670   1.513  14.396 -0.1653  1.8510 -0.4446
  567TMC3    C7 8417   2.562   1.276  14.406 -0.5082  0.0784  0.3841
  567TMC3    C8 8418   2.612   1.705  14.205 -0.4023  0.5611  0.1222
  567TMC3    O1 8419   2.612   1.311  14.510 -0.1548  0.9032 -0.0596
  567TMC3    O2 8420   2.574   1.761  14.100 -0.5004  0.2934  0.3475
  568MPD2     C 8421   0.066   1.426  16.518  0.9626 -0.7385  0.7852
  568MPD2    C1 8422   0.109   1.528  16.601 -0.0105  1.0462  0.1044
  568MPD2    C2 8423   0.101   1.655  16.561  0.2308  0.8899 -0.0089
  568MPD2    C3 8424   0.073   1.688  16.428  0.3236  0.5429  0.3826
  568MPD2    C4 8425   0.035   1.587  16.346 -0.0408  0.2676  0.2392
  568MPD2    C5 8426   0.018   1.457  16.394  0.2370  0.1527 -0.2436
  568MPD2     H 8427   0.123   1.742  16.623  3.6067  1.0100 -1.4147
  568MPD2    H1 8428   0.000   1.610  16.246  3.1325  0.3288 -0.8374
  568MPD2    H2 8429   0.064   1.322  16.549  0.5762 -0.2531  2.4066
  568MPD2    H3 8430   4.707   1.377  16.331 -1.0199  1.5418 -1.2839
  568MPD2     N 8431   0.065   1.827  16.388 -0.6818  0.9512 -0.5200
  568MPD2    H5 8432   0.070   1.896  16.463  0.4014 -1.3357  1.5127
  568MPD2    N1 8433   0.171   1.493  16.722 -0.2020  0.2507 -0.0955
  568MPD2    H7 8434   0.177   1.392  16.736  0.6108  0.7754  3.2407
  569TMC3    C1 8435   0.023   2.017  16.259 -0.0059  0.3646  1.1012
  569TMC3    C2 8436   4.712   2.092  16.374 -0.3784 -0.9990  0.5626
  569TMC3    C3 8437   0.027   2.222  16.367 -0.0406 -0.3023  0.2853
  569TMC3    C4 8438   0.086   2.068  16.149 -0.9993  0.3041  0.1322
  569TMC3    C5 8439   0.116   2.199  16.157 -0.1587 -0.0406 -0.7227
  569TMC3    C6 8440   0.086   2.284  16.260  0.6845  0.1119  0.0812
  569TMC3     C 8441   0.026   1.876  16.261 -0.1104 -0.4609 -0.4229
  569TMC3     O 8442   0.016   1.821  16.152  0.5111 -0.3939 -0.1205
  569TMC3     H 8443   4.656   2.058  16.461  0.6565 -0.9797  1.2325
  569TMC3    H1 8444   0.103   2.008  16.060 -0.0210 -1.7048  1.6858
  569TMC3    H2 8445   0.109   2.390  16.254  1.7490 -0.1886 -1.2793
  569TMC3    C7 8446   0.180   2.242  16.033 -0.7972  0.1212 -0.2610
  569TMC3    C8 8447   0.017   2.286  16.496 -0.0019 -0.0820 -0.1659
  569TMC3    O1 8448   0.178   2.168  15.940  0.4287  0.0096 -0.0079
  569TMC3    O2 8449   4.674   2.238  16.581 -0.4526 -0.4042  0.4138
  570TMC3    C1 8450   4.462   0.695  15.985  0.2958 -0.2805 -0.2462
  570TMC3    C2 8451   4.539   0.687  15.874 -0.1031 -0.3752 -0.9449
  570TMC3    C3 8452   4.574   0.802  15.812  0.1128  0.1771 -0.0161
  570TMC3    C4 8453   4.418   0.808  16.041 -0.2489 -0.3554  0.2738
  570TMC3    C5 8454   4.461   0.923  15.982  0.9578  0.6293  0.4847
  570TMC3    C6 8455   4.540   0.919  15.866 -0.3558 -0.2530  0.0667
  570TMC3     C 8456   4.419   0.565  16.041  0.8106 -0.1095 -0.5211
  570TMC3     O 8457   4.407   0.477  15.956 -0.1516  0.4726 -0.3161
  570TMC3     H 8458   4.579   0.590  15.848  1.1976 -0.4914  1.5120
  570TMC3    H1 8459   4.373   0.801  16.140  0.8471  1.8269  0.9429
  570TMC3    H2 8460   4.566   1.009  15.811  1.2620  0.2475  1.6605
  570TMC3    C7 8461   4.440   1.049  16.054 -0.2011 -0.0288 -0.3684
  570TMC3    C8 8462   4.662   0.803  15.695  0.1432 -0.5004  0.4152
  570TMC3    O1 8463   4.353   1.043  16.135 -0.4901 -0.1836  0.8364
  570TMC3    O2 8464   0.009   0.902  15.685  0.2244  0.5664  0.1991
  571MPD2     C 8465   3.387   2.453  17.434  0.5310 -0.3854  0.7651
  571MPD2    C1 8466   3.430   2.457  17.564  0.1487  0.6042 -0.3556
  571MPD2    C2 8467   3.335   2.483  17.657 -0.4639 -1.2256  0.2433
  571MPD2    C3 8468   3.206   2.504  17.624  0.1787  0.5964 -0.3824
  571MPD2    C4 8469   3.170   2.509  17.493  0.1594  0.0413 -0.0112
  571MPD2    C5 8470   3.263   2.476  17.397  0.1420 -0.3680 -0.3845
  571MPD2     H 8471   3.364   2.471   0.059  1.0178  0.6274  0.0603
  571MPD2    H1 8472   3.070   2.538  17.462 -0.1202 -1.2425 -0.2942
  571MPD2    H2 8473   3.463   2.448  17.357 -0.6624 -2.0598 -0.3098
  571MPD2    H3 8474   3.241   2.492  17.292 -1.1792 -2.8913 -0.4976
  571MPD2     N 8475   3.106   2.536   0.018  0.6782 -0.0158  0.1753
  571MPD2    H5 8476   3.015   2.554  17.677  1.1391  0.3705 -0.6600
  571MPD2    N1 8477   3.567   2.431  17.594 -0.1733 -0.1120  0.6856
  571MPD2    H7 8478   3.627   2.400  17.518 -0.7991 -3.0041  1.3798
  572TMC3    C1 8479   2.999   2.583   0.213 -0.7761  0.1587  0.3021
  572TMC3    C2 8480   2.932   2.509   0.307  0.1177  0.1302 -0.8180
  572TMC3    C3 8481   2.813   2.551   0.345 -0.6697 -0.6551  0.2842
  572TMC3    C4 8482   2.955   2.698   0.158  0.6879 -0.5835 -0.8571
  572TMC3    C5 8483   2.835   2.742   0.204 -0.0649 -0.2788 -0.0572
  572TMC3    C6 8484   2.759   2.666   0.285 -0.2020  0.1842  0.1661
  572TMC3     C 8485   3.120   2.531   0.151 -0.4837  0.3579 -0.4549
  572TMC3     O 8486   3.209   2.509   0.229 -0.3609  0.4588 -0.1198
  572TMC3     H 8487   2.962   2.406   0.319 -0.6586 -0.0303 -0.2563
  572TMC3    H1 8488   3.012   2.752   0.084  0.8190  1.5565  0.8055
  572TMC3    H2 8489   2.655   2.695   0.295  0.0209  1.8478 -2.4428
  572TMC3    C7 8490   2.779   2.861   0.150  0.1593 -0.6511  0.4064
  572TMC3    C8 8491   2.735   2.450   0.423 -1.0670 -0.4913  0.3114
  572TMC3    O1 8492   2.656   2.859   0.141  0.0288 -0.3973 -0.0116
  572TMC3    O2 8493   2.802   2.364   0.475 -0.0652  0.2774 -0.1211
  573MPD2     C 8494   4.155   3.106   0.512 -0.0093 -0.2901  0.0571
  573MPD2    C1 8495   4.021   3.105   0.550 -0.3237 -0.0699 -0.2928
  573MPD2    C2 8496   3.928   3.108   0.446  1.2931 -0.0118 -0.3009
  573MPD2    C3 8497   3.960   3.109   0.311 -0.7356  0.7383 -0.3081
  573MPD2    C4 8498   4.097   3.121   0.283  0.6533 -0.2615  0.1955
  573MPD2    C5 8499   4.191   3.104   0.382 -0.0572 -0.3751  0.4293
  573MPD2     H 8500   3.821   3.111   0.463  1.5106  0.2183  1.0103
  573MPD2    H1 8501   4.134   3.129   0.181 -2.2853 -1.9960 -1.0064
  573MPD2    H2 8502   4.235   3.127   0.582 -1.0570  4.2473 -0.0922
  573MPD2    H3 8503   4.297   3.114   0.362 -0.4110 -1.2073 -1.7525
  573MPD2     N 8504   3.870   3.133   0.208  0.4433 -0.0184  0.1638
  573MPD2    H5 8505   3.902   3.153   0.114 -1.2143  0.6041 -0.2774
  573MPD2    N1 8506   3.985   3.116   0.687  0.5557 -0.1846 -0.1025
  573MPD2    H7 8507   4.058   3.123   0.757  1.0550 -0.3045 -0.6051
  574TMC3    C1 8508   3.658   3.126   0.086 -0.3080  0.3203  0.4033
  574TMC3    C2 8509   3.537   3.066   0.066  0.0081 -0.4977  0.1200
  574TMC3    C3 8510   3.470   3.084  17.650 -0.0824  0.0732  0.6229
  574TMC3    C4 8511   3.716   3.210  17.699 -0.1385 -0.5597  0.1761
  574TMC3    C5 8512   3.643   3.225  17.580  0.0214  0.2998 -0.4498
  574TMC3    C6 8513   3.521   3.171  17.552  0.0136  0.4059 -0.0237
  574TMC3     C 8514   3.736   3.098   0.213 -0.7702  0.5133  0.3475
  574TMC3     O 8515   3.670   3.061   0.307 -0.2946  0.0103 -0.2164
  574TMC3     H 8516   3.513   2.979   0.126 -3.0237 -0.0043 -0.3907
  574TMC3    H1 8517   3.812   3.254   0.021 -0.5847 -0.5948  2.0465
  574TMC3    H2 8518   3.484   3.173  17.450  1.2719  0.3323 -0.4765
  574TMC3    C7 8519   3.689   3.326  17.481 -0.3429 -1.4806 -0.0191
  574TMC3    C8 8520   3.346   3.014  17.633 -0.2310 -0.7508 -0.6826
  574TMC3    O1 8521   3.605   3.378  17.410  0.4532  0.1200 -0.1278
  574TMC3    O2 8522   3.314   2.919   0.003 -0.1460  0.1655  0.2200
  575TMC3    C1 8523   0.798   4.351  10.249 -1.2804  0.2597  0.3325
  575TMC3    C2 8524   0.718   4.294  10.350 -0.4357  0.8487  0.0973
  575TMC3    C3 8525   0.583   4.300  10.329 -0.1615  0.4129 -0.1848
  575TMC3    C4 8526   0.749   4.414  10.140  0.5057 -0.2029 -0.7240
  575TMC3    C5 8527   0.606   4.430  10.134 -0.5395  0.5839  0.6594
  575TMC3    C6 8528   0.524   4.356  10.213 -0.2520 -0.2145 -0.4639
  575TMC3     C 8529   0.946   4.340  10.265 -0.1854 -0.6179  0.2908
  575TMC3     O 8530   0.993   4.272  10.355  0.4842 -0.2762 -0.2928
  575TMC3     H 8531   0.758   4.230  10.428 -0.5421  0.2335 -0.3551
  575TMC3    H1 8532   0.808   4.441  10.053 -1.9670  0.0870 -2.2901
  575TMC3    H2 8533   0.417   4.377  10.209 -0.1332 -0.0393 -2.9376
  575TMC3    C7 8534   0.565   4.448   9.998 -0.7716 -0.1752  0.3983
  575TMC3    C8 8535   0.494   4.252  10.434 -0.3069 -0.0590 -0.1024
  575TMC3    O1 8536   0.630   4.517   9.920  0.1593  0.5152  0.5983
  575TMC3    O2 8537   0.383   4.228  10.387 -0.0059 -0.1849  0.0137
  576MPD2     C 8538   0.519   0.664  12.421 -0.1108  0.0097 -0.0226
  576MPD2    C1 8539   0.468   0.772  12.345  0.0540 -0.0050 -0.5040
  576MPD2    C2 8540   0.376   0.854  12.409  0.2466 -0.2023 -0.7299
  576MPD2    C3 8541   0.344   0.839  12.540  0.3156 -0.0782 -0.4198
  576MPD2    C4 8542   0.405   0.743  12.614  0.2676 -0.0595  0.2695
  576MPD2    C5 8543   0.487   0.649  12.552  0.0285  0.2663 -0.1217
  576MPD2     H 8544   0.313   0.923  12.354 -0.4125 -0.7442 -0.6578
  576MPD2    H1 8545   0.396   0.736  12.722 -1.5030  2.1479  0.2677
  576MPD2    H2 8546   0.571   0.583  12.372  2.2186  1.0367  0.7514
  576MPD2    H3 8547   0.531   0.575  12.617  2.8567  0.6491 -1.5954
  576MPD2     N 8548   0.244   0.911  12.609  0.5413  0.0314 -0.2619
  576MPD2    H5 8549   0.205   0.991  12.560  0.7488 -0.7018 -1.6267
  576MPD2    N1 8550   0.484   0.791  12.205  0.0857  0.1507 -0.5327
  576MPD2    H7 8551   0.427   0.864  12.163 -0.3213  0.6890  0.9310
  577TMC3    C1 8552   0.565   0.733  11.988  0.5968  0.5415  0.2771
  577TMC3    C2 8553   0.668   0.685  11.915  0.0934  0.6387 -0.0216
  577TMC3    C3 8554   0.663   0.692  11.780 -0.0187  0.0661  0.0340
  577TMC3    C4 8555   0.451   0.778  11.930  0.2276 -0.2296  0.7314
  577TMC3    C5 8556   0.445   0.778  11.793  0.4127  0.6646  0.3542
  577TMC3    C6 8557   0.556   0.744  11.711  0.3565  0.9346 -0.3496
  577TMC3     C 8558   0.575   0.717  12.131  0.0400  0.1600 -0.7995
  577TMC3     O 8559   0.658   0.634  12.170 -0.0095 -0.1966 -0.3739
  577TMC3     H 8560   0.751   0.632  11.960  1.7571  1.5113 -2.0421
  577TMC3    H1 8561   0.367   0.808  11.992  0.4684 -1.4530  1.6581
  577TMC3    H2 8562   0.547   0.740  11.603 -1.1651  1.7247 -0.2559
  577TMC3    C7 8563   0.335   0.854  11.728 -0.3472 -0.1321 -0.3033
  577TMC3    C8 8564   0.730   0.580  11.711  0.3144  0.4190  0.9213
  577TMC3    O1 8565   0.356   0.904  11.619  0.2839 -0.1153 -0.6009
  577TMC3    O2 8566   0.756   0.488  11.785  0.0140  0.6804 -0.0355
  578MPD2     C 8567   3.924   0.951   0.936 -0.0707 -0.0140  0.0079
  578MPD2    C1 8568   4.011   0.896   0.848  0.1253 -0.3480  0.0826
  578MPD2    C2 8569   4.136   0.853   0.893 -0.0770 -0.0201 -0.1701
  578MPD2    C3 8570   4.162   0.855   1.030 -0.5185  0.6267 -0.2261
  578MPD2    C4 8571   4.073   0.915   1.116 -0.5557 -0.0144 -0.0911
  578MPD2    C5 8572   3.950   0.962   1.065 -0.2900  0.7194 -0.1111
  578MPD2     H 8573   4.205   0.808   0.824  0.7479  1.3810 -0.2680
  578MPD2    H1 8574   4.074   0.920   1.225  0.3637  1.5995 -0.1812
  578MPD2    H2 8575   3.828   0.990   0.903  0.4035  0.0442 -1.2975
  578MPD2    H3 8576   3.878   0.996   1.139  0.2735 -1.1377  1.2926
  578MPD2     N 8577   4.284   0.796   1.076 -0.0037 -0.3487 -0.0884
  578MPD2    H5 8578   4.351   0.759   1.010 -2.0964 -1.8369 -1.3601
  578MPD2    N1 8579   3.966   0.891   0.713  0.1074  0.2487  0.6129
  578MPD2    H7 8580   3.872   0.927   0.698  0.6583  0.8002 -1.5419
  579TMC3    C1 8581   4.473   0.751   1.207 -0.4267  0.0152  0.4750
  579TMC3    C2 8582   4.558   0.790   1.311 -0.3942  0.1747 -0.2905
  579TMC3    C3 8583   4.689   0.758   1.298 -0.9090 -0.2634 -0.4750
  579TMC3    C4 8584   4.515   0.668   1.103 -0.1454  0.0672 -0.8237
  579TMC3    C5 8585   4.650   0.631   1.103 -0.0410  0.2414 -0.2238
  579TMC3    C6 8586   0.016   0.678   1.191  0.6693 -0.3215  0.0712
  579TMC3     C 8587   4.338   0.811   1.204 -0.2779  0.3568 -0.4000
  579TMC3     O 8588   4.296   0.869   1.303 -0.2726  0.2625 -0.5425
  579TMC3     H 8589   4.512   0.840   1.396 -0.8606 -2.0618  0.7749
  579TMC3    H1 8590   4.439   0.612   1.049 -1.2110 -0.7499  1.5153
  579TMC3    H2 8591   0.121   0.652   1.186  0.2848 -1.6694 -0.9771
  579TMC3    C7 8592   4.696   0.523   1.022 -0.3571  0.0486  0.0275
  579TMC3    C8 8593   0.052   0.825   1.395  0.8315 -0.5245 -0.7226
  579TMC3    O1 8594   0.087   0.487   1.043 -0.3875  0.4030 -0.5230
  579TMC3    O2 8595   0.006   0.866   1.500  0.0162  0.2808 -0.2716
  580TMC3    C1 8596   2.716   4.390  11.213  0.4042 -0.1970  0.3251
  580TMC3    C2 8597   2.794   4.399  11.099  0.2066 -0.2969 -0.3561
  580TMC3    C3 8598   2.819   4.281  11.037 -0.3024 -0.3286  0.4017
  580TMC3    C4 8599   2.655   4.270  11.253 -0.2439  0.4070 -0.3320
  580TMC3    C5 8600   2.692   4.159  11.199 -0.4872  0.0923 -0.2573
  580TMC3    C6 8601   2.776   4.160  11.086 -0.6901 -0.1365 -0.2930
  580TMC3     C 8602   2.766   4.480  11.316  0.1713  0.0976 -0.0641
  580TMC3     O 8603   2.821   4.588  11.288 -0.5917  0.3721 -0.6820
  580TMC3     H 8604   2.833   4.498  11.074  0.6377 -0.6122 -0.9359
  580TMC3    H1 8605   2.590   4.259  11.340  0.2945 -0.4900 -0.0426
  580TMC3    H2 8606   2.811   4.063  11.052 -0.8271 -0.0909 -0.5659
  580TMC3    C7 8607   2.742   4.073  11.309 -0.8092 -0.8142 -0.2685
  580TMC3    C8 8608   2.936   4.279  10.954 -0.0603  0.5883  0.2066
  580TMC3    O1 8609   2.775   4.137  11.408  0.0078 -0.2401  0.3475
  580TMC3    O2 8610   2.940   4.192  10.865  0.1521 -0.6968 -0.4208
  581MPD2     C 8611   1.313   4.349  14.401 -0.6720 -1.1017 -0.3838
  581MPD2    C1 8612   1.292   4.369  14.536 -0.5058 -0.7056 -0.3270
  581MPD2    C2 8613   1.200   4.469  14.571  0.5567 -0.2385 -0.4791
  581MPD2    C3 8614   1.127   4.535  14.474 -0.0748  0.8707 -0.2410
  581MPD2    C4 8615   1.166   4.515  14.340 -0.5728  0.5731 -0.6373
  581MPD2    C5 8616   1.259   4.429  14.304 -0.1167  0.2236  0.6255
  581MPD2     H 8617   1.184   4.495  14.675 -2.5040  2.9517 -1.7385
  581MPD2    H1 8618   1.111   4.572  14.266 -0.3897 -0.7152 -1.7485
  581MPD2    H2 8619   1.393   4.284  14.367  1.7886  0.8584  1.7144
  581MPD2    H3 8620   1.284   4.436  14.199 -2.8238  2.0119  0.1095
  581MPD2     N 8621   1.031   4.631  14.495  0.3243 -0.2395 -0.1827
  581MPD2    H5 8622   1.002   4.684  14.413 -1.4689  0.6818  1.0609
  581MPD2    N1 8623   1.366   4.292  14.628 -0.5014 -0.1958  0.1726
  581MPD2    H7 8624   1.436   4.225  14.597  0.3087  0.7423 -0.0150
  582TMC3    C1 8625   1.435   4.201  14.833 -0.3777 -0.0035 -0.5184
  582TMC3    C2 8626   1.487   4.241  14.953 -0.4609  0.6838  0.3879
  582TMC3    C3 8627   1.566   4.154  15.020  0.2860 -0.8591 -0.6237
  582TMC3    C4 8628   1.445   4.073  14.781 -0.1215  0.2017  0.1204
  582TMC3    C5 8629   1.509   3.982  14.864 -0.1576 -0.1207 -0.0275
  582TMC3    C6 8630   1.576   4.026  14.972 -0.0089 -0.3284  0.0736
  582TMC3     C 8631   1.347   4.289  14.765 -0.2490  0.1381  0.5537
  582TMC3     O 8632   1.272   4.353  14.843 -0.0401  0.4342 -0.1624
  582TMC3     H 8633   1.473   4.340  14.996 -0.5091  0.4283  0.9645
  582TMC3    H1 8634   1.404   4.055  14.682  0.1083  3.9704 -0.6700
  582TMC3    H2 8635   1.619   3.954  15.041  0.3981 -0.3927 -0.2482
  582TMC3    C7 8636   1.416   3.874  14.892  0.7251 -0.8060  0.1605
  582TMC3    C8 8637   1.574   4.181  15.161 -0.5161 -0.0388 -0.0769
  582TMC3    O1 8638   1.466   3.781  14.956  0.6343 -0.1451 -0.3618
  582TMC3    O2 8639   1.506   4.271  15.208  0.3230 -0.4609 -0.2806
  583MPD2     C 8640   1.615   0.985  16.947  0.4414 -0.3069  0.0294
  583MPD2    C1 8641   1.548   1.070  16.865  0.0643  0.3028  0.1184
  583MPD2    C2 8642   1.459   1.160  16.925  0.3672 -0.7893  0.2397
  583MPD2    C3 8643   1.452   1.180  17.062  0.0255 -0.2384 -0.5627
  583MPD2    C4 8644   1.536   1.107  17.141 -0.5594 -1.0950  0.2336
  583MPD2    C5 8645   1.613   1.011  17.080  0.5596  0.2723 -0.1106
  583MPD2     H 8646   1.400   1.217  16.855  0.2072 -0.9022  0.2849
  583MPD2    H1 8647   1.545   1.111  17.249 -0.6487 -0.1240  0.2005
  583MPD2    H2 8648   1.690   0.915  16.911 -0.7215 -0.9203 -1.1641
  583MPD2    H3 8649   1.678   0.951  17.142  1.8201 -0.9101 -2.5926
  583MPD2     N 8650   1.367   1.278  17.123  0.0942  0.5356 -0.3278
  583MPD2    H5 8651   1.293   1.323  17.070  1.2720  2.8184 -0.0625
  583MPD2    N1 8652   1.563   1.070  16.723  0.9719  0.1054  0.1874
  583MPD2    H7 8653   1.529   1.146  16.665 -0.5008 -1.3895 -0.9226
  584TMC3    C1 8654   1.256   1.401  17.293 -0.0199  0.6035  0.2276
  584TMC3    C2 8655   1.231   1.506  17.206 -0.6259 -0.8973 -0.5777
  584TMC3    C3 8656   1.164   1.613  17.253  0.2545 -0.3468 -0.0096
  584TMC3    C4 8657   1.232   1.424  17.427  0.5040 -0.3323 -0.0882
  584TMC3    C5 8658   1.186   1.541  17.476  0.1289 -0.3868  0.4723
  584TMC3    C6 8659   1.149   1.638  17.393 -0.1924 -0.6289  0.4461
  584TMC3     C 8660   1.368   1.311  17.257 -0.0383 -0.2871 -0.7807
  584TMC3     O 8661   1.439   1.276  17.342  0.0827 -0.0286  0.0093
  584TMC3     H 8662   1.258   1.497  17.102  4.4501  1.9438  0.4923
  584TMC3    H1 8663   1.276   1.351  17.495  1.6310 -0.2007 -0.6947
  584TMC3    H2 8664   1.131   1.741  17.424  3.9648  0.1957  0.2016
  584TMC3    C7 8665   1.188   1.572  17.620  0.6238 -0.0073 -0.0060
  584TMC3    C8 8666   1.155   1.719  17.155 -0.0589  0.3897  0.8140
  584TMC3    O1 8667   1.280   1.523  17.688 -0.2939 -0.3545 -0.3428
  584TMC3    O2 8668   1.149   1.686  17.040  0.4322  0.2642 -0.0805
  585MPD2     C 8669   1.608   0.312   0.075 -0.5679 -0.5831  0.2250
  585MPD2    C1 8670   1.495   0.386   0.036 -0.4251 -0.8349  0.5431
  585MPD2    C2 8671   1.396   0.329  17.655 -0.7226 -0.4947  0.2506
  585MPD2    C3 8672   1.419   0.197  17.610  1.1381 -0.0256 -0.5514
  585MPD2    C4 8673   1.535   0.134  17.641  0.9054  0.5531  0.6536
  585MPD2    C5 8674   1.629   0.190   0.020  0.0001 -0.2863 -0.4046
  585MPD2     H 8675   1.306   0.382  17.625  0.4671  0.1646 -2.2241
  585MPD2    H1 8676   1.569   0.039  17.600 -2.7224 -0.9803  1.1617
  585MPD2    H2 8677   1.665   0.341   0.162  1.4962 -0.2063 -1.2604
  585MPD2    H3 8678   1.710   0.130   0.059  0.1728  0.3384  0.1865
  585MPD2     N 8679   1.332   0.128  17.527  1.1275  0.7273  0.4919
  585MPD2    H5 8680   1.343   0.027  17.519  1.6436  0.8310 -0.1047
  585MPD2    N1 8681   1.479   0.518   0.097 -0.1852  0.0391 -0.9011
  585MPD2    H7 8682   1.551   0.554   0.158 -1.0810  1.6943 -0.8452
  586TMC3    C1 8683   1.157   0.054  17.394 -0.3956  0.5390  0.1092
  586TMC3    C2 8684   1.231   4.660  17.398 -0.3166 -0.4262  0.1247
  586TMC3    C3 8685   1.166   4.560  17.326 -0.3318 -0.2321  0.3598
  586TMC3    C4 8686   1.029   0.067  17.345 -0.7695  0.1261 -0.1304
  586TMC3    C5 8687   0.967   4.679  17.297  0.5971  0.5935 -0.1330
  586TMC3    C6 8688   1.040   4.565  17.273  0.8756 -0.5927 -0.0837
  586TMC3     C 8689   1.228   0.168  17.453 -0.1170  0.0516  0.3232
  586TMC3     O 8690   1.185   0.280  17.424  0.5173  0.1813  0.5891
  586TMC3     H 8691   1.338   4.653  17.410 -0.2721 -0.6736 -0.4351
  586TMC3    H1 8692   0.970   0.154  17.371  1.6830  0.9195  2.8900
  586TMC3    H2 8693   1.002   4.472  17.231 -0.5750  1.0905 -2.4740
  586TMC3    C7 8694   0.822   4.664  17.262  0.2892  0.1319  0.1279
  586TMC3    C8 8695   1.246   4.437  17.309  1.3340 -0.5240 -0.0188
  586TMC3    O1 8696   0.789   4.547  17.244  0.3663 -0.0612 -0.0138
  586TMC3    O2 8697   1.323   4.409  17.400  0.5071  0.0758 -0.5461
  587TMC3    C1 8698   3.147   3.529  15.671  0.4381 -0.6636  0.1596
  587TMC3    C2 8699   3.135   3.660  15.700  0.1116  0.0398 -0.0660
  587TMC3    C3 8700   3.175   3.747  15.606  0.3290  0.4004  0.4500
  587TMC3    C4 8701   3.184   3.484  15.548 -0.2632 -0.0151  0.8855
  587TMC3    C5 8702   3.228   3.573  15.457  0.0287  0.2934  0.3905
  587TMC3    C6 8703   3.229   3.707  15.486 -0.3357 -0.0127 -0.6786
  587TMC3     C 8704   3.131   3.430  15.777 -0.2519  0.3674 -0.3731
  587TMC3     O 8705   3.188   3.325  15.762 -0.1383 -0.2112 -0.1145
  587TMC3     H 8706   3.103   3.692  15.798  0.0279  0.3594 -0.1999
  587TMC3    H1 8707   3.184   3.375  15.550 -1.6642 -0.0226  0.7840
  587TMC3    H2 8708   3.274   3.778  15.418  0.1085  1.5476  1.2576
  587TMC3    C7 8709   3.342   3.512  15.391 -0.0638  0.4251 -0.9847
  587TMC3    C8 8710   3.196   3.885  15.651 -0.0293 -1.0310  0.5563
  587TMC3    O1 8711   3.339   3.391  15.362 -0.5631  0.4192  0.0575
  587TMC3    O2 8712   3.292   3.944  15.605  0.6985 -0.3246 -0.1780
  588TMC3    C1 8713   0.422   1.895   9.222 -0.7568  0.3114 -0.1532
  588TMC3    C2 8714   0.379   1.770   9.190 -0.1154 -0.5170  0.1002
  588TMC3    C3 8715   0.399   1.670   9.282  0.3549 -1.0234 -0.8060
  588TMC3    C4 8716   0.484   1.921   9.338  0.2625 -0.5457 -0.2077
  588TMC3    C5 8717   0.484   1.825   9.439 -0.2586  0.3381  0.4389
  588TMC3    C6 8718   0.441   1.698   9.412 -0.3935  0.0899 -0.1730
  588TMC3     C 8719   0.357   2.009   9.154 -0.0873 -0.0318  0.3074
  588TMC3     O 8720   0.269   1.994   9.072  0.2258  0.5860  0.2575
  588TMC3     H 8721   0.330   1.754   9.095 -1.2592  1.9917  0.2630
  588TMC3    H1 8722   0.528   2.015   9.371 -1.1777  0.5662 -1.4702
  588TMC3    H2 8723   0.426   1.630   9.495  0.9224 -1.4891 -1.2330
  588TMC3    C7 8724   0.514   1.859   9.577  0.0936 -0.3167 -0.5666
  588TMC3    C8 8725   0.352   1.534   9.255 -0.4640  0.0566  0.0974
  588TMC3    O1 8726   0.572   1.771   9.643 -0.1921 -0.0350 -0.1953
  588TMC3    O2 8727   0.266   1.525   9.167 -0.3077 -0.1699  0.3914
  589TMC3    C1 8728   0.003   3.452   0.927  0.0393  0.1831 -0.6503
  589TMC3    C2 8729   0.085   3.518   1.008  0.5820  0.1386  0.6861
  589TMC3    C3 8730   0.194   3.465   1.062 -0.6013  0.7368  0.3641
  589TMC3    C4 8731   0.011   3.317   0.917  0.2735 -0.0938  0.5769
  589TMC3    C5 8732   0.116   3.255   0.980 -0.4052 -0.1278  0.1844
  589TMC3    C6 8733   0.207   3.329   1.054  0.2446  0.3549  0.0339
  589TMC3     C 8734   4.592   3.492   0.897  0.7281  0.1932 -0.0215
  589TMC3     O 8735   4.525   3.428   0.818 -0.1581 -0.0305 -0.1068
  589TMC3     H 8736   0.079   3.626   1.015 -0.9872  0.1323 -0.3787
  589TMC3    H1 8737   4.670   3.263   0.851 -0.4138  1.2652  0.1447
  589TMC3    H2 8738   0.285   3.271   1.104  0.0064  1.1503  1.3360
  589TMC3    C7 8739   0.112   3.112   0.992  0.5399  0.0561  0.1264
  589TMC3    C8 8740   0.251   3.543   1.171  0.0765 -0.1556 -0.0608
  589TMC3    O1 8741   0.014   3.046   0.949 -0.1437 -0.7493  0.7009
  589TMC3    O2 8742   0.182   3.628   1.223  0.0573  0.5452 -0.2072
  590MPD2     C 8743   3.979   2.394  16.526 -0.0403  0.0580  0.0171
  590MPD2    C1 8744   3.930   2.402  16.399  0.0495  0.6067 -0.0298
  590MPD2    C2 8745   3.994   2.488  16.319  0.0951 -0.6936 -0.9665
  590MPD2    C3 8746   4.087   2.573  16.366 -0.1365 -0.3717  0.1673
  590MPD2    C4 8747   4.127   2.575  16.499  0.5329  0.1248  0.2822
  590MPD2    C5 8748   4.067   2.481  16.579 -0.3012 -0.9630  0.4758
  590MPD2     H 8749   3.983   2.477  16.212  0.1830 -1.9024 -0.8486
  590MPD2    H1 8750   4.195   2.648  16.541 -1.2464  2.9667 -1.7469
  590MPD2    H2 8751   3.922   2.324  16.586 -0.7140  1.8351  1.4460
  590MPD2    H3 8752   4.082   2.476  16.687  0.1357 -0.7911  0.4210
  590MPD2     N 8753   4.153   2.651  16.264  0.5453  0.2355  0.2046
  590MPD2    H5 8754   4.141   2.624  16.167  0.4038  2.6015 -0.4218
  590MPD2    N1 8755   3.816   2.320  16.364 -0.9313  0.5713  0.3189
  590MPD2    H7 8756   3.783   2.263  16.442 -1.9269  1.9311  0.8811
  591TMC3    C1 8757   4.288   2.812  16.161 -0.0546 -0.0847 -0.3130
  591TMC3    C2 8758   4.368   2.738  16.078 -0.0719  0.0644 -0.0812
  591TMC3    C3 8759   4.409   2.801  15.963  0.0685  0.2905 -0.1042
  591TMC3    C4 8760   4.262   2.942  16.140 -0.0763  0.2835 -0.6875
  591TMC3    C5 8761   4.317   3.003  16.029  0.2047  0.1473  0.2428
  591TMC3    C6 8762   4.381   2.929  15.930  0.1843  0.1234 -0.3227
  591TMC3     C 8763   4.234   2.761  16.289 -0.2189 -0.5824  0.2739
  591TMC3     O 8764   4.231   2.837  16.386 -0.0554  0.1477 -0.2642
  591TMC3     H 8765   4.378   2.632  16.098 -0.1897  0.1737  0.5493
  591TMC3    H1 8766   4.198   3.001  16.205  0.2093  0.7758 -0.8583
  591TMC3    H2 8767   4.399   2.967  15.830 -1.1097 -0.1583 -0.6640
  591TMC3    C7 8768   4.240   3.110  15.971 -0.3986  0.0441  0.2013
  591TMC3    C8 8769   4.503   2.726  15.883  0.6151 -0.4825  0.4597
  591TMC3    O1 8770   4.123   3.109  16.002  0.3380 -0.3640  0.4498
  591TMC3    O2 8771   4.501   2.604  15.909  0.4533  0.6297  0.0483
  592MPD2     C 8772   4.002   4.562  11.049  0.3221  0.3830 -0.0742
  592MPD2    C1 8773   4.031   4.596  11.174  0.0282 -0.4816 -0.5678
  592MPD2    C2 8774   3.987   4.513  11.276 -0.3048 -0.6622  0.8014
  592MPD2    C3 8775   3.901   4.407  11.248 -0.6686  0.5646  0.0343
  592MPD2    C4 8776   3.860   4.391  11.121  0.9512 -0.6137  0.2849
  592MPD2    C5 8777   3.920   4.459  11.013 -0.7749 -0.4684 -0.7856
  592MPD2     H 8778   4.020   4.531  11.377  4.2436 -1.3578 -0.5419
  592MPD2    H1 8779   3.797   4.309  11.087  1.5891 -1.1743  0.4459
  592MPD2    H2 8780   4.040   4.624  10.968 -3.4531  2.6885 -0.0861
  592MPD2    H3 8781   3.889   4.424  10.916 -3.3629 -1.6181  0.4586
  592MPD2     N 8782   3.849   4.327  11.356  0.0858 -0.2315  0.5830
  592MPD2    H5 8783   3.886   4.350  11.448  2.3282 -0.4866 -0.2561
  592MPD2    N1 8784   4.120   4.700  11.191 -0.1442  0.3298  0.5972
  592MPD2    H7 8785   4.156   0.022  11.109 -2.1071  1.6389  0.4693
  593TMC3    C1 8786   4.238   0.134  11.322  0.2103 -0.4096  0.1676
  593TMC3    C2 8787   4.259   0.198  11.439  0.5878  0.3713  0.0783
  593TMC3    C3 8788   4.351   0.292  11.445  0.1047 -0.0070 -0.3023
  593TMC3    C4 8789   4.315   0.165  11.210  0.6561 -0.3552 -0.2075
  593TMC3    C5 8790   4.401   0.271  11.220 -0.4594  0.2014 -0.1059
  593TMC3    C6 8791   4.428   0.330  11.340  0.8117 -0.0277  0.4573
  593TMC3     C 8792   4.152   0.019  11.318  0.6548 -0.1085  0.7498
  593TMC3     O 8793   4.112   4.715  11.431 -0.2866 -0.2792 -0.3077
  593TMC3     H 8794   4.197   0.179  11.526  0.5899 -0.2823 -0.0648
  593TMC3    H1 8795   4.306   0.112  11.116 -0.9225 -0.3979 -0.0283
  593TMC3    H2 8796   4.510   0.400  11.355  0.0791  0.7033  1.0191
  593TMC3    C7 8797   4.487   0.303  11.111 -0.2269  0.1176 -0.2476
  593TMC3    C8 8798   4.362   0.339  11.582  0.2584  0.1377  0.4159
  593TMC3    O1 8799   4.563   0.394  11.135  0.5503 -0.6130 -0.1578
  593TMC3    O2 8800   4.260   0.359  11.641 -0.2762 -0.0188  0.0619
  594MPD2     C 8801   3.065   3.058  13.810 -0.0828  0.2267 -0.2765
  594MPD2    C1 8802   3.098   3.040  13.947 -0.4661 -0.2477  0.2629
  594MPD2    C2 8803   3.205   3.107  14.003 -0.5383 -0.4443  0.0137
  594MPD2    C3 8804   3.290   3.175  13.921 -0.8154 -0.4528  0.6402
  594MPD2    C4 8805   3.259   3.192  13.790 -0.4276 -0.7249 -0.2730
  594MPD2    C5 8806   3.142   3.144  13.738  0.2456  0.1222  0.2279
  594MPD2     H 8807   3.235   3.089  14.105 -0.7594 -0.0440  0.1500
  594MPD2    H1 8808   3.321   3.249  13.722  0.1986 -1.6504 -0.4752
  594MPD2    H2 8809   2.987   3.001  13.759  0.6395  0.3011 -1.4743
  594MPD2    H3 8810   3.116   3.170  13.637 -2.0257  0.6806  0.9546
  594MPD2     N 8811   3.396   3.235  13.988  0.6719  0.0711 -0.3634
  594MPD2    H5 8812   3.416   3.208  14.084 -0.8385  0.8456  0.1704
  594MPD2    N1 8813   3.016   2.947  14.016  0.0789 -0.5489 -0.1362
  594MPD2    H7 8814   2.931   2.916  13.970  0.3034  1.1003 -1.6675
  595TMC3    C1 8815   3.781   3.478  14.045  0.1447 -0.3821  0.5216
  595TMC3    C2 8816   3.709   3.383  13.979 -0.5108 -0.1338  0.2154
  595TMC3    C3 8817   3.584   3.361  14.024 -0.0332  1.3049  0.6529
  595TMC3    C4 8818   3.735   3.541  14.154  0.2620 -0.4919  0.2515
  595TMC3    C5 8819   3.612   3.508  14.202 -0.0404  0.6923  0.0504
  595TMC3    C6 8820   3.539   3.404  14.146 -0.1141 -0.6402 -0.0967
  595TMC3     C 8821   3.924   3.489  14.021  0.3733 -0.2830 -0.4431
  595TMC3     O 8822   3.988   3.578  14.078 -0.7091 -0.1951 -0.0677
  595TMC3     H 8823   3.740   3.343  13.883 -0.0526  2.2131 -0.5991
  595TMC3    H1 8824   3.798   3.614  14.203 -0.6464 -0.0403  0.7487
  595TMC3    H2 8825   3.432   3.405  14.166  0.2617 -1.4353  1.9150
  595TMC3    C7 8826   3.531   3.629  14.246 -0.0012  0.5700  0.2477
  595TMC3    C8 8827   3.491   3.309  13.926  0.1152 -0.0343 -0.3171
  595TMC3    O1 8828   3.428   3.604  14.306  0.5501  0.0495  0.3282
  595TMC3    O2 8829   3.503   3.342  13.808  0.0760  0.1722 -0.6071
  596MPD2     C 8830   2.507   1.098  16.336 -0.0094 -0.4208 -0.3981
  596MPD2    C1 8831   2.444   1.205  16.281  0.3774 -0.3335 -0.3291
  596MPD2    C2 8832   2.391   1.195  16.149 -0.1480  0.4331 -0.8687
  596MPD2    C3 8833   2.392   1.073  16.083 -0.8470  0.0351 -0.9414
  596MPD2    C4 8834   2.464   0.971  16.137  0.3636 -0.4445 -0.0713
  596MPD2    C5 8835   2.522   0.987  16.260 -0.6309 -0.4623 -0.3118
  596MPD2     H 8836   2.336   1.275  16.102  1.0473  0.7484 -1.7336
  596MPD2    H1 8837   2.474   0.876  16.087  0.6127 -1.7421  2.4084
  596MPD2    H2 8838   2.562   1.102  16.430  0.2807 -1.7630 -0.5133
  596MPD2    H3 8839   2.588   0.910  16.300 -1.8796 -1.5196 -0.2780
  596MPD2     N 8840   2.334   1.054  15.955  0.3239  0.0884 -0.1967
  596MPD2    H5 8841   2.354   0.963  15.915 -0.8541 -0.3495  0.2031
  596MPD2    N1 8842   2.431   1.328  16.351 -0.4015 -0.8422  0.1434
  596MPD2    H7 8843   2.378   1.399  16.301 -0.4033 -1.1413 -0.2721
  597TMC3    C1 8844   2.439   1.492  16.528  0.1459  0.0241 -0.1060
  597TMC3    C2 8845   2.409   1.584  16.434  0.1949 -0.1482 -0.5811
  597TMC3    C3 8846   2.348   1.702  16.472  0.2058 -0.2266  0.3492
  597TMC3    C4 8847   2.404   1.515  16.659  0.1969 -0.4048 -0.3902
  597TMC3    C5 8848   2.330   1.630  16.688  0.0665 -0.1591  0.3873
  597TMC3    C6 8849   2.299   1.723  16.594 -0.0160  0.2499 -0.2361
  597TMC3     C 8850   2.464   1.354  16.484  0.0882  0.7651  0.6287
  597TMC3     O 8851   2.516   1.280  16.568 -0.3558 -0.3532  0.1207
  597TMC3     H 8852   2.437   1.572  16.330  0.9790  3.2135 -0.7783
  597TMC3    H1 8853   2.430   1.450  16.742 -1.8222 -0.4142  0.2178
  597TMC3    H2 8854   2.262   1.819  16.628 -1.4046  0.4401 -2.2718
  597TMC3    C7 8855   2.246   1.609  16.803 -0.0050 -0.4755 -0.3303
  597TMC3    C8 8856   2.331   1.809  16.374  0.5833 -0.0618  0.5857
  597TMC3    O1 8857   2.267   1.506  16.873  0.0022  0.5552 -0.6541
  597TMC3    O2 8858   2.228   1.874  16.390  0.5065  0.3093  0.5223
  598TMC3    C1 8859   0.692   2.934  15.139  0.3291 -0.4707  0.5601
  598TMC3    C2 8860   0.571   2.871  15.154 -0.1587  0.5133  0.3549
  598TMC3    C3 8861   0.482   2.862  15.050 -0.8111  0.4998  0.4366
  598TMC3    C4 8862   0.728   2.983  15.017 -0.7009  0.1855 -0.1140
  598TMC3    C5 8863   0.628   2.988  14.916  0.0326 -0.1286  0.2165
  598TMC3    C6 8864   0.504   2.930  14.932  0.5531 -0.0148  0.1778
  598TMC3     C 8865   0.787   2.906  15.249 -0.5888 -0.0301 -0.1609
  598TMC3     O 8866   0.782   2.796  15.308 -0.3854 -0.3727 -0.3094
  598TMC3     H 8867   0.547   2.837  15.254 -0.5434 -1.4488 -0.3912
  598TMC3    H1 8868   0.828   3.018  14.996  0.0062 -1.6077  0.2735
  598TMC3    H2 8869   0.454   2.922  14.836 -1.4890  1.6970  1.0894
  598TMC3    C7 8870   0.661   3.063  14.793 -0.2043 -0.2658 -0.0306
  598TMC3    C8 8871   0.374   2.771  15.063 -0.6440 -0.8424 -0.1514
  598TMC3    O1 8872   0.635   3.010  14.684  0.2102 -0.0433 -0.0546
  598TMC3    O2 8873   0.364   2.700  15.165 -0.1578  0.2686  0.4879
  599MPD2     C 8874   0.431   0.540  15.865  0.5956 -0.1151 -0.6552
  599MPD2    C1 8875   0.485   0.461  15.962 -0.2988  0.9327  0.0977
  599MPD2    C2 8876   0.444   0.482  16.094 -0.9281 -0.3353  0.1384
  599MPD2    C3 8877   0.347   0.577  16.123  0.1835  0.6733  0.3575
  599MPD2    C4 8878   0.293   0.652  16.020  0.3152 -0.2372 -0.0480
  599MPD2    C5 8879   0.341   0.635  15.893  0.3702  0.5973  0.3006
  599MPD2     H 8880   0.491   0.422  16.171 -0.1642  0.7514  0.5190
  599MPD2    H1 8881   0.226   0.734  16.042 -0.6109 -0.6358 -1.4140
  599MPD2    H2 8882   0.466   0.531  15.763  1.6297 -3.0563 -0.0360
  599MPD2    H3 8883   0.323   0.717  15.825 -0.6428 -0.6477 -0.9186
  599MPD2     N 8884   0.305   0.603  16.263 -0.1082  0.2662 -0.6166
  599MPD2    H5 8885   0.338   0.533  16.330 -0.9183 -0.5037 -1.0229
  599MPD2    N1 8886   0.587   0.363  15.924 -0.3908  0.3745 -0.4767
  599MPD2    H7 8887   0.609   0.353  15.826 -1.3240 -1.5701 -0.4808
  600TMC3    C1 8888   0.220   0.710  16.456  0.2134  0.1002  0.6040
  600TMC3    C2 8889   0.164   0.594  16.507 -0.1959  0.3253  0.6353
  600TMC3    C3 8890   0.096   0.610  16.627 -0.2526  0.5867  0.9030
  600TMC3    C4 8891   0.204   0.828  16.514  0.4486  0.3703 -0.4015
  600TMC3    C5 8892   0.143   0.841  16.635 -0.5943  0.1976 -0.2002
  600TMC3    C6 8893   0.078   0.730  16.688  0.1698  0.2019  0.3037
  600TMC3     C 8894   0.253   0.717  16.317  0.4610 -0.1250 -0.1131
  600TMC3     O 8895   0.232   0.824  16.263 -0.4026  0.0909 -0.4275
  600TMC3     H 8896   0.178   0.496  16.462  1.0861  0.1583  1.3985
  600TMC3    H1 8897   0.253   0.911  16.466 -2.7239  2.8610  0.6550
  600TMC3    H2 8898   4.725   0.735  16.763 -1.7838 -2.2359 -1.5504
  600TMC3    C7 8899   0.113   0.981  16.675 -0.1217 -0.7963 -0.0387
  600TMC3    C8 8900   0.034   0.502  16.688  0.6674  0.4734  0.0584
  600TMC3    O1 8901   0.146   1.064  16.594  0.7204  0.1440  0.2320
  600TMC3    O2 8902   0.009   0.512  16.808  0.1235 -0.0282  0.5808
  601MPD2     C 8903   2.812   3.318  17.639  0.2657 -0.4878 -1.2589
  601MPD2    C1 8904   2.712   3.220  17.620 -0.0087 -0.4668  0.8664
  601MPD2    C2 8905   2.726   3.104  17.697  0.4073 -0.1113 -0.4260
  601MPD2    C3 8906   2.839   3.084   0.071 -0.0204 -0.2330 -0.0295
  601MPD2    C4 8907   2.940   3.171   0.059  0.5363  0.2092 -0.2692
  601MPD2    C5 8908   2.929   3.293  17.698  0.5071  0.7992 -0.0203
  601MPD2     H 8909   2.661   3.018  17.682 -0.1575  0.5698 -1.8729
  601MPD2    H1 8910   3.033   3.153   0.112  1.3390 -1.6259 -2.2935
  601MPD2    H2 8911   2.798   3.420  17.604  1.5768 -0.3477 -1.3819
  601MPD2    H3 8912   3.018   3.353  17.689  0.5359  0.6427 -0.7414
  601MPD2     N 8913   2.872   2.960   0.136 -0.8276 -1.3049  0.1667
  601MPD2    H5 8914   2.968   2.946   0.162 -1.1288  0.3301  2.1386
  601MPD2    N1 8915   2.602   3.236  17.528  0.8143  0.1367  1.0936
  601MPD2    H7 8916   2.536   3.160  17.521 -0.1900  1.1283 -0.2353
  602TMC3    C1 8917   2.491   3.327  17.331 -0.9984  0.3958  0.2685
  602TMC3    C2 8918   2.474   3.201  17.276  0.5333 -0.0198  0.0578
  602TMC3    C3 8919   2.413   3.196  17.150 -0.2964 -0.3571 -0.4010
  602TMC3    C4 8920   2.449   3.442  17.281  0.2701 -0.2369 -0.1969
  602TMC3    C5 8921   2.378   3.425  17.163 -0.1886  1.2250 -0.1760
  602TMC3    C6 8922   2.363   3.309  17.094 -0.1858 -0.3915 -0.5220
  602TMC3     C 8923   2.593   3.343  17.435 -0.8803 -0.3030  0.3519
  602TMC3     O 8924   2.663   3.442  17.420  0.2551 -0.2240 -0.0469
  602TMC3     H 8925   2.499   3.108  17.326  0.6368 -0.1909 -0.3109
  602TMC3    H1 8926   2.465   3.541  17.320  0.0503  0.2214 -1.2744
  602TMC3    H2 8927   2.309   3.319  17.000  0.4666  1.5222 -0.6965
  602TMC3    C7 8928   2.313   3.547  17.107 -0.1971  0.0441 -0.7118
  602TMC3    C8 8929   2.395   3.072  17.087 -0.1488  0.2808  0.2017
  602TMC3    O1 8930   2.365   3.653  17.107  0.3233 -0.3512 -0.0135
  602TMC3    O2 8931   2.485   2.995  17.087 -0.5163 -0.1602 -0.6071
  603TMC3    C1 8932   4.724   4.504  10.835  0.5689  0.4084 -1.1064
  603TMC3    C2 8933   0.038   4.458  10.954 -0.3858 -0.1751  0.5525
  603TMC3    C3 8934   0.172   4.463  10.985  0.7736  0.1756 -0.4026
  603TMC3    C4 8935   0.086   4.536  10.733 -0.4387 -0.3089  0.0462
  603TMC3    C5 8936   0.218   4.532  10.770  0.0326 -0.5637  0.2686
  603TMC3    C6 8937   0.267   4.509  10.893 -0.0378  0.4837  0.0550
  603TMC3     C 8938   4.584   4.511  10.807  0.0059  0.1767 -0.4000
  603TMC3     O 8939   4.498   4.446  10.870 -0.4089  0.9276  0.3045
  603TMC3     H 8940   4.693   4.428  11.032  0.0172  1.5886  1.5866
  603TMC3    H1 8941   0.046   4.558  10.634 -2.0255 -2.4688  0.1924
  603TMC3    H2 8942   0.371   4.477  10.895  0.2976  1.5100 -1.0652
  603TMC3    C7 8943   0.311   4.580  10.674 -0.0391 -0.7139 -0.2759
  603TMC3    C8 8944   0.216   4.365  11.091  0.1318 -0.3660  0.1890
  603TMC3    O1 8945   0.416   4.627  10.721 -0.7072  0.3838 -0.4031
  603TMC3    O2 8946   0.132   4.308  11.159  0.1638 -0.1909  0.2468
  604MPD2     C 8947   1.491   2.425  16.610  0.1169 -0.1402  1.0719
  604MPD2    C1 8948   1.371   2.361  16.578  0.2508  0.4046  0.0616
  604MPD2    C2 8949   1.356   2.299  16.455 -0.3495 -0.0315  0.6463
  604MPD2    C3 8950   1.459   2.300  16.364  0.0606  0.2127  0.3347
  604MPD2    C4 8951   1.576   2.365  16.398 -0.0644  0.1946 -0.0013
  604MPD2    C5 8952   1.595   2.423  16.520 -0.2572 -0.3009  0.2481
  604MPD2     H 8953   1.267   2.245  16.424  0.1269  0.1966 -1.1586
  604MPD2    H1 8954   1.658   2.364  16.327  0.4897  1.5778  0.6123
  604MPD2    H2 8955   1.500   2.496  16.692  0.1478 -0.3307  1.2326
  604MPD2    H3 8956   1.683   2.477  16.552  0.4588 -3.0016  2.8158
  604MPD2     N 8957   1.433   2.236  16.242 -0.4133 -0.6769  0.2625
  604MPD2    H5 8958   1.338   2.201  16.233 -0.3450 -1.1786  1.4776
  604MPD2    N1 8959   1.270   2.386  16.672  0.2183  0.3107 -0.3335
  604MPD2    H7 8960   1.297   2.461  16.735 -0.8166 -1.8990  2.7221
  605TMC3    C1 8961   1.046   2.423  16.736  0.3013  1.1631 -0.2152
  605TMC3    C2 8962   1.094   2.502  16.839 -0.4149  0.5368 -0.2268
  605TMC3    C3 8963   1.066   2.637  16.842  0.0465 -0.4787  0.1291
  605TMC3    C4 8964   0.954   2.470  16.648 -0.1742  0.7472 -0.1753
  605TMC3    C5 8965   0.925   2.600  16.660  0.0486 -0.0398 -1.1423
  605TMC3    C6 8966   0.977   2.688  16.751 -0.2678  0.1451 -0.1945
  605TMC3     C 8967   1.142   2.334  16.676 -0.1192 -1.2049 -0.0253
  605TMC3     O 8968   1.094   2.255  16.591  0.2874  0.3445 -0.1424
  605TMC3     H 8969   1.168   2.463  16.908 -1.1107 -0.2177  0.0894
  605TMC3    H1 8970   0.906   2.404  16.576 -0.2726  0.0924  0.4871
  605TMC3    H2 8971   0.959   2.795  16.749 -0.5593  0.1643  2.6559
  605TMC3    C7 8972   0.841   2.672  16.569 -0.3022 -0.4719  0.2934
  605TMC3    C8 8973   1.190   2.709  16.865  0.1802 -0.2760 -0.0649
  605TMC3    O1 8974   0.789   2.774  16.605 -0.2956 -0.3301 -0.4865
  605TMC3    O2 8975   1.294   2.647  16.851 -0.0594 -0.1099  0.3015
  606TMC3    C1 8976   2.305   1.356  17.378  0.7127 -0.0855 -0.6266
  606TMC3    C2 8977   2.356   1.331  17.507  0.4049 -0.0465  0.0680
  606TMC3    C3 8978   2.405   1.198  17.525  0.6400  0.1613  0.8260
  606TMC3    C4 8979   2.296   1.265  17.278  0.7742  0.2786 -0.1134
  606TMC3    C5 8980   2.347   1.143  17.302 -1.1518 -0.2369  0.1174
  606TMC3    C6 8981   2.403   1.103  17.426  0.2031 -0.1937 -0.5400
  606TMC3     C 8982   2.277   1.493  17.347  0.4467 -0.0914  0.6075
  606TMC3     O 8983   2.194   1.508  17.257 -0.6019  1.3574 -0.4471
  606TMC3     H 8984   2.340   1.406  17.584 -0.5346 -0.7292  0.5496
  606TMC3    H1 8985   2.241   1.284  17.187  2.5394 -0.3701 -1.3026
  606TMC3    H2 8986   2.435   1.003  17.452 -2.9032 -1.1178 -0.2226
  606TMC3    C7 8987   2.307   1.031  17.216  0.9107 -0.9362  0.1751
  606TMC3    C8 8988   2.458   1.164  17.658  0.1185  0.1876 -0.3182
  606TMC3    O1 8989   2.307   1.055  17.097 -0.1056  0.2557  0.1263
  606TMC3    O2 8990   2.488   1.047  17.669  0.0583 -0.3682 -0.2683
  607MPD2     C 8991   4.204   4.156  11.488  0.9497  0.3176  0.1518
  607MPD2    C1 8992   4.186   4.277  11.554 -0.2724 -0.1084 -0.1902
  607MPD2    C2 8993   4.158   4.278  11.693 -0.5200 -0.0112  0.0659
  607MPD2    C3 8994   4.141   4.158  11.756  0.1873 -0.7356  0.3344
  607MPD2    C4 8995   4.144   4.035  11.687  0.2794  0.0038 -0.5248
  607MPD2    C5 8996   4.173   4.044  11.553 -0.1357 -0.4004  0.4757
  607MPD2     H 8997   4.157   4.371  11.749 -4.1201 -0.6851  1.1089
  607MPD2    H1 8998   4.123   3.938  11.732 -0.6724  0.1402 -0.6808
  607MPD2    H2 8999   4.230   4.141  11.384 -2.0404  0.0595 -0.5613
  607MPD2    H3 9000   4.177   3.949  11.500 -2.3983  0.4560 -1.2131
  607MPD2     N 9001   4.120   4.165  11.895  0.3650 -0.6881  0.0579
  607MPD2    H5 9002   4.133   4.259  11.931  1.0631 -1.0367  0.7102
  607MPD2    N1 9003   4.229   4.402  11.500 -0.8295 -0.0474  0.7030
  607MPD2    H7 9004   4.230   4.466  11.579 -2.1611  0.4553  0.3267
  608TMC3    C1 9005   4.405   4.523  11.399  0.0502  0.9915 -0.6373
  608TMC3    C2 9006   4.450   4.552  11.525  0.1228  0.3372 -0.2532
  608TMC3    C3 9007   4.529   4.667  11.539  0.2177 -0.3275 -0.0072
  608TMC3    C4 9008   4.457   4.578  11.290 -1.2825  0.1762 -0.2407
  608TMC3    C5 9009   4.541   4.685  11.304 -0.2410 -0.6675  0.3245
  608TMC3    C6 9010   4.581   0.006  11.428  0.4064  0.1244 -0.5870
  608TMC3     C 9011   4.307   4.417  11.384  0.1868 -0.2719 -0.0545
  608TMC3     O 9012   4.305   4.360  11.277  0.0998 -0.2443 -0.5574
  608TMC3     H 9013   4.425   4.484  11.606 -1.7188  1.2277 -0.0847
  608TMC3    H1 9014   4.413   4.559  11.192 -0.6159  0.6851 -0.6448
  608TMC3    H2 9015   4.658   0.080  11.449 -1.4874  1.7413  0.6429
  608TMC3    C7 9016   4.628   4.725  11.188  0.1623  0.4205  0.1119
  608TMC3    C8 9017   4.551   0.001  11.668  0.6381 -0.0572  0.9587
  608TMC3    O1 9018   4.587   4.708  11.071 -0.5641  0.2602  0.5738
  608TMC3    O2 9019   4.645   0.071  11.688 -0.1391  0.3889 -0.2204
  609TMC3    C1 9020   3.015   2.925   8.739  0.1091 -0.0012 -0.0298
  609TMC3    C2 9021   2.916   2.845   8.708 -0.1466  0.9101  0.0834
  609TMC3    C3 9022   2.944   2.716   8.690  0.3893 -0.4098 -0.0200
  609TMC3    C4 9023   3.145   2.882   8.755 -0.5918  0.0918 -0.7562
  609TMC3    C5 9024   3.164   2.743   8.745 -0.4930  0.6152  0.5538
  609TMC3    C6 9025   3.061   2.656   8.710  0.7838 -0.1464 -0.3744
  609TMC3     C 9026   2.986   3.066   8.770 -0.7052 -0.1465  0.4789
  609TMC3     O 9027   2.872   3.103   8.758 -0.1595 -0.4410 -0.1741
  609TMC3     H 9028   2.816   2.883   8.723 -0.2762  0.6201 -0.0449
  609TMC3    H1 9029   3.226   2.947   8.786 -2.0919  1.1296  0.9934
  609TMC3    H2 9030   3.070   2.548   8.707  1.2817 -0.0867 -1.1236
  609TMC3    C7 9031   3.299   2.700   8.781 -0.0272 -0.7139  0.2605
  609TMC3    C8 9032   2.841   2.640   8.617 -0.7537  0.2808  0.7387
  609TMC3    O1 9033   3.388   2.782   8.804  0.3523  0.1108 -0.3155
  609TMC3    O2 9034   2.868   2.524   8.582  0.1773  0.3820  0.2172
  610TMC3    C1 9035   4.707   4.026  12.491  0.8216  0.8981  0.5351
  610TMC3    C2 9036   0.028   4.097  12.384  0.3655  0.6213  0.1028
  610TMC3    C3 9037   0.129   4.040  12.310  0.7409  0.4680 -0.4436
  610TMC3    C4 9038   0.033   3.900  12.535 -0.0845 -0.6460 -0.1291
  610TMC3    C5 9039   0.135   3.853  12.461  0.0881 -0.1369  0.3083
  610TMC3    C6 9040   0.188   3.923  12.356  0.1859 -0.3315  0.1380
  610TMC3     C 9041   4.583   4.063  12.551  0.8827  0.4971  0.1747
  610TMC3     O 9042   4.525   3.975  12.614  0.3214 -0.0003 -0.5898
  610TMC3     H 9043   4.722   4.195  12.350 -1.3465  0.4035  1.0098
  610TMC3    H1 9044   4.708   3.847  12.616  3.4444  0.3377  2.7190
  610TMC3    H2 9045   0.283   3.884  12.322  1.8856  1.6958  2.6484
  610TMC3    C7 9046   0.228   3.753  12.522  0.2068  0.7258 -0.4356
  610TMC3    C8 9047   0.217   4.133  12.232  0.2499  0.4298 -0.6261
  610TMC3    O1 9048   0.322   3.705  12.459  0.1191  0.0390  0.4136
  610TMC3    O2 9049   0.166   4.225  12.171  0.2600  0.0022  0.0748
  611MPD2     C 9050   4.079   4.455   9.683 -0.9251  0.1632 -0.7430
  611MPD2    C1 9051   4.148   4.383   9.772 -0.0919 -0.0501  0.1509
  611MPD2    C2 9052   4.287   4.396   9.775  0.1319  0.0545 -0.1612
  611MPD2    C3 9053   4.350   4.481   9.684  0.4914  0.5531  0.2732
  611MPD2    C4 9054   4.276   4.547   9.590 -0.0808  0.7390  0.4267
  611MPD2    C5 9055   4.140   4.529   9.588  0.4721 -0.0629  0.2816
  611MPD2     H 9056   4.348   4.344   9.848 -0.7445  1.3923  1.5217
  611MPD2    H1 9057   4.331   4.606   9.518 -0.2920  0.2599 -0.1283
  611MPD2    H2 9058   3.971   4.453   9.685 -0.9165 -0.9761 -1.2324
  611MPD2    H3 9059   4.076   4.583   9.519  0.8120  0.5895  0.4745
  611MPD2     N 9060   4.490   4.500   9.675 -0.1034 -0.2010  0.6726
  611MPD2    H5 9061   4.508   4.570   9.604 -0.4900  0.4263  1.1861
  611MPD2    N1 9062   4.068   4.312   9.869 -0.4389 -0.5649  0.1110
  611MPD2    H7 9063   3.970   4.339   9.868 -1.3345 -3.8452  0.7039
  612TMC3    C1 9064   4.705   4.525   9.742  0.7963 -0.2109  0.1508
  612TMC3    C2 9065   0.050   4.554   9.856 -0.3773 -0.2416 -0.1928
  612TMC3    C3 9066   0.150   4.649   9.848  0.2606  0.0869 -0.0800
  612TMC3    C4 9067   0.010   4.583   9.628 -0.5139 -0.0390  0.4834
  612TMC3    C5 9068   0.116   4.666   9.620 -0.8109 -0.7958  0.1571
  612TMC3    C6 9069   0.191   4.697   9.730 -0.5165  0.5275  0.4218
  612TMC3     C 9070   4.584   4.461   9.765  0.3251 -0.1124 -0.9843
  612TMC3     O 9071   4.592   4.376   9.850 -0.1153 -0.1453  0.2191
  612TMC3     H 9072   0.002   4.520   9.947 -0.8272 -0.2526 -0.4309
  612TMC3    H1 9073   4.690   4.547   9.536  1.4305 -2.1230  0.3356
  612TMC3    H2 9074   0.281   0.031   9.722 -1.0897  1.4781  0.9885
  612TMC3    C7 9075   0.157   4.707   9.493  0.3193  0.1573 -0.1401
  612TMC3    C8 9076   0.257   4.665   9.948 -0.1214  0.7356 -0.5273
  612TMC3    O1 9077   0.098   4.646   9.405  0.4002  0.3561  0.0008
  612TMC3    O2 9078   0.371   4.695   9.909  0.3228  0.1952 -0.5996
  613MPD2     C 9079   2.954   1.632  16.837 -0.8082  0.2087 -0.8040
  613MPD2    C1 9080   2.982   1.661  16.711 -0.0191  0.0264  0.2005
  613MPD2    C2 9081   2.919   1.577  16.620 -0.2753  0.1659 -0.2807
  613MPD2    C3 9082   2.843   1.469  16.650 -0.3973  0.5548 -0.6496
  613MPD2    C4 9083   2.808   1.443  16.784  0.0110 -0.6619  0.3806
  613MPD2    C5 9084   2.868   1.534  16.878 -0.2327 -0.1200  0.0152
  613MPD2     H 9085   2.963   1.587  16.521  2.1376  1.0195  0.8954
  613MPD2    H1 9086   2.743   1.366  16.823  0.2897  0.2842  2.6958
  613MPD2    H2 9087   3.000   1.693  16.914 -2.1900 -0.0059  0.1858
  613MPD2    H3 9088   2.840   1.513  16.980  1.5507 -3.1941 -0.1438
  613MPD2     N 9089   2.802   1.367  16.561 -0.3869 -0.0942 -0.1971
  613MPD2    H5 9090   2.758   1.283  16.595 -0.5403 -0.8201 -2.1749
  613MPD2    N1 9091   3.081   1.747  16.669 -0.4881  0.0260  0.2958
  613MPD2    H7 9092   3.137   1.783  16.745  2.6188  1.2865 -2.5528
  614TMC3    C1 9093   3.232   1.848  16.513 -0.9802  0.6401  0.6066
  614TMC3    C2 9094   3.320   1.750  16.553 -0.4204 -0.1386  0.9811
  614TMC3    C3 9095   3.392   1.675  16.456 -0.2921  0.0116 -0.8777
  614TMC3    C4 9096   3.245   1.890  16.384 -0.6740  0.8975 -0.6454
  614TMC3    C5 9097   3.319   1.823  16.296 -1.2939 -0.1512  0.4839
  614TMC3    C6 9098   3.396   1.717  16.322  0.2579 -0.1235  0.3098
  614TMC3     C 9099   3.105   1.793  16.537 -0.2050  0.1288 -0.2356
  614TMC3     O 9100   3.032   1.772  16.439  0.3243 -0.4673  0.5660
  614TMC3     H 9101   3.313   1.721  16.657  2.4335 -2.5334  0.5276
  614TMC3    H1 9102   3.171   1.958  16.343 -0.2159  0.8059 -1.6420
  614TMC3    H2 9103   3.467   1.677  16.251  0.1975  1.4870 -0.6588
  614TMC3    C7 9104   3.289   1.837  16.157 -0.2820 -0.4423  0.2432
  614TMC3    C8 9105   3.385   1.532  16.463  0.0759  0.4413  0.2947
  614TMC3    O1 9106   3.255   1.951  16.121 -0.1445 -0.6709  0.2554
  614TMC3    O2 9107   3.381   1.465  16.360  0.2431  0.0360 -0.2647
  615MPD2     C 9108   2.998   2.547  15.721 -0.0606 -0.2382  0.0793
  615MPD2    C1 9109   3.085   2.655  15.692  0.4946 -0.3955  1.0730
  615MPD2    C2 9110   3.046   2.736  15.594  0.6958 -1.3018 -0.4194
  615MPD2    C3 9111   2.932   2.707  15.514  0.2510  0.2822  0.5148
  615MPD2    C4 9112   2.851   2.592  15.540 -0.2133  0.8666  0.0112
  615MPD2    C5 9113   2.892   2.509  15.642 -0.6523 -0.5388 -1.2663
  615MPD2     H 9114   3.105   2.824  15.574  0.5693 -0.6463  2.0399
  615MPD2    H1 9115   2.768   2.558  15.479 -0.0052  0.3181  0.0324
  615MPD2    H2 9116   3.027   2.482  15.802 -0.3562  0.7508  0.9771
  615MPD2    H3 9117   2.842   2.416  15.667 -0.6153  0.0467  1.0005
  615MPD2     N 9118   2.892   2.790  15.411  0.1326 -0.1115 -0.3603
  615MPD2    H5 9119   2.803   2.762  15.371  0.8057 -1.4630 -0.9028
  615MPD2    N1 9120   3.183   2.699  15.777  0.5305  0.7500 -0.3093
  615MPD2    H7 9121   3.225   2.787  15.749  1.7491  0.9311  2.1356
  616TMC3    C1 9122   3.331   2.707  15.969  0.6794 -1.6069 -0.3544
  616TMC3    C2 9123   3.370   2.836  15.945  1.0109  0.0793  0.5300
  616TMC3    C3 9124   3.443   2.899  16.044 -0.2286 -0.2259  0.6479
  616TMC3    C4 9125   3.361   2.645  16.088  0.3199 -0.5922  0.0814
  616TMC3    C5 9126   3.426   2.719  16.185  0.4484 -0.7460 -0.3377
  616TMC3    C6 9127   3.476   2.846  16.166 -0.1708 -0.3515  0.2597
  616TMC3     C 9128   3.233   2.627  15.888 -0.4727  0.5580  0.2817
  616TMC3     O 9129   3.209   2.513  15.928 -1.1301  0.0413 -0.0300
  616TMC3     H 9130   3.331   2.891  15.859  1.4183 -2.5427 -1.3301
  616TMC3    H1 9131   3.350   2.538  16.104 -1.0888 -0.7712 -2.0845
  616TMC3    H2 9132   3.537   2.900  16.238 -2.4141  1.5692  0.7217
  616TMC3    C7 9133   3.448   2.648  16.312  0.3415 -0.5113 -0.1699
  616TMC3    C8 9134   3.496   3.029  16.004 -1.0863 -0.0187 -0.3000
  616TMC3    O1 9135   3.368   2.564  16.350  0.0802 -0.3578 -0.5758
  616TMC3    O2 9136   3.455   3.075  15.898 -0.2093 -0.8531  0.4011
  617MPD2     C 9137   1.221   1.177  13.197  0.1332 -0.5753 -0.0124
  617MPD2    C1 9138   1.252   1.187  13.331  0.5887 -0.1759  0.0688
  617MPD2    C2 9139   1.158   1.134  13.426  0.4798  0.8283 -0.3858
  617MPD2    C3 9140   1.029   1.099  13.382  0.6881 -0.2870 -0.5688
  617MPD2    C4 9141   1.001   1.106  13.249 -0.2210  0.1500 -0.3651
  617MPD2    C5 9142   1.096   1.131  13.157 -0.2129  0.2871 -0.5504
  617MPD2     H 9143   1.173   1.140  13.533  1.2519 -1.1870 -0.3825
  617MPD2    H1 9144   0.899   1.077  13.224  0.1085 -2.2679  1.1415
  617MPD2    H2 9145   1.299   1.199  13.125  1.1222  0.2136  1.3297
  617MPD2    H3 9146   1.059   1.127  13.055  0.0500  0.7263 -0.6641
  617MPD2     N 9147   0.928   1.037  13.468  0.1757  0.3036 -0.5092
  617MPD2    H5 9148   0.843   1.005  13.421  1.2285 -0.4754 -1.8747
  617MPD2    N1 9149   1.379   1.242  13.357  0.1147 -0.9708  0.0395
  617MPD2    H7 9150   1.432   1.281  13.281 -2.0518  1.3161 -0.2714
  618TMC3    C1 9151   1.541   1.329  13.495 -0.6696 -0.4504 -0.5159
  618TMC3    C2 9152   1.638   1.298  13.578  0.2273  0.2609 -0.6743
  618TMC3    C3 9153   1.758   1.362  13.568  0.1605 -0.1352 -0.1405
  618TMC3    C4 9154   1.548   1.438  13.412 -0.1257 -0.2664 -0.4437
  618TMC3    C5 9155   1.661   1.513  13.411  0.5908 -0.0420  0.4172
  618TMC3    C6 9156   1.775   1.470  13.487  0.2108  0.7793 -0.5055
  618TMC3     C 9157   1.428   1.242  13.484 -0.0332  0.1565 -0.0690
  618TMC3     O 9158   1.412   1.159  13.570 -0.5373 -0.7805  0.6714
  618TMC3     H 9159   1.629   1.199  13.622 -2.0231 -0.4714 -2.7950
  618TMC3    H1 9160   1.470   1.483  13.351 -0.0866  2.2095  1.3367
  618TMC3    H2 9161   1.864   1.531  13.497  0.3535  0.6684 -1.1163
  618TMC3    C7 9162   1.708   1.543  13.277  0.5040 -0.5683  0.1144
  618TMC3    C8 9163   1.868   1.269  13.580 -0.0640  0.1152  0.4118
  618TMC3    O1 9164   1.636   1.511  13.182  0.3181 -0.2171  0.0936
  618TMC3    O2 9165   1.856   1.174  13.652 -0.1686 -0.0122 -0.3798
  619MPD2     C 9166   2.348   2.238  13.873 -0.2102  0.0423 -0.9393
  619MPD2    C1 9167   2.291   2.239  13.743  0.0132 -0.2069 -0.3132
  619MPD2    C2 9168   2.158   2.211  13.721  0.4195  0.7857  0.3416
  619MPD2    C3 9169   2.076   2.201  13.831  0.2531 -0.5743 -0.3735
  619MPD2    C4 9170   2.135   2.207  13.959 -0.3709  0.0878  0.0587
  619MPD2    C5 9171   2.272   2.215  13.979  0.7399  0.0043  0.1283
  619MPD2     H 9172   2.114   2.195  13.623  2.2086 -0.0361 -0.3321
  619MPD2    H1 9173   2.073   2.181  14.044  0.8755  1.1927  1.3219
  619MPD2    H2 9174   2.454   2.257  13.886 -0.9111  2.5168  1.0550
  619MPD2    H3 9175   2.308   2.230  14.081 -2.3086 -0.1144  1.2309
  619MPD2     N 9176   1.937   2.160  13.823  0.3519 -0.0653  0.6611
  619MPD2    H5 9177   1.881   2.161  13.908 -0.6907 -3.2545 -0.0172
  619MPD2    N1 9178   2.366   2.262  13.628 -0.3968 -0.5090 -0.1382
  619MPD2    H7 9179   2.316   2.255  13.540  2.7580 -2.9321 -1.7416
  620TMC3    C1 9180   2.511   2.323  13.473  0.3107 -0.2418 -0.4614
  620TMC3    C2 9181   2.427   2.265  13.388  0.3249  0.0510 -0.5385
  620TMC3    C3 9182   2.397   2.335  13.273 -0.7029 -0.4374  0.3427
  620TMC3    C4 9183   2.585   2.426  13.446  0.0897  0.0667  0.3170
  620TMC3    C5 9184   2.588   2.482  13.317  0.1663  0.3313 -0.9406
  620TMC3    C6 9185   2.480   2.444  13.236 -0.5915 -0.0126  0.6334
  620TMC3     C 9186   2.495   2.284  13.613  0.2721 -0.6713  0.3220
  620TMC3     O 9187   2.579   2.311  13.699 -0.0577  0.1330 -0.0411
  620TMC3     H 9188   2.394   2.163  13.399  0.1390  0.5619  3.4817
  620TMC3    H1 9189   2.654   2.461  13.521 -0.7211  0.2227  0.9810
  620TMC3    H2 9190   2.458   2.505  13.150  1.0986 -0.4357 -0.0886
  620TMC3    C7 9191   2.658   2.605  13.288  0.1934  0.3687  0.2141
  620TMC3    C8 9192   2.259   2.383  13.280 -0.4932 -0.6214 -0.3782
  620TMC3    O1 9193   2.657   2.631  13.167  0.2684 -0.7302 -0.0022
  620TMC3    O2 9194   2.237   2.502  13.267  0.1642  0.5958 -0.0280
  621MPD2     C 9195   1.932   1.923   9.765 -0.4131  0.1415 -0.5774
  621MPD2    C1 9196   1.956   1.975   9.639  0.2793  0.1210 -0.0058
  621MPD2    C2 9197   1.933   2.109   9.631 -0.2966  0.5181  0.4885
  621MPD2    C3 9198   1.886   2.188   9.734  0.7801 -0.3648  0.6124
  621MPD2    C4 9199   1.870   2.129   9.856  0.4514 -0.5337  0.1157
  621MPD2    C5 9200   1.890   1.999   9.874  0.0242 -0.3763  0.4780
  621MPD2     H 9201   1.950   2.154   9.534 -1.3762 -1.9805 -0.8775
  621MPD2    H1 9202   1.827   2.185   9.939 -2.1761 -0.3898 -1.3263
  621MPD2    H2 9203   1.948   1.816   9.778  0.4965  0.4388  0.7380
  621MPD2    H3 9204   1.869   1.958   9.973  0.5284 -1.6476  0.0560
  621MPD2     N 9205   1.863   2.323   9.703 -0.0806 -0.4148 -0.0169
  621MPD2    H5 9206   1.879   2.344   9.605  0.7394 -0.1300  0.1714
  621MPD2    N1 9207   2.013   1.906   9.531 -0.4017  1.0184 -0.7436
  621MPD2    H7 9208   2.044   1.960   9.450  2.7147 -0.7369 -0.6892
  622TMC3    C1 9209   2.074   1.719   9.390 -0.1569  1.2111  0.4274
  622TMC3    C2 9210   2.098   1.805   9.282  0.3048 -0.2594 -0.1794
  622TMC3    C3 9211   2.115   1.745   9.157 -0.6686 -0.1081 -0.5739
  622TMC3    C4 9212   2.075   1.582   9.369  0.5477 -0.7421  0.6261
  622TMC3    C5 9213   2.089   1.526   9.244 -0.1567 -0.1797  0.6194
  622TMC3    C6 9214   2.119   1.605   9.137 -0.3274  0.0747 -0.3013
  622TMC3     C 9215   2.024   1.767   9.518 -0.4442 -1.1537 -0.6151
  622TMC3     O 9216   1.983   1.684   9.597 -0.2313 -0.4242  0.2745
  622TMC3     H 9217   2.092   1.913   9.292 -0.3442 -0.3364  0.2811
  622TMC3    H1 9218   2.045   1.517   9.450 -1.0096 -1.9714 -0.9150
  622TMC3    H2 9219   2.119   1.563   9.037  2.2343  2.5298 -1.3431
  622TMC3    C7 9220   2.040   1.388   9.229 -0.4009 -0.5789  0.5187
  622TMC3    C8 9221   2.097   1.821   9.027 -0.3437 -0.3527 -0.2768
  622TMC3    O1 9222   2.072   1.306   9.315  0.0227  0.4691  1.0011
  622TMC3    O2 9223   2.144   1.777   8.928  0.0484  0.8780  0.2010
  623MPD2     C 9224   1.421   2.510  15.783 -0.0341 -0.1643 -0.3313
  623MPD2    C1 9225   1.359   2.535  15.907 -0.3731  0.1475 -0.1621
  623MPD2    C2 9226   1.434   2.559  16.020 -1.0847 -0.3253 -0.3838
  623MPD2    C3 9227   1.573   2.582  16.008  0.7336 -0.0220 -0.0057
  623MPD2    C4 9228   1.634   2.550  15.889  0.3291 -0.0429  0.4325
  623MPD2    C5 9229   1.559   2.516  15.777 -0.2404  0.1544  0.0290
  623MPD2     H 9230   1.388   2.569  16.117  0.3210  2.9766 -0.0471
  623MPD2    H1 9231   1.742   2.557  15.880  0.5609 -3.9241 -0.1315
  623MPD2    H2 9232   1.380   2.468  15.692 -4.0080 -0.8551  1.7630
  623MPD2    H3 9233   1.601   2.476  15.685 -0.8914 -3.0128  1.1006
  623MPD2     N 9234   1.638   2.622  16.130 -0.1619 -0.5863 -0.6839
  623MPD2    H5 9235   1.578   2.643  16.210 -0.2896  1.7445 -1.3946
  623MPD2    N1 9236   1.222   2.541  15.917 -0.0912  0.0888  0.3191
  623MPD2    H7 9237   1.191   2.563  16.012 -0.0523 -0.2906  0.4207
  624TMC3    C1 9238   1.923   2.661  16.462  0.6204  0.7530 -0.3848
  624TMC3    C2 9239   1.824   2.724  16.534  0.6826 -0.3097  0.9609
  624TMC3    C3 9240   1.721   2.791  16.478 -0.0994 -1.1335  0.0977
  624TMC3    C4 9241   1.905   2.649  16.329 -0.1063 -0.2197 -1.1245
  624TMC3    C5 9242   1.797   2.709  16.273 -0.5481 -0.1524 -0.1796
  624TMC3    C6 9243   1.702   2.774  16.345  0.5468 -0.3549  0.6674
  624TMC3     C 9244   2.043   2.627  16.526 -0.9595 -0.4543  0.0729
  624TMC3     O 9245   2.037   2.589  16.641 -0.2414 -0.0694  0.5635
  624TMC3     H 9246   1.848   2.735  16.639  0.1696  0.6985  0.9733
  624TMC3    H1 9247   1.973   2.585  16.273 -1.9091 -2.1960 -1.0731
  624TMC3    H2 9248   1.615   2.812  16.292  0.7599 -0.0548  0.5312
  624TMC3    C7 9249   1.766   2.664  16.141  0.6301  0.6951  0.2470
  624TMC3    C8 9250   1.610   2.816  16.564 -0.1033  0.2498 -0.4314
  624TMC3    O1 9251   1.852   2.658  16.055 -0.0838 -0.1585 -0.0264
  624TMC3    O2 9252   1.615   2.758  16.667 -0.0675  0.1973  0.3580
  625MPD2     C 9253   1.882   3.924   0.525 -0.4423  0.3760  0.8183
  625MPD2    C1 9254   2.019   3.949   0.533 -0.5506 -0.0669  0.0579
  625MPD2    C2 9255   2.083   3.914   0.653 -0.1903 -1.2657 -0.0849
  625MPD2    C3 9256   2.018   3.851   0.760 -0.2865  0.0042  0.5870
  625MPD2    C4 9257   1.884   3.829   0.748 -0.1750  0.1540 -0.1870
  625MPD2    C5 9258   1.823   3.855   0.630 -0.6373 -0.2256 -0.9904
  625MPD2     H 9259   2.189   3.936   0.664 -0.5684  0.9326 -1.0152
  625MPD2    H1 9260   1.827   3.769   0.818  0.9075  1.5661  1.9074
  625MPD2    H2 9261   1.812   3.943   0.444  0.8031  0.6601 -0.1910
  625MPD2    H3 9262   1.718   3.837   0.611 -0.9794  0.6751 -0.0030
  625MPD2     N 9263   2.096   3.807   0.868 -0.1284 -0.3821  0.0733
  625MPD2    H5 9264   2.197   3.818   0.864 -0.0522 -1.1221  0.0807
  625MPD2    N1 9265   2.092   4.020   0.431  0.0070  0.6117  0.7039
  625MPD2    H7 9266   2.190   4.042   0.449 -0.6225  3.1594  0.9868
  626TMC3    C1 9267   2.127   4.112   0.217 -0.1672  0.9220  0.6844
  626TMC3    C2 9268   2.082   4.132   0.091 -0.7461 -0.0773 -0.2090
  626TMC3    C3 9269   2.158   4.206   0.007 -0.7923  0.6609  0.4082
  626TMC3    C4 9270   2.244   4.172   0.260 -0.4661  0.6212 -0.1946
  626TMC3    C5 9271   2.313   4.262   0.181  0.1516  0.2592  0.0211
  626TMC3    C6 9272   2.266   4.280   0.052 -0.0236 -0.0347 -0.0871
  626TMC3     C 9273   2.033   4.047   0.308  0.2667 -0.5416  0.1622
  626TMC3     O 9274   1.923   4.017   0.263 -0.0358 -0.0361  0.6468
  626TMC3     H 9275   1.994   4.079   0.058 -0.3194 -0.8250 -0.1423
  626TMC3    H1 9276   2.277   4.140   0.359 -1.9317  1.7839  0.6652
  626TMC3    H2 9277   2.332   4.319  17.677 -0.8668  1.1637 -0.1997
  626TMC3    C7 9278   2.445   4.305   0.212 -0.4544  0.2341  0.5022
  626TMC3    C8 9279   2.091   4.257  17.587  0.7802 -0.6269 -0.4725
  626TMC3    O1 9280   2.522   4.328   0.114  0.6757  0.7170  0.0881
  626TMC3    O2 9281   2.163   4.320  17.510  0.1793 -0.8908 -0.5237
  627MPD2     C 9282   0.274   4.685  14.379  0.4847 -0.2600  0.4532
  627MPD2    C1 9283   0.387   4.607  14.387 -0.4282 -0.0925  0.1486
  627MPD2    C2 9284   0.368   4.472  14.381 -0.2174  0.5005 -0.6578
  627MPD2    C3 9285   0.240   4.418  14.413 -0.0580 -0.1395  0.4215
  627MPD2    C4 9286   0.126   4.500  14.424 -0.3350  0.0740  0.3156
  627MPD2    C5 9287   0.142   4.632  14.395 -0.4895 -0.2444 -0.1535
  627MPD2     H 9288   0.449   4.400  14.377 -1.5743 -1.1686  1.9350
  627MPD2    H1 9289   0.027   4.465  14.449 -0.4757  2.1486  2.6391
  627MPD2    H2 9290   0.278   0.069  14.374 -1.5783 -0.2735 -1.3297
  627MPD2    H3 9291   0.061   4.700  14.418  0.0435  0.0640  0.8045
  627MPD2     N 9292   0.229   4.282  14.460 -0.6583  0.3342  0.1101
  627MPD2    H5 9293   0.311   4.224  14.450 -0.4316  0.5741  0.5725
  627MPD2    N1 9294   0.514   4.660  14.388  0.3127  0.9056 -0.2759
  627MPD2    H7 9295   0.591   4.594  14.392  0.6099  1.3475  1.2485
  628TMC3    C1 9296   0.678   0.091  14.441  0.1812 -0.3082  0.3372
  628TMC3    C2 9297   0.743   4.712  14.510  0.6502 -0.4861  0.3360
  628TMC3    C3 9298   0.850   0.025  14.580  0.1046 -0.4447 -0.3826
  628TMC3    C4 9299   0.734   0.213  14.418 -1.1746  0.2309  0.0674
  628TMC3    C5 9300   0.847   0.241  14.475 -0.1382 -0.4664  0.0295
  628TMC3    C6 9301   0.902   0.151  14.564  0.1682 -0.6138 -0.4127
  628TMC3     C 9302   0.542   0.070  14.402 -0.3233 -1.0224  0.0064
  628TMC3     O 9303   0.481   0.165  14.356 -0.5953 -0.0225  0.0128
  628TMC3     H 9304   0.702   4.617  14.542 -0.4075 -0.8288 -1.9620
  628TMC3    H1 9305   0.673   0.283  14.363  0.3029  0.9877 -0.6049
  628TMC3    H2 9306   1.003   0.154  14.604 -0.6862 -0.3128  1.7299
  628TMC3    C7 9307   0.891   0.383  14.471 -0.6669 -0.3240  0.0256
  628TMC3    C8 9308   0.960   4.656  14.607 -0.6128  0.0133 -0.2776
  628TMC3    O1 9309   0.941   0.439  14.567  0.5993 -0.4109  0.0408
  628TMC3    O2 9310   0.972   4.613  14.719  0.7778  0.2983 -0.5977
  629MPD2     C 9311   3.808   3.437  16.041 -0.6581 -0.1445 -0.4354
  629MPD2    C1 9312   3.858   3.345  16.126  0.4492 -0.0233  0.2332
  629MPD2    C2 9313   3.793   3.221  16.137  0.4231 -0.0976 -0.1661
  629MPD2    C3 9314   3.680   3.191  16.059  0.2154 -0.6228 -1.2270
  629MPD2    C4 9315   3.637   3.290  15.966  0.6082 -0.1788 -0.6806
  629MPD2    C5 9316   3.700   3.410  15.962 -0.3788 -0.0049  0.0390
  629MPD2     H 9317   3.830   3.144  16.204  0.4007  0.7742  0.8637
  629MPD2    H1 9318   3.555   3.276  15.896 -0.3649 -0.1482  0.4670
  629MPD2    H2 9319   3.857   3.529  16.011 -0.8436  0.0303 -0.2136
  629MPD2    H3 9320   3.667   3.486  15.892 -2.4650  0.2375  1.2768
  629MPD2     N 9321   3.613   3.061  16.074  0.4729  0.1469  0.3958
  629MPD2    H5 9322   3.652   2.989  16.134 -3.3381 -1.0083  1.4679
  629MPD2    N1 9323   3.989   3.371  16.177  0.2841  1.0568 -0.0302
  629MPD2    H7 9324   4.029   3.464  16.171  0.1110  1.2439  1.5086
  630TMC3    C1 9325   4.186   3.316  16.298 -0.2375  0.3284  0.5469
  630TMC3    C2 9326   4.254   3.415  16.225  0.4371  0.3564  0.1293
  630TMC3    C3 9327   4.385   3.436  16.261 -0.0941 -0.4358  0.3717
  630TMC3    C4 9328   4.242   3.250  16.408  0.4662 -0.9689  0.5411
  630TMC3    C5 9329   4.369   3.291  16.447  0.4738  0.1104  0.0578
  630TMC3    C6 9330   4.447   3.373  16.365 -0.2720  0.2042 -0.1642
  630TMC3     C 9331   4.053   3.285  16.254 -0.2029 -0.0963  0.7694
  630TMC3     O 9332   4.008   3.188  16.314  0.1650 -0.0317  0.0262
  630TMC3     H 9333   4.203   3.478  16.154  0.2840 -0.9527 -0.9130
  630TMC3    H1 9334   4.163   3.223  16.478  0.6499 -3.6839 -0.2935
  630TMC3    H2 9335   4.554   3.387  16.375 -0.2574  0.7209 -1.0206
  630TMC3    C7 9336   4.417   3.259  16.579 -0.1045  0.4315  0.1660
  630TMC3    C8 9337   4.454   3.551  16.200  0.7311  0.0770 -0.6593
  630TMC3    O1 9338   4.362   3.169  16.638 -0.7427 -0.4434  0.1829
  630TMC3    O2 9339   4.544   3.603  16.264  0.1419 -0.2832 -0.0372
  631MPD2     C 9340   2.014   2.974  15.234 -0.1313 -0.2130  0.0799
  631MPD2    C1 9341   2.053   3.059  15.140 -0.0864  0.1839  0.0349
  631MPD2    C2 9342   2.185   3.074  15.122  0.1938  0.0488  0.1563
  631MPD2    C3 9343   2.278   3.011  15.207  0.2188 -0.0113 -0.6763
  631MPD2    C4 9344   2.230   2.936  15.310  0.1730  0.1657  0.3863
  631MPD2    C5 9345   2.094   2.912  15.324 -0.8524 -0.5456  0.7878
  631MPD2     H 9346   2.229   3.143  15.051  0.5316  0.1360  0.4495
  631MPD2    H1 9347   2.295   2.889  15.383  0.6850 -0.0312 -0.2032
  631MPD2    H2 9348   1.908   2.962  15.254 -0.4902  1.9943 -0.5192
  631MPD2    H3 9349   2.052   2.846  15.400 -0.9804 -0.0237  1.1657
  631MPD2     N 9350   2.407   3.059  15.205  0.4358 -0.1964 -0.0277
  631MPD2    H5 9351   2.419   3.143  15.150 -2.3264 -0.7208 -1.4152
  631MPD2    N1 9352   1.958   3.129  15.063 -0.1329 -0.0163 -0.6497
  631MPD2    H7 9353   1.863   3.117  15.096  0.0998 -0.5677 -0.1841
  632TMC3    C1 9354   1.864   3.314  14.958  0.5108  0.2109 -0.5262
  632TMC3    C2 9355   1.810   3.357  15.082 -0.6338 -0.1109  0.0209
  632TMC3    C3 9356   1.745   3.472  15.089  0.2646  0.4724  0.4214
  632TMC3    C4 9357   1.861   3.396  14.846  0.2418  0.0983  0.1950
  632TMC3    C5 9358   1.803   3.523  14.866 -0.2442  0.4553  0.0533
  632TMC3    C6 9359   1.738   3.557  14.978 -0.2651 -0.4569 -0.5041
  632TMC3     C 9360   1.978   3.222  14.968  0.1099 -0.6784 -0.1199
  632TMC3     O 9361   2.075   3.254  14.901 -0.5447  0.2490 -0.6705
  632TMC3     H 9362   1.825   3.291  15.167 -0.1823  0.7492  0.6088
  632TMC3    H1 9363   1.920   3.375  14.758  1.0169 -2.4167  1.3181
  632TMC3    H2 9364   1.696   3.657  14.976 -0.0557 -0.4180 -4.2794
  632TMC3    C7 9365   1.832   3.630  14.773 -0.0459  0.2454  0.3327
  632TMC3    C8 9366   1.703   3.514  15.218 -0.7668  0.3149  0.6273
  632TMC3    O1 9367   1.853   3.741  14.819 -0.5616 -0.0393  0.5694
  632TMC3    O2 9368   1.731   3.439  15.305  0.2044  0.2241  0.2132
  633MPD2     C 9369   1.951   0.952  17.485 -0.2909 -0.0522  0.6127
  633MPD2    C1 9370   1.921   0.869  17.380 -0.5756 -0.4297  0.1490
  633MPD2    C2 9371   1.906   0.737  17.404 -0.0532  0.5177  0.2588
  633MPD2    C3 9372   1.918   0.680  17.530 -0.0870 -0.0613 -0.0792
  633MPD2    C4 9373   1.956   0.761  17.635  0.0964 -0.0169 -0.4475
  633MPD2    C5 9374   1.973   0.896  17.603  0.6273  0.3004 -0.8391
  633MPD2     H 9375   1.894   0.674  17.317 -2.1242  1.0697  0.1601
  633MPD2    H1 9376   1.973   0.726   0.035 -0.1416 -1.6355 -0.9777
  633MPD2    H2 9377   1.975   1.058  17.481 -1.6545  0.2216 -0.3246
  633MPD2    H3 9378   2.004   0.959  17.686 -1.8089  2.0802 -1.2702
  633MPD2     N 9379   1.896   0.541  17.546 -0.6959  0.7887 -0.0949
  633MPD2    H5 9380   1.940   0.493  17.624 -2.4510  0.7470  0.8891
  633MPD2    N1 9381   1.917   0.923  17.246 -0.2028 -0.3201 -0.1137
  633MPD2    H7 9382   1.905   0.860  17.166 -2.3470 -0.6081  0.4300
  634TMC3    C1 9383   1.936   1.095  17.068  0.3196 -0.3581  0.2951
  634TMC3    C2 9384   1.993   1.004  16.986  0.1520 -0.2691  0.4705
  634TMC3    C3 9385   1.985   1.030  16.855  0.2131 -0.3379 -0.6677
  634TMC3    C4 9386   1.861   1.205  17.028  0.1075 -0.2653  0.0426
  634TMC3    C5 9387   1.869   1.231  16.893  0.8109 -0.7805  0.3107
  634TMC3    C6 9388   1.924   1.145  16.805 -0.2762  0.3681 -0.2683
  634TMC3     C 9389   1.936   1.061  17.207 -0.2440  0.2181  0.1762
  634TMC3     O 9390   1.942   1.165  17.277  0.1061  0.2775  0.2358
  634TMC3     H 9391   2.042   0.915  17.022  1.4947 -0.7274 -2.4680
  634TMC3    H1 9392   1.800   1.263  17.095 -1.6760 -1.3403 -0.6627
  634TMC3    H2 9393   1.923   1.172  16.700  2.3898  1.2837 -0.0474
  634TMC3    C7 9394   1.786   1.333  16.842  0.0075  0.6124  0.8282
  634TMC3    C8 9395   2.057   0.943  16.757 -0.6446 -0.5176  0.4865
  634TMC3    O1 9396   1.781   1.326  16.721 -0.1069  0.1325  0.0044
  634TMC3    O2 9397   2.079   0.828  16.793  0.8008  0.2824  0.4104
  635TMC3    C1 9398   3.757   2.373   0.009  0.7372  0.0988  0.1015
  635TMC3    C2 9399   3.822   2.316   0.118 -0.0327  0.9637  0.5469
  635TMC3    C3 9400   3.963   2.316   0.114  0.1119 -1.2988 -0.1225
  635TMC3    C4 9401   3.831   2.434  17.609 -0.2708  0.1740 -0.3444
  635TMC3    C5 9402   3.967   2.438  17.612  0.3134 -0.0885  0.0227
  635TMC3    C6 9403   4.034   2.378   0.013 -0.6074  1.1445  0.0237
  635TMC3     C 9404   3.612   2.399   0.018 -0.2008  0.0064 -0.2635
  635TMC3     O 9405   3.551   2.395   0.124 -0.4347  0.0090  0.5936
  635TMC3     H 9406   3.755   2.273   0.192 -0.4693  0.4525 -0.1485
  635TMC3    H1 9407   3.787   2.505  17.539  0.1156 -1.6584 -2.4442
  635TMC3    H2 9408   4.142   2.373   0.005 -0.4086  3.5162  1.4832
  635TMC3    C7 9409   4.035   2.504  17.503  0.1336  0.7583 -0.5493
  635TMC3    C8 9410   4.025   2.280   0.236  0.0124  0.2650 -0.5290
  635TMC3    O1 9411   3.998   2.487  17.391 -0.0226  0.0554  0.1975
  635TMC3    O2 9412   3.950   2.230   0.317 -0.2828  0.5636 -0.0128
  636MPD2     C 9413   2.768   1.733  15.789 -0.5555  0.2081  0.8311
  636MPD2    C1 9414   2.788   1.755  15.921 -0.0092 -0.4788  0.0184
  636MPD2    C2 9415   2.842   1.651  15.993  0.1052  0.1121 -0.0340
  636MPD2    C3 9416   2.847   1.522  15.947 -0.8224 -0.5806  0.2323
  636MPD2    C4 9417   2.810   1.500  15.815  0.1182 -1.0970  0.3085
  636MPD2    C5 9418   2.769   1.607  15.741 -0.2425  0.3599  0.2132
  636MPD2     H 9419   2.863   1.680  16.095 -0.7779  0.6936 -0.0146
  636MPD2    H1 9420   2.811   1.404  15.764 -3.0945 -0.3979 -1.0523
  636MPD2    H2 9421   2.743   1.807  15.713  0.4274  0.0155  0.3188
  636MPD2    H3 9422   2.740   1.592  15.637 -2.1664  1.0980  0.6558
  636MPD2     N 9423   2.877   1.422  16.042  0.4804 -0.0813 -0.8361
  636MPD2    H5 9424   2.883   1.447  16.140 -2.4012 -3.4482  0.2009
  636MPD2    N1 9425   2.780   1.887  15.973  0.3562 -0.1011  0.2075
  636MPD2    H7 9426   2.804   1.898  16.071  3.1864  1.0290 -0.6107
  637TMC3    C1 9427   2.879   1.221  16.149  0.1216 -0.0282  0.0109
  637TMC3    C2 9428   2.785   1.267  16.224  0.1782 -0.3210  0.5977
  637TMC3    C3 9429   2.797   1.248  16.363 -0.0277 -0.2785 -0.7271
  637TMC3    C4 9430   2.978   1.135  16.188 -0.5893 -0.0163  0.6537
  637TMC3    C5 9431   2.991   1.121  16.325 -0.2372  0.1459  0.1367
  637TMC3    C6 9432   2.896   1.165  16.411 -0.6031  0.3992  0.4697
  637TMC3     C 9433   2.896   1.288  16.025  0.2996 -0.4686  0.5172
  637TMC3     O 9434   2.926   1.220  15.928  0.3204  0.0207  0.2122
  637TMC3     H 9435   2.709   1.336  16.189  1.6810  1.5959  1.1269
  637TMC3    H1 9436   3.056   1.094  16.123 -0.5030  1.0215  0.0985
  637TMC3    H2 9437   2.912   1.155  16.518 -1.6666 -0.2063  0.5757
  637TMC3    C7 9438   3.129   1.104  16.375  0.1861 -0.1330 -0.1385
  637TMC3    C8 9439   2.814   1.375  16.424 -0.5435 -0.5442  0.3093
  637TMC3    O1 9440   3.219   1.121  16.297 -0.3777 -0.4741  0.0894
  637TMC3    O2 9441   2.852   1.465  16.353 -0.5996  0.7040  0.7416
  638MPD2     C 9442   2.716   0.452  14.686  0.6117  0.3079  0.0996
  638MPD2    C1 9443   2.692   0.364  14.585 -0.6934 -0.2148  0.0182
  638MPD2    C2 9444   2.618   0.248  14.612 -0.5115  0.8998 -0.6088
  638MPD2    C3 9445   2.563   0.234  14.739 -0.3286 -0.5250  0.7801
  638MPD2    C4 9446   2.563   0.337  14.831 -0.4346  0.2930 -0.4144
  638MPD2    C5 9447   2.639   0.447  14.798  0.3686  0.4124 -0.6509
  638MPD2     H 9448   2.628   0.161  14.550  3.6791 -0.0526  1.3638
  638MPD2    H1 9449   2.507   0.335  14.923  1.3857 -1.3865  0.6580
  638MPD2    H2 9450   2.767   0.547  14.676  1.7106 -0.4921 -1.8524
  638MPD2    H3 9451   2.649   0.534  14.861  1.8596  2.5283 -3.8155
  638MPD2     N 9452   2.510   0.107  14.772  0.7933 -0.1535  0.6185
  638MPD2    H5 9453   2.515   0.036  14.699 -0.6649 -0.4058  0.7639
  638MPD2    N1 9454   2.760   0.382  14.462  0.2800 -0.0038  0.4545
  638MPD2    H7 9455   2.808   0.470  14.446 -1.2949  0.6985 -0.4004
  639TMC3    C1 9456   2.491   4.636  14.891 -0.1699 -0.0805 -0.2822
  639TMC3    C2 9457   2.463   4.569  14.774 -0.6342  0.4141 -0.3028
  639TMC3    C3 9458   2.548   4.464  14.744  0.0378  0.5870 -0.7124
  639TMC3    C4 9459   2.580   4.591  14.983  0.4641 -0.6275 -0.1071
  639TMC3    C5 9460   2.667   4.485  14.945 -0.0423 -0.8226 -0.4354
  639TMC3    C6 9461   2.663   4.425  14.820 -0.6827 -0.6257  0.4440
  639TMC3     C 9462   2.476   0.058  14.893  0.4996 -0.2652  0.5572
  639TMC3     O 9463   2.480   0.116  14.998 -0.0544  0.0316  0.4453
  639TMC3     H 9464   2.378   4.605  14.716  0.2441 -0.1567 -1.9433
  639TMC3    H1 9465   2.595   4.640  15.078  1.1900  2.3583 -1.7672
  639TMC3    H2 9466   2.722   4.336  14.800  1.9155  0.7726  1.9438
  639TMC3    C7 9467   2.772   4.450  15.031  0.2524 -0.6084 -0.0419
  639TMC3    C8 9468   2.513   4.391  14.616 -0.7839  0.4959  0.0591
  639TMC3    O1 9469   2.773   4.470  15.152  0.3296  0.2238  0.4700
  639TMC3    O2 9470   2.593   4.321  14.564  0.3450  0.1025 -0.3668
  640MPD2     C 9471   3.118   3.400   9.785  0.9670  0.4393 -0.9307
  640MPD2    C1 9472   3.158   3.525   9.748 -0.1003  0.0473 -0.6689
  640MPD2    C2 9473   3.073   3.633   9.765  0.2026 -0.3233  0.1752
  640MPD2    C3 9474   2.944   3.622   9.813 -0.3005 -0.1044  0.5849
  640MPD2    C4 9475   2.905   3.497   9.840  0.5499 -0.5711 -0.4446
  640MPD2    C5 9476   2.991   3.392   9.840  0.6402  0.2088  0.8776
  640MPD2     H 9477   3.112   3.726   9.726 -0.3739 -0.0791  0.1691
  640MPD2    H1 9478   2.806   3.480   9.881  0.6745  0.0082  0.0932
  640MPD2    H2 9479   3.184   3.314   9.775 -1.6646 -1.6455 -0.4181
  640MPD2    H3 9480   2.963   3.294   9.879  0.1401  0.0719  0.1792
  640MPD2     N 9481   2.859   3.730   9.834  0.2277 -0.3007  0.3386
  640MPD2    H5 9482   2.769   3.714   9.878 -0.4439 -0.1622 -0.9759
  640MPD2    N1 9483   3.291   3.529   9.689 -0.5190  0.0629 -0.3059
  640MPD2    H7 9484   3.334   3.439   9.669  1.6942  1.4959 -2.0330
  641TMC3    C1 9485   3.496   3.623   9.605  0.0594 -0.8728  1.0098
  641TMC3    C2 9486   3.562   3.502   9.615  0.6096 -0.6096  0.2358
  641TMC3    C3 9487   3.694   3.489   9.580  0.0697  0.1195  0.4622
  641TMC3    C4 9488   3.559   3.722   9.533  0.0394 -0.9783  0.7251
  641TMC3    C5 9489   3.690   3.705   9.491 -0.4758  0.0345  0.1459
  641TMC3    C6 9490   3.760   3.590   9.515 -0.0027  0.1761  0.1045
  641TMC3     C 9491   3.358   3.639   9.638  0.0099 -0.1260 -0.1340
  641TMC3     O 9492   3.315   3.753   9.626 -0.1485 -0.0868 -0.1202
  641TMC3     H 9493   3.512   3.420   9.665  0.6131 -2.8968 -3.4808
  641TMC3    H1 9494   3.511   3.811   9.494  1.8668  0.8804  2.7185
  641TMC3    H2 9495   3.866   3.575   9.495 -0.3714 -0.0870 -1.6470
  641TMC3    C7 9496   3.741   3.812   9.404  0.0272 -0.1988  0.6980
  641TMC3    C8 9497   3.763   3.361   9.571 -0.7307 -0.0994  0.7522
  641TMC3    O1 9498   3.691   3.926   9.400  0.1313  0.1424  0.4830
  641TMC3    O2 9499   3.859   3.349   9.495 -0.2142 -0.1268 -0.0161
  642TMC3    C1 9500   4.162   0.367  12.015 -0.7109 -0.0927  0.2662
  642TMC3    C2 9501   4.194   0.365  12.148  0.2469  0.4452  0.2185
  642TMC3    C3 9502   4.184   0.256  12.229  0.0228 -0.8763  0.3624
  642TMC3    C4 9503   4.108   0.254  11.967  0.5287 -0.8931  0.2346
  642TMC3    C5 9504   4.092   0.152  12.055 -0.2013  0.0684  0.4285
  642TMC3    C6 9505   4.124   0.145  12.187 -0.3528 -0.2671 -0.2199
  642TMC3     C 9506   4.098   0.496  11.996 -0.2251 -0.3470 -0.2683
  642TMC3     O 9507   4.158   0.592  11.943  0.8065 -0.4116 -0.2379
  642TMC3     H 9508   4.229   0.453  12.201  0.1475  0.0695  0.9099
  642TMC3    H1 9509   4.065   0.262  11.868  0.0658  0.3238  0.5342
  642TMC3    H2 9510   4.139   0.050  12.237  1.1900  0.0098 -0.1450
  642TMC3    C7 9511   4.034   0.036  12.003 -0.5985 -0.5282  0.4528
  642TMC3    C8 9512   4.261   0.256  12.352  0.8536 -0.9306 -0.3899
  642TMC3    O1 9513   4.031   0.016  11.885  0.1206  0.3653 -0.3037
  642TMC3    O2 9514   4.356   0.329  12.345 -0.2327 -0.1875 -0.2128
  643TMC3    C1 9515   3.711   4.066   0.198  0.1509 -0.6304  0.1143
  643TMC3    C2 9516   3.580   4.110   0.205  0.4197 -0.8374 -0.7075
  643TMC3    C3 9517   3.498   4.071   0.108  0.4852  0.0771 -0.0710
  643TMC3    C4 9518   3.762   3.995   0.086  0.1535 -0.2583  0.1587
  643TMC3    C5 9519   3.666   3.955  17.694  0.4036  0.0493 -0.3367
  643TMC3    C6 9520   3.535   3.987   0.012 -0.1991 -0.1695 -1.3651
  643TMC3     C 9521   3.797   4.114   0.302 -0.2694 -0.6794  0.0668
  643TMC3     O 9522   3.747   4.212   0.353  0.2157 -0.0660  0.8032
  643TMC3     H 9523   3.546   4.182   0.277 -1.3431 -0.7387 -1.6472
  643TMC3    H1 9524   3.865   3.964   0.069 -0.8913 -1.4063 -4.1596
  643TMC3    H2 9525   3.467   3.984  17.628  2.6622 -0.0838 -3.6715
  643TMC3    C7 9526   3.719   3.939  17.555 -0.5836 -0.4572 -0.0242
  643TMC3    C8 9527   3.418   4.173   0.059  0.2021 -0.4337 -0.5946
  643TMC3    O1 9528   3.825   3.993  17.541  0.3554 -0.0538  0.2325
  643TMC3    O2 9529   3.302   4.155   0.021 -0.1114 -0.2970  0.3021
  644MPD2     C 9530   3.452   4.174   9.381 -0.0428 -0.4523 -0.1785
  644MPD2    C1 9531   3.552   4.261   9.390 -0.6512  0.2338 -0.2351
  644MPD2    C2 9532   3.536   4.396   9.347 -0.2194  0.5593  0.1095
  644MPD2    C3 9533   3.430   4.431   9.269 -0.5699 -0.4967 -0.4171
  644MPD2    C4 9534   3.322   4.342   9.259  0.5926 -0.1036  0.0884
  644MPD2    C5 9535   3.340   4.215   9.315 -0.0864  0.3237  0.0607
  644MPD2     H 9536   3.612   4.469   9.377  1.6629 -0.1385 -2.9701
  644MPD2    H1 9537   3.229   4.355   9.204  0.5682 -0.2628  0.0911
  644MPD2    H2 9538   3.464   4.071   9.412  0.0936 -0.0857  0.9988
  644MPD2    H3 9539   3.252   4.152   9.305 -0.2002  0.3372  0.9505
  644MPD2     N 9540   3.425   4.568   9.218  0.3695  0.0524  0.8277
  644MPD2    H5 9541   3.493   4.633   9.256  2.1398 -1.3583  0.0398
  644MPD2    N1 9542   3.663   4.217   9.459  0.7309 -0.0688 -0.1276
  644MPD2    H7 9543   3.655   4.120   9.486 -0.5689  0.6043  1.8661
  645TMC3    C1 9544   3.354   0.023   9.097 -0.3589  0.3223 -0.8623
  645TMC3    C2 9545   3.244   0.114   9.112 -0.0560  0.4458 -1.1216
  645TMC3    C3 9546   3.264   0.245   9.089 -0.3234 -0.3959 -0.6468
  645TMC3    C4 9547   3.483   0.066   9.107 -0.1958 -0.4623 -0.2072
  645TMC3    C5 9548   3.497   0.211   9.107  0.1971  0.3333 -0.2529
  645TMC3    C6 9549   3.392   0.296   9.087 -0.2168 -0.1023  0.3946
  645TMC3     C 9550   3.326   4.616   9.134  0.4409  0.5828 -0.3657
  645TMC3     O 9551   3.222   4.563   9.095 -0.6476  0.1985 -0.5080
  645TMC3     H 9552   3.149   0.072   9.143  0.1364  0.8483 -0.0096
  645TMC3    H1 9553   3.570   0.002   9.117  0.5047  0.4640 -0.3692
  645TMC3    H2 9554   3.396   0.404   9.080 -3.2138 -0.1486 -1.7922
  645TMC3    C7 9555   3.634   0.266   9.123  0.4211 -0.3778  0.0726
  645TMC3    C8 9556   3.162   0.336   9.148  0.0678 -0.4937  0.7861
  645TMC3    O1 9557   3.718   0.197   9.177 -0.4913 -0.0591 -0.0969
  645TMC3    O2 9558   3.194   0.448   9.171 -0.3813 -0.5649 -0.6988
  646MPD2     C 9559   3.122   3.708  14.190  0.3208  0.0118  0.0694
  646MPD2    C1 9560   3.009   3.635  14.221 -0.3902 -0.0545  0.4461
  646MPD2    C2 9561   2.884   3.679  14.182 -0.3900  0.4509  0.4833
  646MPD2    C3 9562   2.876   3.779  14.093 -0.7431 -0.0866 -0.6371
  646MPD2    C4 9563   2.991   3.853  14.052 -0.3534  0.7611 -0.1509
  646MPD2    C5 9564   3.113   3.814  14.098  0.6657 -0.9993 -0.4098
  646MPD2     H 9565   2.802   3.610  14.195 -1.3605  1.1774 -1.9725
  646MPD2    H1 9566   2.989   3.938  13.985  2.8953  0.7127 -0.2979
  646MPD2    H2 9567   3.224   3.682  14.215 -0.5706 -0.5635  3.0617
  646MPD2    H3 9568   3.209   3.859  14.074  0.5348 -0.7861 -0.5400
  646MPD2     N 9569   2.751   3.810  14.049 -0.3420 -0.0948  0.5530
  646MPD2    H5 9570   2.680   3.754  14.096  0.9084 -2.9397 -0.9738
  646MPD2    N1 9571   3.037   3.520  14.308 -0.5476 -0.1637 -0.1248
  646MPD2    H7 9572   3.132   3.509  14.342 -0.4854  1.2310  0.1186
  647TMC3    C1 9573   3.025   3.298  14.375  0.3030 -0.1391 -0.4459
  647TMC3    C2 9574   2.963   3.191  14.424  0.1667  0.5514 -0.2906
  647TMC3    C3 9575   3.041   3.079  14.452 -0.0498 -0.1154 -0.0420
  647TMC3    C4 9576   3.163   3.305  14.369 -0.4034  0.2898  0.1129
  647TMC3    C5 9577   3.233   3.202  14.422 -0.4383 -0.0568 -0.3449
  647TMC3    C6 9578   3.177   3.083  14.444  0.3461  0.2605 -0.5255
  647TMC3     C 9579   2.946   3.417  14.337  0.2686  1.0037  0.0791
  647TMC3     O 9580   2.824   3.414  14.317 -0.3945 -0.1193 -0.6610
  647TMC3     H 9581   2.856   3.185  14.406  0.5219  0.7070 -2.4240
  647TMC3    H1 9582   3.223   3.372  14.308  0.4158  0.4355  1.0797
  647TMC3    H2 9583   3.228   3.002  14.495  0.8374  0.6895 -0.3406
  647TMC3    C7 9584   3.373   3.220  14.458 -0.5902  0.6808 -0.0630
  647TMC3    C8 9585   2.991   2.973  14.541  0.5557  0.3143 -0.9193
  647TMC3    O1 9586   3.432   3.115  14.490  0.1461  0.2315 -0.4655
  647TMC3    O2 9587   3.064   2.882  14.559 -0.2112 -0.5959 -0.5125
  648TMC3    C1 9588   2.189   1.090  15.771 -0.3025  0.0596 -0.6817
  648TMC3    C2 9589   2.176   0.956  15.753  0.2464 -0.7952  0.8415
  648TMC3    C3 9590   2.083   0.911  15.663 -0.2790  0.9202  0.1398
  648TMC3    C4 9591   2.115   1.183  15.703  0.4853  0.6204  0.4035
  648TMC3    C5 9592   2.022   1.133  15.625 -0.5257 -0.1100  0.2740
  648TMC3    C6 9593   2.001   1.000  15.596 -0.2010 -0.5160 -0.2425
  648TMC3     C 9594   2.260   1.146  15.884 -0.1501  0.4827 -0.3187
  648TMC3     O 9595   2.223   1.256  15.924  0.2725 -0.0866  0.2537
  648TMC3     H 9596   2.239   0.893  15.814  0.7994  0.2189  1.3172
  648TMC3    H1 9597   2.138   1.289  15.705  0.3913  0.6255  1.1225
  648TMC3    H2 9598   1.911   0.972  15.541 -0.7974  0.8481  0.0428
  648TMC3    C7 9599   1.906   1.222  15.604  0.0562  0.7512 -1.1190
  648TMC3    C8 9600   2.085   0.776  15.617 -0.0183  0.2731  0.5782
  648TMC3    O1 9601   1.841   1.211  15.499  0.3357  0.0262  0.0186
  648TMC3    O2 9602   1.989   0.731  15.556  0.5281 -0.3411 -0.1937
  649TMC3    C1 9603   1.166   2.509  12.922 -0.4523  0.1433  0.2823
  649TMC3    C2 9604   1.306   2.501  12.917  0.1288  0.0358  0.0499
  649TMC3    C3 9605   1.361   2.445  13.030 -0.3304  0.1840  0.2912
  649TMC3    C4 9606   1.087   2.474  13.031 -0.5700  0.7354 -0.7605
  649TMC3    C5 9607   1.154   2.426  13.140 -0.2996 -0.4677 -0.6317
  649TMC3    C6 9608   1.287   2.405  13.139  0.0999  0.4026 -0.4918
  649TMC3     C 9609   1.088   2.541  12.798  0.0612  0.0669  0.1566
  649TMC3     O 9610   0.971   2.551  12.807 -0.9839  0.0180  0.0336
  649TMC3     H 9611   1.354   2.556  12.837  1.4006  0.0756  0.8524
  649TMC3    H1 9612   0.980   2.486  13.022 -0.8960  0.8309  3.1675
  649TMC3    H2 9613   1.341   2.370  13.226 -3.1725  0.1461  1.4453
  649TMC3    C7 9614   1.074   2.348  13.241 -0.0989 -0.5787  0.0202
  649TMC3    C8 9615   1.500   2.391  13.035 -0.2581  0.2045 -0.0194
  649TMC3    O1 9616   0.959   2.383  13.265 -0.1243 -0.5828  0.3972
  649TMC3    O2 9617   1.534   2.329  13.133 -0.0239 -0.0827  0.3577
  650TMC3    C1 9618   3.197   3.894  12.051 -0.1917 -0.4066 -0.3997
  650TMC3    C2 9619   3.159   4.020  12.052 -0.0887 -0.1284  0.6466
  650TMC3    C3 9620   3.041   4.055  11.987  0.2133 -0.1089  0.7173
  650TMC3    C4 9621   3.132   3.800  11.984  0.3012 -0.3087 -0.0892
  650TMC3    C5 9622   3.007   3.826  11.927  0.2435  0.3999 -0.0558
  650TMC3    C6 9623   2.963   3.954  11.933  0.3587 -0.5815 -0.2765
  650TMC3     C 9624   3.286   3.856  12.158  0.6795 -0.0564 -0.5208
  650TMC3     O 9625   3.333   3.955  12.214 -0.2876 -0.3752  0.4462
  650TMC3     H 9626   3.222   4.096  12.098  0.8580 -1.5369  1.6640
  650TMC3    H1 9627   3.165   3.697  11.971 -1.5569 -0.8161 -0.8306
  650TMC3    H2 9628   2.867   3.991  11.899  0.6735  0.5665  0.0887
  650TMC3    C7 9629   2.958   3.741  11.813 -1.2585  0.6020 -0.0662
  650TMC3    C8 9630   2.971   4.158  12.054  0.0507  0.0722  0.1878
  650TMC3    O1 9631   3.007   3.629  11.805  0.3781  0.7246  0.4914
  650TMC3    O2 9632   2.853   4.142  12.084 -0.2030 -0.2029 -0.1622
  651MPD2     C 9633   2.360   1.213  10.300 -0.4100  0.1970 -0.0853
  651MPD2    C1 9634   2.315   1.342  10.282 -0.0087  0.4617 -0.1295
  651MPD2    C2 9635   2.401   1.445  10.250 -0.1654  0.0634 -0.0708
  651MPD2    C3 9636   2.534   1.419  10.236 -0.8895  0.7640  0.1042
  651MPD2    C4 9637   2.582   1.292  10.248  0.2557  0.2835  0.8656
  651MPD2    C5 9638   2.497   1.187  10.289  0.1575  0.3111 -0.1831
  651MPD2     H 9639   2.368   1.537  10.204  0.0732 -0.2478 -0.8725
  651MPD2    H1 9640   2.686   1.262  10.245  0.2367  0.3622 -0.3528
  651MPD2    H2 9641   2.297   1.130  10.332 -2.4040  1.2612 -1.2628
  651MPD2    H3 9642   2.521   1.082  10.298 -0.4867  0.2689  1.0228
  651MPD2     N 9643   2.604   1.528  10.197 -0.3150 -0.4322  0.6584
  651MPD2    H5 9644   2.552   1.602  10.151  0.8150  1.3841  2.2951
  651MPD2    N1 9645   2.176   1.379  10.297 -0.1584  0.0528  0.7318
  651MPD2    H7 9646   2.156   1.475  10.321 -0.7751 -0.4345  2.1735
  652TMC3    C1 9647   3.013   1.756  10.156  0.1118  0.1181 -0.7145
  652TMC3    C2 9648   2.920   1.691  10.232  0.6108  0.0279 -0.4614
  652TMC3    C3 9649   2.802   1.668  10.181  0.0806  0.9057  0.1249
  652TMC3    C4 9650   2.979   1.792  10.030 -0.1100  0.5916  0.0024
  652TMC3    C5 9651   2.853   1.759   9.975 -0.5011 -1.1227 -0.5737
  652TMC3    C6 9652   2.768   1.690  10.050  0.3347  0.0585  0.7683
  652TMC3     C 9653   3.145   1.771  10.213 -0.7208  0.2200 -0.6079
  652TMC3     O 9654   3.154   1.735  10.327  0.5535  0.0987 -0.8659
  652TMC3     H 9655   2.938   1.668  10.337 -0.3496  1.3822 -0.0018
  652TMC3    H1 9656   3.053   1.843   9.969  0.7029 -1.1473 -0.4791
  652TMC3    H2 9657   2.673   1.662  10.005  1.1801  1.9155 -2.1397
  652TMC3    C7 9658   2.824   1.772   9.835  0.2219 -1.3573 -0.0479
  652TMC3    C8 9659   2.740   1.544  10.233 -0.2349  0.0403  0.0050
  652TMC3    O1 9660   2.735   1.700   9.788 -0.3983 -0.0224 -0.1801
  652TMC3    O2 9661   2.813   1.470  10.299  0.3519 -0.1466  0.0509
  653MPD2     C 9662   1.620   0.870  17.577  0.4299  0.5190 -0.0291
  653MPD2    C1 9663   1.551   0.973  17.517 -0.1448 -0.3305  0.3269
  653MPD2    C2 9664   1.447   0.941  17.441  0.2944  0.0973 -0.2071
  653MPD2    C3 9665   1.410   0.808  17.424  0.4474  0.5525 -0.4136
  653MPD2    C4 9666   1.485   0.706  17.484  0.1393 -0.3405  0.0341
  653MPD2    C5 9667   1.590   0.739  17.566 -0.3162  0.2702 -0.6546
  653MPD2     H 9668   1.391   1.019  17.391  1.7452  0.4357 -1.3168
  653MPD2    H1 9669   1.465   0.600  17.481  0.0838 -0.2661 -1.9960
  653MPD2    H2 9670   1.702   0.895  17.643  1.7126  1.0111 -1.8271
  653MPD2    H3 9671   1.643   0.655  17.610 -1.5754  0.0881  0.5282
  653MPD2     N 9672   1.309   0.786  17.332 -0.4141  0.1918 -0.6823
  653MPD2    H5 9673   1.253   0.862  17.294  0.2550  2.2760  2.4796
  653MPD2    N1 9674   1.593   1.107  17.517  0.0275 -0.0247  0.4610
  653MPD2    H7 9675   1.551   1.170  17.449 -2.0723  2.2774  3.9347
  654TMC3    C1 9676   1.175   0.679  17.177 -0.2507  0.6672  0.3905
  654TMC3    C2 9677   1.091   0.787  17.175  0.3664 -0.2051  0.1315
  654TMC3    C3 9678   1.005   0.793  17.075  0.4359  0.4784 -0.2346
  654TMC3    C4 9679   1.170   0.584  17.083  0.1907  0.0562 -0.5759
  654TMC3    C5 9680   1.068   0.590  16.995 -1.1279 -0.0901  0.3798
  654TMC3    C6 9681   0.981   0.690  16.992 -0.2037  0.2188  0.4166
  654TMC3     C 9682   1.280   0.665  17.277  0.0832  0.2085  0.8888
  654TMC3     O 9683   1.354   0.566  17.271 -0.3950  0.8965 -0.0690
  654TMC3     H 9684   1.094   0.867  17.247  0.1101 -0.3465  0.2998
  654TMC3    H1 9685   1.246   0.506  17.078 -0.1651 -0.3973  1.0168
  654TMC3    H2 9686   0.894   0.690  16.929  0.0948  1.9976 -0.0071
  654TMC3    C7 9687   1.072   0.511  16.869  0.3952  0.1554  0.0419
  654TMC3    C8 9688   0.945   0.919  17.040 -0.1502 -0.9089 -0.2984
  654TMC3    O1 9689   1.032   0.567  16.769  0.0012 -0.2367  0.2889
  654TMC3    O2 9690   0.917   0.992  17.131 -0.1330 -0.4957  0.8892
  655MPD2     C 9691   2.641   1.178  15.656 -0.1751 -0.1431 -0.8600
  655MPD2    C1 9692   2.569   1.272  15.589 -0.0136  0.0134  0.2848
  655MPD2    C2 9693   2.546   1.252  15.453 -0.3593  0.4135  0.3218
  655MPD2    C3 9694   2.591   1.140  15.384  0.6283  0.9657 -0.6281
  655MPD2    C4 9695   2.679   1.063  15.451  0.1320 -0.4967 -0.2263
  655MPD2    C5 9696   2.703   1.081  15.582  0.1450  0.2404  0.2256
  655MPD2     H 9697   2.476   1.320  15.406 -0.0621  1.6263  1.6574
  655MPD2    H1 9698   2.732   0.980  15.405 -0.9380 -0.6594 -1.1650
  655MPD2    H2 9699   2.656   1.182  15.763 -0.5650 -1.4941 -0.7546
  655MPD2    H3 9700   2.752   1.009  15.647  2.7733  1.7162 -0.1192
  655MPD2     N 9701   2.551   1.105  15.256 -0.3885  1.2875  0.4938
  655MPD2    H5 9702   2.585   1.017  15.217 -0.2709  1.2155  0.7577
  655MPD2    N1 9703   2.508   1.387  15.647  0.0830  0.1400 -0.0534
  655MPD2    H7 9704   2.458   1.452  15.587  1.1735 -1.1600 -2.3605
  656TMC3    C1 9705   2.419   1.524  15.809 -0.2189  0.4956 -1.2216
  656TMC3    C2 9706   2.374   1.521  15.936 -0.0345  0.0085  0.2203
  656TMC3    C3 9707   2.254   1.568  15.961 -0.3448 -0.6103 -0.1463
  656TMC3    C4 9708   2.338   1.566  15.709 -0.3586  0.3538 -0.1354
  656TMC3    C5 9709   2.221   1.624  15.743 -0.2709  0.0889 -0.3041
  656TMC3    C6 9710   2.170   1.620  15.867  0.8217 -0.0631  0.4146
  656TMC3     C 9711   2.491   1.400  15.782 -0.1494  0.3138  0.3653
  656TMC3     O 9712   2.516   1.325  15.874 -1.1737 -0.1669 -0.9846
  656TMC3     H 9713   2.438   1.474  16.010 -0.6454  0.0961  0.7990
  656TMC3    H1 9714   2.369   1.593  15.609 -0.5715  0.2676 -0.2223
  656TMC3    H2 9715   2.068   1.651  15.884  0.5837 -0.4292 -0.3540
  656TMC3    C7 9716   2.164   1.705  15.638 -0.4384  0.2439 -0.0228
  656TMC3    C8 9717   2.201   1.542  16.097 -0.4464 -0.1017 -0.3092
  656TMC3    O1 9718   2.198   1.693  15.523  0.6137  0.8887 -0.1777
  656TMC3    O2 9719   2.276   1.487  16.177 -0.1084 -0.3554 -0.5422
  657TMC3    C1 9720   1.426   0.729  14.843  0.0384  0.0120  0.2779
  657TMC3    C2 9721   1.450   0.758  14.971 -0.3105  0.1646  0.0413
  657TMC3    C3 9722   1.379   0.861  15.026 -0.0032  0.7218 -0.0334
  657TMC3    C4 9723   1.318   0.795  14.780 -0.4105 -0.6133  0.1156
  657TMC3    C5 9724   1.246   0.896  14.841 -0.1832  0.3181  0.1769
  657TMC3    C6 9725   1.282   0.935  14.963 -0.5720  0.5202  0.2783
  657TMC3     C 9726   1.484   0.619  14.765 -0.0598  0.0953 -0.3674
  657TMC3     O 9727   1.439   0.599  14.651 -0.7603  0.4594 -0.4294
  657TMC3     H 9728   1.527   0.710  15.031  1.4216  1.0510 -1.4730
  657TMC3    H1 9729   1.288   0.762  14.681  1.8023  0.4412 -0.8906
  657TMC3    H2 9730   1.229   1.007  15.024  0.3199  0.5961  0.9794
  657TMC3    C7 9731   1.172   0.988  14.748  0.2087 -0.8283 -0.0212
  657TMC3    C8 9732   1.404   0.895  15.163  0.0363  0.4825  0.7342
  657TMC3    O1 9733   1.162   0.952  14.631  0.1047 -0.2233 -0.2940
  657TMC3    O2 9734   1.397   1.014  15.189  0.0957  0.6856  0.1291
  658MPD2     C 9735   2.560   0.797  14.540  0.8527  0.2941 -0.2829
  658MPD2    C1 9736   2.558   0.912  14.611 -0.1707  0.4023 -0.2647
  658MPD2    C2 9737   2.563   1.031  14.547  0.0003 -0.4087  0.1392
  658MPD2    C3 9738   2.560   1.037  14.409  0.6374  0.5939  0.4937
  658MPD2    C4 9739   2.557   0.928  14.334  0.2154 -0.5020  0.0795
  658MPD2    C5 9740   2.558   0.806  14.405  0.8405  0.3735  0.4010
  658MPD2     H 9741   2.558   1.124  14.602 -0.4482  0.4103 -1.2840
  658MPD2    H1 9742   2.558   0.929  14.226  0.0260  3.6151  0.1226
  658MPD2    H2 9743   2.551   0.700  14.587  1.9164  0.0211 -0.6506
  658MPD2    H3 9744   2.559   0.711  14.352  4.3452  0.3795  0.4369
  658MPD2     N 9745   2.544   1.154  14.343  0.3137 -0.2311  0.1277
  658MPD2    H5 9746   2.520   1.155  14.245 -2.3637  0.0269  0.7916
  658MPD2    N1 9747   2.542   0.927  14.750  0.5029 -0.5486 -0.1689
  658MPD2    H7 9748   2.541   1.023  14.782 -1.0859 -0.7588  0.4267
  659TMC3    C1 9749   2.425   0.899  14.941 -0.0499  0.0126 -0.1599
  659TMC3    C2 9750   2.499   0.997  15.007 -0.8490  0.0660 -0.1769
  659TMC3    C3 9751   2.424   1.107  15.050 -0.0983  0.3200 -0.0964
  659TMC3    C4 9752   2.293   0.919  14.904 -0.5136  0.1412  0.4053
  659TMC3    C5 9753   2.230   1.037  14.938 -0.7933  0.2615 -0.3166
  659TMC3    C6 9754   2.300   1.130  15.005 -0.5262 -0.5804 -0.5243
  659TMC3     C 9755   2.502   0.830  14.840  0.6135  0.4491  0.0286
  659TMC3     O 9756   2.475   0.712  14.821  0.0880 -0.0254 -0.1800
  659TMC3     H 9757   2.601   0.974  15.033 -1.2812  1.8048  3.0725
  659TMC3    H1 9758   2.247   0.834  14.855 -0.6576  1.0095 -0.9613
  659TMC3    H2 9759   2.237   1.210  15.043  0.8829 -0.2353  1.0241
  659TMC3    C7 9760   2.112   1.074  14.864 -0.2533 -0.2360 -0.7298
  659TMC3    C8 9761   2.466   1.180  15.171  0.6708 -0.6446 -1.1714
  659TMC3    O1 9762   2.066   1.184  14.892  0.6251 -0.1154 -0.5714
  659TMC3    O2 9763   2.409   1.284  15.203 -0.3255 -0.2266  0.4800
  660MPD2     C 9764   0.805   0.237  12.469 -0.4677  0.3563 -0.8619
  660MPD2    C1 9765   0.678   0.229  12.426  0.0278  0.0422  0.3329
  660MPD2    C2 9766   0.583   0.153  12.501 -0.4701  0.0198  0.5087
  660MPD2    C3 9767   0.627   0.074  12.610 -0.6252 -0.3305 -0.4775
  660MPD2    C4 9768   0.761   0.090  12.647  0.3735  0.4415  0.0662
  660MPD2    C5 9769   0.843   0.177  12.583  0.5225 -0.3775 -1.1887
  660MPD2     H 9770   0.479   0.140  12.473  0.4035 -2.7298 -1.5147
  660MPD2    H1 9771   0.804   0.053  12.739  0.7106  0.4251 -0.0958
  660MPD2    H2 9772   0.880   0.295  12.417 -1.4665  1.0298 -1.5563
  660MPD2    H3 9773   0.944   0.198  12.617 -0.6759 -0.3287  2.3689
  660MPD2     N 9774   0.543   4.720  12.697  0.0634  0.0386 -0.5525
  660MPD2    H5 9775   0.594   4.684  12.777 -0.9892 -1.4582 -0.5456
  660MPD2    N1 9776   0.646   0.302  12.306  0.3995  0.4947 -0.0847
  660MPD2    H7 9777   0.721   0.335  12.246  0.1110  0.3403 -0.5284
  661TMC3    C1 9778   0.500   0.351  12.135 -1.0749 -0.5441 -0.3075
  661TMC3    C2 9779   0.576   0.292  12.032  0.0236  0.2606  0.8721
  661TMC3    C3 9780   0.521   0.303  11.906  0.5776  0.0246 -0.3267
  661TMC3    C4 9781   0.395   0.426  12.110  0.1728  0.3946 -0.0713
  661TMC3    C5 9782   0.356   0.454  11.982  0.4014  0.1766 -0.2632
  661TMC3    C6 9783   0.410   0.381  11.881 -0.6382  0.3167 -0.8641
  661TMC3     C 9784   0.518   0.301  12.267 -0.7085 -0.2281 -0.1438
  661TMC3     O 9785   0.407   0.261  12.307 -0.3984 -0.2972  0.4051
  661TMC3     H 9786   0.662   0.229  12.055  0.5085  1.5951  2.7403
  661TMC3    H1 9787   0.344   0.473  12.193 -1.0264 -2.3120  0.7411
  661TMC3    H2 9788   0.384   0.410  11.780 -2.2056  0.5674 -0.3948
  661TMC3    C7 9789   0.229   0.517  11.972  0.2670 -0.1803  0.4616
  661TMC3    C8 9790   0.578   0.228  11.797  0.5052  0.2117 -0.4206
  661TMC3    O1 9791   0.206   0.611  12.046  0.2393 -0.1340  0.1115
  661TMC3    O2 9792   0.574   0.270  11.686  0.2328 -0.5940  0.0252
  662MPD2     C 9793   1.503   4.129  17.014  0.2212  0.1812  0.5832
  662MPD2    C1 9794   1.487   4.120  17.148  0.1445  0.3039  0.1794
  662MPD2    C2 9795   1.394   4.208  17.199 -0.3166  0.0481 -0.8515
  662MPD2    C3 9796   1.321   4.304  17.123  0.4738  0.3118 -0.5710
  662MPD2    C4 9797   1.341   4.307  16.986  0.3288  0.1048 -0.2749
  662MPD2    C5 9798   1.428   4.215  16.939 -0.1385 -0.5146  0.0013
  662MPD2     H 9799   1.388   4.208  17.307 -2.5326 -0.1192 -0.9782
  662MPD2    H1 9800   1.289   4.376  16.920  0.4995  2.3627  1.9056
  662MPD2    H2 9801   1.569   4.062  16.959 -1.4561 -0.3163 -0.8079
  662MPD2    H3 9802   1.430   4.217  16.831  1.5155 -1.1931  0.0176
  662MPD2     N 9803   1.241   4.407  17.174 -0.0293  0.1117 -0.2481
  662MPD2    H5 9804   1.194   4.468  17.108 -2.6807 -1.1701  0.4596
  662MPD2    N1 9805   1.543   4.009  17.230  0.0754  0.0288 -0.0196
  662MPD2    H7 9806   1.509   4.010  17.325 -1.6849  0.5671 -0.6535
  663TMC3    C1 9807   1.673   3.810  17.284 -0.1124  0.8673  0.0262
  663TMC3    C2 9808   1.630   3.822  17.419 -0.0082 -0.7668 -0.5200
  663TMC3    C3 9809   1.632   3.709  17.496 -0.2365 -0.4285  0.0177
  663TMC3    C4 9810   1.682   3.688  17.220 -0.4038  0.2816  0.4407
  663TMC3    C5 9811   1.648   3.580  17.295 -0.3091  0.0008 -0.0617
  663TMC3    C6 9812   1.649   3.586  17.431  0.2237  0.1171  0.1577
  663TMC3     C 9813   1.638   3.917  17.190  0.1862 -0.5571 -0.1103
  663TMC3     O 9814   1.693   3.910  17.082 -0.7654 -0.1153  0.3689
  663TMC3     H 9815   1.640   3.919  17.468 -1.4248 -0.6182 -0.5291
  663TMC3    H1 9816   1.706   3.675  17.115 -0.5563  0.1188  0.4274
  663TMC3    H2 9817   1.641   3.490  17.481  0.1025  0.4943  0.8632
  663TMC3    C7 9818   1.595   3.461  17.227 -0.2485  0.4935  0.4735
  663TMC3    C8 9819   1.525   3.700  17.582  0.5364 -0.5298  0.3002
  663TMC3    O1 9820   1.628   3.446  17.106  0.3701  0.4382 -0.2671
  663TMC3    O2 9821   1.462   3.594  17.586  0.5981 -0.1933  0.5119
  664MPD2     C 9822   3.748   2.950  17.380 -0.8289 -0.4717  0.0983
  664MPD2    C1 9823   3.873   2.987  17.420 -0.2828 -0.0176 -0.3466
  664MPD2    C2 9824   3.923   2.923  17.532  0.2392  0.5894  0.4066
  664MPD2    C3 9825   3.848   2.830  17.600  0.4825  0.1549 -0.0672
  664MPD2    C4 9826   3.731   2.787  17.548  0.4046 -0.0775  0.1176
  664MPD2    C5 9827   3.682   2.849  17.439 -0.7516  0.1234  0.5668
  664MPD2     H 9828   4.029   2.920  17.554  0.2160  0.5283  0.5109
  664MPD2    H1 9829   3.673   2.708  17.595  1.1156 -0.4893  0.3085
  664MPD2    H2 9830   3.690   2.990  17.297  2.0388  2.8696 -0.2910
  664MPD2    H3 9831   3.585   2.817  17.401  0.3262 -0.9722 -1.2349
  664MPD2     N 9832   3.897   2.791   0.026 -0.3922 -0.2724  0.6374
  664MPD2    H5 9833   3.987   2.824   0.058  0.1988 -2.4836  1.2654
  664MPD2    N1 9834   3.954   3.076  17.344 -0.0247 -0.1983  0.5084
  664MPD2    H7 9835   4.050   3.084  17.378 -0.5742 -0.5943  2.1508
  665TMC3    C1 9836   3.888   2.685   0.244 -0.5468  0.3796  0.2697
  665TMC3    C2 9837   3.821   2.619   0.339 -0.1906 -0.2545 -1.0001
  665TMC3    C3 9838   3.882   2.578   0.458 -0.2937 -0.0666 -0.3074
  665TMC3    C4 9839   4.021   2.707   0.264 -0.2018  0.2978  0.1564
  665TMC3    C5 9840   4.075   2.674   0.389  0.1234  0.2042  0.4781
  665TMC3    C6 9841   4.009   2.612   0.489  0.0252 -0.2153 -0.8641
  665TMC3     C 9842   3.817   2.723   0.121  0.1025  0.1092  0.7770
  665TMC3     O 9843   3.697   2.690   0.117  0.0221  0.2107 -0.0260
  665TMC3     H 9844   3.713   2.629   0.339  0.0414  2.3438  1.5885
  665TMC3    H1 9845   4.083   2.756   0.189 -0.8937 -0.1233 -0.6902
  665TMC3    H2 9846   4.062   2.564   0.571 -0.5821  0.9912  0.2347
  665TMC3    C7 9847   4.214   2.703   0.416  0.7713 -0.7569 -0.6165
  665TMC3    C8 9848   3.813   2.484   0.539 -0.0799  0.0453  0.1307
  665TMC3    O1 9849   4.290   2.675   0.326  0.0147  0.4539 -0.1231
  665TMC3    O2 9850   3.855   2.472   0.654 -0.3881 -0.3646  0.0686
  666TMC3    C1 9851   1.840   2.555   9.730 -0.8202  0.0364  0.8675
  666TMC3    C2 9852   1.917   2.570   9.618  0.2857  0.1036  0.0006
  666TMC3    C3 9853   1.941   2.697   9.576  0.3104  1.0622 -0.1296
  666TMC3    C4 9854   1.803   2.660   9.805 -0.1792 -0.1968 -0.8118
  666TMC3    C5 9855   1.841   2.786   9.771 -0.0057 -0.0331  0.5038
  666TMC3    C6 9856   1.912   2.804   9.657  0.1757 -0.5345 -0.1568
  666TMC3     C 9857   1.841   2.422   9.795  0.1125 -0.4560  0.2598
  666TMC3     O 9858   1.837   2.415   9.915 -0.0097 -0.5388 -0.2204
  666TMC3     H 9859   1.956   2.491   9.555 -2.2266 -0.8005 -0.4261
  666TMC3    H1 9860   1.749   2.630   9.894  0.5004 -0.1626 -0.3842
  666TMC3    H2 9861   1.923   2.908   9.631  1.1361 -0.6573 -0.2461
  666TMC3    C7 9862   1.852   2.894   9.875  0.1531  0.1371  0.1900
  666TMC3    C8 9863   2.053   2.709   9.487  0.3369 -0.2922  0.0244
  666TMC3    O1 9864   1.898   3.001   9.838  0.2157  1.1395 -0.2854
  666TMC3    O2 9865   2.108   2.607   9.449 -0.1830  0.0863  0.8188
  667MPD2     C 9866   0.010   2.806  14.482  0.0902 -0.0017  0.9254
  667MPD2    C1 9867   4.637   2.870  14.560  0.5988  0.6091  0.4278
  667MPD2    C2 9868   4.503   2.863  14.530 -0.9877  0.3810  0.1157
  667MPD2    C3 9869   4.462   2.801  14.414  0.9399 -0.0650  0.2774
  667MPD2    C4 9870   4.559   2.743  14.333  0.8135  0.5923 -0.3402
  667MPD2    C5 9871   4.691   2.751  14.367 -0.8676 -0.0409  0.2313
  667MPD2     H 9872   4.438   2.916  14.598  1.6934  2.6741  0.9009
  667MPD2    H1 9873   4.531   2.692  14.242  1.0629 -0.1771  0.0098
  667MPD2    H2 9874   0.116   2.813  14.500  0.1935 -1.6617  0.9597
  667MPD2    H3 9875   0.036   2.701  14.301 -0.3295 -0.6645  1.2780
  667MPD2     N 9876   4.324   2.785  14.389 -0.1432 -0.1211 -0.1085
  667MPD2    H5 9877   4.311   2.706  14.328 -0.4096  0.1464 -0.3977
  667MPD2    N1 9878   4.667   2.944  14.682 -0.1146  0.0695 -0.3512
  667MPD2    H7 9879   4.600   2.967  14.755 -1.3310  2.0776 -2.0966
  668TMC3    C1 9880   0.097   3.037  14.844  0.0397  0.3103 -0.7191
  668TMC3    C2 9881   0.208   3.117  14.865 -0.0371 -0.5171  0.5601
  668TMC3    C3 9882   0.255   3.132  14.995 -0.4313  0.6933  0.1870
  668TMC3    C4 9883   0.022   2.998  14.949 -0.3719 -0.5153 -0.2087
  668TMC3    C5 9884   0.071   3.011  15.079 -0.2529  0.2506  0.1534
  668TMC3    C6 9885   0.178   3.087  15.104 -0.0429  0.1713 -0.0618
  668TMC3     C 9886   0.074   2.980  14.713 -0.0336 -0.2852 -0.4972
  668TMC3     O 9887   0.165   2.998  14.632 -0.6496 -0.1070 -0.3823
  668TMC3     H 9888   0.261   3.149  14.776 -0.2547 -1.0183  0.2508
  668TMC3    H1 9889   4.652   2.949  14.933  0.2316 -1.0761 -2.0714
  668TMC3    H2 9890   0.197   3.108  15.208 -1.0723  1.1989 -0.0761
  668TMC3    C7 9891   4.716   2.948  15.182 -0.4074  0.6540  0.3111
  668TMC3    C8 9892   0.324   3.253  15.022  0.0277  0.0959 -0.3276
  668TMC3    O1 9893   0.030   2.984  15.294  0.8223 -0.1727 -0.2859
  668TMC3    O2 9894   0.371   3.256  15.135 -0.3807  0.3726  0.0624
  669TMC3    C1 9895   2.826   2.685  14.356 -0.3039 -1.0020  0.3089
  669TMC3    C2 9896   2.699   2.722  14.314  0.3360 -0.6259  0.4772
  669TMC3    C3 9897   2.686   2.818  14.217  0.0655 -0.0313 -0.1861
  669TMC3    C4 9898   2.939   2.731  14.291  0.3507  0.3607 -0.0069
  669TMC3    C5 9899   2.917   2.814  14.183  0.1462 -0.0384  0.4396
  669TMC3    C6 9900   2.794   2.865  14.151  0.0739  0.2287 -0.8181
  669TMC3     C 9901   2.845   2.588  14.457  0.0309 -0.4583  0.2839
  669TMC3     O 9902   2.951   2.524  14.446 -0.5496  0.1320  0.4194
  669TMC3     H 9903   2.614   2.663  14.345 -0.1913  0.6751  1.5063
  669TMC3    H1 9904   3.040   2.708  14.324  0.6909  0.8188 -0.7213
  669TMC3    H2 9905   2.793   2.942  14.075 -0.7201 -0.7527 -1.8018
  669TMC3    C7 9906   3.031   2.904  14.142 -0.6747  0.2050 -0.0178
  669TMC3    C8 9907   2.552   2.847  14.168  0.1882  0.0144  0.6100
  669TMC3    O1 9908   3.138   2.896  14.197  0.0635  0.2284  0.1653
  669TMC3    O2 9909   2.474   2.752  14.178 -0.1458  0.7004 -0.1978
  670MPD2     C 9910   1.309   0.846  12.796 -0.1000  0.5010 -0.6983
  670MPD2    C1 9911   1.406   0.844  12.896 -0.0039  0.2035 -0.2031
  670MPD2    C2 9912   1.363   0.812  13.024 -0.2625 -0.3776 -0.3096
  670MPD2    C3 9913   1.232   0.790  13.062  0.7476 -0.5138  0.6644
  670MPD2    C4 9914   1.132   0.804  12.965 -0.2783  0.7430 -0.1920
  670MPD2    C5 9915   1.168   0.829  12.832  0.2017 -0.3304 -0.1861
  670MPD2     H 9916   1.432   0.806  13.109  1.7620 -1.2138 -2.0097
  670MPD2    H1 9917   1.027   0.818  12.985 -0.4627  0.1135 -0.7234
  670MPD2    H2 9918   1.342   0.861  12.694 -0.3883  2.1559 -0.5465
  670MPD2    H3 9919   1.097   0.852  12.754  0.9135  0.0832 -0.7139
  670MPD2     N 9920   1.212   0.760  13.196 -0.1088  0.2677  0.1182
  670MPD2    H5 9921   1.293   0.737  13.252 -0.4959 -1.2297  0.0534
  670MPD2    N1 9922   1.541   0.865  12.876 -0.0539  0.2895  0.4500
  670MPD2    H7 9923   1.601   0.881  12.956 -1.5158 -0.7754  1.7627
  671TMC3    C1 9924   1.090   0.707  13.400 -0.2496  0.4421 -0.6467
  671TMC3    C2 9925   1.214   0.713  13.467  0.1307 -0.1052 -0.4212
  671TMC3    C3 9926   1.262   0.611  13.543  0.2185  0.3335  0.2114
  671TMC3    C4 9927   1.010   0.601  13.433  0.0674 -0.1373 -0.0774
  671TMC3    C5 9928   1.053   0.508  13.519 -0.3893 -0.2048 -0.5580
  671TMC3    C6 9929   1.179   0.511  13.574 -0.3564 -0.0537  0.1045
  671TMC3     C 9930   1.086   0.748  13.260 -0.1137  0.4822  0.3750
  671TMC3     O 9931   0.972   0.760  13.215 -0.2090  0.0558 -0.2610
  671TMC3     H 9932   1.282   0.786  13.424  0.3774  1.6142  2.8786
  671TMC3    H1 9933   0.905   0.602  13.407 -0.1857  1.8645  0.9795
  671TMC3    H2 9934   1.220   0.426  13.628  0.7542 -0.0929 -0.7992
  671TMC3    C7 9935   0.972   0.389  13.534 -0.6120 -0.0654  0.0157
  671TMC3    C8 9936   1.399   0.577  13.529  0.1735 -0.3954 -0.5993
  671TMC3    O1 9937   0.891   0.373  13.446 -0.5405 -0.1572  0.5800
  671TMC3    O2 9938   1.474   0.669  13.510 -0.1280 -0.0311 -0.3762
  672MPD2     C 9939   2.098   0.494   1.234  0.5678  0.3641  0.0542
  672MPD2    C1 9940   2.066   0.618   1.179 -0.5851 -0.4680 -0.2759
  672MPD2    C2 9941   2.044   0.730   1.261 -0.8296  0.2543 -0.1693
  672MPD2    C3 9942   2.045   0.716   1.397  0.0774 -0.4314 -0.6322
  672MPD2    C4 9943   2.070   0.592   1.449 -0.1327  0.4043  0.4018
  672MPD2    C5 9944   2.096   0.478   1.368  0.2303  0.2192 -0.7097
  672MPD2     H 9945   2.039   0.822   1.205  1.4696  0.3397 -0.2265
  672MPD2    H1 9946   2.075   0.573   1.555  0.8131 -0.6231  0.1742
  672MPD2    H2 9947   2.121   0.406   1.176 -0.7986 -0.0031  0.0629
  672MPD2    H3 9948   2.125   0.385   1.416  1.0684  1.4770  1.2499
  672MPD2     N 9949   2.035   0.824   1.484  0.5140  0.0837 -0.7020
  672MPD2    H5 9950   2.051   0.805   1.582  0.3135  2.7995 -0.1392
  672MPD2    N1 9951   2.057   0.640   1.046 -0.1411 -0.1652  0.0392
  672MPD2    H7 9952   2.035   0.734   1.013  0.9889 -0.1215 -0.6107
  673TMC3    C1 9953   2.092   0.600   0.815 -0.3238 -0.0044 -0.2258
  673TMC3    C2 9954   2.144   0.725   0.815  1.0414  0.2233  0.2136
  673TMC3    C3 9955   2.108   0.817   0.719 -0.5960  0.2396 -0.1256
  673TMC3    C4 9956   2.001   0.564   0.720  0.8357 -0.2428  0.0456
  673TMC3    C5 9957   1.957   0.656   0.627 -0.6785  0.2565  0.0526
  673TMC3    C6 9958   2.012   0.782   0.632 -0.7356  0.4688  0.0182
  673TMC3     C 9959   2.074   0.541   0.948 -0.2777  0.0516 -0.4448
  673TMC3     O 9960   2.049   0.424   0.952 -0.2942 -0.0669  0.0427
  673TMC3     H 9961   2.223   0.748   0.886 -0.3714  0.9018  1.5712
  673TMC3    H1 9962   1.936   0.480   0.740  0.0722  0.2668 -0.2962
  673TMC3    H2 9963   1.979   0.853   0.557  0.9590  1.5538  0.3139
  673TMC3    C7 9964   1.820   0.636   0.600  0.6463 -0.0793 -0.0817
  673TMC3    C8 9965   2.208   0.916   0.689 -0.7716 -0.3743  1.1835
  673TMC3    O1 9966   1.781   0.522   0.593  0.4483 -0.0253 -0.3003
  673TMC3    O2 9967   2.163   1.027   0.661  0.5998 -0.3888 -0.3755
  674MPD2     C 9968   2.160   0.998   0.276  0.2193 -0.0825 -0.5324
  674MPD2    C1 9969   2.134   0.861   0.274 -0.0409  0.7044 -0.4700
  674MPD2    C2 9970   2.002   0.814   0.288 -0.0080 -0.6289 -0.2279
  674MPD2    C3 9971   1.894   0.902   0.294  0.1410  0.1628  0.2992
  674MPD2    C4 9972   1.923   1.038   0.284  0.7433  0.3797 -0.7371
  674MPD2    C5 9973   2.056   1.083   0.284  0.6681 -0.1170 -0.1121
  674MPD2     H 9974   1.983   0.709   0.307 -1.4190 -0.6628 -1.8035
  674MPD2    H1 9975   1.848   1.115   0.291  0.7748  0.4741 -1.4394
  674MPD2    H2 9976   2.262   1.035   0.281  0.1671  0.1209 -1.0254
  674MPD2    H3 9977   2.079   1.188   0.300  1.1061 -0.3189  0.5935
  674MPD2     N 9978   1.762   0.853   0.294 -0.2231  0.3356  0.3269
  674MPD2    H5 9979   1.750   0.753   0.283  0.5472  0.2964 -0.2058
  674MPD2    N1 9980   2.238   0.768   0.289  0.2571 -0.4479 -0.5185
  674MPD2    H7 9981   2.334   0.802   0.295 -0.6748  2.2801 -1.4217
  675TMC3    C1 9982   2.358   0.569   0.317  0.5830  0.0121  0.3536
  675TMC3    C2 9983   2.399   0.593   0.446 -0.2403  0.5385  0.3743
  675TMC3    C3 9984   2.479   0.499   0.511 -0.0865  0.2589 -0.1891
  675TMC3    C4 9985   2.399   0.448   0.252  0.3811  0.7124  0.1984
  675TMC3    C5 9986   2.470   0.358   0.326  0.7254  0.0237 -0.3243
  675TMC3    C6 9987   2.517   0.380   0.453  0.6276 -0.2291  0.4449
  675TMC3     C 9988   2.231   0.635   0.272  0.0998  0.4229 -0.1443
  675TMC3     O 9989   2.162   0.573   0.194 -0.6315  0.3761  0.2599
  675TMC3     H 9990   2.350   0.677   0.494  0.1178  1.2781 -0.5457
  675TMC3    H1 9991   2.366   0.423   0.151 -0.9331 -0.4115  0.9054
  675TMC3    H2 9992   2.580   0.309   0.504  0.7665 -1.2080 -1.0783
  675TMC3    C7 9993   2.488   0.228   0.273 -0.1338 -0.8369  0.1940
  675TMC3    C8 9994   2.442   0.498   0.654 -0.0511  0.1512 -0.0696
  675TMC3    O1 9995   2.387   0.190   0.211  0.4506 -0.0822  0.2715
  675TMC3    O2 9996   2.377   0.594   0.696 -0.1825  0.1226 -0.6087
  676MPD2     C 9997   3.243   4.017  10.892  0.6310  0.1176  0.0837
  676MPD2    C1 9998   3.230   3.895  10.949  1.0207  0.0615  0.1902
  676MPD2    C2 9999   3.251   3.781  10.873  0.0062 -0.4139  0.8646
  676MPD2    C310000   3.296   3.788  10.747  0.9255 -0.6349  0.0399
  676MPD2    C410001   3.330   3.911  10.697 -0.0731 -0.2160  0.5211
  676MPD2    C510002   3.313   4.026  10.769 -0.5400 -0.1798 -0.1577
  676MPD2     H10003   3.235   3.686  10.923  2.3546  0.0177  2.4555
  676MPD2    H110004   3.374   3.926  10.599  0.3793 -1.9694  0.4618
  676MPD2    H210005   3.235   4.114  10.939  0.8780  0.7241 -1.1263
  676MPD2    H310006   3.351   4.124  10.740  1.3797 -0.9205 -0.1262
  676MPD2     N10007   3.309   3.672  10.666 -0.4395  0.5552  0.2682
  676MPD2    H510008   3.366   3.680  10.582  1.9988  3.6846  2.2217
  676MPD2    N110009   3.200   3.866  11.085  0.2589  0.0664 -0.4734
  676MPD2    H710010   3.237   3.779  11.120 -0.9058 -0.2877 -0.1344
  677TMC3    C110011   3.143   3.926  11.314  0.5478 -0.5688  0.9105
  677TMC3    C210012   3.157   3.795  11.357 -0.2387  0.1649  0.0373
  677TMC3    C310013   3.176   3.778  11.487 -0.5524 -0.0772 -0.0197
  677TMC3    C410014   3.149   4.032  11.404 -0.6254 -0.2122  1.1261
  677TMC3    C510015   3.186   4.007  11.532  0.9220  0.2665  0.1170
  677TMC3    C610016   3.201   3.880  11.577 -0.3277  0.1827 -0.4395
  677TMC3     C10017   3.156   3.962  11.171  0.0924  0.1181  0.7375
  677TMC3     O10018   3.109   4.071  11.136 -0.3291 -0.2367  0.1858
  677TMC3     H10019   3.149   3.707  11.294 -0.8022 -0.6899  1.2936
  677TMC3    H110020   3.139   4.137  11.376  1.2297 -0.7819 -1.6179
  677TMC3    H210021   3.228   3.861  11.680 -0.8613  1.2551 -0.0973
  677TMC3    C710022   3.228   4.115  11.622  0.1040 -0.8401  0.4803
  677TMC3    C810023   3.235   3.648  11.507  0.0179 -0.6906  0.5802
  677TMC3    O110024   3.224   4.093  11.745 -0.6030  0.3143 -0.4223
  677TMC3    O210025   3.321   3.621  11.425 -0.6914 -0.6146  0.1930
  678MPD2     C10026   0.654   3.705   1.429  0.0771 -0.2567  0.1437
  678MPD2    C110027   0.695   3.617   1.323  0.6121  0.5018 -0.3383
  678MPD2    C210028   0.601   3.541   1.262 -0.0887  0.5525 -0.9404
  678MPD2    C310029   0.467   3.560   1.289 -0.1034 -0.0918 -0.3271
  678MPD2    C410030   0.422   3.663   1.371 -0.3886 -0.3674 -0.2439
  678MPD2    C510031   0.521   3.728   1.449  0.2719  0.0437  0.3251
  678MPD2     H10032   0.631   3.473   1.182 -0.7276  0.5799 -1.2017
  678MPD2    H110033   0.319   3.666   1.405 -0.1708 -1.9511  0.5438
  678MPD2    H210034   0.725   3.760   1.489 -1.7427  1.3058  0.8517
  678MPD2    H310035   0.488   3.798   1.525 -0.8219 -0.7949  0.6273
  678MPD2     N10036   0.379   3.496   1.201 -0.3983  0.0751 -0.3493
  678MPD2    H510037   0.423   3.418   1.153 -0.8682  0.2556 -1.0727
  678MPD2    N110038   0.833   3.599   1.287 -0.4409 -0.5190 -0.0822
  678MPD2    H710039   0.851   3.537   1.209  1.5776  0.5840 -0.4804
  679TMC3    C110040   1.234   3.500   1.239 -0.0915 -0.1128 -0.6927
  679TMC3    C210041   1.101   3.521   1.266 -0.1440  0.1776  1.2341
  679TMC3    C310042   1.065   3.656   1.265  0.2081 -0.1204  0.1387
  679TMC3    C410043   1.333   3.593   1.243 -0.3303  0.6703 -0.0343
  679TMC3    C510044   1.287   3.726   1.259  0.2084  0.1101  0.2867
  679TMC3    C610045   1.157   3.761   1.254  0.3162 -0.4375 -0.1216
  679TMC3     C10046   1.266   3.356   1.247 -0.2430  0.4979 -0.8223
  679TMC3     O10047   1.177   3.274   1.215  0.6041 -0.6428 -0.2677
  679TMC3     H10048   1.029   3.442   1.283 -0.0713  0.3363  2.2733
  679TMC3    H110049   1.437   3.563   1.239 -1.0418 -1.6048 -1.1752
  679TMC3    H210050   1.132   3.866   1.258 -2.5953 -1.1282 -0.6187
  679TMC3    C710051   1.379   3.823   1.213 -0.2040  0.2716  0.8061
  679TMC3    C810052   0.938   3.687   1.328 -0.5275  1.0443  0.2250
  679TMC3    O110053   1.467   3.779   1.140  0.3046  0.4411  0.2684
  679TMC3    O210054   0.933   3.789   1.403 -0.3333  0.3367  0.1223
  680MPD2     C10055   0.398   2.574  13.617  0.7564  0.3747  0.1149
  680MPD2    C110056   0.491   2.492  13.675  0.4253  0.3002 -0.6173
  680MPD2    C210057   0.610   2.543  13.726  0.3473 -0.8419 -0.1410
  680MPD2    C310058   0.626   2.677  13.735 -0.0316 -0.9860 -1.1095
  680MPD2    C410059   0.524   2.753  13.696 -0.7062  0.5627 -0.3003
  680MPD2    C510060   0.417   2.711  13.622 -0.4043 -0.5443 -0.5098
  680MPD2     H10061   0.688   2.472  13.751  1.9901  0.4826 -1.4549
  680MPD2    H110062   0.539   2.860  13.703 -0.6126  0.4738  0.8713
  680MPD2    H210063   0.316   2.531  13.562  1.8321 -3.2089  1.3425
  680MPD2    H310064   0.351   2.783  13.576 -2.2825 -1.1067  1.2566
  680MPD2     N10065   0.749   2.737  13.778  0.0578 -0.9697 -0.1873
  680MPD2    H510066   0.754   2.838  13.782 -2.3458 -0.8186 -0.9489
  680MPD2    N110067   0.476   2.353  13.677  0.2644 -0.5705  0.3287
  680MPD2    H710068   0.557   2.303  13.711 -0.4523 -0.6362  1.9120
  681TMC3    C110069   0.395   2.147  13.655 -0.2132  0.6103 -0.3188
  681TMC3    C210070   0.333   2.071  13.742  0.1199 -0.3557 -0.3183
  681TMC3    C310071   0.381   1.944  13.760 -0.2259  0.3539  0.4289
  681TMC3    C410072   0.509   2.099  13.592 -0.0838 -0.3199 -0.2268
  681TMC3    C510073   0.559   1.977  13.609 -0.5693 -1.2056 -0.0240
  681TMC3    C610074   0.496   1.895  13.697  0.1159  0.1910  0.0183
  681TMC3     C10075   0.363   2.276  13.658 -0.2392 -0.6549 -0.2296
  681TMC3     O10076   0.246   2.302  13.678  0.5620  0.0858  0.1639
  681TMC3     H10077   0.244   2.105  13.794  1.6283  4.2718 -0.7407
  681TMC3    H110078   0.556   2.176  13.533 -0.7083 -0.2739 -0.6667
  681TMC3    H210079   0.531   1.797  13.728  0.2429 -0.3006 -1.7166
  681TMC3    C710080   0.686   1.933  13.559 -0.2077  0.0650  0.2832
  681TMC3    C810081   0.384   1.910  13.905  0.0913 -0.0183  0.3675
  681TMC3    O110082   0.730   1.824  13.593 -0.6214 -0.5024 -0.2846
  681TMC3    O210083   0.442   1.804  13.928  0.2112 -0.0504 -0.1571
  682MPD2     C10084   2.591   3.820  10.304 -0.7086 -0.2138 -0.0694
  682MPD2    C110085   2.538   3.716  10.388 -0.2081 -0.6590 -0.9578
  682MPD2    C210086   2.471   3.751  10.507  0.1035 -0.3485  1.3437
  682MPD2    C310087   2.469   3.884  10.544  0.6038  0.5621 -0.8496
  682MPD2    C410088   2.515   3.981  10.457  0.5503  0.7324  0.3058
  682MPD2    C510089   2.572   3.947  10.342 -0.8089  0.3594  0.0408
  682MPD2     H10090   2.452   3.669  10.575 -0.2883 -1.5901 -0.2586
  682MPD2    H110091   2.525   4.084  10.491  0.8714  0.7198  0.2458
  682MPD2    H210092   2.638   3.806  10.207 -0.2584  1.9812 -0.1715
  682MPD2    H310093   2.623   4.019  10.279  0.7316 -2.8761 -2.4101
  682MPD2     N10094   2.412   3.910  10.665  0.1881 -0.2139  0.2005
  682MPD2    H510095   2.368   3.828  10.707  1.0103 -1.7788 -1.9823
  682MPD2    N110096   2.538   3.582  10.351 -0.1196 -0.4395  0.1714
  682MPD2    H710097   2.487   3.520  10.413  1.5631 -1.2428  0.7469
  683TMC3    C110098   2.246   4.152  11.033 -0.0402 -0.1760 -0.3804
  683TMC3    C210099   2.155   4.053  11.061 -0.1709 -0.2755  0.0809
  683TMC3    C310100   2.162   3.940  10.991 -0.1259  0.2034 -0.2739
  683TMC3    C410101   2.329   4.148  10.924 -0.0605  0.2605 -0.5474
  683TMC3    C510102   2.332   4.035  10.851 -0.7341  0.6897 -0.1087
  683TMC3    C610103   2.249   3.927  10.884  0.7659  0.1860  0.7378
  683TMC3     C10104   2.264   4.252  11.134 -0.4252  0.3710  0.1665
  683TMC3     O10105   2.229   4.229  11.250  0.3468  0.0078 -0.2656
  683TMC3     H10106   2.106   4.055  11.158 -1.5100  2.6905 -0.6745
  683TMC3    H110107   2.391   4.234  10.902 -0.8510  0.8742 -0.3758
  683TMC3    H210108   2.238   3.849  10.810  1.3051  0.1622  0.6829
  683TMC3    C710109   2.423   4.026  10.739  0.9941  0.1971 -0.1014
  683TMC3    C810110   2.077   3.830  11.023 -0.2467 -0.0690  0.2543
  683TMC3    O110111   2.493   4.121  10.711 -0.0072 -0.3639  0.2259
  683TMC3    O210112   1.981   3.861  11.089 -0.0338 -0.4934 -0.5487
  684MPD2     C10113   0.927   3.130  16.263  0.3697  0.1905  0.0732
  684MPD2    C110114   0.922   3.165  16.131 -0.2953  0.0373 -0.7020
  684MPD2    C210115   0.891   3.291  16.083 -0.5853  0.1409 -0.3798
  684MPD2    C310116   0.876   3.385  16.180 -0.4937 -0.3194 -0.0643
  684MPD2    C410117   0.863   3.353  16.309  0.5579  0.0903  0.1591
  684MPD2    C510118   0.901   3.231  16.358  0.0851 -0.1933 -0.1509
  684MPD2     H10119   0.885   3.323  15.980 -0.1927  2.5181  0.3289
  684MPD2    H110120   0.832   3.430  16.380 -0.2617 -0.7336  0.7013
  684MPD2    H210121   0.965   3.035  16.297  2.1798  0.2890 -1.7256
  684MPD2    H310122   0.909   3.205  16.463  0.7809 -1.9275 -0.6307
  684MPD2     N10123   0.866   3.528  16.151 -0.1629 -0.1264 -0.0720
  684MPD2    H510124   0.875   3.582  16.236 -0.4327 -0.5628  0.2374
  684MPD2    N110125   0.955   3.075  16.028  0.0961  0.3853  0.0920
  684MPD2    H710126   0.927   3.095  15.932  0.4411 -0.8049 -0.2606
  685TMC3    C110127   0.987   2.863  15.934  0.0614  0.1454 -0.6185
  685TMC3    C210128   0.881   2.878  15.853  0.2433  0.1631  0.2857
  685TMC3    C310129   0.859   2.775  15.760  0.1279 -0.7445  0.3201
  685TMC3    C410130   1.063   2.754  15.930  1.3478  0.6606  0.1549
  685TMC3    C510131   1.032   2.651  15.843 -0.0963 -0.2241  0.0350
  685TMC3    C610132   0.934   2.657  15.754 -0.3868 -0.0193 -0.2735
  685TMC3     C10133   1.006   2.951  16.046  0.1174  0.2294  0.7388
  685TMC3     O10134   1.076   2.902  16.137  0.2346  0.4229  0.8641
  685TMC3     H10135   0.828   2.973  15.849 -2.7766 -1.4638  1.4790
  685TMC3    H110136   1.151   2.747  15.994  0.9058 -1.5097  0.5100
  685TMC3    H210137   0.910   2.566  15.699  1.9359  0.6830 -2.4405
  685TMC3    C710138   1.136   2.555  15.809  0.4542  0.2432 -0.1254
  685TMC3    C810139   0.747   2.781  15.666 -0.0075 -0.5866 -0.6910
  685TMC3    O110140   1.158   2.558  15.690 -0.0487 -0.5624  0.5827
  685TMC3    O210141   0.728   2.697  15.577 -0.0069  0.1074 -0.1173
  686MPD2     C10142   2.621   3.072  15.890 -0.6678 -0.1308 -0.0666
  686MPD2    C110143   2.521   3.056  15.795 -0.3956 -0.3520 -0.1064
  686MPD2    C210144   2.532   3.122  15.677 -0.0243 -0.2725 -0.5666
  686MPD2    C310145   2.645   3.187  15.642  0.2397  0.1796  0.0107
  686MPD2    C410146   2.749   3.192  15.730 -0.6146 -0.0031 -0.6306
  686MPD2    C510147   2.739   3.130  15.853  0.0386 -0.2330  0.0670
  686MPD2     H10148   2.453   3.116  15.603 -0.1447  1.2304 -0.5659
  686MPD2    H110149   2.846   3.227  15.698  0.0547 -2.1619 -0.9448
  686MPD2    H210150   2.605   3.033  15.990  2.9200  0.3416  0.6711
  686MPD2    H310151   2.818   3.141  15.927 -1.5264 -0.3164  1.7628
  686MPD2     N10152   2.655   3.228  15.505  0.0831  0.2218 -0.3357
  686MPD2    H510153   2.574   3.201  15.449  0.5715 -0.9907 -0.4457
  686MPD2    N110154   2.404   2.972  15.824 -0.0994  0.3295 -0.0884
  686MPD2    H710155   2.401   2.924  15.914 -1.0301 -1.7740 -1.2393
  687TMC3    C110156   2.779   3.216  15.306  0.2077 -0.5854  0.1199
  687TMC3    C210157   2.653   3.181  15.261  0.6254 -0.2812 -0.8119
  687TMC3    C310158   2.641   3.043  15.248 -0.3925 -0.3680  0.3843
  687TMC3    C410159   2.879   3.125  15.299  0.0314  0.3593  0.3110
  687TMC3    C510160   2.866   2.994  15.277 -0.7176 -0.7218  0.2249
  687TMC3    C610161   2.740   2.952  15.257  0.2006  0.3605 -0.9816
  687TMC3     C10162   2.771   3.267  15.442 -0.7139  0.9646 -0.7696
  687TMC3     O10163   2.881   3.308  15.479 -0.1679  0.5494 -0.3065
  687TMC3     H10164   2.576   3.256  15.248  0.4366 -0.3327  0.0139
  687TMC3    H110165   2.975   3.157  15.338 -0.3772  2.4625 -0.3928
  687TMC3    H210166   2.714   2.848  15.238  2.4477 -0.6204  1.3333
  687TMC3    C710167   2.952   2.906  15.366  0.2005  0.1291 -0.0422
  687TMC3    C810168   2.512   2.986  15.263 -0.6159  0.3828  0.0619
  687TMC3    O110169   3.064   2.951  15.392  0.1260  0.1040  0.2692
  687TMC3    O210170   2.512   2.874  15.310  0.0521 -0.4870 -0.1667
  688MPD2     C10171   1.807   1.704  17.064  0.0168 -0.1382  0.4610
  688MPD2    C110172   1.919   1.627  17.097 -0.5884 -1.1676 -0.2835
  688MPD2    C210173   2.035   1.628  17.017  0.1811 -0.0518  0.4498
  688MPD2    C310174   2.029   1.695  16.895 -0.1810 -0.2717 -0.0120
  688MPD2    C410175   1.921   1.774  16.861  0.0935 -0.0873  0.3177
  688MPD2    C510176   1.808   1.777  16.949  0.1145 -0.5712 -0.3263
  688MPD2     H10177   2.108   1.551  17.040  0.5345 -0.0888 -0.7949
  688MPD2    H110178   1.902   1.810  16.761  0.5710  1.2225  0.6936
  688MPD2    H210179   1.725   1.706  17.135  0.2732  0.3484  0.7416
  688MPD2    H310180   1.715   1.827  16.925 -1.2197 -3.0562 -0.3135
  688MPD2     N10181   2.139   1.695  16.805 -0.5310  0.5483 -0.1107
  688MPD2    H510182   2.127   1.753  16.723 -1.4391  1.3281  0.5660
  688MPD2    N110183   1.925   1.550  17.218  0.5301 -0.2202 -0.2409
  688MPD2    H710184   2.012   1.510  17.251 -0.7333 -2.9501 -0.2355
  689TMC3    C110185   1.850   1.424  17.395 -0.3055  0.6820 -0.1492
  689TMC3    C210186   1.945   1.472  17.475  0.1207 -0.1792  0.0074
  689TMC3    C310187   1.942   1.426  17.603  0.3380  0.4769  0.9493
  689TMC3    C410188   1.759   1.322  17.430 -0.3604  0.0247  0.7342
  689TMC3    C510189   1.768   1.274  17.557  0.2590  0.1162 -0.4847
  689TMC3    C610190   1.859   1.324  17.648  0.1813 -0.0120  0.2732
  689TMC3     C10191   1.816   1.503  17.283 -0.5971  0.3165 -0.2636
  689TMC3     O10192   1.702   1.498  17.240  0.0985  0.6671  0.2568
  689TMC3     H10193   2.010   1.555  17.448 -0.5412 -0.4905 -2.5872
  689TMC3    H110194   1.687   1.281  17.360 -0.0421  0.4165  0.1844
  689TMC3    H210195   1.839   1.294   0.049 -0.2879 -3.3727 -0.8180
  689TMC3    C710196   1.693   1.154  17.604 -0.6809  0.1383 -0.0161
  689TMC3    C810197   2.029   1.495  17.699 -0.2905  0.0860  0.2691
  689TMC3    O110198   1.729   1.106   0.008 -0.3936 -0.3304 -0.2561
  689TMC3    O210199   2.123   1.559  17.652 -0.3167 -0.1022  0.1230
  690MPD2     C10200   3.780   3.928  15.203 -0.4106  0.6425  0.1888
  690MPD2    C110201   3.838   3.848  15.111 -0.2607 -0.1962 -0.0736
  690MPD2    C210202   3.972   3.868  15.078  0.9419 -0.2238 -0.3033
  690MPD2    C310203   4.042   3.980  15.122  0.1108  0.6940  0.9238
  690MPD2    C410204   3.973   4.065  15.213 -0.2716 -0.2406 -0.7684
  690MPD2    C510205   3.847   4.035  15.258 -0.1349  0.4021 -0.3182
  690MPD2     H10206   4.023   3.803  15.007 -0.7211 -0.9180 -0.8656
  690MPD2    H110207   4.016   4.155  15.254  2.0423 -1.2550 -0.9744
  690MPD2    H210208   3.686   3.907  15.252 -1.3386  1.4201 -1.2318
  690MPD2    H310209   3.800   4.092  15.337 -0.7772  0.2267 -0.5731
  690MPD2     N10210   4.173   4.007  15.079 -0.3536 -0.4412  0.3490
  690MPD2    H510211   4.211   3.961  14.997 -1.3068  1.8494 -1.3665
  690MPD2    N110212   3.776   3.737  15.050  0.2792 -0.2722  0.1893
  690MPD2    H710213   3.835   3.675  14.995 -0.3727 -1.3096  0.6457
  691TMC3    C110214   3.581   3.612  14.975 -0.1623  0.3489  0.2932
  691TMC3    C210215   3.445   3.605  14.951 -0.1077 -0.7615  0.9158
  691TMC3    C310216   3.392   3.489  14.895 -0.3979 -0.0792  0.0802
  691TMC3    C410217   3.652   3.496  14.983  0.1281  0.2198  0.8058
  691TMC3    C510218   3.599   3.385  14.940 -0.0619 -0.4179 -0.2054
  691TMC3    C610219   3.473   3.377  14.882 -0.2647 -0.3694 -0.6374
  691TMC3     C10220   3.637   3.724  15.055 -0.7830  0.1888 -1.1436
  691TMC3     O10221   3.556   3.803  15.094 -0.3546  0.0660 -0.3223
  691TMC3     H10222   3.382   3.694  14.954  0.7001 -0.2104  1.4972
  691TMC3    H110223   3.746   3.501  15.037  0.7914  1.1854 -0.4136
  691TMC3    H210224   3.452   3.292  14.818 -1.2404 -0.4666 -0.1945
  691TMC3    C710225   3.657   3.269  15.002  0.9860  0.2067 -0.6290
  691TMC3    C810226   3.256   3.449  14.927 -0.1657  0.5526  0.4742
  691TMC3    O110227   3.773   3.275  15.039 -0.0690 -0.0520 -0.1359
  691TMC3    O210228   3.234   3.329  14.930  0.0542  0.6253  0.0484
  692TMC3    C110229   0.776   0.209  15.961  0.3882  0.1248  0.0423
  692TMC3    C210230   0.885   0.179  16.043 -0.0314  0.2221 -0.3460
  692TMC3    C310231   0.980   0.093  15.993  0.4940 -0.1644  0.0719
  692TMC3    C410232   0.734   0.138  15.855  0.6174  0.4125  0.2067
  692TMC3    C510233   0.814   0.031  15.836 -0.1747  0.2486 -0.3960
  692TMC3    C610234   0.934   0.008  15.899 -0.8050 -0.1694 -0.3018
  692TMC3     C10235   0.678   0.307  16.017  0.2359  0.2484 -0.5880
  692TMC3     O10236   0.697   0.326  16.138 -0.0534  0.8836 -0.2727
  692TMC3     H10237   0.908   0.256  16.116 -2.3780 -1.0190  1.7225
  692TMC3    H110238   0.640   0.152  15.802  0.1553 -1.8089  0.4310
  692TMC3    H210239   1.004   4.664  15.854 -1.1987 -0.5144 -0.3821
  692TMC3    C710240   0.749   4.653  15.758  0.7129 -0.2402  0.0067
  692TMC3    C810241   1.028   0.010  16.106  0.0643  0.1779  0.0430
  692TMC3    O110242   0.661   4.687  15.681 -0.1355 -0.9130 -0.7201
  692TMC3    O210243   1.066   4.625  16.075  0.3301 -0.3331  0.1153
  693MPD2     C10244   0.192   2.894  10.299  0.0464  0.2995 -0.1157
  693MPD2    C110245   0.144   2.770  10.324  0.2027 -0.5884  0.0210
  693MPD2    C210246   0.231   2.665  10.316  0.6628  0.5575  0.6376
  693MPD2    C310247   0.356   2.676  10.265  0.1460  0.5783  0.8412
  693MPD2    C410248   0.401   2.797  10.240 -0.6700 -0.4050 -0.0624
  693MPD2    C510249   0.315   2.904  10.246  0.1233  0.0382  0.2020
  693MPD2     H10250   0.185   2.567  10.328  1.8146 -0.1988 -1.2167
  693MPD2    H110251   0.501   2.816  10.202 -0.9645 -0.4546 -0.8559
  693MPD2    H210252   0.116   2.970  10.290  1.7584  1.9319 -0.6436
  693MPD2    H310253   0.347   3.004  10.220  0.4776  0.5245  2.4640
  693MPD2     N10254   0.448   2.564  10.257  0.7363 -0.1756  0.3199
  693MPD2    H510255   0.544   2.572  10.226  1.2345 -0.7521  1.7354
  693MPD2    N110256   0.006   2.751  10.352  0.0685 -0.7816 -0.1738
  693MPD2    H710257   4.668   2.831  10.354  0.9721 -0.0743 -0.0732
  694TMC3    C110258   4.511   2.658  10.378 -0.1006  1.2025 -0.8580
  694TMC3    C210259   4.440   2.557  10.319  0.0888 -0.3066 -0.1708
  694TMC3    C310260   4.336   2.508  10.385  0.6797 -0.0817 -0.1717
  694TMC3    C410261   4.486   2.720  10.497  0.4347 -0.9559 -0.2379
  694TMC3    C510262   4.369   2.678  10.554 -0.5016 -0.1776 -0.2885
  694TMC3    C610263   4.297   2.572  10.501  0.7843 -0.8804 -0.1553
  694TMC3     C10264   4.655   2.638  10.349  0.0384  0.2176 -0.6188
  694TMC3     O10265   4.695   2.525  10.327 -0.6335  0.8141  0.1467
  694TMC3     H10266   4.480   2.518  10.226  0.9626 -0.6774  0.3606
  694TMC3    H110267   4.565   2.770  10.552 -0.5710 -1.3216  1.5521
  694TMC3    H210268   4.202   2.544  10.545  1.1413  0.4699  1.4589
  694TMC3    C710269   4.350   2.716  10.692  0.4369  0.2227 -0.8830
  694TMC3    C810270   4.241   2.418  10.326 -0.7737  0.5009 -0.2054
  694TMC3    O110271   4.405   2.815  10.729 -0.2612 -0.0417  0.3352
  694TMC3    O210272   4.159   2.368  10.400  0.1119  0.4960  0.3950
  695MPD2     C10273   1.146   4.180  13.203 -0.3452 -0.1708  0.5188
  695MPD2    C110274   1.169   4.312  13.187 -0.5040 -0.5145  0.5550
  695MPD2    C210275   1.062   4.404  13.183  0.1890 -0.2315  0.8584
  695MPD2    C310276   0.934   4.351  13.192 -0.1279  0.0212  0.0663
  695MPD2    C410277   0.909   4.220  13.188  0.2262  0.4381 -0.7811
  695MPD2    C510278   1.016   4.134  13.183  0.8932  0.3083 -0.2179
  695MPD2     H10279   1.072   4.511  13.191 -0.2352 -0.2351  1.4566
  695MPD2    H110280   0.810   4.178  13.170  0.8142  0.1708 -3.4013
  695MPD2    H210281   1.230   4.112  13.194 -0.5667 -0.6920  2.4360
  695MPD2    H310282   0.979   4.032  13.178 -1.6551  1.1493  1.8634
  695MPD2     N10283   0.824   4.438  13.209  0.1385 -0.0577  0.2321
  695MPD2    H510284   0.842   4.535  13.186  0.5342 -0.2800 -0.3985
  695MPD2    N110285   1.299   4.371  13.190 -0.5857 -0.2994 -0.5340
  695MPD2    H710286   1.305   4.472  13.193  3.0950 -0.5205 -0.0332
  696TMC3    C110287   0.591   4.509  13.252 -0.0789 -1.4960 -0.4791
  696TMC3    C210288   0.552   4.534  13.382 -0.1201 -0.4059 -0.5100
  696TMC3    C310289   0.508   4.656  13.417  0.1423  0.1604  0.3652
  696TMC3    C410290   0.563   4.593  13.152  0.2542 -0.1752 -0.0050
  696TMC3    C510291   0.504   4.713  13.192 -0.2123 -0.3816  0.6812
  696TMC3    C610292   0.470   0.014  13.319 -0.0114  0.0435 -0.0329
  696TMC3     C10293   0.692   4.401  13.241  0.4157  0.0215 -0.2974
  696TMC3     O10294   0.651   4.291  13.289  0.2328 -0.1054  0.0011
  696TMC3     H10295   0.596   4.471  13.459  0.6100 -1.0360 -1.4435
  696TMC3    H110296   0.609   4.579  13.054  0.8884 -0.9016  0.3970
  696TMC3    H210297   0.417   0.106  13.338  0.5923  0.0319  1.7130
  696TMC3    C710298   0.532   0.114  13.116  0.4817 -0.5987  0.3435
  696TMC3    C810299   0.592   0.019  13.502 -0.2569  0.0933  0.2606
  696TMC3    O110300   0.529   0.116  12.993 -0.4604 -0.1988  0.1066
  696TMC3    O210301   0.586   0.137  13.474  0.6535  0.1032  0.3328
  697MPD2     C10302   0.464   1.639  15.133  0.0647 -0.4428 -0.4884
  697MPD2    C110303   0.391   1.568  15.035  0.2792  0.1350 -0.1179
  697MPD2    C210304   0.344   1.640  14.929 -0.0982  1.1459 -0.0166
  697MPD2    C310305   0.363   1.775  14.914 -0.7360  0.2713 -0.6455
  697MPD2    C410306   0.428   1.844  15.013 -1.0089 -0.3228  0.3527
  697MPD2    C510307   0.472   1.774  15.128 -0.1674 -0.4166 -0.4297
  697MPD2     H10308   0.283   1.593  14.853  0.9490  0.8089 -0.6409
  697MPD2    H110309   0.430   1.953  15.015  0.7219 -0.3346 -0.9493
  697MPD2    H210310   0.517   1.591  15.214  0.2472 -1.5703 -1.2780
  697MPD2    H310311   0.522   1.833  15.204 -1.6215  0.6180 -0.2583
  697MPD2     N10312   0.316   1.836  14.798  0.4368 -0.1777 -0.5782
  697MPD2    H510313   0.244   1.790  14.743  0.2535  0.9816 -1.3112
  697MPD2    N110314   0.366   1.428  15.035  0.1016 -0.3091 -0.5232
  697MPD2    H710315   0.309   1.386  14.962  0.6659 -0.5812 -0.8047
  698TMC3    C110316   0.288   2.015  14.653 -0.3401 -0.4017  0.3297
  698TMC3    C210317   0.273   2.153  14.659  0.1229 -0.0387 -0.3268
  698TMC3    C310318   0.177   2.210  14.587 -0.2820  0.2646 -0.2134
  698TMC3    C410319   0.206   1.942  14.574  0.4955  0.4241  0.6116
  698TMC3    C510320   0.106   2.005  14.494 -0.2591  0.6043 -0.1299
  698TMC3    C610321   0.092   2.142  14.510  0.7054  0.3239 -0.1539
  698TMC3     C10322   0.370   1.955  14.750 -0.2967  0.7773  0.0905
  698TMC3     O10323   0.457   2.026  14.804 -0.8862 -0.8224  0.0349
  698TMC3     H10324   0.321   2.205  14.741 -1.4454  0.5643  0.2248
  698TMC3    H110325   0.198   1.835  14.589 -1.0272  0.8291  2.7207
  698TMC3    H210326   0.019   2.197  14.452 -0.4959 -0.2249  0.8589
  698TMC3    C710327   0.069   1.965  14.360  0.1824 -0.3598  0.4002
  698TMC3    C810328   0.183   2.353  14.558  0.0230 -0.3427 -0.2977
  698TMC3    O110329   0.025   2.053  14.286  0.3143  0.1535 -0.2108
  698TMC3    O210330   0.092   2.403  14.494 -0.0613  0.2709 -0.5737
  699TMC3    C110331   0.337   4.623  12.789  0.4436  0.0064  0.2840
  699TMC3    C210332   0.405   4.512  12.837  0.2375  0.4447 -0.4179
  699TMC3    C310333   0.325   4.431  12.913 -0.2438  0.0944  0.5560
  699TMC3    C410334   0.209   4.656  12.815 -0.2285 -0.7759 -0.1865
  699TMC3    C510335   0.146   4.577  12.907 -0.1239 -0.9454 -1.0389
  699TMC3    C610336   0.198   4.466  12.953 -0.4927  0.2257  0.2718
  699TMC3     C10337   0.405   4.716  12.696 -0.3672 -1.0206  0.0540
  699TMC3     O10338   0.332   0.070  12.634 -1.0005 -0.6388  0.0755
  699TMC3     H10339   0.504   4.474  12.812 -0.3456  0.5327 -2.8129
  699TMC3    H110340   0.167   0.028  12.793 -0.7666 -1.1568 -0.8530
  699TMC3    H210341   0.148   4.403  13.026 -0.6527 -1.6174 -1.4642
  699TMC3    C710342   0.021   4.622  12.983  0.4115  0.2948 -0.3004
  699TMC3    C810343   0.389   4.321  12.983 -0.2674 -0.2285 -0.2867
  699TMC3    O110344   4.683   4.529  13.029 -0.0823  0.2073  0.5007
  699TMC3    O210345   0.343   4.294  13.091  0.0471 -0.4800  0.4130
  700TMC3    C110346   4.386   2.309  17.381 -0.1538 -0.2630 -0.3758
  700TMC3    C210347   4.432   2.177  17.378  0.4159 -0.5474  0.1734
  700TMC3    C310348   4.527   2.132  17.465 -0.3050 -0.4351  0.7402
  700TMC3    C410349   4.440   2.404  17.466 -1.0676  0.0330 -0.4275
  700TMC3    C510350   4.539   2.350  17.555 -0.2009 -0.3077  0.0471
  700TMC3    C610351   4.581   2.218  17.553 -0.8528 -0.5003  0.0611
  700TMC3     C10352   4.316   2.355  17.266 -0.5065 -0.2083  0.3451
  700TMC3     O10353   4.237   2.283  17.214  0.5797 -0.5410 -0.1054
  700TMC3     H10354   4.397   2.117  17.294 -0.2330  0.3320 -0.1841
  700TMC3    H110355   4.413   2.509  17.464  2.4539  0.9713  1.1919
  700TMC3    H210356   4.674   2.191  17.603 -1.3340  0.7908  1.6648
  700TMC3    C710357   4.574   2.436  17.665  0.5996 -0.0645 -0.1197
  700TMC3    C810358   4.594   2.001  17.437 -0.8097  0.1351 -0.2384
  700TMC3    O110359   4.528   2.547  17.672  0.0384 -0.5701 -0.4558
  700TMC3    O210360   4.581   1.954  17.327 -0.7504  0.1932 -0.0581
  701TMC3    C110361   4.527   0.976  15.321 -0.0640 -0.1538  0.3077
  701TMC3    C210362   4.525   0.890  15.209  0.1063  0.4971  0.5355
  701TMC3    C310363   4.606   0.918  15.104 -0.4057 -0.1186  0.0150
  701TMC3    C410364   4.599   1.094  15.316 -0.4615  0.0628 -0.5494
  701TMC3    C510365   4.662   1.120  15.198 -0.2387 -1.3668  0.6239
  701TMC3    C610366   4.674   1.033  15.091 -0.0342 -0.6655 -0.5326
  701TMC3     C10367   4.450   0.929  15.432 -0.6362  0.0519  0.1717
  701TMC3     O10368   4.398   0.820  15.414  0.9380 -0.2288  0.3162
  701TMC3     H10369   4.505   0.784  15.220  3.6851 -0.2460  0.0517
  701TMC3    H110370   4.594   1.159  15.402  1.8602 -1.4839  0.7490
  701TMC3    H210371   0.013   1.059  15.008 -1.9017 -0.3384 -1.8693
  701TMC3    C710372   0.001   1.252  15.194 -0.4907  0.0629  0.0718
  701TMC3    C810373   4.631   0.813  15.005  0.1681  0.8673  0.7398
  701TMC3    O110374   4.711   1.322  15.097  0.5288 -0.2689 -0.5700
  701TMC3    O210375   0.025   0.790  14.994  0.3619  0.5670 -0.6654
  702MPD2     C10376   3.900   3.404  10.363  0.5416 -0.8556  0.2416
  702MPD2    C110377   3.802   3.507  10.377 -0.5001 -0.2998  0.2337
  702MPD2    C210378   3.838   3.637  10.360 -0.2063 -0.2532  0.4166
  702MPD2    C310379   3.962   3.673  10.310  0.2358  0.1874  0.3544
  702MPD2    C410380   4.056   3.568  10.294  0.7699  0.4237  0.2314
  702MPD2    C510381   4.029   3.441  10.330  0.1930 -0.7808  0.3742
  702MPD2     H10382   3.764   3.711  10.388 -0.3729 -0.1864 -0.1895
  702MPD2    H110383   4.154   3.597  10.258 -0.8973  4.0707 -1.4075
  702MPD2    H210384   3.875   3.302  10.389  2.0199 -0.9928  1.1178
  702MPD2    H310385   4.112   3.371  10.333  1.0405  0.2285  0.0828
  702MPD2     N10386   3.989   3.805  10.265 -0.0301 -0.0243  0.1267
  702MPD2    H510387   4.062   3.810  10.195 -0.3023 -0.1676 -0.1635
  702MPD2    N110388   3.669   3.483  10.412  0.2648  0.3153  0.3602
  702MPD2    H710389   3.602   3.557  10.431 -1.2723 -1.1851  0.7884
  703TMC3    C110390   3.949   4.039  10.233 -0.5878  0.5287 -0.3256
  703TMC3    C210391   3.821   4.088  10.228  0.0098 -0.5361 -0.0304
  703TMC3    C310392   3.785   4.161  10.117  0.2339  0.2145  0.0754
  703TMC3    C410393   4.046   4.057  10.137  0.1719  0.2387  0.0190
  703TMC3    C510394   4.009   4.149  10.035 -0.5753  0.4743 -0.2759
  703TMC3    C610395   3.879   4.193  10.020 -0.4529  0.4437  0.3366
  703TMC3     C10396   3.940   3.920  10.324 -0.3243 -0.2920  0.2636
  703TMC3     O10397   3.878   3.933  10.432  0.6903  0.3467  0.3523
  703TMC3     H10398   3.753   4.067  10.311  0.4856 -0.3451  0.4078
  703TMC3    H110399   4.149   4.026  10.151  0.1928 -0.0585 -0.8030
  703TMC3    H210400   3.860   4.255   9.934  0.1581  2.1103  1.3984
  703TMC3    C710401   4.115   4.211   9.950 -0.5076 -0.3278 -0.1996
  703TMC3    C810402   3.658   4.233  10.121 -0.3425  0.6928  0.2133
  703TMC3    O110403   4.230   4.180   9.984 -0.5840  0.5678 -0.1673
  703TMC3    O210404   3.648   4.334  10.052 -0.3463 -0.6997 -0.1773
  704TMC3    C110405   0.772   1.476  12.346 -0.7336  0.7790 -0.4559
  704TMC3    C210406   0.902   1.516  12.355 -0.8768  0.0329  0.0244
  704TMC3    C310407   0.977   1.474  12.462 -0.1135 -0.6225  0.2215
  704TMC3    C410408   0.709   1.407  12.443  0.1192 -0.0809 -0.6099
  704TMC3    C510409   0.785   1.376  12.560  0.7151  0.0404 -0.4160
  704TMC3    C610410   0.917   1.416  12.569  0.2200  0.1984  0.4402
  704TMC3     C10411   0.704   1.502  12.218  0.1655  0.1960  0.6001
  704TMC3     O10412   0.589   1.536  12.212 -0.0094 -0.6233 -0.0870
  704TMC3     H10413   0.951   1.577  12.280 -1.3702  0.5021  0.0827
  704TMC3    H110414   0.607   1.376  12.425  0.6876 -1.5463 -1.3414
  704TMC3    H210415   0.980   1.362  12.639  2.0260 -1.7432 -2.6747
  704TMC3    C710416   0.758   1.238  12.589 -0.1333  0.2619 -0.7242
  704TMC3    C810417   1.107   1.425  12.411  0.3924 -0.7515  0.5630
  704TMC3    O110418   0.698   1.171  12.504 -0.2284 -0.3931  0.6448
  704TMC3    O210419   1.126   1.441  12.293 -0.6211  0.0685 -0.1771
  705MPD2     C10420   1.211   4.132  16.538  0.5368  0.1581  0.5550
  705MPD2    C110421   1.140   4.182  16.429  0.1577  0.2676 -0.3481
  705MPD2    C210422   1.011   4.233  16.448  0.2385  0.3957 -0.2218
  705MPD2    C310423   0.944   4.202  16.567 -0.3390  0.9471 -0.4829
  705MPD2    C410424   1.020   4.174  16.676  0.2025 -0.8636 -0.1009
  705MPD2    C510425   1.153   4.148  16.664  1.1817  0.0712  0.0357
  705MPD2     H10426   0.964   4.277  16.360 -0.3773  0.9247  0.3690
  705MPD2    H110427   0.970   4.179  16.772 -2.4887  3.4722 -1.7075
  705MPD2    H210428   1.316   4.106  16.529  0.4566 -0.0101  0.1229
  705MPD2    H310429   1.203   4.116  16.755 -0.2053  0.1736  0.8271
  705MPD2     N10430   0.804   4.241  16.583  0.0466  0.3146  0.2729
  705MPD2    H510431   0.774   4.255  16.679 -0.7792 -1.7274  0.3124
  705MPD2    N110432   1.205   4.211  16.306 -0.2886  0.2095  0.9353
  705MPD2    H710433   1.150   4.270  16.244  0.5695  2.4237  2.2794
  706TMC3    C110434   1.476   4.184  15.925  0.0775 -0.3489  0.1562
  706TMC3    C210435   1.469   4.319  15.905  0.2947 -0.4460  0.2917
  706TMC3    C310436   1.402   4.396  15.996 -0.8363  0.3680 -0.1297
  706TMC3    C410437   1.441   4.134  16.053  0.8521 -0.1769 -1.0151
  706TMC3    C510438   1.377   4.215  16.132  0.5386 -0.0515 -0.4471
  706TMC3    C610439   1.361   4.347  16.113 -0.3711 -0.8193 -0.2214
  706TMC3     C10440   1.564   4.113  15.836 -0.4629  0.0713 -0.0217
  706TMC3     O10441   1.633   4.029  15.890  0.0009 -0.0085  0.6296
  706TMC3     H10442   1.494   4.366  15.810 -0.1372  0.5436  0.6688
  706TMC3    H110443   1.454   4.027  16.069  3.7100  0.0644 -1.6521
  706TMC3    H210444   1.313   4.408  16.190 -1.6435  0.6835 -2.2191
  706TMC3    C710445   1.333   4.175  16.264  0.5389  0.5575  0.5947
  706TMC3    C810446   1.381   4.538  15.975 -0.4190 -0.1453 -0.0175
  706TMC3    O110447   1.415   4.101  16.316 -0.4935 -0.3888  0.3015
  706TMC3    O210448   1.343   4.565  15.864 -0.3305  0.1900 -0.5492
  707TMC3    C110449   3.049   3.194   1.450  1.0740 -0.0735 -0.2728
  707TMC3    C210450   3.016   3.060   1.468  0.4708 -0.2757  0.1251
  707TMC3    C310451   2.935   3.033   1.575 -1.5120  0.1707  0.9205
  707TMC3    C410452   3.001   3.293   1.527  0.7764 -0.0894  0.0359
  707TMC3    C510453   2.922   3.258   1.638  0.4692 -0.0773 -0.4652
  707TMC3    C610454   2.881   3.131   1.656 -0.1168  0.3985  0.3293
  707TMC3     C10455   3.143   3.221   1.348  0.0625 -0.2677  0.4313
  707TMC3     O10456   3.240   3.148   1.341  0.1564 -0.4743 -0.8096
  707TMC3     H10457   3.055   2.988   1.398  0.4793  0.9330 -1.1306
  707TMC3    H110458   3.028   3.397   1.509 -4.3737  1.1604 -0.7437
  707TMC3    H210459   2.821   3.121   1.746 -0.6444  1.0631  0.0486
  707TMC3    C710460   2.884   3.361   1.730 -0.1356 -0.7799 -0.2650
  707TMC3    C810461   2.899   2.902   1.615  0.2432 -0.2616 -0.4194
  707TMC3    O110462   2.787   3.346   1.805 -0.3761  0.2646 -0.4701
  707TMC3    O210463   2.822   2.889   1.709 -0.5465 -0.6052  0.4404
  708MPD2     C10464   4.254   3.239  13.589 -0.1466 -0.0479 -0.2500
  708MPD2    C110465   4.172   3.126  13.583  0.5080  0.0792 -0.3282
  708MPD2    C210466   4.237   3.001  13.603  0.3973 -0.6323 -0.6178
  708MPD2    C310467   4.372   2.996  13.627 -0.1667  0.3450 -0.0862
  708MPD2    C410468   4.446   3.110  13.620  0.5434 -0.0318 -0.2552
  708MPD2    C510469   4.385   3.232  13.614  0.4808 -0.1544  0.2175
  708MPD2     H10470   4.175   2.913  13.618  0.4683 -0.9802 -2.3139
  708MPD2    H110471   4.554   3.107  13.630  0.5648  1.2014 -0.1782
  708MPD2    H210472   4.209   3.338  13.591  0.1288  0.0694  0.1178
  708MPD2    H310473   4.435   3.328  13.621  1.0213 -0.4781  0.7101
  708MPD2     N10474   4.440   2.880  13.670 -0.0937 -0.4084  0.2031
  708MPD2    H510475   4.539   2.892  13.691 -0.3843  3.1544 -0.4703
  708MPD2    N110476   4.030   3.143  13.571  0.0097 -0.6921  1.0953
  708MPD2    H710477   3.998   3.239  13.565  0.1631 -0.7889 -1.2336
  709TMC3    C110478   3.811   3.056  13.547  0.7304  0.7351 -0.0903
  709TMC3    C210479   3.734   2.972  13.465 -0.0323 -0.5654  0.4454
  709TMC3    C310480   3.617   2.934  13.533  0.3972  0.4488 -0.0710
  709TMC3    C410481   3.768   3.114  13.666  0.8550  0.7176 -0.0650
  709TMC3    C510482   3.649   3.058  13.725 -0.2291  0.8704 -0.4258
  709TMC3    C610483   3.572   2.977  13.649 -0.7238  0.1181  0.1425
  709TMC3     C10484   3.949   3.037  13.535  0.3118 -0.3744 -0.7080
  709TMC3     O10485   3.981   2.933  13.481  0.3112 -0.0516  0.0624
  709TMC3     H10486   3.779   2.914  13.385  0.1601 -0.0330  0.1719
  709TMC3    H110487   3.827   3.189  13.718  1.6078  1.4548 -1.9735
  709TMC3    H210488   3.474   2.945  13.683 -0.4369 -1.6540 -0.6996
  709TMC3    C710489   3.689   2.998  13.853  0.2194  0.2245  0.1628
  709TMC3    C810490   3.511   2.867  13.448  0.0181  0.5177 -0.1728
  709TMC3    O110491   3.794   3.045  13.898  0.0021  0.7567 -0.3713
  709TMC3    O210492   3.405   2.834  13.497 -0.5250 -0.6408 -0.0870
  710TMC3    C110493   1.753   4.377   0.588  0.0500  0.4690  0.8948
  710TMC3    C210494   1.696   4.314   0.482  0.4687 -0.4694 -0.3726
  710TMC3    C310495   1.630   4.197   0.494  0.2530 -0.4545 -0.2662
  710TMC3    C410496   1.729   4.330   0.714 -0.1342 -0.6695  0.6829
  710TMC3    C510497   1.647   4.217   0.728  0.4952  0.0624 -0.2013
  710TMC3    C610498   1.605   4.143   0.621  0.3024  0.3748 -0.3318
  710TMC3     C10499   1.753   4.521   0.585 -0.2561  0.0621 -0.0018
  710TMC3     O10500   1.839   4.574   0.655  0.2865  0.4400 -0.2013
  710TMC3     H10501   1.728   4.347   0.384  0.8391  1.9202  0.5450
  710TMC3    H110502   1.759   4.379   0.806  1.5048 -2.3003  0.9987
  710TMC3    H210503   1.566   4.044   0.636  3.2055 -0.4519  1.6173
  710TMC3    C710504   1.625   4.146   0.853  0.2687 -0.2498 -0.2942
  710TMC3    C810505   1.591   4.119   0.373  0.1746  0.0494  0.1499
  710TMC3    O110506   1.606   4.025   0.849 -0.8604 -0.2726  0.1660
  710TMC3    O210507   1.616   4.174   0.266  0.2343  0.9648 -0.0489
  711TMC3    C110508   0.367   0.511  14.739 -0.4551  0.7332  0.8766
  711TMC3    C210509   0.385   0.575  14.858 -0.3249  0.1755 -0.4572
  711TMC3    C310510   0.495   0.551  14.941  0.5860  0.1300 -0.4728
  711TMC3    C410511   0.449   0.412  14.705  0.0567  0.6777 -0.4438
  711TMC3    C510512   0.563   0.392  14.778 -0.5751  0.4610 -0.8159
  711TMC3    C610513   0.590   0.458  14.900 -0.1205  0.5340  0.3556
  711TMC3     C10514   0.249   0.530  14.657  0.3535  0.1193 -0.6006
  711TMC3     O10515   0.244   0.450  14.561 -0.2597 -0.7347 -0.0935
  711TMC3     H10516   0.325   0.661  14.884 -0.2806 -0.4040  1.5233
  711TMC3    H110517   0.438   0.356  14.613 -1.0046  2.7490 -1.5755
  711TMC3    H210518   0.678   0.429  14.955 -0.2437 -0.9911 -0.2627
  711TMC3    C710519   0.624   0.259  14.774 -0.8059  0.2637 -0.6442
  711TMC3    C810520   0.498   0.609  15.070 -0.0660 -0.1041 -0.2655
  711TMC3    O110521   0.736   0.252  14.824 -0.2333  0.0333  0.3236
  711TMC3    O210522   0.393   0.665  15.109  0.3452  0.1046  0.4706
  712MPD2     C10523   1.513   1.389  13.870  0.5781  0.4492 -0.2254
  712MPD2    C110524   1.409   1.458  13.798 -0.0745 -0.3527 -0.6995
  712MPD2    C210525   1.424   1.593  13.771  0.5422 -0.7165  1.0139
  712MPD2    C310526   1.541   1.660  13.799 -0.0765 -1.7506 -0.3746
  712MPD2    C410527   1.636   1.599  13.873  0.0300  0.5944  0.0368
  712MPD2    C510528   1.629   1.460  13.900  0.3058 -0.2670 -0.6005
  712MPD2     H10529   1.339   1.652  13.738  0.7532 -0.9036  0.1275
  712MPD2    H110530   1.720   1.650  13.917 -1.5672 -0.3186  4.1802
  712MPD2    H210531   1.509   1.283  13.894 -0.9100  0.9893  1.8643
  712MPD2    H310532   1.715   1.416  13.950 -1.4531 -4.1905 -1.0384
  712MPD2     N10533   1.569   1.795  13.750  0.2076  0.1728  0.2534
  712MPD2    H510534   1.655   1.844  13.770  0.6372 -0.1737 -0.7624
  712MPD2    N110535   1.283   1.403  13.778 -0.4214 -0.3057 -0.1491
  712MPD2    H710536   1.214   1.460  13.730  2.6267  2.0533 -1.7517
  713TMC3    C110537   1.543   1.997  13.640  0.0007 -0.5161  0.3697
  713TMC3    C210538   1.680   1.994  13.654 -0.2214  0.2305 -0.1075
  713TMC3    C310539   1.730   2.096  13.727 -0.3453 -0.2620  0.0396
  713TMC3    C410540   1.463   2.108  13.664  0.1506  0.6109  0.8636
  713TMC3    C510541   1.528   2.214  13.720  0.5378 -0.6585 -0.1848
  713TMC3    C610542   1.660   2.208  13.752  0.2764 -0.1998 -0.0517
  713TMC3     C10543   1.480   1.870  13.679 -0.2077  0.0690  0.0227
  713TMC3     O10544   1.362   1.852  13.654 -0.1222  0.1731  0.2357
  713TMC3     H10545   1.732   1.903  13.629  1.1770  1.1786 -0.6188
  713TMC3    H110546   1.363   2.115  13.625  0.5427 -0.0985 -0.2528
  713TMC3    H210547   1.708   2.290  13.805 -2.6454  1.9810 -0.7709
  713TMC3    C710548   1.476   2.349  13.703  0.3439 -0.2777  0.7207
  713TMC3    C810549   1.870   2.108  13.712  0.0146  0.0154  0.1829
  713TMC3    O110550   1.562   2.433  13.675  0.3128  0.3690 -0.0013
  713TMC3    O210551   1.917   2.045  13.616  0.1816  0.2317 -0.1676
  714MPD2     C10552   4.387   0.438   1.385  0.2740 -0.1529  0.3114
  714MPD2    C110553   4.353   0.353   1.283 -0.5842 -0.1740 -0.3576
  714MPD2    C210554   4.233   0.372   1.218 -0.6560 -0.2443  0.4273
  714MPD2    C310555   4.152   0.474   1.259  0.0924 -0.3052 -0.3461
  714MPD2    C410556   4.185   0.555   1.370  0.2050 -0.8271  0.0097
  714MPD2    C510557   4.307   0.539   1.434 -0.0041 -0.4522  0.0942
  714MPD2     H10558   4.212   0.321   1.125  0.8245 -0.8505  0.4120
  714MPD2    H110559   4.124   0.638   1.403 -0.3214 -1.0457 -0.4095
  714MPD2    H210560   4.481   0.424   1.437  0.4239 -0.0850  0.0591
  714MPD2    H310561   4.338   0.584   1.528 -1.8971  1.2413 -0.0887
  714MPD2     N10562   4.045   0.489   1.169  0.9348 -0.1912 -0.3831
  714MPD2    H510563   4.040   0.429   1.087 -2.1719 -0.6357  0.1092
  714MPD2    N110564   4.456   0.266   1.239  0.9629 -0.1900 -0.0629
  714MPD2    H710565   4.537   0.271   1.300  1.4268  0.0231 -0.6836
  715TMC3    C110566   4.572   0.108   1.114 -0.3010  0.3112 -0.2627
  715TMC3    C210567   4.565   4.708   1.078 -0.2739  0.2360 -0.0829
  715TMC3    C310568   4.687   4.641   1.067  0.3240  0.3417  0.2259
  715TMC3    C410569   4.685   0.172   1.156 -0.6635  0.3726 -0.0723
  715TMC3    C510570   0.078   0.106   1.142  0.0981 -0.6037 -0.4588
  715TMC3    C610571   0.079   4.705   1.096  0.2699 -0.9097 -0.6057
  715TMC3     C10572   4.444   0.173   1.136 -0.6446  1.3494  0.0601
  715TMC3     O10573   4.343   0.133   1.071 -0.0893 -0.3685  0.5850
  715TMC3     H10574   4.473   4.652   1.067  1.7898 -2.9214 -1.4358
  715TMC3    H110575   4.679   0.279   1.171 -0.9871  0.6293 -2.1056
  715TMC3    H210576   0.166   4.640   1.088 -0.8743 -2.5115  0.0997
  715TMC3    C710577   0.205   0.169   1.181 -0.9887  1.0790  0.3558
  715TMC3    C810578   4.688   4.501   1.027 -0.0297  0.3903 -0.0547
  715TMC3    O110579   0.305   0.117   1.139  0.5394  0.7088 -0.2115
  715TMC3    O210580   4.604   4.471   0.941 -0.2281 -0.7080  0.5320
  716MPD2     C10581   3.716   3.083   9.791  0.0657 -0.1977  0.0896
  716MPD2    C110582   3.746   3.140   9.674  0.2095  0.3091  0.5012
  716MPD2    C210583   3.814   3.072   9.574 -0.3307  0.0863  0.4202
  716MPD2    C310584   3.834   2.933   9.591  0.1917  0.1434  0.7543
  716MPD2    C410585   3.826   2.882   9.723  0.3657  0.2377 -0.0902
  716MPD2    C510586   3.770   2.957   9.820  0.1486  0.1523 -0.4558
  716MPD2     H10587   3.859   3.116   9.486 -0.9335  2.4424  1.2993
  716MPD2    H110588   3.856   2.781   9.749 -0.0220 -0.2843 -1.6982
  716MPD2    H210589   3.647   3.130   9.861  0.2302 -1.1102  0.8656
  716MPD2    H310590   3.755   2.915   9.919  2.7529  1.7952  0.6444
  716MPD2     N10591   3.877   2.857   9.476  0.6031  0.8564  0.0526
  716MPD2    H510592   3.863   2.889   9.381 -0.0381 -0.1893 -0.2000
  716MPD2    N110593   3.711   3.274   9.662  0.1880 -0.6456 -0.3018
  716MPD2    H710594   3.651   3.306   9.737  1.0999  1.0272 -0.2870
  717TMC3    C110595   3.954   2.663   9.354 -0.2913 -0.0912 -0.2763
  717TMC3    C210596   3.866   2.681   9.252 -0.0308 -1.0391 -0.2598
  717TMC3    C310597   3.879   2.607   9.137  0.4808 -0.3316 -0.3134
  717TMC3    C410598   4.066   2.584   9.343 -0.5688  0.1772 -0.6084
  717TMC3    C510599   4.085   2.526   9.217 -0.4064 -0.1841 -0.1284
  717TMC3    C610600   3.989   2.529   9.120  0.5651 -0.2700 -0.9631
  717TMC3     C10601   3.926   2.733   9.486 -0.1341 -0.4972 -0.1080
  717TMC3     O10602   3.963   2.666   9.582 -0.6136  0.5394  0.3127
  717TMC3     H10603   3.772   2.733   9.269 -0.5986 -1.2418 -2.7705
  717TMC3    H110604   4.138   2.578   9.424  0.2722 -3.5114 -1.6229
  717TMC3    H210605   4.002   2.481   9.024  0.2941 -1.8744 -0.1939
  717TMC3    C710606   4.200   2.435   9.193  0.1234 -0.2095  0.4209
  717TMC3    C810607   3.770   2.604   9.041 -0.1996 -0.4343 -0.2383
  717TMC3    O110608   4.214   2.380   9.081  0.0769 -0.3999 -0.7908
  717TMC3    O210609   3.687   2.692   9.064  0.1224  0.3539  0.0349
  718MPD2     C10610   2.695   1.988  12.073  0.4912 -0.2858  0.5694
  718MPD2    C110611   2.595   2.010  11.978 -0.4647 -0.5716  1.0563
  718MPD2    C210612   2.487   2.074  12.028 -0.1720 -0.6293  0.2971
  718MPD2    C310613   2.462   2.079  12.163 -0.4275 -0.6017  1.0075
  718MPD2    C410614   2.560   2.052  12.254  0.3370 -0.2890  0.3625
  718MPD2    C510615   2.683   2.016  12.206 -0.0295  0.0868 -0.1167
  718MPD2     H10616   2.413   2.098  11.953  1.6643 -1.2491 -1.7336
  718MPD2    H110617   2.550   2.065  12.361  0.4825 -0.0306  0.3455
  718MPD2    H210618   2.789   1.943  12.041  0.5160  0.7889 -0.8909
  718MPD2    H310619   2.762   2.001  12.279  0.0798 -0.0012 -0.2529
  718MPD2     N10620   2.328   2.109  12.200 -0.4614  0.4292  0.1496
  718MPD2    H510621   2.260   2.095  12.126 -0.1033  3.6620 -0.7875
  718MPD2    N110622   2.617   1.994  11.838  0.1204 -0.0031 -0.1412
  718MPD2    H710623   2.714   1.975  11.814  0.3079  2.1034 -1.1062
  719TMC3    C110624   2.550   1.983  11.610 -0.4546  0.2387  0.1413
  719TMC3    C210625   2.440   1.975  11.533 -0.1139 -0.9551  0.0328
  719TMC3    C310626   2.412   2.068  11.433 -0.3023  0.5325 -0.2462
  719TMC3    C410627   2.646   2.067  11.571 -0.2332 -0.7034  0.2697
  719TMC3    C510628   2.635   2.149  11.464  0.3344  0.0957  0.3838
  719TMC3    C610629   2.515   2.149  11.395  0.6187 -0.2242 -0.2786
  719TMC3     C10630   2.512   2.000  11.748 -0.8885 -0.8751  0.0391
  719TMC3     O10631   2.390   1.989  11.763  0.4870 -0.1601 -0.4083
  719TMC3     H10632   2.361   1.909  11.564  0.8071 -1.3520  1.5264
  719TMC3    H110633   2.727   2.100  11.636  2.5022 -1.7862 -2.5555
  719TMC3    H210634   2.492   2.221  11.318 -1.0130 -0.3878  0.0369
  719TMC3    C710635   2.734   2.253  11.450  0.4593 -0.2153 -0.3897
  719TMC3    C810636   2.277   2.134  11.434  0.0911 -0.3498  0.6709
  719TMC3    O110637   2.847   2.214  11.481  0.0914  0.7680  0.4485
  719TMC3    O210638   2.245   2.194  11.336 -0.4637 -0.4405 -0.2310
  720MPD2     C10639   1.406   3.276  13.526 -0.7894  0.3146  0.2264
  720MPD2    C110640   1.509   3.299  13.433  0.7629 -0.3551  0.7342
  720MPD2    C210641   1.632   3.344  13.485  0.3432  0.1566  0.3861
  720MPD2    C310642   1.650   3.352  13.618  0.2462 -0.2365 -0.5954
  720MPD2    C410643   1.548   3.318  13.696 -0.3912 -0.0863 -0.3053
  720MPD2    C510644   1.426   3.289  13.656  0.1115 -0.1667 -0.5316
  720MPD2     H10645   1.708   3.384  13.419 -0.7693  3.9399  1.4212
  720MPD2    H110646   1.566   3.318  13.803  0.6243  1.0883 -0.4761
  720MPD2    H210647   1.308   3.241  13.496 -0.5721 -0.2051  0.1203
  720MPD2    H310648   1.349   3.270  13.730  0.0111  1.4310 -0.2357
  720MPD2     N10649   1.773   3.404  13.667  0.1937  0.3900 -0.0415
  720MPD2    H510650   1.843   3.426  13.597 -3.0241  0.7480 -3.1536
  720MPD2    N110651   1.483   3.307  13.291  0.1905  0.3685  0.3503
  720MPD2    H710652   1.564   3.313  13.230  0.6898  0.9279  1.0665
  721TMC3    C110653   1.939   3.483  13.807  0.2668 -0.0763  0.1336
  721TMC3    C210654   1.956   3.545  13.933 -0.0388  0.3688  0.5887
  721TMC3    C310655   2.084   3.596  13.964  0.1108 -0.3881  0.4037
  721TMC3    C410656   2.037   3.485  13.713  0.1317 -0.6134 -0.5947
  721TMC3    C510657   2.156   3.536  13.750 -0.0450 -0.7319 -0.5511
  721TMC3    C610658   2.180   3.595  13.873  0.0038  0.2312  0.0748
  721TMC3     C10659   1.816   3.412  13.796  0.6774  0.1513 -0.0151
  721TMC3     O10660   1.760   3.389  13.902 -0.6030  0.1009 -0.5509
  721TMC3     H10661   1.871   3.547  14.000 -0.4617  1.5916  0.0183
  721TMC3    H110662   2.026   3.422  13.626 -1.2995 -1.9313  0.5417
  721TMC3    H210663   2.280   3.626  13.902  0.2986 -0.0971 -0.5775
  721TMC3    C710664   2.275   3.514  13.669 -0.1311 -0.5445 -0.5217
  721TMC3    C810665   2.111   3.658  14.092  0.2781 -0.5671  0.5337
  721TMC3    O110666   2.375   3.578  13.688  0.3153  0.2376 -0.4754
  721TMC3    O210667   2.209   3.727  14.105  0.6676 -0.4166  0.0378
  722MPD2     C10668   0.344   2.174  13.278  0.2022  0.2289  0.4565
  722MPD2    C110669   0.295   2.300  13.266  0.5040  1.2499 -0.5729
  722MPD2    C210670   0.162   2.325  13.223  0.0768 -0.3665 -0.1615
  722MPD2    C310671   0.086   2.214  13.193 -0.0273  0.6130  0.0060
  722MPD2    C410672   0.136   2.087  13.205  1.0221 -0.0163  0.4800
  722MPD2    C510673   0.262   2.068  13.252  0.2198  0.7069 -0.2664
  722MPD2     H10674   0.118   2.423  13.211 -0.8597 -0.6624  0.9533
  722MPD2    H110675   0.087   1.993  13.183  1.1412 -0.1380  0.7250
  722MPD2    H210676   0.435   2.152  13.333  0.5971 -0.7223 -0.5594
  722MPD2    H310677   0.304   1.971  13.277  0.3805  0.5384 -1.2027
  722MPD2     N10678   4.688   2.239  13.130  0.2592 -0.0419  0.2046
  722MPD2    H510679   4.668   2.336  13.108  0.0640 -0.1120  0.0781
  722MPD2    N110680   0.385   2.410  13.288 -0.0318 -0.4492  0.5101
  722MPD2    H710681   0.341   2.498  13.266  0.4646 -0.7086 -1.6039
  723TMC3    C110682   4.503   2.198  13.001 -0.2650 -0.2614  0.0944
  723TMC3    C210683   4.473   2.142  12.882  0.3946  0.3114 -0.0413
  723TMC3    C310684   4.371   2.196  12.810  0.0438 -0.7621 -0.6087
  723TMC3    C410685   4.429   2.306  13.049  0.6294  0.2858  0.2178
  723TMC3    C510686   4.319   2.359  12.977 -0.2422 -0.6247  0.0888
  723TMC3    C610687   4.292   2.301  12.858 -0.5348 -0.5329  0.6224
  723TMC3     C10688   4.603   2.138  13.085  0.0393 -0.1962  0.4456
  723TMC3     O10689   4.606   2.017  13.082  0.1376  0.4195 -0.2845
  723TMC3     H10690   4.533   2.060  12.845  0.2292  0.4618 -0.6480
  723TMC3    H110691   4.453   2.358  13.141  0.0924  0.3106  0.3446
  723TMC3    H210692   4.239   2.353  12.780 -2.0086  0.3150  2.1875
  723TMC3    C710693   4.232   2.461  13.032 -0.3271  0.7754 -0.2593
  723TMC3    C810694   4.338   2.140  12.676  0.2061 -0.0951 -1.2326
  723TMC3    O110695   4.258   2.508  13.143  0.0728 -0.5431  0.0275
  723TMC3    O210696   4.270   2.207  12.598  0.1925  0.0666 -0.3615
  724TMC3    C110697   1.105   0.516   9.687  0.2632  0.2805  0.0254
  724TMC3    C210698   1.006   0.503   9.590  0.2727 -0.0909 -0.4149
  724TMC3    C310699   1.035   0.568   9.472 -0.0876  0.1503 -0.1063
  724TMC3    C410700   1.223   0.585   9.660 -0.0461  0.6727 -0.6524
  724TMC3    C510701   1.246   0.639   9.541 -0.0173  0.4213  0.3213
  724TMC3    C610702   1.155   0.626   9.436  0.0952 -0.3935  0.1091
  724TMC3     C10703   1.048   0.543   9.820  0.0346 -0.1122  0.1865
  724TMC3     O10704   1.111   0.623   9.894  0.1214 -0.6092 -0.1029
  724TMC3     H10705   0.904   0.479   9.616 -0.6470 -1.3589 -5.0600
  724TMC3    H110706   1.282   0.595   9.750  2.5082 -2.6149 -1.9554
  724TMC3    H210707   1.190   0.647   9.335 -1.7289 -1.2010 -0.7058
  724TMC3    C710708   1.341   0.746   9.511 -0.9710 -0.0193  0.4664
  724TMC3    C810709   0.918   0.604   9.393 -0.0028 -0.4812 -0.3173
  724TMC3    O110710   1.322   0.805   9.407  0.2580 -0.6743 -0.1075
  724TMC3    O210711   0.814   0.546   9.425  0.3213 -0.0058 -0.1878
  725TMC3    C110712   2.237   3.811  12.962 -0.1387 -0.1638 -0.2633
  725TMC3    C210713   2.101   3.805  12.949 -0.2825 -0.1002 -0.2314
  725TMC3    C310714   2.035   3.693  12.912  0.0597  0.0908 -0.4808
  725TMC3    C410715   2.310   3.704  12.916  0.7775 -0.7710 -0.2230
  725TMC3    C510716   2.244   3.589  12.880 -0.1820  0.2278  0.2445
  725TMC3    C610717   2.104   3.578  12.871  1.2066  0.3602 -0.1082
  725TMC3     C10718   2.307   3.932  12.977  0.2937 -0.1368  0.7244
  725TMC3     O10719   2.244   4.034  12.975 -0.1285 -0.0638 -0.2634
  725TMC3     H10720   2.046   3.895  12.973 -2.6615 -1.7335  0.4334
  725TMC3    H110721   2.418   3.700  12.917  0.7521 -1.1364  0.8294
  725TMC3    H210722   2.060   3.496  12.814 -1.2984  2.2989 -0.9707
  725TMC3    C710723   2.318   3.489  12.817  0.2874 -0.9506  0.0509
  725TMC3    C810724   1.912   3.702  12.841 -0.5835  1.0297  0.1001
  725TMC3    O110725   2.432   3.531  12.779  0.6024  0.2422  0.1869
  725TMC3    O210726   1.824   3.618  12.862  0.1168  0.4161  0.2357
  726MPD2     C10727   4.716   0.600  10.062  0.5198  0.5113  0.6401
  726MPD2    C110728   0.016   0.690  10.160 -0.5019  0.5338 -0.4786
  726MPD2    C210729   4.644   0.698  10.267 -0.3047  0.8306  0.4995
  726MPD2    C310730   4.529   0.617  10.277  0.2066  0.3265 -0.3490
  726MPD2    C410731   4.511   0.532  10.173 -0.1478 -0.5852 -0.2175
  726MPD2    C510732   4.603   0.520  10.075 -0.2024  0.2996 -0.3962
  726MPD2     H10733   4.656   0.773  10.344  0.5995 -0.2741  1.4160
  726MPD2    H110734   4.420   0.474  10.160 -1.5748  1.8858 -1.2010
  726MPD2    H210735   0.056   0.590   9.976 -2.2769 -1.7906 -1.1726
  726MPD2    H310736   4.598   0.437  10.004  0.0787 -0.6870  0.7305
  726MPD2     N10737   4.419   0.643  10.365  0.3499  0.1925 -0.0719
  726MPD2    H510738   4.330   0.595  10.356  1.0532 -0.7263 -2.3086
  726MPD2    N110739   0.118   0.794  10.162  0.1249  0.0561  0.0684
  726MPD2    H710740   0.117   0.867  10.232 -3.4631 -0.4277  0.5216
  727TMC3    C110741   0.285   0.925  10.053  0.2926  0.8064  0.1119
  727TMC3    C210742   0.290   1.012  10.158 -0.5325  0.0393  0.0632
  727TMC3    C310743   0.322   1.148  10.138 -0.5005  0.4400  0.6231
  727TMC3    C410744   0.305   0.979   9.929  0.0485 -0.0895 -0.5961
  727TMC3    C510745   0.324   1.110   9.911 -0.3925 -0.7034  0.6371
  727TMC3    C610746   0.317   1.204  10.013  0.0968 -0.5333 -0.2323
  727TMC3     C10747   0.197   0.814  10.054  0.2232  0.3456 -0.1486
  727TMC3     O10748   0.202   0.747   9.950 -0.3999  0.2688  0.4935
  727TMC3     H10749   0.295   0.971  10.258 -0.1664 -0.0418  0.0113
  727TMC3    H110750   0.321   0.915   9.842 -0.5441 -0.1241 -0.6758
  727TMC3    H210751   0.344   1.308   9.995 -1.0354 -0.2587 -0.3631
  727TMC3    C710752   0.277   1.150   9.776  0.5289  0.2035 -0.2367
  727TMC3    C810753   0.435   1.199  10.213 -0.2504  0.0890 -0.0983
  727TMC3    O110754   0.208   1.074   9.718  0.0942 -0.2926  0.3616
  727TMC3    O210755   0.529   1.236  10.149 -0.3602 -0.1641 -0.1440
  728TMC3    C110756   4.396   4.100  15.088 -0.0109  0.0162  0.0474
  728TMC3    C210757   4.479   4.191  15.151 -0.4381 -0.3980 -0.2415
  728TMC3    C310758   4.581   4.248  15.079  0.4947  0.0253 -0.8884
  728TMC3    C410759   4.405   4.080  14.959 -0.4105  0.0588 -0.2481
  728TMC3    C510760   4.500   4.146  14.891 -0.2325  0.2659 -0.3013
  728TMC3    C610761   4.591   4.230  14.944  1.1544 -0.3367  0.7554
  728TMC3     C10762   4.266   4.076  15.153 -0.2552 -0.4850 -0.3159
  728TMC3     O10763   4.256   4.127  15.269  0.1640 -0.3854  0.6629
  728TMC3     H10764   4.458   4.227  15.251  1.6879  0.6061 -0.1494
  728TMC3    H110765   4.347   3.999  14.918  0.4695 -0.2218 -0.9385
  728TMC3    H210766   4.672   4.278  14.890 -0.2559 -0.4609 -1.4804
  728TMC3    C710767   4.480   4.142  14.749  0.1014 -0.2288 -0.7476
  728TMC3    C810768   4.629   4.376  15.118 -0.7242 -0.2848  0.1346
  728TMC3    O110769   4.444   4.036  14.703 -0.0164  0.2596 -0.6327
  728TMC3    O210770   4.673   4.456  15.032  0.2932  0.3004 -0.0356
  729MPD2     C10771   1.644   0.332  16.751  0.1113 -0.2728  0.4702
  729MPD2    C110772   1.753   0.253  16.752  0.0793 -0.2363 -0.2200
  729MPD2    C210773   1.795   0.211  16.878  0.1392 -0.1305 -0.0615
  729MPD2    C310774   1.721   0.248  16.987 -0.2374  0.0752 -0.4149
  729MPD2    C410775   1.608   0.331  16.984 -0.3759 -0.2968 -0.0826
  729MPD2    C510776   1.577   0.375  16.862  0.4614 -0.4983 -0.0320
  729MPD2     H10777   1.883   0.147  16.883 -0.6309 -1.2643 -0.9137
  729MPD2    H110778   1.559   0.370  17.072  0.1835  0.8141 -0.2633
  729MPD2    H210779   1.616   0.371  16.654 -1.2869  0.9993  1.3760
  729MPD2    H310780   1.485   0.430  16.846  0.5849 -0.7467 -1.6075
  729MPD2     N10781   1.756   0.210  17.125 -0.4782  0.0186 -0.0766
  729MPD2    H510782   1.704   0.249  17.203 -0.3555  2.5237 -1.2391
  729MPD2    N110783   1.825   0.237  16.630 -1.2026  0.4741 -0.2134
  729MPD2    H710784   1.787   0.286  16.550 -0.2592 -1.5964 -1.9469
  730TMC3    C110785   1.910   0.155  17.292  0.4113  0.1392  0.1461
  730TMC3    C210786   2.039   0.137  17.323  0.1290  0.3445 -0.5063
  730TMC3    C310787   2.106   0.227  17.400  0.1565 -0.6825 -0.5519
  730TMC3    C410788   1.832   0.241  17.361 -0.8466 -0.5628  0.5583
  730TMC3    C510789   1.897   0.331  17.449  0.4564 -0.1195 -0.1988
  730TMC3    C610790   2.036   0.321  17.477  0.6383  0.2968 -0.3591
  730TMC3     C10791   1.864   0.130  17.159  0.0928 -0.2822 -0.6594
  730TMC3     O10792   1.935   0.059  17.089 -0.5991 -0.1724  0.4366
  730TMC3     H10793   2.085   0.053  17.272  0.6100  1.5038 -1.9772
  730TMC3    H110794   1.724   0.246  17.353 -0.9085  0.5030  2.0844
  730TMC3    H210795   2.085   0.390  17.545  2.9919 -0.5611 -1.1861
  730TMC3    C710796   1.843   0.462  17.447  0.3291 -0.2903 -0.0304
  730TMC3    C810797   2.199   0.302  17.306  0.7201  0.0982 -0.0967
  730TMC3    O110798   1.766   0.488  17.361  0.2748  0.0118  0.5226
  730TMC3    O210799   2.250   0.248  17.210 -0.0795  0.0179 -0.0337
  731MPD2     C10800   1.598   3.595  12.115  0.6335 -0.6415  0.9761
  731MPD2    C110801   1.648   3.479  12.063  0.4627 -0.4339 -0.2408
  731MPD2    C210802   1.613   3.361  12.123 -0.5022  0.2398 -0.3178
  731MPD2    C310803   1.534   3.360  12.241 -0.4649 -0.4402 -0.4828
  731MPD2    C410804   1.490   3.482  12.289  0.2095 -0.4721  0.1600
  731MPD2    C510805   1.513   3.598  12.218 -0.4746  0.2105  0.2551
  731MPD2     H10806   1.634   3.264  12.080 -4.1630 -0.1093 -1.3724
  731MPD2    H110807   1.428   3.493  12.377 -0.7153  2.6075 -0.8566
  731MPD2    H210808   1.613   3.693  12.072 -1.1707  0.4218  2.7731
  731MPD2    H310809   1.457   3.684  12.254  0.2800  1.1090 -0.7475
  731MPD2     N10810   1.496   3.235  12.300  0.2668  0.4474  0.5263
  731MPD2    H510811   1.503   3.149  12.246  0.6220  2.6446 -2.9110
  731MPD2    N110812   1.718   3.485  11.943  0.1474  0.1819 -0.3029
  731MPD2    H710813   1.728   3.576  11.899  0.5855  0.9851  1.4250
  732TMC3    C110814   1.815   3.405  11.750  0.6737  0.0086  0.2638
  732TMC3    C210815   1.710   3.434  11.668 -0.0399  0.9302 -0.4196
  732TMC3    C310816   1.738   3.448  11.533  0.0160  0.5477  0.0572
  732TMC3    C410817   1.944   3.401  11.708 -0.8943 -0.1038 -0.3341
  732TMC3    C510818   1.965   3.437  11.578 -0.4226 -0.0853  0.1300
  732TMC3    C610819   1.866   3.454  11.485 -0.0771  0.0736  0.3198
  732TMC3     C10820   1.779   3.375  11.882  1.2675  1.1372  0.7163
  732TMC3     O10821   1.797   3.262  11.924 -0.0498 -0.3122 -0.3871
  732TMC3     H10822   1.609   3.439  11.708  0.1319  1.6203 -0.0763
  732TMC3    H110823   2.016   3.362  11.779 -0.4430 -1.6755 -1.6571
  732TMC3    H210824   1.881   3.449  11.377 -1.8000  0.5626  0.0681
  732TMC3    C710825   2.101   3.467  11.535  0.3535 -0.3055 -0.2882
  732TMC3    C810826   1.625   3.452  11.441  0.5475  0.0002  0.0260
  732TMC3    O110827   2.126   3.476  11.414  0.2424  0.1026  0.1935
  732TMC3    O210828   1.656   3.490  11.324 -0.6503  0.5417 -0.7141
  733TMC3    C110829   1.917   2.143  12.400  0.2019  0.0922  0.2420
  733TMC3    C210830   2.049   2.143  12.420 -0.0950  0.0755  0.1029
  733TMC3    C310831   2.133   2.163  12.319  0.2188  0.6550  0.2549
  733TMC3    C410832   1.858   2.194  12.282 -0.2797  1.0722  0.0807
  733TMC3    C510833   1.951   2.223  12.184 -1.0363  0.9969  0.2804
  733TMC3    C610834   2.086   2.207  12.196  0.2887 -0.2415  0.0151
  733TMC3     C10835   1.829   2.089  12.501  0.6405 -0.4158  0.9359
  733TMC3     O10836   1.713   2.115  12.484  0.6766  0.4089 -0.3840
  733TMC3     H10837   2.084   2.133  12.522  1.6977 -1.3054 -0.6559
  733TMC3    H110838   1.752   2.215  12.276 -1.0528 -2.8119  0.0087
  733TMC3    H210839   2.153   2.264  12.133  0.0467  0.5653  0.4920
  733TMC3    C710840   1.913   2.279  12.057 -0.0276  1.0236  0.1576
  733TMC3    C810841   2.277   2.127  12.325  0.3322 -0.8683  0.2550
  733TMC3    O110842   1.814   2.350  12.045 -0.4376  0.3866  0.0844
  733TMC3    O210843   2.331   2.127  12.436 -0.1552 -0.1543  0.0748
  734MPD2     C10844   4.451   4.720  12.171  0.0389 -0.4799 -0.3288
  734MPD2    C110845   4.387   4.614  12.104 -0.1362 -0.1791  0.4120
  734MPD2    C210846   4.399   4.608  11.964  0.4521  0.9534 -0.4075
  734MPD2    C310847   4.474   4.697  11.893 -0.5721  0.1438 -0.1905
  734MPD2    C410848   4.546   0.070  11.964  0.5134 -0.0714 -0.2155
  734MPD2    C510849   4.532   0.079  12.097 -0.7995 -0.6067 -0.0299
  734MPD2     H10850   4.363   4.519  11.913  1.3902  1.4325 -1.8923
  734MPD2    H110851   4.623   0.132  11.919 -0.9563  1.7051 -0.2667
  734MPD2    H210852   4.449   0.007  12.278  1.4907  0.4251 -0.3949
  734MPD2    H310853   4.593   0.143  12.160  0.8865 -1.2180 -1.0511
  734MPD2     N10854   4.473   4.670  11.761  0.1176  0.0511  0.0937
  734MPD2    H510855   4.405   4.603  11.725 -1.1975 -0.5927  3.7765
  734MPD2    N110856   4.309   4.517  12.179 -0.4742  0.6397  0.0478
  734MPD2    H710857   4.308   4.511  12.280 -0.8647  1.1529  0.0704
  735TMC3    C110858   4.203   4.302  12.191  0.6964  0.0967 -0.3032
  735TMC3    C210859   4.095   4.233  12.142 -0.1047  0.4901  0.2878
  735TMC3    C310860   4.106   4.098  12.118  0.0772  0.5431  0.6151
  735TMC3    C410861   4.316   4.231  12.218 -0.5520  0.0576 -0.3568
  735TMC3    C510862   4.312   4.094  12.211 -0.0307 -0.4268 -0.2710
  735TMC3    C610863   4.208   4.026  12.157  0.8011 -1.3445 -0.3908
  735TMC3     C10864   4.222   4.425  12.117 -0.7313 -0.4140  0.0459
  735TMC3     O10865   4.172   4.427  12.009 -0.2482  0.4142  1.1239
  735TMC3     H10866   4.007   4.287  12.111  0.4533  0.0258 -2.0976
  735TMC3    H110867   4.405   4.281  12.256 -1.9483  1.1289  1.4766
  735TMC3    H210868   4.214   3.918  12.150  1.8525 -1.2867 -0.3716
  735TMC3    C710869   4.441   4.032  12.212  0.3146 -0.7996 -0.0883
  735TMC3    C810870   4.077   4.067  11.981  0.5768 -0.2979  0.2325
  735TMC3    O110871   4.535   4.109  12.191  0.0970  0.4111  0.5837
  735TMC3    O210872   4.055   3.952  11.947 -0.4725 -0.1623 -0.0599
  736MPD2     C10873   4.532   3.682  12.298 -0.5926  0.3685 -0.6177
  736MPD2    C110874   4.538   3.812  12.241  0.3143 -0.1852 -0.3042
  736MPD2    C210875   4.633   3.825  12.142 -0.2246  0.7265 -0.3990
  736MPD2    C310876   0.008   3.731  12.109 -0.1574  0.0385  0.6244
  736MPD2    C410877   4.722   3.606  12.156  0.0217  0.0052 -0.6919
  736MPD2    C510878   4.619   3.591  12.247  0.5449 -0.0770 -0.2745
  736MPD2     H10879   4.629   3.919  12.089  2.4903  0.9085 -0.2905
  736MPD2    H110880   0.056   3.520  12.126  0.9186  0.9406 -1.6160
  736MPD2    H210881   4.449   3.661  12.364 -0.3890  2.7190  0.4042
  736MPD2    H310882   4.612   3.486  12.273 -1.2787  0.0797 -0.0734
  736MPD2     N10883   0.108   3.751  12.011 -0.2562  0.1984  0.2669
  736MPD2    H510884   0.159   3.666  11.991  0.1758  0.5916 -0.2912
  736MPD2    N110885   4.436   3.908  12.265  0.4100  0.0793 -0.2745
  736MPD2    H710886   4.353   3.876  12.314  0.5039  2.5608  1.4868
  737TMC3    C110887   0.216   3.860  11.839  0.3745  0.1035  0.4607
  737TMC3    C210888   0.302   3.964  11.800 -0.1083 -0.0299  0.0012
  737TMC3    C310889   0.363   3.948  11.680 -0.4182  0.2145 -0.8094
  737TMC3    C410890   0.201   3.741  11.773 -0.1300 -0.0140  0.5129
  737TMC3    C510891   0.254   3.743  11.645  0.3685 -0.6157 -0.3148
  737TMC3    C610892   0.337   3.844  11.597 -0.9918 -0.7116 -0.6814
  737TMC3     C10893   0.144   3.873  11.954  0.5491  0.0869  0.4031
  737TMC3     O10894   0.106   3.984  11.983  0.3472  0.3707 -0.4014
  737TMC3     H10895   0.306   4.050  11.866 -0.1006 -0.2459  0.2826
  737TMC3    H110896   0.118   3.673  11.779 -0.3047  0.0654 -0.9986
  737TMC3    H210897   0.400   3.830  11.509 -1.5629 -2.3310 -0.8302
  737TMC3    C710898   0.258   3.613  11.580  0.3861 -0.1956 -0.3268
  737TMC3    C810899   0.410   4.068  11.615  0.3922 -0.1742  0.0085
  737TMC3    O110900   0.208   3.524  11.641 -0.4863 -0.5177  0.8296
  737TMC3    O210901   0.442   4.162  11.689  0.8636 -0.3093  0.4491
  738MPD2     C10902   0.303   2.608  14.487 -0.0260  0.3611 -0.5941
  738MPD2    C110903   0.357   2.520  14.585 -0.3543 -0.2933 -0.0679
  738MPD2    C210904   0.472   2.549  14.651  0.7554 -0.1665  0.2563
  738MPD2    C310905   0.532   2.679  14.643 -0.0113 -0.1109  0.1109
  738MPD2    C410906   0.472   2.766  14.555  0.4955  1.1493  0.1414
  738MPD2    C510907   0.358   2.733  14.483 -0.1224 -0.3697  1.3428
  738MPD2     H10908   0.522   2.472  14.709 -0.9548 -0.2887  1.5731
  738MPD2    H110909   0.522   2.859  14.529  0.8153  0.7422 -0.7077
  738MPD2    H210910   0.215   2.596  14.424 -1.6586  0.3311  1.6886
  738MPD2    H310911   0.322   2.810  14.416  1.5061 -0.9816 -0.2372
  738MPD2     N10912   0.651   2.721  14.703 -0.2339  0.9980 -0.1740
  738MPD2    H510913   0.694   2.809  14.676 -0.3225  0.8709 -0.7312
  738MPD2    N110914   0.302   2.397  14.605 -0.0844 -0.3150 -0.2393
  738MPD2    H710915   0.359   2.329  14.654  1.7848  1.2785 -0.1736
  739TMC3    C110916   0.838   2.735  14.850 -0.2098 -0.1598 -0.7434
  739TMC3    C210917   0.901   2.814  14.757  0.2328  0.0158  0.3093
  739TMC3    C310918   1.023   2.856  14.781 -0.3088  0.5295  0.2147
  739TMC3    C410919   0.899   2.699  14.965  0.0746 -0.9398 -0.5542
  739TMC3    C510920   1.024   2.743  14.982 -0.1015  0.1670 -0.2080
  739TMC3    C610921   1.096   2.817  14.895  0.2572  0.5680 -0.8362
  739TMC3     C10922   0.720   2.663  14.806  0.2663  0.2123  0.1596
  739TMC3     O10923   0.682   2.580  14.886 -0.3654  0.2680  0.3238
  739TMC3     H10924   0.851   2.835  14.663 -1.0253 -0.8013  0.7894
  739TMC3    H110925   0.839   2.642  15.035 -0.1633  0.6727  0.5370
  739TMC3    H210926   1.204   2.824  14.899  0.2914 -1.1465  1.3327
  739TMC3    C710927   1.100   2.681  15.091  0.0348 -0.0183 -0.5489
  739TMC3    C810928   1.097   2.853  14.658 -0.1287 -0.3166 -0.4121
  739TMC3    O110929   1.200   2.739  15.119 -0.1183 -0.1379 -0.3577
  739TMC3    O210930   1.033   2.827  14.555 -1.0118 -0.0211  0.0072
  740TMC3    C110931   1.063   4.261  13.846 -0.2350  0.3479  0.0535
  740TMC3    C210932   1.184   4.266  13.915  0.9193  0.0003  0.3487
  740TMC3    C310933   1.278   4.174  13.890  0.1319 -0.3190 -0.0813
  740TMC3    C410934   1.045   4.174  13.741 -0.7085 -0.0824  0.5651
  740TMC3    C510935   1.135   4.073  13.726 -0.1993 -0.6607 -0.3003
  740TMC3    C610936   1.253   4.068  13.795  0.0053  0.7635  0.3252
  740TMC3     C10937   0.947   4.294  13.919  0.3895  0.5269  0.1365
  740TMC3     O10938   0.837   4.307  13.864 -0.3730 -0.2128  0.1266
  740TMC3     H10939   1.197   4.340  13.994  1.1839 -0.3057  0.5924
  740TMC3    H110940   0.960   4.180  13.674 -1.2965 -0.3778  1.2748
  740TMC3    H210941   1.337   4.006  13.764  0.2661 -0.0774  2.7110
  740TMC3    C710942   1.130   4.014  13.595  0.1116  0.7923  0.0206
  740TMC3    C810943   1.405   4.171  13.968  0.7865 -0.1837  0.3301
  740TMC3    O110944   1.106   4.093  13.505  0.0998  0.4433  0.5278
  740TMC3    O210945   1.450   4.057  13.991 -0.2425  0.2173 -0.8151
  741TMC3    C110946   1.182   3.410  14.333 -0.3567  0.8304  0.0885
  741TMC3    C210947   1.117   3.317  14.256  0.1363 -0.3268  0.4642
  741TMC3    C310948   1.067   3.211  14.321  0.2000 -0.2595 -0.4991
  741TMC3    C410949   1.206   3.396  14.469  0.3716 -0.3709  0.0357
  741TMC3    C510950   1.138   3.290  14.532 -0.1443 -0.0987 -0.1960
  741TMC3    C610951   1.069   3.194  14.460  0.0578 -0.1209  1.1544
  741TMC3     C10952   1.183   3.547  14.285  0.5878 -0.9521  0.2613
  741TMC3     O10953   1.244   3.629  14.351  0.0268 -1.0096  0.1703
  741TMC3     H10954   1.105   3.334  14.149 -1.1597  1.9280  0.9655
  741TMC3    H110955   1.263   3.476  14.514 -0.0255  0.3068 -0.6407
  741TMC3    H210956   1.014   3.110  14.500 -1.3199  0.0335 -0.4417
  741TMC3    C710957   1.140   3.269  14.668  0.5998  0.3676  0.2955
  741TMC3    C810958   0.974   3.121  14.237  0.2385 -0.6575  0.0242
  741TMC3    O110959   1.091   3.167  14.707  0.1845  0.1055  0.6799
  741TMC3    O210960   0.967   3.153  14.119  0.1138  0.3735  0.4829
  742TMC3    C110961   0.849   1.860  15.047 -0.0598 -0.5793 -0.2807
  742TMC3    C210962   0.769   1.787  14.963 -0.1056  0.1666 -0.2691
  742TMC3    C310963   0.795   1.656  14.956 -0.7875  0.4260  0.4945
  742TMC3    C410964   0.945   1.804  15.125 -0.0056 -0.1043  0.9788
  742TMC3    C510965   0.984   1.674  15.096  0.0676  0.8168  0.5812
  742TMC3    C610966   0.915   1.601  15.004  0.4900 -1.1215 -0.3589
  742TMC3     C10967   0.789   1.969  15.116 -0.0096  0.3321  0.4006
  742TMC3     O10968   0.828   1.983  15.234 -0.1635 -0.2379 -0.1456
  742TMC3     H10969   0.668   1.817  14.937 -0.7798  0.7941  3.0710
  742TMC3    H110970   1.001   1.863  15.197 -0.7604  1.2944  0.4181
  742TMC3    H210971   0.938   1.496  14.989  2.4252 -0.4615 -2.0254
  742TMC3    C710972   1.124   1.635  15.126 -0.2429 -0.1855 -0.4925
  742TMC3    C810973   0.728   1.584  14.846 -0.0902 -0.4590 -1.3195
  742TMC3    O110974   1.152   1.515  15.105  0.0604  0.0731  0.0565
  742TMC3    O210975   0.732   1.462  14.857 -0.0584 -0.0952 -0.7123
  743MPD2     C10976   3.402   1.943   1.668  0.8182 -0.4786  0.0358
  743MPD2    C110977   3.472   1.926   1.549  0.8353 -0.2033  0.7133
  743MPD2    C210978   3.588   1.853   1.550  0.0746 -0.2063 -0.5054
  743MPD2    C310979   3.633   1.797   1.668  0.2771  0.2375 -0.4488
  743MPD2    C410980   3.581   1.827   1.791  0.5991  0.6978  0.7638
  743MPD2    C510981   3.456   1.894   1.784 -0.1991  0.9318  1.0752
  743MPD2     H10982   3.644   1.843   1.458 -1.4151 -1.0656 -1.3244
  743MPD2    H110983   3.624   1.806   1.888  0.5125 -2.9347 -0.0094
  743MPD2    H210984   3.320   2.014   1.677  0.7102 -0.5473 -0.4190
  743MPD2    H310985   3.408   1.929   1.874  1.3450  1.1075  1.8350
  743MPD2     N10986   3.743   1.721   1.650 -0.0071 -0.3787 -0.4527
  743MPD2    H510987   3.784   1.719   1.557  1.9194  1.9434  0.3404
  743MPD2    N110988   3.433   2.002   1.442 -0.2321  0.3800 -0.1832
  743MPD2    H710989   3.351   2.058   1.462 -0.2081 -0.4626  2.3077
  744TMC3    C110990   3.450   2.140   1.259  0.2442 -0.0271 -0.8167
  744TMC3    C210991   3.380   2.239   1.328  0.3821 -0.8038 -0.1386
  744TMC3    C310992   3.349   2.351   1.260 -0.0832  0.7574  0.6413
  744TMC3    C410993   3.480   2.148   1.123  0.1042  0.3064 -0.0876
  744TMC3    C510994   3.448   2.261   1.061 -0.1503 -0.2723  0.3757
  744TMC3    C610995   3.389   2.366   1.128 -0.1255 -0.4370  0.6815
  744TMC3     C10996   3.500   2.023   1.326 -0.6559 -0.4120  0.2525
  744TMC3     O10997   3.606   1.973   1.288  0.1328 -0.4804 -0.5093
  744TMC3     H10998   3.361   2.231   1.434  1.7328  1.3875  0.2601
  744TMC3    H110999   3.560   2.084   1.085 -0.8720 -2.1479  1.9605
  744TMC3    H211000   3.354   2.454   1.074  0.4579  0.3838  1.6315
  744TMC3    C711001   3.506   2.293   0.930  0.6512  0.0488  0.3617
  744TMC3    C811002   3.247   2.445   1.312  0.0004  0.1401 -0.5939
  744TMC3    O111003   3.529   2.414   0.921 -0.1567  0.3431 -0.5190
  744TMC3    O211004   3.232   2.545   1.241  0.2908  0.1204 -0.2433
  745TMC3    C111005   1.095   1.279  13.811  0.3483 -0.6224  0.0401
  745TMC3    C211006   1.020   1.219  13.906  0.2974 -0.4246 -0.2647
  745TMC3    C311007   0.889   1.250  13.922 -0.1453 -0.6803 -0.3380
  745TMC3    C411008   1.043   1.356  13.710 -0.4191  1.0016 -0.5637
  745TMC3    C511009   0.911   1.371  13.719  0.0224  1.0659 -0.3600
  745TMC3    C611010   0.832   1.331  13.825  0.9768 -0.1397  0.0828
  745TMC3     C11011   1.235   1.293  13.834 -0.8787 -0.8907  0.2756
  745TMC3     O11012   1.282   1.226  13.922  0.8148  0.6023 -0.1673
  745TMC3     H11013   1.060   1.143  13.973  2.2884  0.9350  0.0874
  745TMC3    H111014   1.109   1.383  13.628 -0.5983 -1.2414 -1.4516
  745TMC3    H211015   0.724   1.341  13.817  1.1029  1.4801  0.4364
  745TMC3    C711016   0.835   1.420  13.606 -0.2821 -0.6416 -0.4784
  745TMC3    C811017   0.809   1.186  14.019 -0.4509 -0.2418  0.3778
  745TMC3    O111018   0.715   1.396  13.601  0.2020 -0.5712 -0.7069
  745TMC3    O211019   0.792   1.066  14.007  0.4824 -0.1847  0.0583
  746TMC3    C111020   3.310   3.445  10.605 -0.2222  0.4160 -0.6712
  746TMC3    C211021   3.437   3.455  10.549 -0.5262  0.3689  0.8373
  746TMC3    C311022   3.475   3.356  10.464 -0.2360  0.1861 -0.0298
  746TMC3    C411023   3.236   3.336  10.595 -0.1833 -0.4556 -0.0748
  746TMC3    C511024   3.278   3.240  10.513  0.4165 -0.0546  0.5076
  746TMC3    C611025   3.399   3.247  10.445  0.1515  0.2577  1.0910
  746TMC3     C11026   3.261   3.547  10.700  0.4098 -0.0738  0.0409
  746TMC3     O11027   3.163   3.512  10.770  0.1572  0.2536 -0.1571
  746TMC3     H11028   3.515   3.522  10.585 -0.1146  0.1314  0.3883
  746TMC3    H111029   3.134   3.339  10.632 -0.3353 -1.7683 -0.3687
  746TMC3    H211030   3.430   3.156  10.394 -1.9459 -0.3155  0.8427
  746TMC3    C711031   3.201   3.119  10.489  0.3560  0.0993 -0.4901
  746TMC3    C811032   3.611   3.356  10.412  0.9708  0.8927 -0.8331
  746TMC3    O111033   3.224   3.061  10.383 -0.2395  0.4080  0.0855
  746TMC3    O211034   3.653   3.259  10.352 -0.0738 -0.0296  0.2015
  747TMC3    C111035   0.713   3.560  10.678 -0.4620  0.0116 -0.1685
  747TMC3    C211036   0.600   3.554  10.765 -0.0012  0.2247  0.7260
  747TMC3    C311037   0.634   3.501  10.886  0.4574 -0.5089 -0.7746
  747TMC3    C411038   0.839   3.524  10.711 -0.0502 -0.0159  0.6152
  747TMC3    C511039   0.865   3.484  10.841  1.3971 -0.5667  0.0100
  747TMC3    C611040   0.761   3.484  10.932  0.0659 -0.0563 -0.7157
  747TMC3     C11041   0.683   3.586  10.538  0.3143 -0.6318  0.4923
  747TMC3     O11042   0.579   3.641  10.516  0.7912 -0.0249  0.1205
  747TMC3     H11043   0.501   3.581  10.730 -0.8739 -2.8732  0.7384
  747TMC3    H111044   0.922   3.549  10.646 -1.9014 -1.2174 -2.1844
  747TMC3    H211045   0.788   3.463  11.035 -0.7134  0.2091 -0.4540
  747TMC3    C711046   0.982   3.548  10.893  0.3587  0.2841  0.6306
  747TMC3    C811047   0.524   3.508  10.983 -0.1814  0.6144  0.6463
  747TMC3    O111048   0.977   3.619  10.992  0.2866 -0.0918  0.0043
  747TMC3    O211049   0.417   3.566  10.970  0.4267  0.8146 -0.6826
  748MPD2     C11050   2.686   3.732   1.337  0.3186 -0.4967 -0.4682
  748MPD2    C111051   2.753   3.816   1.431  0.4139 -0.3410 -1.1219
  748MPD2    C211052   2.883   3.849   1.401  0.3688 -0.2249 -0.2880
  748MPD2    C311053   2.940   3.815   1.285  0.1160  0.4460 -0.7061
  748MPD2    C411054   2.865   3.747   1.188  0.5656  0.9833 -0.0022
  748MPD2    C511055   2.738   3.708   1.214 -0.0612 -0.4203  0.5979
  748MPD2     H11056   2.951   3.912   1.458  2.3631 -1.7509 -0.9788
  748MPD2    H111057   2.907   3.712   1.094  0.4937  2.4493 -0.5930
  748MPD2    H211058   2.580   3.714   1.352  0.6981 -1.4059  1.0977
  748MPD2    H311059   2.667   3.673   1.139 -1.9816  3.5972  0.5008
  748MPD2     N11060   3.077   3.850   1.260  0.0529  0.7202  0.0829
  748MPD2    H511061   3.138   3.878   1.336  0.1432  1.8809 -0.4154
  748MPD2    N111062   2.690   3.859   1.546 -0.0880 -0.2869 -0.2399
  748MPD2    H711063   2.596   3.829   1.573  0.6210 -0.5632  1.9031
  749TMC3    C111064   3.276   3.863   1.147  0.6011 -0.1845  0.0821
  749TMC3    C211065   3.353   3.777   1.220  0.7716 -0.3362 -0.6957
  749TMC3    C311066   3.484   3.761   1.191 -0.0593 -0.1940  0.7605
  749TMC3    C411067   3.338   3.943   1.059  0.7022 -0.0083 -0.0340
  749TMC3    C511068   3.472   3.934   1.034 -0.0075 -0.0994  0.5784
  749TMC3    C611069   3.553   3.840   1.101  1.0087  0.4736  0.0244
  749TMC3     C11070   3.136   3.854   1.136 -0.2722  0.5695  0.0917
  749TMC3     O11071   3.086   3.871   1.024  0.4458  0.0351  0.6468
  749TMC3     H11072   3.304   3.714   1.293 -1.2138 -0.0022 -1.7400
  749TMC3    H111073   3.281   4.016   1.003  2.1180  0.5687 -0.7242
  749TMC3    H211074   3.660   3.856   1.105  0.8506  0.8074  3.0039
  749TMC3    C711075   3.553   4.050   0.998  0.1180  0.2504 -0.0014
  749TMC3    C811076   3.561   3.679   1.285 -0.0341  0.2108  0.2326
  749TMC3    O111077   3.669   4.034   0.964 -0.2957  0.4182  0.0158
  749TMC3    O211078   3.489   3.610   1.362 -0.0708 -0.8461 -0.3990
  750MPD2     C11079   3.630   0.460  11.251 -0.3042 -0.5756 -0.0969
  750MPD2    C111080   3.543   0.355  11.278  0.3537 -0.0468 -0.0511
  750MPD2    C211081   3.477   0.291  11.171 -0.2637  0.6655 -0.5150
  750MPD2    C311082   3.491   0.340  11.042 -0.4939  0.3527 -0.6107
  750MPD2    C411083   3.575   0.448  11.017 -0.1534 -0.1407  0.3247
  750MPD2    C511084   3.646   0.500  11.116 -0.2487 -0.4410  0.9646
  750MPD2     H11085   3.407   0.210  11.189  0.1464  0.3850 -0.1880
  750MPD2    H111086   3.589   0.491  10.918 -0.3349  0.6935  0.6578
  750MPD2    H211087   3.680   0.513  11.331  1.2086 -0.8566 -0.8672
  750MPD2    H311088   3.701   0.589  11.087  0.5537 -0.6936  1.7231
  750MPD2     N11089   3.426   0.287  10.931 -0.1432  0.5836  0.0728
  750MPD2    H511090   3.450   0.325  10.839  0.3181 -0.0361 -0.0637
  750MPD2    N111091   3.525   0.326  11.409 -0.2869  0.6032  1.1973
  750MPD2    H711092   3.572   0.380  11.480  0.9249  2.1289 -0.7577
  751TMC3    C111093   3.310   0.123  10.812 -0.1399 -0.4641 -1.0071
  751TMC3    C211094   3.186   0.064  10.798  0.6297 -0.1537  0.0857
  751TMC3    C311095   3.156   0.008  10.674  0.4789  1.1044 -0.1355
  751TMC3    C411096   3.405   0.111  10.713 -0.6524  0.1134  0.1967
  751TMC3    C511097   3.367   0.048  10.593  0.3415 -0.1250 -0.0085
  751TMC3    C611098   3.245   4.724  10.572  0.1747  1.0485  0.1074
  751TMC3     C11099   3.342   0.182  10.936 -0.3424  0.5594 -0.0333
  751TMC3     O11100   3.273   0.142  11.031 -0.3238  0.3794 -0.4767
  751TMC3     H11101   3.114   0.079  10.877  0.2707 -0.3143 -0.2128
  751TMC3    H111102   3.510   0.131  10.730 -0.7625  1.0779 -0.2387
  751TMC3    H211103   3.233   4.679  10.475  0.8897  0.1268  0.4448
  751TMC3    C711104   3.471   0.009  10.503  0.5114  0.5417 -0.1595
  751TMC3    C811105   3.030   4.664  10.646  0.5601 -0.0994  0.3313
  751TMC3    O111106   3.447   0.021  10.385 -0.1023 -0.1231  0.1869
  751TMC3    O211107   3.023   4.596  10.543 -0.2798 -0.6402 -0.2182
  752TMC3    C111108   2.612   4.137  16.833 -0.2420 -0.7836 -0.0916
  752TMC3    C211109   2.636   4.010  16.783  0.7671  0.2920 -1.5821
  752TMC3    C311110   2.562   3.911  16.840  0.0047  0.1733  0.0882
  752TMC3    C411111   2.510   4.168  16.917  0.3221 -0.3511  0.0352
  752TMC3    C511112   2.441   4.062  16.971  0.1391  0.3328 -0.2661
  752TMC3    C611113   2.467   3.930  16.936 -0.0320 -0.1541 -0.3237
  752TMC3     C11114   2.661   4.246  16.747 -0.4521 -0.2964  0.0397
  752TMC3     O11115   2.778   4.229  16.715 -0.2325  0.2435  0.0897
  752TMC3     H11116   2.699   4.005  16.695  0.7249 -1.0739 -1.5296
  752TMC3    H111117   2.498   4.266  16.961  1.2634 -0.3300  0.2527
  752TMC3    H211118   2.413   3.841  16.967 -0.7729  0.8266  1.1814
  752TMC3    C711119   2.347   4.087  17.074 -0.4957 -0.5512 -0.9490
  752TMC3    C811120   2.558   3.796  16.766 -0.4323 -0.4443  0.8061
  752TMC3    O111121   2.306   4.205  17.080 -0.0370 -0.5082  0.1040
  752TMC3    O211122   2.459   3.729  16.765  0.0081 -0.5813  0.0129
  753TMC3    C111123   4.011   1.423  12.963 -0.1149  0.5358 -0.6094
  753TMC3    C211124   4.136   1.436  13.014 -0.2826  0.0128 -0.2884
  753TMC3    C311125   4.197   1.320  13.056 -0.4242  0.3026  0.2909
  753TMC3    C411126   3.939   1.308  12.947  0.3524 -0.4616  0.1091
  753TMC3    C511127   4.002   1.195  13.002 -0.3276  0.2888  0.3448
  753TMC3    C611128   4.127   1.200  13.045  0.4431  0.0461  0.0134
  753TMC3     C11129   3.958   1.527  12.877  1.3585 -0.3142  0.1266
  753TMC3     O11130   3.863   1.501  12.801  0.4280  0.2940 -0.3487
  753TMC3     H11131   4.185   1.533  13.008  0.2818 -0.2168  0.5653
  753TMC3    H111132   3.841   1.305  12.901  0.0581 -2.1299  0.8262
  753TMC3    H211133   4.170   1.114  13.095 -0.4727 -1.2305 -1.4008
  753TMC3    C711134   3.920   1.073  13.036  0.1288 -0.5551  0.2059
  753TMC3    C811135   4.311   1.322  13.151  0.6318  0.2346  0.2310
  753TMC3    O111136   3.981   0.974  13.079  0.4423 -0.6876  0.5988
  753TMC3    O211137   4.350   1.215  13.189 -1.2181 -0.5083  0.5002
  754MPD2     C11138   3.225   0.188  12.543 -0.4922  0.5233  0.0052
  754MPD2    C111139   3.169   0.062  12.514  0.3768 -0.4438 -0.1529
  754MPD2    C211140   3.040   0.040  12.562  0.5914 -0.4035  0.3931
  754MPD2    C311141   2.973   0.129  12.644 -0.3322 -0.9649 -0.0132
  754MPD2    C411142   3.037   0.249  12.672  0.2582  0.3322 -0.2502
  754MPD2    C511143   3.157   0.278  12.619 -0.2825  0.4411 -0.0722
  754MPD2     H11144   2.990   4.676  12.524 -0.3546  1.0062 -1.6732
  754MPD2    H111145   2.992   0.328  12.730 -0.4909  1.6132 -2.5787
  754MPD2    H211146   3.318   0.210  12.492 -0.3686 -0.1949 -0.0766
  754MPD2    H311147   3.199   0.377  12.635 -0.5803  0.6045 -0.2967
  754MPD2     N11148   2.842   0.102  12.696 -0.2715 -0.2233 -0.1035
  754MPD2    H511149   2.796   0.182  12.737 -0.3594 -0.6978  0.7162
  754MPD2    N111150   3.246   4.700  12.436  0.0628  0.3937  0.4303
  754MPD2    H711151   3.311   0.018  12.372  0.0657  1.9623  1.5096
  755MPD2     C11152   2.740   0.360  13.433  0.2944 -0.6466 -0.0227
  755MPD2    C111153   2.613   0.374  13.383 -0.3171  0.5111  0.0842
  755MPD2    C211154   2.569   0.291  13.283  0.1428 -0.2581  0.7210
  755MPD2    C311155   2.647   0.192  13.231 -0.1628 -1.6398 -0.1385
  755MPD2    C411156   2.779   0.180  13.274 -0.3266  1.1191  0.0025
  755MPD2    C511157   2.823   0.264  13.381 -0.4381 -0.5622  0.0082
  755MPD2     H11158   2.474   0.312  13.234  0.9814 -1.2863 -1.3469
  755MPD2    H111159   2.851   0.113  13.229 -1.3480  0.3703 -0.4864
  755MPD2    H211160   2.782   0.419  13.514  0.0514 -0.2794 -0.1605
  755MPD2    H311161   2.919   0.247  13.428  0.1171  2.3429 -0.0657
  755MPD2     N11162   2.618   0.125  13.107  0.5922  0.1523 -0.2713
  755MPD2    H511163   2.686   0.059  13.069 -0.6773 -0.1731 -1.9557
  755MPD2    N111164   2.515   0.450  13.435 -0.2375 -0.0003 -0.3625
  755MPD2    H711165   2.420   0.439  13.399 -0.2008  0.2825 -0.5462
  756MPD2     C11166   3.586   0.198   9.471  0.0739 -0.1877  0.3886
  756MPD2    C111167   3.511   0.312   9.467 -0.3301  0.0326 -0.7490
  756MPD2    C211168   3.369   0.302   9.474 -0.2032 -0.4737  0.2210
  756MPD2    C311169   3.305   0.177   9.462 -0.1526 -0.4883  0.3419
  756MPD2    C411170   3.385   0.065   9.455  0.1580 -0.5298  0.3978
  756MPD2    C511171   3.517   0.076   9.468  0.0342  0.6302 -0.3868
  756MPD2     H11172   3.309   0.392   9.483 -1.1103 -1.1981  1.3747
  756MPD2    H111173   3.337   4.694   9.465  0.8119 -0.8305  0.6508
  756MPD2    H211174   3.693   0.206   9.488 -0.0146 -0.4593  1.0857
  756MPD2    H311175   3.567   4.705   9.468  1.5202  1.3792  1.3064
  756MPD2     N11176   3.164   0.173   9.452  0.2403 -0.0430 -0.0414
  756MPD2    H511177   3.120   0.263   9.468 -1.4080 -0.8323 -0.1275
  756MPD2    N111178   3.568   0.441   9.453 -0.5388  0.4743  0.1591
  756MPD2    H711179   3.513   0.523   9.429  1.5753  1.4619 -1.3516
  757MPD2     C11180   2.576   4.074   9.391  0.9337 -0.5921 -0.3307
  757MPD2    C111181   2.709   4.091   9.416 -0.0661  0.9587  0.1866
  757MPD2    C211182   2.751   4.223   9.431 -0.3797 -0.0647  0.2052
  757MPD2    C311183   2.666   4.330   9.443  0.0710 -0.1494  0.0852
  757MPD2    C411184   2.532   4.308   9.416 -0.5765  0.0152 -0.1751
  757MPD2    C511185   2.489   4.178   9.397 -0.4780 -0.2656 -0.5019
  757MPD2     H11186   2.856   4.235   9.452 -0.3980  0.5032 -0.0345
  757MPD2    H111187   2.454   4.382   9.403 -0.8336 -0.2259 -0.0022
  757MPD2    H211188   2.537   3.974   9.372 -1.1303  0.3353 -1.0366
  757MPD2    H311189   2.384   4.152   9.383 -0.9618  1.8095 -0.8258
  757MPD2     N11190   2.719   4.461   9.453 -0.4504  0.0616  0.8430
  757MPD2    H511191   2.819   4.476   9.461 -0.4346  0.1146  0.5295
  757MPD2    N111192   2.786   3.972   9.415 -0.1088 -0.6435 -0.6503
  757MPD2    H711193   2.735   3.886   9.400  1.5649 -1.8385  0.6057
  758MPD2     C11194   3.561   0.207  15.492  0.5616 -0.5686  0.1675
  758MPD2    C111195   3.602   0.089  15.554 -0.4441  0.5751  0.7553
  758MPD2    C211196   3.555   0.045  15.675 -0.0082 -0.0892 -0.0967
  758MPD2    C311197   3.450   0.111  15.739 -0.5154  0.8593 -0.7441
  758MPD2    C411198   3.415   0.233  15.681 -0.0773  0.0746 -0.5330
  758MPD2    C511199   3.467   0.276  15.563  0.2232 -0.0531  0.7663
  758MPD2     H11200   3.599   4.686  15.727  1.6066  1.0720  0.4224
  758MPD2    H111201   3.353   0.301  15.737  1.3630  0.7383  0.2514
  758MPD2    H211202   3.600   0.244  15.397 -1.6513  1.9147  0.2467
  758MPD2    H311203   3.427   0.368  15.522 -1.0737 -0.9988 -0.1207
  758MPD2     N11204   3.405   0.074  15.871 -0.4535  0.0754 -0.1010
  758MPD2    H511205   3.339   0.129  15.924  0.2226 -0.0903  0.9158
  758MPD2    N111206   3.701   0.011  15.488 -0.0051 -0.0735  1.1089
  758MPD2    H711207   3.740   0.049  15.403 -0.7494 -0.0396  0.7778
  759MPD2     C11208   2.414   2.972   9.006  0.2493 -0.4036 -0.8872
  759MPD2    C111209   2.297   3.039   9.029  0.7314  0.2174  0.1066
  759MPD2    C211210   2.301   3.177   9.019 -0.4157  0.5159 -0.1672
  759MPD2    C311211   2.413   3.250   8.983 -0.2753  0.4704 -0.2165
  759MPD2    C411212   2.531   3.175   8.960  0.4407  1.3072 -0.1405
  759MPD2    C511213   2.531   3.039   8.975  0.4967  0.1798  0.0562
  759MPD2     H11214   2.201   3.215   9.030 -1.8029 -2.5308 -2.0891
  759MPD2    H111215   2.626   3.215   8.927  0.4572 -0.3684 -2.1009
  759MPD2    H211216   2.421   2.864   9.018  0.3849 -0.4031 -0.9531
  759MPD2    H311217   2.630   2.996   8.967  0.5617  0.6194 -1.4676
  759MPD2     N11218   2.418   3.390   8.963 -0.7419 -0.0294 -0.1957
  759MPD2    H511219   2.332   3.439   8.986  0.2166  0.7071  1.8631
  759MPD2    N111220   2.171   2.980   9.050  0.2067 -0.0388  0.7803
  759MPD2    H711221   2.091   3.041   9.062  0.7286 -0.0272  4.0095
  760MPD2     C11222   1.150   4.672  11.817  0.1686 -0.2890 -0.9091
  760MPD2    C111223   1.273   0.009  11.818 -0.6910 -0.4705 -0.5344
  760MPD2    C211224   1.387   4.666  11.852  0.4269  0.1964  0.3282
  760MPD2    C311225   1.371   4.534  11.901  0.4789  0.1763 -0.6282
  760MPD2    C411226   1.249   4.482  11.908 -0.7903 -0.2224  0.9705
  760MPD2    C511227   1.133   4.548  11.866  0.6325 -0.5824  0.0715
  760MPD2     H11228   1.485   4.713  11.858 -0.9579  3.1573 -0.4826
  760MPD2    H111229   1.238   4.380  11.942 -0.5684 -0.1218  1.3323
  760MPD2    H211230   1.063   4.724  11.779 -1.4378 -1.1404  1.6033
  760MPD2    H311231   1.034   4.506  11.875  1.2580 -1.9031  0.8434
  760MPD2     N11232   1.482   4.454  11.950 -0.6482 -0.3068  0.3712
  760MPD2    H511233   1.459   4.357  11.969 -0.2327 -0.2333  1.2450
  760MPD2    N111234   1.297   0.148  11.789 -0.3895  0.6481 -0.4448
  760MPD2    H711235   1.395   0.175  11.791 -0.4197  0.4097  3.0070
  761MPD2     C11236   2.616   4.429  10.788  0.0861  0.1051 -0.7285
  761MPD2    C111237   2.724   4.392  10.710  0.2561  0.1587 -0.3624
  761MPD2    C211238   2.829   4.478  10.692 -0.5214  0.1160 -0.1288
  761MPD2    C311239   2.837   4.590  10.767  0.7257  0.1692 -1.1377
  761MPD2    C411240   2.740   4.628  10.863 -0.0218 -0.1833 -0.7077
  761MPD2    C511241   2.628   4.549  10.867 -0.3798  0.0862  0.3624
  761MPD2     H11242   2.912   4.437  10.636  0.5131  0.4098  1.1877
  761MPD2    H111243   2.737   0.003  10.905 -0.1317 -0.5313  0.1123
  761MPD2    H211244   2.522   4.375  10.792  0.7364 -1.0668 -1.4218
  761MPD2    H311245   2.537   4.577  10.919 -0.1651  0.8761  0.3141
  761MPD2     N11246   2.938   4.685  10.746  0.0366  0.0783  0.0614
  761MPD2    H511247   2.934   0.040  10.808 -0.7238 -0.3440  0.5750
  761MPD2    N111248   2.726   4.263  10.656 -0.2291  0.5363  0.0415
  761MPD2    H711249   2.663   4.197  10.700  0.7345 -0.5023 -0.1295
  762MPD2     C11250   3.211   4.340  10.369  0.3575 -0.0102 -0.9132
  762MPD2    C111251   3.235   4.201  10.359 -0.2195 -0.3331  0.0422
  762MPD2    C211252   3.354   4.147  10.309 -0.2120  0.5519 -1.1317
  762MPD2    C311253   3.447   4.229  10.255 -0.2322 -0.6196  0.4690
  762MPD2    C411254   3.426   4.369  10.252  0.0462 -0.1447 -0.3333
  762MPD2    C511255   3.306   4.417  10.300  0.3199 -0.7622 -0.3801
  762MPD2     H11256   3.357   4.039  10.301  1.0542  0.3459  2.1555
  762MPD2    H111257   3.506   4.435  10.221 -0.9068  0.8738 -0.6353
  762MPD2    H211258   3.121   4.376  10.417  0.3361  0.1991 -1.1112
  762MPD2    H311259   3.302   4.525  10.309  2.4384 -0.7858  0.8671
  762MPD2     N11260   3.568   4.176  10.209 -0.1163  0.2228 -0.1582
  762MPD2    H511261   3.594   4.080  10.231  0.1368  0.5332  0.8780
  762MPD2    N111262   3.134   4.124  10.423 -0.2127 -0.0921  0.4573
  762MPD2    H711263   3.054   4.184  10.444 -1.6996 -2.3864  1.2401
  763MPD2     C11264   0.641   4.420  16.062  0.2010 -0.1134 -0.2079
  763MPD2    C111265   0.552   4.521  16.036 -0.6939  0.6128 -0.1977
  763MPD2    C211266   0.567   4.635  16.108  0.4494 -0.3793  0.3421
  763MPD2    C311267   0.661   4.650  16.209 -0.2037 -0.3461 -0.7818
  763MPD2    C411268   0.752   4.548  16.233 -0.7580 -0.3234 -0.4488
  763MPD2    C511269   0.735   4.432  16.162 -0.4318 -0.4102  1.4248
  763MPD2     H11270   0.495   4.714  16.087 -0.9554 -0.9489  2.9741
  763MPD2    H111271   0.822   4.552  16.316 -0.5728  3.0067 -0.7565
  763MPD2    H211272   0.649   4.324  16.013 -2.7585 -0.1188 -0.6709
  763MPD2    H311273   0.816   4.361  16.161 -1.7133 -1.8620  1.0136
  763MPD2     N11274   0.669   0.029  16.299 -0.0455 -0.1521 -0.3278
  763MPD2    H511275   0.757   0.035  16.349  0.6905  0.6326 -1.7081
  763MPD2    N111276   0.450   4.510  15.939  0.6264  0.0329  0.2490
  763MPD2    H711277   0.409   4.600  15.914  1.0512  0.5000  1.2385
  764MPD2     C11278   2.680   0.380  17.445 -0.0938 -0.0885  0.3886
  764MPD2    C111279   2.689   0.515  17.452 -0.0747 -0.1445  0.3422
  764MPD2    C211280   2.715   0.576  17.576  0.0862 -0.9656  0.0718
  764MPD2    C311281   2.735   0.498  17.691  0.0392 -0.0184 -0.7810
  764MPD2    C411282   2.730   0.363  17.678  0.9859 -0.5640  0.2978
  764MPD2    C511283   2.701   0.309  17.557 -0.4731 -0.1744  0.5478
  764MPD2     H11284   2.747   0.679  17.587  0.3174 -0.6911 -3.1460
  764MPD2    H111285   2.734   0.295   0.060  1.3735 -0.8417  0.0556
  764MPD2    H211286   2.644   0.330  17.355 -0.7070  0.1308  0.5101
  764MPD2    H311287   2.678   0.203  17.561 -2.3732  0.1285 -2.0145
  764MPD2     N11288   2.775   0.563   0.110 -0.4855 -0.1828  0.1490
  764MPD2    H511289   2.771   0.664   0.098  0.5700  0.0749  2.0050
  764MPD2    N111290   2.678   0.584  17.331 -0.6370 -0.0030  0.1455
  764MPD2    H711291   2.659   0.529  17.247 -0.8927 -0.5917  0.5884
  765MPD2     C11292   2.802   3.511  15.156  0.5892 -0.3198 -0.0931
  765MPD2    C111293   2.885   3.609  15.204 -0.0445  0.3647 -0.2761
  765MPD2    C211294   3.017   3.609  15.166  0.4250 -0.0793 -0.2215
  765MPD2    C311295   3.060   3.520  15.066  0.2295 -0.2817 -0.4083
  765MPD2    C411296   2.972   3.421  15.018  0.3943 -0.1927  0.0541
  765MPD2    C511297   2.850   3.422  15.062  0.2842  0.6731 -0.6246
  765MPD2     H11298   3.084   3.680  15.213  1.7881 -1.7679  0.3830
  765MPD2    H111299   3.006   3.337  14.957  0.2705 -1.2882  1.4887
  765MPD2    H211300   2.699   3.503  15.189  0.7066 -2.3159 -0.2274
  765MPD2    H311301   2.785   3.341  15.035 -0.3478 -0.3195  3.8794
  765MPD2     N11302   3.196   3.529  15.024  0.6522  0.5321  0.2797
  765MPD2    H511303   3.236   3.617  15.053 -0.4923  1.1609 -0.0343
  765MPD2    N111304   2.825   3.703  15.285 -0.3679 -0.1113  0.6822
  765MPD2    H711305   2.729   3.685  15.314 -0.4176 -0.9340  0.0126
  766MPD2     C11306   2.396   4.142  15.011 -0.1619  0.4443  0.8035
  766MPD2    C111307   2.522   4.099  15.044  0.5883 -0.2104 -0.6007
  766MPD2    C211308   2.603   4.061  14.939  0.5434  0.4206 -0.5293
  766MPD2    C311309   2.557   4.067  14.811 -0.9396 -0.2458 -0.2655
  766MPD2    C411310   2.426   4.097  14.784 -0.9715 -0.0696  0.8033
  766MPD2    C511311   2.347   4.138  14.885 -0.0123  0.1986  0.8618
  766MPD2     H11312   2.697   4.013  14.963 -0.2946 -2.1709 -2.4647
  766MPD2    H111313   2.375   4.095  14.688  0.9939  2.5160 -0.3083
  766MPD2    H211314   2.333   4.177  15.092 -0.2918 -1.5523  1.5839
  766MPD2    H311315   2.244   4.172  14.877  0.3425  0.7005 -1.5951
  766MPD2     N11316   2.640   4.027  14.704  0.0519 -1.1305 -0.1532
  766MPD2    H511317   2.591   4.005  14.617 -1.0476 -0.1641  0.2296
  766MPD2    N111318   2.577   4.089  15.178  0.3445  0.8303 -0.0114
  766MPD2    H711319   2.675   4.071  15.196  0.5509  4.1474  2.0002
  767MPD2     C11320   2.174   4.307  14.525  0.4269 -0.0258  0.3912
  767MPD2    C111321   2.309   4.312  14.506 -0.0713  0.7432 -0.1188
  767MPD2    C211322   2.365   4.240  14.403  0.1329  0.3263 -0.4214
  767MPD2    C311323   2.285   4.157  14.330  0.0473  0.3984 -0.5711
  767MPD2    C411324   2.147   4.145  14.355 -0.6285  0.2707 -0.3980
  767MPD2    C511325   2.095   4.223  14.457  0.5924 -0.4636  0.3756
  767MPD2     H11326   2.469   4.246  14.372  0.1548 -0.2833 -0.4578
  767MPD2    H111327   2.080   4.086  14.295  0.6436 -0.0836 -1.4827
  767MPD2    H211328   2.134   4.373  14.601  0.9652 -1.3582  1.8299
  767MPD2    H311329   1.990   4.226  14.481 -0.0857  1.3761 -2.9977
  767MPD2     N11330   2.341   4.081  14.222  1.3116  0.3701  0.3108
  767MPD2    H511331   2.440   4.093  14.205  1.2232 -1.3965 -1.4179
  767MPD2    N111332   2.377   4.396  14.594  0.1548 -0.8382  0.6085
  767MPD2    H711333   2.319   4.450  14.658 -1.3223 -1.9307  0.1857
  768MPD2     C11334   3.658   2.596  10.078  0.5630 -0.0465  0.5813
  768MPD2    C111335   3.585   2.569  10.190  0.0483  0.0980 -0.5014
  768MPD2    C211336   3.648   2.561  10.308  0.9576  0.6661  0.1962
  768MPD2    C311337   3.785   2.587  10.321  0.2791  0.6677 -0.4134
  768MPD2    C411338   3.857   2.628  10.213 -0.3418  0.1390  0.7458
  768MPD2    C511339   3.793   2.629  10.092 -0.2896  0.6494 -0.4692
  768MPD2     H11340   3.597   2.552  10.403 -1.0601  0.2382 -0.9023
  768MPD2    H111341   3.959   2.663  10.228  0.0806 -0.9131  0.3829
  768MPD2    H211342   3.618   2.615   9.979 -0.9558 -0.1325  1.1728
  768MPD2    H311343   3.849   2.652  10.002  0.8078 -1.1475 -0.2449
  768MPD2     N11344   3.852   2.585  10.449 -0.5596  0.5082 -0.5163
  768MPD2    H511345   3.947   2.620  10.458 -0.4409 -0.5625  2.5119
  768MPD2    N111346   3.442   2.559  10.194  0.4075  0.6053  0.4193
  768MPD2    H711347   3.403   2.546  10.286 -0.0081 -1.0484  0.0158
  769MPD2     C11348   4.523   0.365  14.780  0.0524 -0.7226  0.5005
  769MPD2    C111349   4.404   0.437  14.789  0.2077 -0.6454  0.6407
  769MPD2    C211350   4.407   0.561  14.857 -0.3007 -0.0968  0.4084
  769MPD2    C311351   4.521   0.601  14.917  0.4732 -0.0282  0.0115
  769MPD2    C411352   4.635   0.528  14.902 -0.0847 -0.1827 -0.3033
  769MPD2    C511353   4.639   0.409  14.836  0.0345  0.3063  0.3064
  769MPD2     H11354   4.324   0.631  14.853  0.3760  0.7716  1.4512
  769MPD2    H111355   4.724   0.566  14.951  0.4031  0.9724 -2.0867
  769MPD2    H211356   4.520   0.275  14.720  0.4492 -0.9013  0.7488
  769MPD2    H311357   0.002   0.345  14.840 -1.3216 -1.5338  0.9408
  769MPD2     N11358   4.525   0.726  14.985  0.0937  0.3545  0.3983
  769MPD2    H511359   4.435   0.762  15.013  1.4111  1.5113  3.0946
  769MPD2    N111360   4.297   0.388  14.721 -0.0543 -0.2105  0.3905
  769MPD2    H711361   4.302   0.290  14.695  1.4214  0.1125 -0.5187
  770MPD2     C11362   3.960   4.258  14.422 -1.1066 -0.1030 -0.1604
  770MPD2    C111363   3.837   4.320  14.418  0.3889  0.3707 -0.8361
  770MPD2    C211364   3.832   4.454  14.432  0.6939  0.0812  0.1166
  770MPD2    C311365   3.945   4.526  14.458 -0.0638 -0.0168 -0.1913
  770MPD2    C411366   4.069   4.467  14.448  0.1512 -0.8434 -0.1717
  770MPD2    C511367   4.075   4.329  14.432 -0.7463  0.9839  0.2812
  770MPD2     H11368   3.736   4.502  14.431  1.6174  1.9369  1.4017
  770MPD2    H111369   4.162   4.517  14.476  0.5489  0.2882 -3.4667
  770MPD2    H211370   3.970   4.151  14.409  0.7040  0.3515 -2.5024
  770MPD2    H311371   4.173   4.283  14.434 -1.4525 -0.5136  0.4927
  770MPD2     N11372   3.927   4.659  14.501  0.0117 -0.0133 -0.3479
  770MPD2    H511373   3.835   4.702  14.490  1.7985  4.2521  1.3466
  770MPD2    N111374   3.730   4.231  14.413 -0.4813 -0.1402 -0.1601
  770MPD2    H711375   3.762   4.136  14.397 -0.0938 -0.0067 -0.1704
  771MPD2     C11376   0.206   3.159  13.355  0.2724  0.2280 -0.3993
  771MPD2    C111377   0.151   3.286  13.372  0.0559  0.0662 -0.0559
  771MPD2    C211378   0.019   3.302  13.361  0.0657  0.3344  0.6267
  771MPD2    C311379   4.663   3.200  13.320  0.9883 -0.1655 -0.3661
  771MPD2    C411380   4.714   3.074  13.306  0.2768  0.2367  0.5605
  771MPD2    C511381   0.123   3.054  13.321  0.5888 -0.6025 -0.2458
  771MPD2     H11382   4.703   3.402  13.371  0.2541  0.5139 -0.3270
  771MPD2    H111383   4.651   2.987  13.294 -0.6514  0.7452  1.6665
  771MPD2    H211384   0.310   3.134  13.368  0.4526  1.5925  0.7799
  771MPD2    H311385   0.161   2.953  13.325  1.0531 -0.4774 -1.4779
  771MPD2     N11386   4.524   3.225  13.308  0.5309 -0.3728 -0.3052
  771MPD2    H511387   4.493   3.321  13.304  1.3837 -0.0300  1.1384
  771MPD2    N111388   0.223   3.401  13.408 -0.4202  0.8054 -0.2699
  771MPD2    H711389   0.169   3.487  13.411 -1.5308  0.0995  0.3367
  772MPD2     C11390   0.005   4.040  13.655  0.3326 -0.1665  0.3982
  772MPD2    C111391   4.715   3.907  13.624  0.3907  0.1825  0.7720
  772MPD2    C211392   4.592   3.837  13.646  0.2589  0.0436 -0.3951
  772MPD2    C311393   4.486   3.910  13.703 -0.1660 -0.0630 -0.1904
  772MPD2    C411394   4.507   4.042  13.733 -0.4535  0.8335 -0.2279
  772MPD2    C511395   4.625   4.104  13.711 -0.2260 -0.2848  0.2796
  772MPD2     H11396   4.584   3.734  13.615  0.7828 -0.8709  2.5790
  772MPD2    H111397   4.434   4.096  13.793  0.5906  3.3703 -1.2839
  772MPD2    H211398   0.098   4.093  13.641 -1.0659  1.7660 -1.5635
  772MPD2    H311399   4.644   4.200  13.758  1.3919 -0.8665  0.7989
  772MPD2     N11400   4.362   3.856  13.742 -0.4273  0.1545  0.7121
  772MPD2    H511401   4.296   3.920  13.785 -1.7851 -0.1462 -0.9217
  772MPD2    N111402   0.094   3.828  13.569  0.0778  0.2507  0.3401
  772MPD2    H711403   0.080   3.729  13.552  0.9228  0.1936 -0.0233
  773MPD2     C11404   4.380   0.110   0.019 -0.3544 -0.0082 -0.0573
  773MPD2    C111405   4.271   0.043  17.673  0.5485  0.0546 -0.3647
  773MPD2    C211406   4.292   4.625  17.663  0.4441  0.0543  0.1221
  773MPD2    C311407   4.416   4.559  17.698  0.4948 -0.5257  1.1407
  773MPD2    C411408   4.520   4.635   0.024  0.0305  0.5102 -0.4334
  773MPD2    C511409   4.500   0.044   0.035  0.5952 -0.8596  0.4326
  773MPD2     H11410   4.211   4.555  17.646 -1.4956  1.6379  2.7819
  773MPD2    H111411   4.622   4.601   0.037 -0.0375  0.8653  1.0752
  773MPD2    H211412   4.387   0.217   0.035 -4.0202  0.2783 -0.4037
  773MPD2    H311413   4.586   0.108   0.052  1.4841 -1.8640 -0.2721
  773MPD2     N11414   4.425   4.422  17.677 -0.1720  0.2541 -0.2180
  773MPD2    H511415   4.345   4.388  17.624  1.2120 -1.4395 -1.2056
  773MPD2    N111416   4.139   0.093  17.656  0.5122  0.2135 -0.0221
  773MPD2    H711417   4.062   0.026  17.653  0.9095 -0.3585  2.2262
  774MPD2     C11418   2.829   3.760  12.832 -0.7988 -0.3055 -0.0637
  774MPD2    C111419   2.923   3.799  12.924 -0.8132  0.7985  0.2266
  774MPD2    C211420   2.994   3.914  12.901 -0.0379  0.2613  0.4543
  774MPD2    C311421   2.958   4.005  12.797 -0.2093 -0.6686  0.1091
  774MPD2    C411422   2.853   3.968  12.712  0.0315  0.2376  0.5820
  774MPD2    C511423   2.790   3.843  12.734  0.7715  0.5847 -0.7148
  774MPD2     H11424   3.088   3.941  12.949 -0.1653  0.3074  0.6769
  774MPD2    H111425   2.812   4.025  12.629  1.1266 -0.2677 -0.2990
  774MPD2    H211426   2.783   3.663  12.845  0.6601 -1.0153 -0.1612
  774MPD2    H311427   2.709   3.810  12.670  0.0111 -1.3811  1.2806
  774MPD2     N11428   3.035   4.123  12.783  0.5434 -0.5739 -0.3409
  774MPD2    H511429   3.109   4.135  12.852  0.6152 -1.3262 -0.2868
  774MPD2    N111430   2.944   3.708  13.029  0.6248  0.5165 -0.8771
  774MPD2    H711431   2.903   3.615  13.020  0.1254  0.4958  1.5954
  775MPD2     C11432   4.672   0.544  15.434  0.1030 -0.3478  0.2731
  775MPD2    C111433   4.705   0.660  15.503  0.3607  0.0278  0.1383
  775MPD2    C211434   0.049   0.757  15.440 -0.3055  0.0920 -0.8050
  775MPD2    C311435   0.098   0.741  15.315 -0.6995  0.1131  0.2050
  775MPD2    C411436   0.073   0.623  15.250 -0.0666  0.0428  0.2884
  775MPD2    C511437   4.721   0.523  15.308 -0.2914  0.0743 -0.1487
  775MPD2     H11438   0.064   0.859  15.472 -0.7825  0.4010 -1.5548
  775MPD2    H111439   0.101   0.599  15.148 -0.2245 -1.1946  0.5365
  775MPD2    H211440   4.589   0.485  15.472  2.1611 -2.9756  0.6619
  775MPD2    H311441   4.690   0.429  15.264  2.4290 -0.7885 -0.2262
  775MPD2     N11442   0.186   0.826  15.243 -0.2529 -0.7959  0.2085
  775MPD2    H511443   0.211   0.779  15.157  1.7725  1.6973 -0.5947
  775MPD2    N111444   4.642   0.688  15.624  0.0923 -0.2490 -0.1357
  775MPD2    H711445   4.587   0.613  15.664 -1.2456  0.8687  0.1232
  776MPD2     C11446   2.791   0.479  11.392  0.5320  0.7707 -0.3786
  776MPD2    C111447   2.881   0.523  11.490  0.4243  0.3709  0.1096
  776MPD2    C211448   2.889   0.661  11.522 -0.0350  0.7737  0.1355
  776MPD2    C311449   2.792   0.743  11.477 -0.2093 -0.5173 -0.3571
  776MPD2    C411450   2.697   0.694  11.390  0.0844 -0.0915  0.2628
  776MPD2    C511451   2.696   0.566  11.345 -0.7574 -0.1011  0.2354
  776MPD2     H11452   2.966   0.706  11.584  0.9016  0.6770 -0.9571
  776MPD2    H111453   2.611   0.749  11.352 -0.3072 -0.9885 -0.1495
  776MPD2    H211454   2.803   0.376  11.361  1.6199 -0.1087  3.0231
  776MPD2    H311455   2.616   0.534  11.279 -0.8597  0.3512  0.1396
  776MPD2     N11456   2.787   0.876  11.515 -0.1423 -0.1104 -0.1847
  776MPD2    H511457   2.709   0.931  11.479  0.5873  1.1925  0.2519
  776MPD2    N111458   2.986   0.439  11.536 -0.3125  0.1922 -0.4717
  776MPD2    H711459   2.976   0.340  11.516  0.4175 -0.3286  1.7295
  777MPD2     C11460   4.584   2.868   0.705 -0.4942 -0.1172  0.0661
  777MPD2    C111461   4.469   2.919   0.755  0.4469 -0.3255 -0.3380
  777MPD2    C211462   4.349   2.870   0.705  0.5216 -0.5101 -0.1246
  777MPD2    C311463   4.350   2.778   0.605 -0.0639 -0.3158  0.2887
  777MPD2    C411464   4.469   2.733   0.558  0.1896  0.0542 -0.2801
  777MPD2    C511465   4.584   2.776   0.612 -0.0768  0.0447 -0.1574
  777MPD2     H11466   4.255   2.894   0.754  0.7438 -2.4390  1.2436
  777MPD2    H111467   4.475   2.646   0.493 -0.5539 -0.0042 -0.2736
  777MPD2    H211468   4.682   2.890   0.746  0.6168 -1.6634 -1.7966
  777MPD2    H311469   4.680   2.734   0.582  0.3237  0.3590  0.6963
  777MPD2     N11470   4.230   2.750   0.543 -0.1383  0.2794  0.3610
  777MPD2    H511471   4.147   2.780   0.593  1.1850  2.6455  1.1751
  777MPD2    N111472   4.464   3.023   0.857  0.2962 -0.2644  0.0060
  777MPD2    H711473   4.555   3.049   0.895 -0.5058  0.6367  1.3362
  778MPD2     C11474   0.433   3.528  15.013  0.0536  0.0026  0.3551
  778MPD2    C111475   0.432   3.447  14.899  0.7589  0.2187  0.2604
  778MPD2    C211476   0.481   3.487  14.775 -0.3060  0.3758  0.3370
  778MPD2    C311477   0.520   3.619  14.764 -0.4231  0.0617  0.1276
  778MPD2    C411478   0.521   3.696  14.878 -0.1340  0.3006 -0.0152
  778MPD2    C511479   0.485   3.648  14.998  0.2144 -0.3850 -0.6911
  778MPD2     H11480   0.478   3.417  14.693 -0.2280  1.3222 -0.4677
  778MPD2    H111481   0.558   3.797  14.867  2.8467 -0.7651  0.0971
  778MPD2    H211482   0.402   3.496  15.112  0.6471 -1.0323  0.2068
  778MPD2    H311483   0.481   3.712  15.085 -1.8301 -1.3832 -0.0501
  778MPD2     N11484   0.546   3.672  14.636  0.5866 -0.2034 -0.3607
  778MPD2    H511485   0.517   3.619  14.554  0.7382 -0.9513  0.0705
  778MPD2    N111486   0.375   3.315  14.901 -0.0441 -0.3057 -0.2864
  778MPD2    H711487   0.354   3.278  14.809  1.5312  0.9246 -1.1262
  779MPD2     C11488   4.644   2.620  13.448  0.2886 -0.3549 -0.1955
  779MPD2    C111489   4.713   2.557  13.554 -0.6180  0.5537  0.2151
  779MPD2    C211490   0.063   2.635  13.645  0.6098 -0.0164 -0.0006
  779MPD2    C311491   0.062   2.773  13.639  0.6916  0.4786 -0.4874
  779MPD2    C411492   4.710   2.831  13.544  0.7247  0.1379  0.3208
  779MPD2    C511493   4.642   2.760  13.447  0.1500 -0.1053  0.8696
  779MPD2     H11494   0.114   2.581  13.724  2.4171  2.4874  0.5647
  779MPD2    H111495   4.714   2.937  13.524 -0.9209 -0.0686 -1.1166
  779MPD2    H211496   4.590   2.567  13.371 -1.3058  0.8490  0.0823
  779MPD2    H311497   4.573   2.813  13.382 -2.0160 -2.2826  1.3751
  779MPD2     N11498   0.139   2.854  13.724  0.6415 -0.9003  0.0530
  779MPD2    H511499   0.203   2.812  13.791 -0.3886 -1.3871  0.7224
  779MPD2    N111500   0.001   2.415  13.562  0.7495 -0.0242 -0.8376
  779MPD2    H711501   0.076   2.376  13.619 -0.0910  1.3822  1.2179
  780MPD2     C11502   3.912   1.892   1.250 -0.1577  0.5175 -0.0540
  780MPD2    C111503   3.901   1.927   1.115  0.2906  0.2625  0.6198
  780MPD2    C211504   4.014   1.952   1.041 -0.3116  0.2994 -0.4033
  780MPD2    C311505   4.136   1.945   1.096 -0.1546  0.0320 -0.0947
  780MPD2    C411506   4.144   1.915   1.231 -0.4163 -0.3506 -0.1850
  780MPD2    C511507   4.035   1.888   1.303  0.4453 -0.4134  0.3008
  780MPD2     H11508   4.003   1.984   0.938 -2.3873  1.1073  0.0524
  780MPD2    H111509   4.240   1.919   1.283  0.0018  0.0780 -0.9821
  780MPD2    H211510   3.827   1.881   1.316  0.7060 -0.5518  0.8873
  780MPD2    H311511   4.051   1.887   1.410  0.6587  1.6315  0.2978
  780MPD2     N11512   4.248   1.968   1.008  0.1294  0.2571  0.3090
  780MPD2    H511513   4.231   2.010   0.917  2.9191  1.6580  0.4214
  780MPD2    N111514   3.772   1.927   1.065 -0.1399 -0.3864 -0.4936
  780MPD2    H711515   3.705   1.921   1.141  1.2535  0.3494  0.7799
  781MPD2     C11516   0.976   4.205  11.579  0.3822  0.8528 -0.0994
  781MPD2    C111517   1.073   4.165  11.669 -0.3265 -0.3517 -0.3305
  781MPD2    C211518   1.204   4.126  11.624  0.1031  0.0886  0.3751
  781MPD2    C311519   1.224   4.113  11.486  0.4171  0.1123 -0.5135
  781MPD2    C411520   1.128   4.159  11.406  0.2618  0.3796 -0.3687
  781MPD2    C511521   1.011   4.205  11.452  0.7405 -0.1651  0.0753
  781MPD2     H11522   1.278   4.106  11.701  0.3704  2.8999  0.8354
  781MPD2    H111523   1.146   4.161  11.299 -0.7016 -1.7704 -0.5754
  781MPD2    H211524   0.879   4.250  11.598 -1.3984 -1.8428 -2.8722
  781MPD2    H311525   0.954   4.264  11.380 -0.8039 -0.5859  0.9579
  781MPD2     N11526   1.340   4.054  11.430 -0.8134  0.0223 -0.4550
  781MPD2    H511527   1.353   4.055  11.330  1.3203 -1.4954 -0.2068
  781MPD2    N111528   1.043   4.152  11.806 -0.4845  0.7789  0.1753
  781MPD2    H711529   1.115   4.128  11.873 -0.7346 -0.7768 -0.1117
  782MPD2     C11530   3.758   0.496   9.977  0.3933  0.3130 -0.3062
  782MPD2    C111531   3.869   0.434  10.026 -0.3252 -0.5809  0.0319
  782MPD2    C211532   3.940   0.488  10.125  0.0930  0.3367  0.4957
  782MPD2    C311533   3.915   0.611  10.188  0.3811  0.0322 -0.3225
  782MPD2    C411534   3.803   0.681  10.137 -0.5863  0.4557  0.0115
  782MPD2    C511535   3.727   0.620  10.039  0.0118 -0.4154  0.3064
  782MPD2     H11536   4.029   0.439  10.161 -0.3697  0.2774  1.5699
  782MPD2    H111537   3.759   0.770  10.180 -0.6643 -0.5227  1.9606
  782MPD2    H211538   3.701   0.446   9.900 -0.2600 -0.1187  0.4568
  782MPD2    H311539   3.649   0.689  10.009  1.4657 -0.0552 -2.6507
  782MPD2     N11540   4.001   0.664  10.282  0.0848 -0.2040  0.1434
  782MPD2    H511541   4.077   0.603  10.309  1.6408  0.2850 -3.1356
  782MPD2    N111542   3.911   0.308   9.973  0.1790  0.6197 -0.0957
  782MPD2    H711543   3.855   0.259   9.905 -0.8881  1.4369  0.1921
  783MPD2     C11544   3.784   4.575  10.600  0.0995  0.0047 -0.5384
  783MPD2    C111545   3.697   4.622  10.507  0.4159 -0.1827  0.5364
  783MPD2    C211546   3.726   4.627  10.372 -0.1748 -0.5705  0.3902
  783MPD2    C311547   3.846   4.567  10.323  0.2798 -0.7447 -0.4501
  783MPD2    C411548   3.936   4.517  10.419 -0.0353  0.7739  0.3798
  783MPD2    C511549   3.903   4.524  10.552 -0.0284 -0.7909 -0.9577
  783MPD2     H11550   3.648   4.663  10.306  0.3841  2.2769  1.3066
  783MPD2    H111551   4.019   4.453  10.393 -1.2169 -0.1461 -1.0700
  783MPD2    H211552   3.757   4.568  10.705 -0.6267  1.9867 -0.5960
  783MPD2    H311553   3.975   4.475  10.616  1.1215  0.3821 -1.3547
  783MPD2     N11554   3.880   4.586  10.189 -0.1479 -0.2188  0.3445
  783MPD2    H511555   3.822   4.642  10.127 -1.8633 -2.1015  0.2622
  783MPD2    N111556   3.574   4.671  10.566  0.2333 -0.1399  0.1886
  783MPD2    H711557   3.570   4.662  10.667  0.1821 -0.8587  0.1189
  784MPD2     C11558   2.668   1.108   0.797 -0.0706  0.7109  0.1933
  784MPD2    C111559   2.669   0.972   0.826 -0.4223  0.0090  0.3259
  784MPD2    C211560   2.560   0.895   0.779  0.2542 -0.0649 -0.8316
  784MPD2    C311561   2.450   0.956   0.736 -0.2405 -0.1513  0.4037
  784MPD2    C411562   2.446   1.094   0.710 -0.4737 -0.2440  0.2429
  784MPD2    C511563   2.560   1.169   0.741 -0.9401 -0.2085 -0.1264
  784MPD2     H11564   2.570   0.789   0.797  0.6708 -0.1217 -1.4042
  784MPD2    H111565   2.361   1.150   0.675  0.3530  1.4141  0.8756
  784MPD2    H211566   2.752   1.173   0.816  1.0950 -1.3964  2.1656
  784MPD2    H311567   2.560   1.276   0.726 -1.5418  0.0381  1.7215
  784MPD2     N11568   2.333   0.874   0.715 -0.0759  0.3630  0.0390
  784MPD2    H511569   2.348   0.779   0.747 -1.1579  0.6318  1.3223
  784MPD2    N111570   2.772   0.911   0.902  0.7787  0.0683  0.2165
  784MPD2    H711571   2.751   0.814   0.923  1.3929 -0.0322  0.3602
  785MPD2     C11572   1.453   4.093  10.161  0.1328 -0.2442 -0.1649
  785MPD2    C111573   1.419   4.139  10.040 -0.0576  0.3061 -0.3466
  785MPD2    C211574   1.310   4.090   9.966 -0.2760  0.3328 -0.1384
  785MPD2    C311575   1.245   3.982  10.021  0.5288  0.6837 -0.3112
  785MPD2    C411576   1.284   3.930  10.138 -0.0756  0.2913  0.1738
  785MPD2    C511577   1.381   3.987  10.209 -0.4663  0.7711  0.1931
  785MPD2     H11578   1.295   4.115   9.862  0.9944 -1.5098 -0.7552
  785MPD2    H111579   1.222   3.860  10.192 -1.5952 -0.0346 -1.9896
  785MPD2    H211580   1.535   4.128  10.223 -1.1651  0.1320  1.3452
  785MPD2    H311581   1.423   3.942  10.298 -1.1044 -1.6133 -0.7112
  785MPD2     N11582   1.135   3.932   9.950  0.3377 -0.3358  0.5934
  785MPD2    H511583   1.117   3.987   9.867 -1.4557  0.4707  1.5132
  785MPD2    N111584   1.498   4.246   9.997 -0.8586 -0.0881 -0.9331
  785MPD2    H711585   1.590   4.254  10.041 -0.7346 -1.9550 -0.8524
  786MPD2     C11586   0.422   1.497  14.445 -0.1464  0.2008 -0.3146
  786MPD2    C111587   0.511   1.416  14.511  0.5997  0.3855  0.2253
  786MPD2    C211588   0.586   1.465  14.618  0.4423  0.1250  0.5802
  786MPD2    C311589   0.582   1.600  14.647  0.1142  0.1439 -0.0818
  786MPD2    C411590   0.502   1.680  14.574  0.1933  0.4703  0.0847
  786MPD2    C511591   0.419   1.630  14.483  0.4213  0.4090  0.4579
  786MPD2     H11592   0.647   1.394  14.674  0.9295 -0.1988 -0.3529
  786MPD2    H111593   0.505   1.786  14.601  1.1359  0.2678  0.7975
  786MPD2    H211594   0.349   1.469  14.370  0.4700 -0.9289 -0.4934
  786MPD2    H311595   0.342   1.695  14.442 -2.1134 -0.4490  3.8653
  786MPD2     N11596   0.656   1.656  14.757 -0.6482 -0.2300 -0.2934
  786MPD2    H511597   0.662   1.757  14.745  0.9996 -0.1310  1.4463
  786MPD2    N111598   0.526   1.279  14.489  0.1726 -0.8681 -0.1168
  786MPD2    H711599   0.593   1.228  14.545 -0.0737 -1.0699 -0.0030
  787MPD2     C11600   0.749   0.871  14.869 -0.3064  1.0155 -0.7678
  787MPD2    C111601   0.746   0.792  14.755  0.0467  0.6399  0.5072
  787MPD2    C211602   0.821   0.672  14.753  0.1281 -0.2102 -0.1145
  787MPD2    C311603   0.911   0.640  14.855  0.0517  0.1120 -0.1907
  787MPD2    C411604   0.907   0.718  14.975  0.1767  0.1220 -0.2424
  787MPD2    C511605   0.816   0.829  14.983  0.5953  0.3012  0.3396
  787MPD2     H11606   0.820   0.610  14.664  2.7432 -0.3667 -0.0555
  787MPD2    H111607   0.962   0.700  15.067  2.5779  2.1354 -1.2674
  787MPD2    H211608   0.693   0.964  14.879 -2.8779 -0.5976 -0.2686
  787MPD2    H311609   0.833   0.887  15.074  1.6024  0.7508 -0.1367
  787MPD2     N11610   0.993   0.532  14.841  0.0769  0.0065 -0.3025
  787MPD2    H511611   0.986   0.477  14.756 -0.1074 -1.7172  0.8282
  787MPD2    N111612   0.675   0.844  14.644 -0.4117 -0.1781 -0.2253
  787MPD2    H711613   0.651   0.943  14.639 -0.2462 -0.1110  0.2466
  788MPD2     C11614   2.641   4.062   1.223  0.2739 -0.4356 -0.0382
  788MPD2    C111615   2.564   4.005   1.121 -0.1533 -0.1066  0.1784
  788MPD2    C211616   2.609   3.999   0.988  0.5555 -0.4959 -0.2523
  788MPD2    C311617   2.739   4.047   0.958  0.5843  0.5683  0.1393
  788MPD2    C411618   2.816   4.092   1.062  0.0913  0.2025 -0.9806
  788MPD2    C511619   2.766   4.111   1.193  0.3280 -0.5650 -0.3724
  788MPD2     H11620   2.547   3.959   0.909 -2.2510  2.6716  0.3041
  788MPD2    H111621   2.916   4.133   1.051 -0.1974  0.7004 -1.7191
  788MPD2    H211622   2.597   4.080   1.320  1.2698  0.9140  0.1589
  788MPD2    H311623   2.831   4.159   1.266 -1.4475  3.7747 -1.6672
  788MPD2     N11624   2.793   4.043   0.827 -0.1064  0.6210  0.0603
  788MPD2    H511625   2.892   4.059   0.810 -0.5214 -0.2974 -3.3628
  788MPD2    N111626   2.433   3.953   1.150  0.6173  0.6252  0.4714
  788MPD2    H711627   2.397   3.905   1.068  2.0416  0.0802  0.1621
  789MPD2     C11628   3.223   4.158  15.784  0.2380 -0.4211 -0.0127
  789MPD2    C111629   3.118   4.070  15.798  0.3396  0.1882  0.9042
  789MPD2    C211630   3.017   4.110  15.884  0.3832 -0.2989 -0.1877
  789MPD2    C311631   3.015   4.230  15.950  0.0577  0.0903 -0.0125
  789MPD2    C411632   3.123   4.315  15.924 -0.8024 -0.0378  0.3692
  789MPD2    C511633   3.230   4.276  15.852 -0.7849  1.0170  0.7828
  789MPD2     H11634   2.935   4.041  15.899  1.3651 -0.8593  2.7139
  789MPD2    H111635   3.138   4.408  15.977 -1.0296 -0.2236  0.7606
  789MPD2    H211636   3.299   4.145  15.708  1.0003  0.3221  0.6203
  789MPD2    H311637   3.311   4.344  15.829  0.7486 -1.3345 -0.8845
  789MPD2     N11638   2.918   4.270  16.047 -0.6556 -0.1601  0.4707
  789MPD2    H511639   2.913   4.367  16.079  1.4442 -1.1898  3.9541
  789MPD2    N111640   3.104   3.940  15.736 -0.6192 -0.4839 -0.0621
  789MPD2    H711641   3.020   3.887  15.759 -1.2626  0.1692 -0.9499
  790MPD2     C11642   3.263   1.556  13.276 -0.0310 -0.8763 -0.0064
  790MPD2    C111643   3.351   1.449  13.280 -0.6048 -0.4214 -0.1371
  790MPD2    C211644   3.333   1.341  13.190  0.1010  0.1027 -0.5817
  790MPD2    C311645   3.249   1.343  13.084  0.5959  0.2851  0.1959
  790MPD2    C411646   3.165   1.457  13.081 -0.2222  0.0039  0.5174
  790MPD2    C511647   3.174   1.550  13.172  0.2661 -0.4292 -0.1288
  790MPD2     H11648   3.398   1.256  13.208 -0.3822 -0.5429 -1.8899
  790MPD2    H111649   3.084   1.468  13.009 -0.2363 -2.3099  0.1719
  790MPD2    H211650   3.258   1.635  13.349 -0.1849  0.0835 -1.0576
  790MPD2    H311651   3.099   1.628  13.163  0.7598  0.2294  1.3871
  790MPD2     N11652   3.247   1.236  12.997  0.4065  0.7363 -0.6541
  790MPD2    H511653   3.302   1.153  13.014 -1.4580 -0.3862 -0.1080
  790MPD2    N111654   3.430   1.443  13.398 -0.1402 -0.3648 -0.0289
  790MPD2    H711655   3.420   1.511  13.472 -0.3284  0.6595 -0.9954
  791MPD2     C11656   2.838   0.527  12.640 -0.1736 -0.5180  0.0029
  791MPD2    C111657   2.805   0.655  12.683 -0.0954  0.3564 -0.5350
  791MPD2    C211658   2.674   0.693  12.692 -0.1648 -0.1799 -0.1631
  791MPD2    C311659   2.573   0.609  12.657 -0.3027  0.6073  0.0613
  791MPD2    C411660   2.604   0.487  12.603 -0.4150  0.2811  0.1627
  791MPD2    C511661   2.737   0.444  12.608  0.3570  0.6625 -0.3519
  791MPD2     H11662   2.649   0.796  12.715  1.7957  0.8062 -2.5340
  791MPD2    H111663   2.529   0.419  12.567 -1.1806  0.7847  0.8068
  791MPD2    H211664   2.940   0.498  12.619  0.3285  1.7825 -0.7921
  791MPD2    H311665   2.771   0.349  12.568  1.1694 -0.3225  2.6847
  791MPD2     N11666   2.436   0.643  12.673 -0.3060 -0.3573  0.1817
  791MPD2    H511667   2.426   0.729  12.726 -0.9435 -0.6587  0.5513
  791MPD2    N111668   2.920   0.732  12.712 -0.0551  0.1269 -0.4807
  791MPD2    H711669   3.011   0.688  12.722 -0.6443 -0.7535  1.0342
  792MPD2     C11670   3.492   1.229  11.065  0.7297 -0.0375  0.0043
  792MPD2    C111671   3.486   1.297  10.942  0.3346 -0.1018  0.4811
  792MPD2    C211672   3.436   1.230  10.831  0.5866  0.6991  0.7657
  792MPD2    C311673   3.386   1.103  10.843 -0.4812 -0.2685 -0.1731
  792MPD2    C411674   3.386   1.036  10.964 -0.2664 -1.3939 -0.5164
  792MPD2    C511675   3.435   1.103  11.078  0.1997 -0.1989  0.0719
  792MPD2     H11676   3.455   1.270  10.732  0.6104 -0.1670  0.4240
  792MPD2    H111677   3.355   0.933  10.973 -0.4807 -1.1424  1.7663
  792MPD2    H211678   3.535   1.279  11.151 -1.0569 -0.0808  0.9136
  792MPD2    H311679   3.449   1.051  11.171 -1.4237  0.1982  0.5423
  792MPD2     N11680   3.354   1.027  10.731  0.1751  0.3307 -0.1245
  792MPD2    H511681   3.356   0.926  10.736 -0.3276  0.1896 -2.7159
  792MPD2    N111682   3.560   1.420  10.935  0.1469  0.8700  0.3438
  792MPD2    H711683   3.621   1.437  11.014  1.1470 -0.3367 -0.1785
  793MPD2     C11684   3.625   1.143   9.707 -0.2906 -0.5191 -1.0330
  793MPD2    C111685   3.586   1.013   9.708 -0.0847 -0.2974  0.3226
  793MPD2    C211686   3.531   0.969   9.826  0.3428  0.3516  0.2088
  793MPD2    C311687   3.523   1.045   9.938  0.7600 -0.5852 -0.5363
  793MPD2    C411688   3.571   1.177   9.923 -0.3384 -0.1280  0.3905
  793MPD2    C511689   3.631   1.220   9.812 -0.7008 -0.2476 -0.5367
  793MPD2     H11690   3.504   0.864   9.829  0.9721  0.1571 -1.0128
  793MPD2    H111691   3.565   1.247  10.006  0.2095  0.5402 -0.1329
  793MPD2    H211692   3.672   1.186   9.619  2.2964 -0.6999  0.2728
  793MPD2    H311693   3.653   1.323   9.786  0.8260 -0.8608 -1.6787
  793MPD2     N11694   3.465   0.989  10.051  0.0204  0.0736  0.3833
  793MPD2    H511695   3.437   0.892  10.042 -0.2311  0.0733  1.1273
  793MPD2    N111696   3.608   0.920   9.602  0.0708 -0.5659 -0.1915
  793MPD2    H711697   3.569   0.828   9.620 -0.0572 -0.4689  0.0251
  794MPD2     C11698   3.779   0.724  17.194  0.2856  0.6659 -0.1979
  794MPD2    C111699   3.744   0.590  17.186 -0.7032 -0.6979 -0.1097
  794MPD2    C211700   3.698   0.539  17.067  0.3485 -0.2676 -0.2123
  794MPD2    C311701   3.657   0.629  16.963 -0.3656 -0.3249  0.3980
  794MPD2    C411702   3.686   0.760  16.978 -0.6078 -0.1802 -0.0485
  794MPD2    C511703   3.747   0.811  17.093 -0.8115  0.4911 -0.4616
  794MPD2     H11704   3.685   0.432  17.055 -0.4019  0.1257 -3.0535
  794MPD2    H111705   3.660   0.824  16.894  0.5751  2.1238  1.3485
  794MPD2    H211706   3.800   0.778  17.286  0.1479 -0.1643  0.3159
  794MPD2    H311707   3.756   0.919  17.102 -0.5060  0.4797 -0.6094
  794MPD2     N11708   3.600   0.574  16.845 -0.6660 -0.1301 -0.3565
  794MPD2    H511709   3.558   0.641  16.781  0.5462  1.4380  0.4884
  794MPD2    N111710   3.768   0.497  17.291 -0.1699  0.0539 -0.0254
  794MPD2    H711711   3.765   0.402  17.256 -1.2796 -0.6844  2.0702
  795MPD2     C11712   1.157   2.723  13.566 -0.2503 -0.2912 -0.5964
  795MPD2    C111713   1.091   2.601  13.547  0.4516 -0.2330  0.1967
  795MPD2    C211714   1.155   2.490  13.591  0.2265 -0.4632 -1.2722
  795MPD2    C311715   1.278   2.496  13.652  0.4799  0.2154 -0.3123
  795MPD2    C411716   1.342   2.613  13.668  0.0688  0.1347  0.2250
  795MPD2    C511717   1.276   2.727  13.633  0.4826 -0.5420  0.4571
  795MPD2     H11718   1.108   2.397  13.562  1.2537 -0.4032 -3.0866
  795MPD2    H111719   1.439   2.621  13.716  0.5972  1.3047 -1.0317
  795MPD2    H211720   1.114   2.820  13.543  0.0301  0.4884  2.1430
  795MPD2    H311721   1.326   2.821  13.651  0.9873 -0.7171 -0.0265
  795MPD2     N11722   1.339   2.367  13.691  0.1162  0.9378  0.3601
  795MPD2    H511723   1.274   2.291  13.709 -1.7020  2.9026  2.1268
  795MPD2    N111724   0.968   2.593  13.482 -0.0029  0.0662 -0.3966
  795MPD2    H711725   0.915   2.507  13.484 -1.8096  1.1492 -1.2534
  796MPD2     C11726   0.714   4.159  15.615  0.3542 -0.3144 -0.3927
  796MPD2    C111727   0.795   4.171  15.728  0.1046 -0.1687 -0.0534
  796MPD2    C211728   0.825   4.293  15.781 -0.0319  0.2662  0.1410
  796MPD2    C311729   0.770   4.409  15.724 -0.3464 -0.0237 -0.4041
  796MPD2    C411730   0.695   4.402  15.609 -0.4047  0.0868  0.4401
  796MPD2    C511731   0.658   4.277  15.560  0.1073 -0.1379  0.9994
  796MPD2     H11732   0.889   4.307  15.867  2.1858  0.0043 -1.4409
  796MPD2    H111733   0.670   4.494  15.558 -0.0823 -0.6125 -0.9840
  796MPD2    H211734   0.680   4.066  15.572 -0.6802 -0.5935  1.0158
  796MPD2    H311735   0.588   4.271  15.477 -0.4746 -1.7754  1.6102
  796MPD2     N11736   0.813   4.534  15.779 -0.1619 -0.0312  0.4665
  796MPD2    H511737   0.880   4.531  15.855  1.5796 -0.6222 -1.1158
  796MPD2    N111738   0.849   4.052  15.787  0.4842 -0.7347 -0.2817
  796MPD2    H711739   0.818   3.961  15.754 -0.2405 -0.8991  0.8509
  797MPD2     C11740   2.101   3.718  16.999 -0.0257  0.3996  0.3677
  797MPD2    C111741   2.104   3.581  16.978  0.3986 -0.1644  0.5963
  797MPD2    C211742   2.004   3.524  16.904  0.5058  0.1714 -0.4337
  797MPD2    C311743   1.899   3.594  16.860 -0.7186  0.1122  0.3975
  797MPD2    C411744   1.902   3.734  16.870 -0.2150  0.3900  0.6805
  797MPD2    C511745   1.999   3.794  16.950  0.1227  1.0179 -0.2421
  797MPD2     H11746   2.023   3.417  16.897 -0.0146  0.0691 -0.2530
  797MPD2    H111747   1.822   3.800  16.839  1.4449  1.5110 -1.2452
  797MPD2    H211748   2.181   3.777  17.043  0.8622  0.3026 -1.0900
  797MPD2    H311749   1.986   3.900  16.968 -1.3791  0.3927  2.3981
  797MPD2     N11750   1.802   3.535  16.778 -0.4811  0.4109  0.3110
  797MPD2    H511751   1.752   3.595  16.713  0.6437  1.5459  0.4790
  797MPD2    N111752   2.199   3.501  17.046 -0.3041  0.1258 -0.0138
  797MPD2    H711753   2.183   3.401  17.049  0.4732  0.0126  0.1825
  798MPD2     C11754   2.145   2.924  16.653  0.4319  0.2482 -1.0184
  798MPD2    C111755   2.074   3.027  16.714 -0.3645  0.1847 -0.1670
  798MPD2    C211756   2.115   3.075  16.839 -0.4120  0.2679  1.1054
  798MPD2    C311757   2.229   3.018  16.906 -0.5577  0.1373 -0.0058
  798MPD2    C411758   2.299   2.919  16.843 -0.7055 -0.0292 -0.2966
  798MPD2    C511759   2.262   2.877  16.717 -0.2049  0.6785  0.6819
  798MPD2     H11760   2.058   3.148  16.894 -1.0967 -0.5556  1.4859
  798MPD2    H111761   2.383   2.872  16.893  0.6020  1.4643 -1.1014
  798MPD2    H211762   2.113   2.887  16.556  0.4500  0.9332 -1.2827
  798MPD2    H311763   2.317   2.799  16.665 -0.0224  0.8305  0.6450
  798MPD2     N11764   2.273   3.083  17.021 -0.4327 -0.4899  0.1567
  798MPD2    H511765   2.221   3.159  17.063 -0.4919  0.4183 -1.5485
  798MPD2    N111766   1.963   3.089  16.665 -1.0537  0.3672 -0.0822
  798MPD2    H711767   1.919   3.159  16.724 -0.4667  0.7473 -0.0969
  799MPD2     C11768   0.928   0.674  14.408 -0.0957  0.2835 -0.0909
  799MPD2    C111769   0.878   0.578  14.323 -0.1033 -0.2426  0.1506
  799MPD2    C211770   0.845   0.612  14.191  0.1928 -0.1028  0.1198
  799MPD2    C311771   0.856   0.739  14.143  0.1311  0.5220  0.8032
  799MPD2    C411772   0.923   0.828  14.221  0.2669 -0.4408  0.8214
  799MPD2    C511773   0.957   0.797  14.354  0.8553  0.2795 -0.3592
  799MPD2     H11774   0.802   0.534  14.130 -2.6628  1.2724  0.3780
  799MPD2    H111775   0.929   0.929  14.183 -2.0981 -0.1331  1.2992
  799MPD2    H211776   0.954   0.654  14.512  1.7481 -2.0241 -0.9821
  799MPD2    H311777   1.008   0.874  14.410 -0.9704  1.0900  0.1786
  799MPD2     N11778   0.808   0.783  14.019  0.4500  0.6086  0.2979
  799MPD2    H511779   0.816   0.879  13.989  1.2082 -0.5212 -3.1048
  799MPD2    N111780   0.865   0.438  14.349  0.4798  0.8018 -0.0003
  799MPD2    H711781   0.825   0.382  14.274  2.6552 -0.0930 -0.4884
  800MPD2     C11782   0.821   1.670  14.208  0.0356 -0.1017  0.1872
  800MPD2    C111783   0.921   1.586  14.166  0.0718 -0.6008 -0.4439
  800MPD2    C211784   0.893   1.457  14.124  0.7743 -0.4638 -0.2595
  800MPD2    C311785   0.761   1.408  14.125 -0.4647 -0.3907  0.3633
  800MPD2    C411786   0.663   1.494  14.172  0.3801  0.0054 -0.6027
  800MPD2    C511787   0.692   1.618  14.216  0.8827 -0.1974  0.1828
  800MPD2     H11788   0.974   1.391  14.096  0.7200 -0.2513 -0.9207
  800MPD2    H111789   0.557   1.471  14.180  0.3235  1.0500  1.4924
  800MPD2    H211790   0.849   1.771  14.236  0.5818 -0.7448  1.9425
  800MPD2    H311791   0.614   1.690  14.239  3.0376  1.6495  1.7172
  800MPD2     N11792   0.721   1.274  14.089 -0.5427  0.2186 -0.3345
  800MPD2    H511793   0.630   1.235  14.111 -1.4046  2.6280  0.3372
  800MPD2    N111794   1.049   1.639  14.157  0.1110 -0.1242 -0.2734
  800MPD2    H711795   1.055   1.739  14.174 -2.1316 -0.1303  0.4919
  801MPD2     C11796   1.413   2.263  14.035 -0.4337  0.0669 -0.4400
  801MPD2    C111797   1.313   2.185  14.085 -0.1884 -0.6899 -0.6802
  801MPD2    C211798   1.197   2.248  14.124  0.1222 -0.2623  0.1815
  801MPD2    C311799   1.196   2.386  14.135 -0.4623  0.4652 -0.1077
  801MPD2    C411800   1.303   2.462  14.086  0.0232 -0.1189  0.4121
  801MPD2    C511801   1.410   2.404  14.032  0.5435 -0.5235 -0.5219
  801MPD2     H11802   1.112   2.193  14.163 -0.7849 -0.0178 -1.4283
  801MPD2    H111803   1.308   2.570  14.094  0.8511 -0.2151  1.2818
  801MPD2    H211804   1.511   2.225  14.009 -0.2769  0.5014 -0.4804
  801MPD2    H311805   1.497   2.458  13.998  0.0053  0.1696 -0.7908
  801MPD2     N11806   1.086   2.462  14.186  0.0935 -0.0584 -0.4521
  801MPD2    H511807   1.107   2.561  14.199 -0.1317  0.0667 -1.0267
  801MPD2    N111808   1.316   2.040  14.080  0.4920  0.5204 -0.7368
  801MPD2    H711809   1.232   1.988  14.099  1.0869  0.3550  1.4914
  802MPD2     C11810   0.168   2.383  17.437 -0.5443  0.3088 -0.0250
  802MPD2    C111811   0.237   2.325  17.543  0.2083 -0.3360  0.3470
  802MPD2    C211812   0.299   2.202  17.523  0.3067  0.3154  0.2936
  802MPD2    C311813   0.286   2.132  17.404 -0.0575  0.3472 -0.5183
  802MPD2    C411814   0.207   2.184  17.302 -0.1047  1.0819  0.1958
  802MPD2    C511815   0.150   2.305  17.330  0.2858 -0.6436 -0.2401
  802MPD2     H11816   0.354   2.156  17.605 -0.4725 -1.1704 -0.0178
  802MPD2    H111817   0.189   2.147  17.202  1.1676 -1.0184  0.7489
  802MPD2    H211818   0.100   2.464  17.459 -1.4369  0.0049 -1.7223
  802MPD2    H311819   0.081   2.340  17.254  1.3836 -0.1181 -0.9960
  802MPD2     N11820   0.356   2.015  17.394  0.5461  0.3563 -0.1749
  802MPD2    H511821   0.405   1.990  17.480  0.8040 -0.3438 -0.5224
  802MPD2    N111822   0.260   2.387  17.670  0.9615 -0.1811 -0.0794
  802MPD2    H711823   0.327   2.334   0.024  0.0240 -1.8503 -0.5391
  803MPD2     C11824   1.161   0.724  11.769  0.5529  0.1434 -0.6230
  803MPD2    C111825   1.227   0.767  11.879  0.2822 -0.1411  0.7510
  803MPD2    C211826   1.198   0.715  12.000 -0.0070  0.2068 -0.0662
  803MPD2    C311827   1.090   0.626  12.018  0.4812 -0.0165  1.0239
  803MPD2    C411828   1.026   0.586  11.908 -0.3504 -0.5409 -0.0144
  803MPD2    C511829   1.063   0.632  11.784  0.5366 -0.1748 -0.5470
  803MPD2     H11830   1.262   0.749  12.080 -0.3449 -0.5251  0.5244
  803MPD2    H111831   0.939   0.521  11.912 -0.6126 -0.0521  2.1296
  803MPD2    H211832   1.177   0.752  11.665 -0.3125 -1.3881 -1.1867
  803MPD2    H311833   1.001   0.602  11.700 -2.0986  1.0909  0.9518
  803MPD2     N11834   1.054   0.574  12.143 -0.4525 -0.0476  0.7047
  803MPD2    H511835   0.972   0.515  12.146  0.4923 -1.4199 -0.3963
  803MPD2    N111836   1.331   0.858  11.879 -0.0378 -0.5552 -0.2053
  803MPD2    H711837   1.372   0.883  11.969  0.9351  0.2352 -0.8689
  804MPD2     C11838   1.184   1.972  16.992  0.5716 -0.1662 -0.0731
  804MPD2    C111839   1.243   1.944  17.116 -0.1038 -0.6290 -0.1889
  804MPD2    C211840   1.330   2.036  17.169 -0.4080 -0.5478  0.4244
  804MPD2    C311841   1.361   2.158  17.103  0.1194  0.5645  0.2308
  804MPD2    C411842   1.303   2.184  16.980  0.3606  0.2384  0.1734
  804MPD2    C511843   1.210   2.096  16.931 -0.2425  0.0508  0.1078
  804MPD2     H11844   1.378   2.023  17.265  1.9676  0.3031 -0.6530
  804MPD2    H111845   1.318   2.279  16.930 -0.0747  0.3876  0.3194
  804MPD2    H211846   1.106   1.905  16.956  0.3953  0.1261 -0.2311
  804MPD2    H311847   1.152   2.122  16.843  0.0978  1.2760  0.2440
  804MPD2     N11848   1.442   2.257  17.166 -0.3798 -0.7120  0.0257
  804MPD2    H511849   1.476   2.249  17.261  1.6640  0.4703 -0.6062
  804MPD2    N111850   1.216   1.830  17.200  0.2468 -0.5596  0.8252
  804MPD2    H711851   1.251   1.826  17.295  0.3894 -1.0128  0.7552
  805MPD2     C11852   0.554   0.689  15.348 -0.0325 -0.1260  0.2006
  805MPD2    C111853   0.646   0.622  15.273 -0.6714 -0.2833  0.1137
  805MPD2    C211854   0.775   0.598  15.334  0.2385  0.2850  0.3328
  805MPD2    C311855   0.806   0.641  15.458 -0.3878  0.0352 -0.2985
  805MPD2    C411856   0.710   0.698  15.538  0.0610  0.4897 -0.5002
  805MPD2    C511857   0.587   0.725  15.474  0.1821  0.2364 -0.0349
  805MPD2     H11858   0.858   0.557  15.279 -0.1774 -0.9798  0.6619
  805MPD2    H111859   0.722   0.728  15.641 -1.8975  0.2562 -0.1978
  805MPD2    H211860   0.456   0.713  15.308 -0.3716 -2.0472 -0.0992
  805MPD2    H311861   0.505   0.764  15.533 -1.4679  0.1545 -2.3185
  805MPD2     N11862   0.936   0.625  15.501  0.0234  0.7369  0.1852
  805MPD2    H511863   1.001   0.598  15.429 -0.2554  2.2529 -0.6308
  805MPD2    N111864   0.619   0.587  15.134 -0.3665 -0.3512 -0.2789
  805MPD2    H711865   0.684   0.527  15.083  0.5413  0.1726  0.2718
  806MPD2     C11866   2.475   0.288   1.120 -0.7225  0.3594 -0.3753
  806MPD2    C111867   2.527   0.203   1.031 -0.0419 -0.0902  0.1305
  806MPD2    C211868   2.547   0.243   0.902 -0.1621  0.2732 -0.1949
  806MPD2    C311869   2.499   0.358   0.857 -0.5292 -0.3356  0.0824
  806MPD2    C411870   2.432   0.447   0.945 -0.0424  0.4085  1.2620
  806MPD2    C511871   2.420   0.407   1.076 -0.3756  0.0006  0.3651
  806MPD2     H11872   2.586   0.166   0.836  0.7477  1.0393 -0.5571
  806MPD2    H111873   2.376   0.534   0.914 -1.2158 -0.6962  0.2569
  806MPD2    H211874   2.470   0.249   1.221 -4.6475  1.9326  0.0604
  806MPD2    H311875   2.353   0.468   1.136 -0.5398  1.4405 -1.3072
  806MPD2     N11876   2.499   0.386   0.720  0.1265  0.9745  0.0062
  806MPD2    H511877   2.547   0.315   0.665 -1.3070 -0.8120  1.0806
  806MPD2    N111878   2.561   0.068   1.061  0.1138 -0.0696  0.7100
  806MPD2    H711879   2.596   0.016   0.982 -0.5572  1.3455 -0.5195
  807MPD2     C11880   2.076   4.212   1.009  0.3375  0.8481 -0.3695
  807MPD2    C111881   2.126   4.240   1.136  0.0600 -0.1139 -0.0781
  807MPD2    C211882   2.054   4.205   1.247 -0.0250 -0.2257  0.2512
  807MPD2    C311883   1.944   4.114   1.236  0.7477 -0.1052 -0.1516
  807MPD2    C411884   1.919   4.062   1.110  0.2808  0.3919  0.0724
  807MPD2    C511885   1.978   4.115   0.994  0.1140  0.0329  0.2794
  807MPD2     H11886   2.083   4.230   1.348 -2.0585  3.9376 -0.2096
  807MPD2    H111887   1.841   3.990   1.088 -0.0296  1.3110 -1.8026
  807MPD2    H211888   2.117   4.242   0.914 -1.5031  2.3150 -0.6985
  807MPD2    H311889   1.957   4.065   0.900  2.6149 -0.2721 -0.1206
  807MPD2     N11890   1.866   4.078   1.349 -0.5126  0.2065 -0.0631
  807MPD2    H511891   1.882   4.127   1.436  0.4812 -0.2300 -0.0008
  807MPD2    N111892   2.249   4.297   1.159 -0.0131  0.4879  0.0584
  807MPD2    H711893   2.271   4.325   1.254 -0.1202  2.9489 -0.6521
  808MPD2     C11894   0.740   1.666   8.564 -0.3495 -0.2264 -0.0239
  808MPD2    C111895   0.823   1.725   8.651  0.0296  0.1223  0.1604
  808MPD2    C211896   0.866   1.853   8.609 -0.4355  0.2310 -0.5009
  808MPD2    C311897   0.817   1.915   8.501  0.2139  0.1782  0.3618
  808MPD2    C411898   0.717   1.864   8.428 -0.2486 -0.2570  0.1753
  808MPD2    C511899   0.676   1.738   8.466 -0.2995 -0.0998 -0.3460
  808MPD2     H11900   0.943   1.899   8.669 -1.5383  0.3262  0.8577
  808MPD2    H111901   0.677   1.910   8.339 -1.8324 -1.7338  0.1224
  808MPD2    H211902   0.715   1.561   8.575 -0.3404 -0.1467  0.7254
  808MPD2    H311903   0.608   1.685   8.400  0.6243 -1.0493 -0.5498
  808MPD2     N11904   0.865   2.041   8.457  0.1217 -0.2778  0.1795
  808MPD2    H511905   0.842   2.070   8.363 -0.4758  0.5796  0.5948
  808MPD2    N111906   0.886   1.658   8.757 -0.1970  0.0919  0.9301
  808MPD2    H711907   0.962   1.712   8.797  0.6557 -1.3161  1.2099
  809MPD2     C11908   1.356   1.526   8.084 -0.2463 -0.3972 -0.1985
  809MPD2    C111909   1.367   1.560   8.219  0.0168 -0.2755 -0.0648
  809MPD2    C211910   1.344   1.690   8.255  0.0361  0.6233 -0.0559
  809MPD2    C311911   1.295   1.777   8.162 -0.2654  0.2353  0.0521
  809MPD2    C411912   1.283   1.739   8.028  0.2334  0.5933  0.6709
  809MPD2    C511913   1.319   1.616   7.986 -0.0999  0.0037 -0.5679
  809MPD2     H11914   1.360   1.720   8.358 -1.9614  1.4764  0.0056
  809MPD2    H111915   1.243   1.812   7.958 -2.2522  0.2678  1.7376
  809MPD2    H211916   1.372   1.423   8.054  3.5291  0.3831 -0.8774
  809MPD2    H311917   1.307   1.585   7.883 -0.9834  0.7334 -0.6814
  809MPD2     N11918   1.255   1.904   8.193  0.6550  0.4277 -0.1766
  809MPD2    H511919   1.189   1.947   8.129 -0.2711 -1.1484 -0.2965
  809MPD2    N111920   1.410   1.468   8.319  0.0405 -0.2555 -0.1107
  809MPD2    H711921   1.415   1.498   8.416 -1.8179 -2.2385  0.5934
  810MPD2     C11922   1.299   1.199   9.690 -0.7373  0.6529  0.4766
  810MPD2    C111923   1.214   1.145   9.783 -0.2053 -0.7800 -0.3503
  810MPD2    C211924   1.210   1.193   9.912  0.2199 -0.5673  0.1921
  810MPD2    C311925   1.290   1.302   9.940  0.6692  0.2194  0.3632
  810MPD2    C411926   1.381   1.354   9.852  0.4971 -0.4572 -0.9380
  810MPD2    C511927   1.384   1.304   9.723  0.6291 -0.1597 -0.8347
  810MPD2     H11928   1.129   1.161   9.976 -1.5241 -0.2834 -1.8479
  810MPD2    H111929   1.451   1.431   9.884  0.0685 -1.2398  1.8580
  810MPD2    H211930   1.293   1.164   9.587 -0.2251 -1.9832  1.3466
  810MPD2    H311931   1.461   1.335   9.654  2.3248 -1.1194  0.6356
  810MPD2     N11932   1.282   1.372  10.068  0.1330 -0.0626 -1.1929
  810MPD2    H511933   1.343   1.451  10.086 -1.1310  0.9393 -1.3581
  810MPD2    N111934   1.120   1.049   9.739 -0.9500  0.9963  0.4213
  810MPD2    H711935   1.110   1.040   9.639  1.2146 -0.1085  0.3011
  811MPD2     C11936   0.359   1.038   9.353 -0.2796 -0.1409  0.5295
  811MPD2    C111937   0.479   1.086   9.407 -0.0784  0.3065 -0.3391
  811MPD2    C211938   0.500   1.221   9.382  0.6369  0.2330 -0.3354
  811MPD2    C311939   0.403   1.302   9.326 -0.2852 -0.3488 -0.2558
  811MPD2    C411940   0.296   1.249   9.268 -0.4644 -0.1760 -0.1192
  811MPD2    C511941   0.272   1.114   9.274  0.1174  0.4881  0.4482
  811MPD2     H11942   0.586   1.275   9.419  0.0789 -0.4499  1.9447
  811MPD2    H111943   0.216   1.302   9.218  0.0292 -1.3302 -2.1299
  811MPD2    H211944   0.329   0.934   9.360  0.9160 -0.3670  2.4884
  811MPD2    H311945   0.182   1.068   9.235  0.2997  0.1309  0.4504
  811MPD2     N11946   0.425   1.444   9.329 -0.3132  0.3704  0.4126
  811MPD2    H511947   0.513   1.474   9.371  0.4282 -1.7459  0.3673
  811MPD2    N111948   0.566   1.007   9.483 -0.1004 -0.1840  0.1396
  811MPD2    H711949   0.541   0.911   9.501 -0.1549  0.0998  1.5699
  812MPD2     C11950   4.223   1.012  12.063  0.2015  0.6830 -0.4214
  812MPD2    C111951   4.094   0.993  12.095  0.0243 -0.1105 -0.4059
  812MPD2    C211952   4.052   0.891  12.176  0.1325 -0.0003  0.5524
  812MPD2    C311953   4.152   0.810  12.241 -0.4316  0.0952  0.1771
  812MPD2    C411954   4.280   0.823  12.197 -0.0337  0.7302  0.1551
  812MPD2    C511955   4.311   0.922  12.112  0.2779 -0.2858  0.4401
  812MPD2     H11956   3.947   0.873  12.199 -0.0938 -0.0257 -0.5319
  812MPD2    H111957   4.370   0.777  12.236  0.6892  1.0328 -1.1398
  812MPD2    H211958   4.252   1.094  11.999  1.3492 -0.0475 -0.8278
  812MPD2    H311959   4.414   0.930  12.081 -1.3165  5.3902 -3.2898
  812MPD2     N11960   4.110   0.715  12.334 -0.1774  0.0425 -0.3384
  812MPD2    H511961   4.012   0.701  12.356 -0.1722  1.4802  0.5823
  812MPD2    N111962   4.007   1.099  12.060 -0.0860 -0.1773 -0.0361
  812MPD2    H711963   4.049   1.167  11.998  0.5967  2.4969  3.3033
  813MPD2     C11964   3.211   2.485  12.572  0.8715 -0.0364 -0.3438
  813MPD2    C111965   3.223   2.625  12.562  1.0269 -0.1681 -1.3558
  813MPD2    C211966   3.176   2.704  12.666 -0.7287 -0.2086  0.6170
  813MPD2    C311967   3.115   2.634  12.772  0.6811 -0.2408  0.1181
  813MPD2    C411968   3.105   2.494  12.777  0.0225  0.0219 -0.1418
  813MPD2    C511969   3.159   2.423  12.674 -0.3415  0.3866  0.4946
  813MPD2     H11970   3.189   2.811  12.664 -0.0096 -0.3115 -0.0832
  813MPD2    H111971   3.050   2.440  12.854 -0.3204  1.1792  0.4320
  813MPD2    H211972   3.245   2.420  12.492 -1.7436 -0.5503 -1.0334
  813MPD2    H311973   3.155   2.316  12.684 -1.1044  0.4353  0.7373
  813MPD2     N11974   3.071   2.718  12.879  0.0630 -0.2138  0.1693
  813MPD2    H511975   3.096   2.815  12.864  0.0660 -0.1398  0.6706
  813MPD2    N111976   3.277   2.665  12.436 -0.2253  0.1095 -0.3724
  813MPD2    H711977   3.295   2.588  12.373 -1.4360  0.2172 -0.8592
  814MPD2     C11978   3.742   4.347  12.066  0.1667  0.3308 -0.0188
  814MPD2    C111979   3.811   4.385  11.957  0.2786  0.2958  1.0202
  814MPD2    C211980   3.877   4.502  11.969 -0.6229  0.5362 -0.4509
  814MPD2    C311981   3.889   4.581  12.086  0.2445 -0.0162 -0.4592
  814MPD2    C411982   3.817   4.534  12.191  0.0402  0.1796  0.3673
  814MPD2    C511983   3.741   4.423  12.183  0.8395 -0.1686 -0.7499
  814MPD2     H11984   3.931   4.542  11.884 -1.2934  1.1505 -0.5817
  814MPD2    H111985   3.820   4.588  12.285  3.5369  1.1371 -0.3096
  814MPD2    H211986   3.664   4.272  12.068  0.8492 -0.3907 -0.8812
  814MPD2    H311987   3.694   4.386  12.273  0.5103  0.1871 -0.7710
  814MPD2     N11988   3.971   4.697  12.104 -0.2056 -0.2254  0.2645
  814MPD2    H511989   3.983   0.010  12.197 -1.5579 -0.9840  0.7497
  814MPD2    N111990   3.798   4.318  11.836 -0.6223 -0.5378  0.1576
  814MPD2    H711991   3.825   4.369  11.753 -0.0854 -1.2277 -0.0845
  815MPD2     C11992   4.024   2.982  11.393 -0.2922  1.0905 -0.7905
  815MPD2    C111993   4.050   2.872  11.472  0.0607 -0.5290 -0.5371
  815MPD2    C211994   3.955   2.811  11.551  0.5631  0.0803  0.7587
  815MPD2    C311995   3.832   2.865  11.565 -0.7266 -0.1549  0.6345
  815MPD2    C411996   3.806   2.984  11.491  0.3110 -0.0410  0.0234
  815MPD2    C511997   3.906   3.043  11.417 -0.5028 -0.3430 -0.4955
  815MPD2     H11998   3.980   2.723  11.608  1.7818 -0.6897 -0.9615
  815MPD2    H111999   3.714   3.042  11.494  0.6519  0.5785 -1.1903
  815MPD2    H212000   4.094   3.034  11.328  0.5452 -0.2960 -0.9767
  815MPD2    H312001   3.887   3.138  11.367  2.4717  1.1553  1.1947
  815MPD2     N12002   3.744   2.787  11.645  0.2778  0.4907  0.7274
  815MPD2    H512003   3.784   2.701  11.680 -3.6637 -2.3112 -1.5552
  815MPD2    N112004   4.183   2.811  11.459 -0.3565 -0.0080  0.4479
  815MPD2    H712005   4.244   2.871  11.404 -0.1637 -1.2042 -0.6573
  816MPD2     C12006   0.141   1.851  17.635  0.1236  0.1234 -0.0306
  816MPD2    C112007   0.053   1.865  17.527  1.0324  0.1059 -0.6448
  816MPD2    C212008   0.062   1.770  17.426  0.0219 -0.0895 -0.3101
  816MPD2    C312009   0.161   1.672  17.424 -0.6033  0.1789 -0.2380
  816MPD2    C412010   0.253   1.672  17.526 -0.1334  0.9612  0.6297
  816MPD2    C512011   0.249   1.763  17.628 -0.5445  1.0143 -0.2936
  816MPD2     H12012   4.719   1.774  17.342 -0.3029  0.8382 -0.0009
  816MPD2    H112013   0.344   1.615  17.517 -1.0379  0.0610 -2.7457
  816MPD2    H212014   0.124   1.917   0.018  0.8248 -1.1640  1.1360
  816MPD2    H312015   0.325   1.749   0.002 -0.7735  0.5669 -0.1426
  816MPD2     N12016   0.163   1.585  17.315 -0.1804 -0.1572  0.8286
  816MPD2    H512017   0.096   1.602  17.240 -0.9048  1.3304  1.8245
  816MPD2    N112018   4.681   1.967  17.533  0.3001 -0.2739  0.4307
  816MPD2    H712019   4.674   2.013  17.623  2.7223 -0.6631  0.8304
  817MPD2     C12020   3.984   3.416   9.895  0.7888 -0.8103 -0.0509
  817MPD2    C112021   4.041   3.427   9.772 -0.7895  0.1345 -0.1561
  817MPD2    C212022   4.038   3.551   9.705  0.1744 -0.4068 -0.2859
  817MPD2    C312023   3.985   3.659   9.764 -0.8135  0.0767  0.4079
  817MPD2    C412024   3.923   3.650   9.889 -0.5469 -1.0919 -0.0279
  817MPD2    C512025   3.923   3.525   9.953  0.6756  0.2433  0.1632
  817MPD2     H12026   4.076   3.547   9.604  0.3143  0.1088 -0.2513
  817MPD2    H112027   3.875   3.729   9.945  1.8691  1.2066 -1.2332
  817MPD2    H212028   3.974   3.318   9.941  1.0777 -0.4796  0.7082
  817MPD2    H312029   3.870   3.519  10.047  0.2214  2.2813  0.0529
  817MPD2     N12030   3.990   3.785   9.698 -0.2060  0.0170  0.3469
  817MPD2    H512031   4.040   3.786   9.610  0.6836  1.2596  0.8728
  817MPD2    N112032   4.081   3.318   9.701 -0.7593 -0.3233  0.2582
  817MPD2    H712033   4.101   3.322   9.601  0.6236 -3.4764  0.3959
  818MPD2     C12034   1.965   3.076  10.340 -0.5808 -0.4232 -0.4840
  818MPD2    C112035   2.037   3.067  10.223 -0.0544  0.2742  0.0806
  818MPD2    C212036   1.987   2.991  10.117  0.2047 -0.7856 -0.6854
  818MPD2    C312037   1.866   2.921  10.120  0.3755 -0.4252 -0.0189
  818MPD2    C412038   1.804   2.924  10.245  0.1059 -0.9731 -0.1593
  818MPD2    C512039   1.853   3.003  10.349  0.1264 -0.6046 -0.6906
  818MPD2     H12040   2.046   2.988  10.026  1.7148  1.6664  0.2127
  818MPD2    H112041   1.719   2.860  10.268  0.0633  0.1563  2.8234
  818MPD2    H212042   1.993   3.142  10.421  3.0781 -1.3692 -0.9535
  818MPD2    H312043   1.807   2.990  10.446  0.0757 -1.3733 -0.8167
  818MPD2     N12044   1.822   2.852  10.001  0.3242 -0.2822  0.5373
  818MPD2    H512045   1.762   2.770  10.009 -0.8378  0.7486  2.3419
  818MPD2    N112046   2.168   3.123  10.202  0.1258 -0.4011 -0.0657
  818MPD2    H712047   2.220   3.098  10.119  2.5125  0.9334  1.0273
  819MPD2     C12048   1.089   0.146  15.539 -0.1336  0.0638 -1.1291
  819MPD2    C112049   1.114   0.013  15.535 -0.3775 -0.6054 -0.0782
  819MPD2    C212050   1.242   4.692  15.568 -0.2619  0.5660 -0.2021
  819MPD2    C312051   1.338   0.061  15.597  0.1127  0.1103 -0.5338
  819MPD2    C412052   1.316   0.195  15.587 -0.5571  0.3103  0.3614
  819MPD2    C512053   1.192   0.237  15.547 -1.0845  0.2719  0.7862
  819MPD2     H12054   1.269   4.589  15.583  0.3034  0.3899 -2.4359
  819MPD2    H112055   1.394   0.270  15.595  0.2609 -0.2737 -2.2019
  819MPD2    H212056   0.989   0.178  15.512  0.4309  0.8064 -2.3210
  819MPD2    H312057   1.176   0.343  15.532 -2.1995  0.0232  0.1717
  819MPD2     N12058   1.460   0.002  15.638 -0.3644  0.2370 -0.0942
  819MPD2    H512059   1.474   4.626  15.635 -0.0544  0.3342 -2.2614
  819MPD2    N112060   1.009   4.655  15.494  0.5227 -0.6927 -0.4646
  819MPD2    H712061   0.928   4.703  15.455 -1.0805 -2.1022  1.1385
  820MPD2     C12062   0.434   4.675  14.713  0.2832  0.6262  0.4408
  820MPD2    C112063   0.530   0.033  14.774  0.5032  0.6747 -0.0694
  820MPD2    C212064   0.614   4.707  14.856 -0.0327 -0.3937 -0.5874
  820MPD2    C312065   0.596   4.577  14.903 -0.3466  0.1198 -0.5547
  820MPD2    C412066   0.500   4.495  14.850  0.3290 -0.5137  0.1621
  820MPD2    C512067   0.416   4.541  14.755  0.1248  0.7927  0.1024
  820MPD2     H12068   0.708   0.030  14.882  0.5320 -1.1089 -1.3047
  820MPD2    H112069   0.498   4.393  14.886  2.8143  0.0343  1.8751
  820MPD2    H212070   0.365   4.718  14.641  0.1957  0.7254  0.5851
  820MPD2    H312071   0.346   4.475  14.706  1.6826  0.2066 -1.3430
  820MPD2     N12072   0.682   4.519  15.006 -0.2361  0.2741  0.1698
  820MPD2    H512073   0.638   4.441  15.054  3.3468 -0.3642  2.3887
  820MPD2    N112074   0.529   0.165  14.729  0.0163  0.2108 -0.1362
  820MPD2    H712075   0.445   0.193  14.679  0.1562 -2.0547 -1.6370
  821MPD2     C12076   0.754   1.496  13.333 -0.2034  0.1607  0.5530
  821MPD2    C112077   0.874   1.531  13.390  0.1245 -0.5392 -0.1632
  821MPD2    C212078   0.959   1.622  13.328  0.1058 -0.0527  0.3955
  821MPD2    C312079   0.919   1.681  13.205  0.2030 -0.6817 -0.0822
  821MPD2    C412080   0.805   1.638  13.144 -0.2430  0.6435 -0.2384
  821MPD2    C512081   0.720   1.549  13.208  0.0824  0.1608 -0.9733
  821MPD2     H12082   1.041   1.655  13.391 -2.7297  0.8304  3.6158
  821MPD2    H112083   0.764   1.692  13.059  1.0765  0.9971 -0.6570
  821MPD2    H212084   0.692   1.420  13.378 -0.0939  0.6388  1.4973
  821MPD2    H312085   0.627   1.516  13.164  0.2416  1.1682 -2.0550
  821MPD2     N12086   0.988   1.781  13.134  0.2276 -0.1298  0.5370
  821MPD2    H512087   0.940   1.829  13.058  0.1538  0.6812  1.0905
  821MPD2    N112088   0.918   1.477  13.510  0.0248  0.7553 -0.4857
  821MPD2    H712089   1.015   1.489  13.536 -0.4321  0.5727  1.3444
  822MPD2     C12090   1.772   1.486  15.600  0.0977 -0.0861 -0.2881
  822MPD2    C112091   1.812   1.425  15.714  0.0776  0.6374  0.4501
  822MPD2    C212092   1.786   1.482  15.840  0.8458 -0.0444 -0.3670
  822MPD2    C312093   1.711   1.600  15.855  0.2623 -0.2409 -0.0545
  822MPD2    C412094   1.666   1.655  15.738  0.4870  0.4496  0.4378
  822MPD2    C512095   1.700   1.603  15.610  0.2226 -0.0954 -0.4270
  822MPD2     H12096   1.834   1.442  15.928  2.9444  1.3922 -0.8657
  822MPD2    H112097   1.621   1.753  15.732 -1.4988 -0.5183 -0.6004
  822MPD2    H212098   1.786   1.440  15.503 -1.7049 -0.8164 -0.1999
  822MPD2    H312099   1.662   1.655  15.523 -2.3624  0.6307  1.1381
  822MPD2     N12100   1.697   1.656  15.983 -0.2631 -0.4226 -0.1187
  822MPD2    H512101   1.721   1.602  16.066  0.0939 -0.1589 -0.0467
  822MPD2    N112102   1.885   1.309  15.713  0.3963  0.2348 -0.0134
  822MPD2    H712103   1.933   1.289  15.800  0.5110 -2.4605 -0.6995
  823MPD2     C12104   1.432   1.721  16.815  0.2903  0.4428 -0.0658
  823MPD2    C112105   1.512   1.666  16.717 -1.1206 -0.6507  0.2627
  823MPD2    C212106   1.600   1.555  16.747  0.0917  0.5694  0.2175
  823MPD2    C312107   1.615   1.508  16.878  0.0349  0.1455 -0.0693
  823MPD2    C412108   1.543   1.570  16.970 -0.5880 -0.5363  0.7262
  823MPD2    C512109   1.452   1.675  16.941 -0.0693  0.1073 -0.1267
  823MPD2     H12110   1.657   1.511  16.666 -1.9958  0.9873 -1.4724
  823MPD2    H112111   1.547   1.548  17.076  2.1435  1.5931  1.0461
  823MPD2    H212112   1.373   1.812  16.804 -1.0071 -0.4360 -0.3674
  823MPD2    H312113   1.417   1.734  17.024  0.6747  0.8030 -0.3053
  823MPD2     N12114   1.707   1.412  16.924  0.1245 -0.3251 -0.6902
  823MPD2    H512115   1.715   1.399  17.024  2.1098  0.6536 -0.7178
  823MPD2    N112116   1.515   1.737  16.590 -0.1218  0.4894  0.0208
  823MPD2    H712117   1.474   1.829  16.584  0.8514  0.8804 -0.6115
  824MPD2     C12118   2.142   0.478  15.594 -0.3927  0.3155 -0.9175
  824MPD2    C112119   2.230   0.573  15.649  0.1430  0.1729 -0.8951
  824MPD2    C212120   2.346   0.532  15.703  1.3761 -0.2461  0.3158
  824MPD2    C312121   2.385   0.395  15.701 -0.3288 -0.2031 -0.3217
  824MPD2    C412122   2.298   0.305  15.642  0.1198  0.5154  0.2036
  824MPD2    C512123   2.179   0.348  15.591  0.1636 -0.5525  0.0217
  824MPD2     H12124   2.396   0.607  15.764 -0.7928  1.1616  0.3493
  824MPD2    H112125   2.329   0.203  15.623  0.5136  0.7019 -0.1478
  824MPD2    H212126   2.048   0.494  15.542  0.2319  0.9221 -1.8599
  824MPD2    H312127   2.113   0.273  15.547  0.3100 -0.5199 -0.2532
  824MPD2     N12128   2.509   0.371  15.765 -1.0420  0.1533  0.1672
  824MPD2    H512129   2.547   0.449  15.817 -0.8615  0.3756 -0.2950
  824MPD2    N112130   2.202   0.712  15.657 -0.0448 -0.1479  0.3579
  824MPD2    H712131   2.266   0.769  15.711  0.1037  0.0843 -0.0571
  825MPD2     C12132   3.174   0.698  16.100  0.6221  0.4309  0.3379
  825MPD2    C112133   3.092   0.665  15.997 -0.4252 -0.0424  0.1265
  825MPD2    C212134   3.064   0.765  15.906 -0.2736  0.5143  0.6937
  825MPD2    C312135   3.122   0.892  15.905  0.2834  0.2568 -0.6156
  825MPD2    C412136   3.211   0.915  16.004 -0.1451 -0.2293  0.3623
  825MPD2    C512137   3.227   0.825  16.102 -0.3890  0.0577  0.9025
  825MPD2     H12138   2.990   0.747  15.829  1.1057 -2.1184 -0.0054
  825MPD2    H112139   3.291   0.988  15.995  1.4817 -1.6763  3.0340
  825MPD2    H212140   3.206   0.634  16.181  0.8173 -1.6904 -1.4215
  825MPD2    H312141   3.302   0.840  16.179  0.4562 -1.1642  0.3115
  825MPD2     N12142   3.112   0.987  15.798 -0.7670 -0.3044 -0.1036
  825MPD2    H512143   3.155   1.079  15.808  0.4054 -0.6728 -1.7602
  825MPD2    N112144   3.030   0.535  15.994  0.5403 -0.5234 -0.1937
  825MPD2    H712145   3.061   0.471  16.065  1.5122  1.5923  1.2846
  826MPD2     C12146   2.839   0.853  13.514 -0.6661 -0.3500  0.2826
  826MPD2    C112147   2.761   0.880  13.405 -0.5147 -0.3425 -0.3278
  826MPD2    C212148   2.687   0.994  13.411 -0.2747 -0.6369 -0.2462
  826MPD2    C312149   2.690   1.085  13.514  0.0328  0.3655  0.6417
  826MPD2    C412150   2.770   1.058  13.622 -0.8076 -0.3887 -0.2778
  826MPD2    C512151   2.842   0.943  13.624 -0.7181  0.4628 -0.2717
  826MPD2     H12152   2.631   1.031  13.326 -0.2507 -0.1491 -0.0517
  826MPD2    H112153   2.775   1.129  13.703 -0.4812  1.1864 -1.6893
  826MPD2    H212154   2.905   0.767  13.512 -1.2774 -0.8120  0.0460
  826MPD2    H312155   2.909   0.932  13.709 -2.5505 -3.2492  0.6737
  826MPD2     N12156   2.631   1.216  13.510  0.1022  0.2408 -0.5813
  826MPD2    H512157   2.630   1.270  13.596  1.0091  0.0396 -0.4528
  826MPD2    N112158   2.754   0.783  13.300 -0.5430 -0.0034  0.3017
  826MPD2    H712159   2.801   0.696  13.323 -1.0142 -0.3098  0.1127
  827MPD2     C12160   3.342   2.395   9.645  0.2306 -0.3371  0.7962
  827MPD2    C112161   3.320   2.284   9.724  0.2102 -0.3322 -0.1386
  827MPD2    C212162   3.277   2.168   9.667  0.1544  1.0953  0.1101
  827MPD2    C312163   3.249   2.163   9.531  0.1137  0.2778 -0.1443
  827MPD2    C412164   3.266   2.276   9.451  0.2613  0.7152  0.6050
  827MPD2    C512165   3.312   2.393   9.514 -0.2915  0.3096  0.5436
  827MPD2     H12166   3.280   2.076   9.723  3.6144  1.0716 -0.1462
  827MPD2    H112167   3.239   2.280   9.346  1.1331 -1.0625  0.3323
  827MPD2    H212168   3.385   2.492   9.668  0.0592  0.1086 -0.7265
  827MPD2    H312169   3.321   2.482   9.453  0.5489 -0.9738 -1.1839
  827MPD2     N12170   3.210   2.035   9.480  0.1986  0.1659 -0.2256
  827MPD2    H512171   3.204   1.957   9.544  1.1343  0.2271 -0.0692
  827MPD2    N112172   3.357   2.292   9.859 -0.2988  0.3227  0.4925
  827MPD2    H712173   3.409   2.377   9.881 -0.7211  0.8387 -0.5158
  828MPD2     C12174   1.217   1.648  12.843  0.4723 -0.6581  0.2465
  828MPD2    C112175   1.237   1.674  12.709  0.6603  0.2623 -0.2305
  828MPD2    C212176   1.359   1.638  12.652  0.1678  0.6726  0.0620
  828MPD2    C312177   1.456   1.569  12.719  0.0808 -0.2737 -0.1481
  828MPD2    C412178   1.434   1.555  12.851  0.5988 -0.4748  0.0414
  828MPD2    C512179   1.318   1.592  12.915 -0.4041  0.0258 -0.0118
  828MPD2     H12180   1.360   1.658  12.546 -0.6665 -0.2592 -0.1200
  828MPD2    H112181   1.487   1.482  12.912  1.3459 -0.0621 -0.1273
  828MPD2    H212182   1.121   1.662  12.892 -0.1831  0.7336 -1.4191
  828MPD2    H312183   1.309   1.568  13.020 -1.9566 -0.6763 -0.3035
  828MPD2     N12184   1.574   1.514  12.661  0.4189 -0.3109  0.6407
  828MPD2    H512185   1.633   1.458  12.722 -0.6266 -0.1867  1.7882
  828MPD2    N112186   1.141   1.735  12.626 -0.5180  0.4883 -0.4865
  828MPD2    H712187   1.174   1.755  12.532 -0.9087  2.2025 -0.2526
  829MPD2     C12188   1.110   1.724  11.751  0.3925 -0.9314 -0.1790
  829MPD2    C112189   0.982   1.755  11.776 -0.0905 -1.1027  0.3625
  829MPD2    C212190   0.947   1.783  11.907  0.5203  0.3926 -0.7975
  829MPD2    C312191   1.034   1.769  12.015  0.2592  0.5743  0.1724
  829MPD2    C412192   1.165   1.732  11.980 -0.5647 -0.4650  0.4666
  829MPD2    C512193   1.200   1.705  11.853  0.2619  0.3995 -0.0197
  829MPD2     H12194   0.845   1.820  11.918  0.1032 -1.0402  0.1631
  829MPD2    H112195   1.237   1.721  12.060 -0.4870  2.1586  0.7839
  829MPD2    H212196   1.136   1.713  11.646  2.6531 -0.6614  0.3441
  829MPD2    H312197   1.305   1.685  11.836  0.4247  0.5299  0.8397
  829MPD2     N12198   0.997   1.794  12.146  0.2793  0.1088 -0.0097
  829MPD2    H512199   1.072   1.799  12.215  0.8936 -3.7577 -0.3880
  829MPD2    N112200   0.894   1.773  11.665  1.0963 -0.2773  0.4135
  829MPD2    H712201   0.944   1.777  11.576 -0.0672 -0.2453 -0.2438
  830MPD2     C12202   2.210   4.529  15.733  0.1606 -0.3833  0.0412
  830MPD2    C112203   2.107   4.539  15.644 -0.5458  0.2427 -0.0595
  830MPD2    C212204   2.131   4.609  15.527  0.7827  0.1648  0.1973
  830MPD2    C312205   2.259   4.665  15.502 -0.0937  0.1535 -0.0978
  830MPD2    C412206   2.365   4.653  15.592  0.0008  0.2189  1.1634
  830MPD2    C512207   2.331   4.593  15.710  0.3970  0.4736  0.4879
  830MPD2     H12208   2.059   4.619  15.447  1.9011  0.0626 -0.8251
  830MPD2    H112209   2.464   4.694  15.576  0.4024 -0.5258  1.7640
  830MPD2    H212210   2.200   4.477  15.827 -1.9358 -0.7041 -0.3643
  830MPD2    H312211   2.408   4.585  15.787  1.6745 -0.9023 -0.9253
  830MPD2     N12212   2.290   0.019  15.384 -0.0538 -0.1656  0.1476
  830MPD2    H512213   2.379   0.068  15.388  0.6508 -1.2975 -1.8595
  830MPD2    N112214   1.982   4.489  15.684  0.7760 -0.6759  0.8798
  830MPD2    H712215   1.979   4.464  15.782 -2.3599 -2.1301  0.4031
  831MPD2     C12216   1.974   1.693  16.325  0.0424 -0.2268  0.0289
  831MPD2    C112217   2.031   1.587  16.260  0.7700 -0.2786  0.3215
  831MPD2    C212218   2.001   1.460  16.297  0.4645  0.4413  0.6210
  831MPD2    C312219   1.926   1.435  16.415 -0.4706  0.2713  0.2144
  831MPD2    C412220   1.889   1.538  16.495  0.6350 -0.2150  0.4264
  831MPD2    C512221   1.914   1.666  16.451  0.3119 -1.0648 -0.1151
  831MPD2     H12222   2.043   1.379  16.239 -0.2666 -0.0337  0.7458
  831MPD2    H112223   1.829   1.518  16.584  0.3133  0.1911  0.2991
  831MPD2    H212224   1.987   1.793  16.285  1.2576 -0.0563  0.8601
  831MPD2    H312225   1.886   1.743  16.520 -1.9552 -3.5737  1.7670
  831MPD2     N12226   1.869   1.303  16.435 -0.3572  0.5363  0.7600
  831MPD2    H512227   1.812   1.285  16.518  0.1880  1.6561  1.3712
  831MPD2    N112228   2.090   1.617  16.136  0.6805 -0.3289  0.3028
  831MPD2    H712229   2.082   1.708  16.093  3.1944 -1.4190 -2.5080
  832MPD2     C12230   0.451   2.674  17.293 -0.0686 -0.5813  0.4512
  832MPD2    C112231   0.478   2.814  17.284  0.0247  0.1622  0.1137
  832MPD2    C212232   0.383   2.898  17.226 -0.1011  0.7099 -0.6210
  832MPD2    C312233   0.262   2.848  17.173 -0.1719 -0.2488 -0.0648
  832MPD2    C412234   0.242   2.712  17.176  0.3393 -0.4401  0.1803
  832MPD2    C512235   0.335   2.628  17.234  0.4426  0.4604 -0.2111
  832MPD2     H12236   0.406   3.002  17.206  0.6095  1.1093  2.2291
  832MPD2    H112237   0.154   2.663  17.137  0.2461 -0.2868  0.2001
  832MPD2    H212238   0.521   2.613  17.349  0.1970 -0.3911  0.3293
  832MPD2    H312239   0.319   2.521  17.241  2.5872  0.0134 -2.2184
  832MPD2     N12240   0.178   2.931  17.101  0.0352  0.4613  0.6289
  832MPD2    H512241   0.092   2.885  17.070  0.3584 -0.6336  1.3748
  832MPD2    N112242   0.593   2.851  17.355  0.1154 -0.4331 -0.0845
  832MPD2    H712243   0.649   2.777  17.396  0.4078  1.0708  2.1928
  833MPD2     C12244   2.195   4.089  12.073  0.1979 -0.2821 -0.7061
  833MPD2    C112245   2.250   4.189  12.134  0.1802  0.0427  0.1445
  833MPD2    C212246   2.339   4.272  12.062  0.0527 -0.6162  0.4693
  833MPD2    C312247   2.374   4.231  11.933 -0.7763  0.3077 -0.2169
  833MPD2    C412248   2.310   4.125  11.874 -0.6727 -0.0077  0.4090
  833MPD2    C512249   2.213   4.062  11.942  0.3085  0.1373 -0.1335
  833MPD2     H12250   2.390   4.354  12.111 -1.8800  1.3996 -0.8860
  833MPD2    H112251   2.325   4.097  11.770 -1.3628 -3.3844  1.2135
  833MPD2    H212252   2.119   4.033  12.126 -1.3783  0.2767 -2.3624
  833MPD2    H312253   2.157   3.978  11.901  0.2084 -0.3933  1.1009
  833MPD2     N12254   2.479   4.295  11.867  0.5450  0.6753 -0.3769
  833MPD2    H512255   2.477   4.280  11.767  1.2296  0.9175 -0.4258
  833MPD2    N112256   2.224   4.204  12.274  0.2951  0.2589 -0.2094
  833MPD2    H712257   2.171   4.132  12.322 -0.2626  0.6015 -0.3145
  834MPD2     C12258   2.349   4.605  11.078  0.3043 -0.6729 -0.1903
  834MPD2    C112259   2.328   4.493  11.152  0.5170  0.0662 -0.8148
  834MPD2    C212260   2.353   4.491  11.289 -0.3750  0.4207  0.6463
  834MPD2    C312261   2.426   4.590  11.350 -0.1669 -0.6632 -0.6136
  834MPD2    C412262   2.449   4.706  11.271  0.3711 -0.0756 -0.5516
  834MPD2    C512263   2.406   4.714  11.138 -0.0163 -0.3009  0.0614
  834MPD2     H12264   2.325   4.411  11.356  0.0031 -0.5964 -0.4279
  834MPD2    H112265   2.497   0.071  11.308  0.3729 -0.0310 -0.6646
  834MPD2    H212266   2.320   4.609  10.973 -1.5583 -0.8230  0.3243
  834MPD2    H312267   2.424   0.078  11.080  3.6505 -0.9333  0.1943
  834MPD2     N12268   2.467   4.587  11.481 -0.4032 -0.5643 -0.2397
  834MPD2    H512269   2.425   4.511  11.533  1.0134 -1.0049  0.2490
  834MPD2    N112270   2.289   4.375  11.079 -0.6124  0.3736  0.6395
  834MPD2    H712271   2.282   4.378  10.978 -0.5984  1.8728  0.6855
  835MPD2     C12272   1.947   1.820  11.339  0.0541 -0.5034  0.0702
  835MPD2    C112273   1.887   1.942  11.342 -0.3268 -0.6354  0.4043
  835MPD2    C212274   1.793   1.966  11.440 -0.1862 -0.7865  0.1187
  835MPD2    C312275   1.748   1.868  11.524 -0.5349 -0.0403 -0.1432
  835MPD2    C412276   1.814   1.751  11.522  0.7041 -0.6425  0.1734
  835MPD2    C512277   1.911   1.721  11.426  0.5774 -0.1901  0.0979
  835MPD2     H12278   1.764   2.070  11.441  0.2041 -0.6622 -0.9619
  835MPD2    H112279   1.773   1.674  11.587  2.4308 -0.8910  1.0000
  835MPD2    H212280   2.022   1.793  11.265 -2.0338 -0.4307 -2.0702
  835MPD2    H312281   1.950   1.621  11.413 -0.5986 -0.7749  1.0641
  835MPD2     N12282   1.658   1.892  11.633 -0.1071 -0.1310 -0.2161
  835MPD2    H512283   1.656   1.823  11.707  3.1354 -1.0433 -0.9889
  835MPD2    N112284   1.923   2.039  11.255  0.0925  0.7136  0.1792
  835MPD2    H712285   1.872   2.126  11.269 -0.4393  0.2183  1.3821
  836MPD2     C12286   0.921   2.175  11.575 -0.0078  0.3618  0.1042
  836MPD2    C112287   0.950   2.141  11.704  0.1860 -0.5120 -0.1313
  836MPD2    C212288   0.862   2.173  11.809  0.0557  0.1727 -0.0901
  836MPD2    C312289   0.739   2.233  11.787  0.0163  0.2497 -0.6347
  836MPD2    C412290   0.699   2.250  11.659 -0.0782  0.8082  0.0334
  836MPD2    C512291   0.794   2.231  11.561  0.3881  0.7062  0.4099
  836MPD2     H12292   0.882   2.142  11.911 -0.9485  2.4102  0.7716
  836MPD2    H112293   0.607   2.295  11.622  0.5197  1.1451 -1.0387
  836MPD2    H212294   0.992   2.149  11.497 -2.3244 -0.5772 -1.6929
  836MPD2    H312295   0.765   2.250  11.458 -0.9198 -0.3163  0.5922
  836MPD2     N12296   0.653   2.276  11.896  0.0922  0.6844 -0.0450
  836MPD2    H512297   0.558   2.306  11.879 -0.3716 -1.0323 -0.5192
  836MPD2    N112298   1.081   2.085  11.722 -0.3589  0.0127 -0.3822
  836MPD2    H712299   1.139   2.055  11.644 -3.1117 -3.1458 -1.2095
  837MPD2     C12300   0.613   2.035   9.815  0.7177  0.1013  0.5739
  837MPD2    C112301   0.513   2.067   9.726 -0.5814  0.2173  0.3790
  837MPD2    C212302   0.455   2.192   9.730  0.0697 -0.3436 -0.0986
  837MPD2    C312303   0.500   2.288   9.818 -0.0729 -0.0875  0.2057
  837MPD2    C412304   0.606   2.253   9.900 -0.4498  0.1079  0.6343
  837MPD2    C512305   0.665   2.127   9.896  0.4048  0.6099 -0.4747
  837MPD2     H12306   0.372   2.221   9.667 -0.1603 -0.8997 -0.0512
  837MPD2    H112307   0.655   2.332   9.956  2.0199 -1.4796  0.6683
  837MPD2    H212308   0.661   1.938   9.822  0.8998  0.2827  1.9490
  837MPD2    H312309   0.741   2.096   9.966  1.5105  0.9222 -1.5368
  837MPD2     N12310   0.450   2.419   9.810  0.4612  0.3699  0.1809
  837MPD2    H512311   0.366   2.431   9.754 -0.8981  2.3551  2.5847
  837MPD2    N112312   0.471   1.986   9.613  0.0413 -0.0973  0.1200
  837MPD2    H712313   0.401   2.021   9.549  0.4452 -1.4724 -1.0816
  838MPD2     C12314   3.396   4.467  10.818 -0.4088  0.6298  0.0227
  838MPD2    C112315   3.368   4.517  10.942  0.6171  0.4212 -0.1886
  838MPD2    C212316   3.247   4.476  10.992  0.5543  1.0448 -0.2657
  838MPD2    C312317   3.149   4.404  10.925 -0.1115 -0.3482 -0.3244
  838MPD2    C412318   3.177   4.379  10.797 -0.1794  0.6000 -0.0767
  838MPD2    C512319   3.297   4.412  10.744  0.2771 -0.6763 -0.0773
  838MPD2     H12320   3.234   4.507  11.095  0.1929  1.1697 -0.3486
  838MPD2    H112321   3.102   4.325  10.740  0.8849  1.1008 -1.9559
  838MPD2    H212322   3.494   4.480  10.773 -0.4622 -0.7482 -0.4722
  838MPD2    H312323   3.311   4.385  10.640 -1.2981  0.1619 -0.5163
  838MPD2     N12324   3.027   4.373  10.991 -0.2940 -0.3896 -0.1177
  838MPD2    H512325   3.013   4.413  11.083 -0.8137 -0.2744 -0.2423
  838MPD2    N112326   3.460   4.582  11.024 -0.4166 -0.9968  0.8339
  838MPD2    H712327   3.421   4.616  11.111  2.1520  0.0876  1.5594
  839MPD2     C12328   3.411   4.326  11.727  0.1908  0.4858 -0.3703
  839MPD2    C112329   3.379   4.310  11.597  0.5091 -1.1170 -0.1498
  839MPD2    C212330   3.427   4.412  11.513 -0.6177  1.4270  0.5343
  839MPD2    C312331   3.522   4.508  11.552  0.0012  0.1423  0.3716
  839MPD2    C412332   3.561   4.515  11.690  0.0390  0.0719  0.2437
  839MPD2    C512333   3.490   4.431  11.774  0.1141 -0.0889  0.4642
  839MPD2     H12334   3.408   4.407  11.406 -0.2772 -1.4481  0.6071
  839MPD2    H112335   3.632   4.586  11.732 -3.5375  2.0467  2.9769
  839MPD2    H212336   3.367   4.255  11.797  1.5362 -1.7127 -1.7549
  839MPD2    H312337   3.507   4.432  11.881 -1.4799 -1.9200  0.7341
  839MPD2     N12338   3.581   4.591  11.448  0.0811 -0.2632 -0.3502
  839MPD2    H512339   3.524   4.594  11.364 -1.4328  0.6105  0.7048
  839MPD2    N112340   3.296   4.213  11.552 -0.8122  0.0702  0.0574
  839MPD2    H712341   3.285   4.211  11.451  0.1410  1.1212 -0.0643
  840MPD2     C12342   4.006   2.265   9.884 -0.3392  1.0850  0.0108
  840MPD2    C112343   3.959   2.274  10.013 -0.4256 -0.9866 -0.3225
  840MPD2    C212344   4.049   2.321  10.114 -0.1157  0.0488  0.6715
  840MPD2    C312345   4.181   2.351  10.089 -0.7940 -0.4089  0.0696
  840MPD2    C412346   4.227   2.343   9.959  0.1304 -0.1899  0.4388
  840MPD2    C512347   4.141   2.288   9.866 -0.3867  0.1411 -0.1109
  840MPD2     H12348   4.009   2.347  10.211 -2.4466 -0.6989 -0.1001
  840MPD2    H112349   4.327   2.370   9.926  0.5615 -2.4582 -0.1625
  840MPD2    H212350   3.951   2.223   9.800  0.6196 -1.3451  0.6033
  840MPD2    H312351   4.171   2.292   9.762  0.3383  2.1809  0.1621
  840MPD2     N12352   4.261   2.415  10.187  0.2263 -0.0319  0.1059
  840MPD2    H512353   4.356   2.438  10.161  0.0966 -0.5397 -0.8079
  840MPD2    N112354   3.832   2.236  10.044 -0.2995  0.1586 -0.5836
  840MPD2    H712355   3.769   2.232   9.965  0.2707  0.7232 -1.0673
  841MPD2     C12356   3.457   2.737  14.855 -0.3282  0.2082 -0.3656
  841MPD2    C112357   3.416   2.685  14.732 -0.1412  0.3731 -0.4869
  841MPD2    C212358   3.467   2.741  14.613  0.8469 -0.5696  0.7599
  841MPD2    C312359   3.579   2.817  14.620 -0.0345 -0.8954  0.0504
  841MPD2    C412360   3.632   2.850  14.741 -0.0343  0.5303  0.0062
  841MPD2    C512361   3.573   2.809  14.857 -0.8017 -0.2824 -0.2226
  841MPD2     H12362   3.420   2.713  14.520  0.6103 -0.2330  0.7796
  841MPD2    H112363   3.732   2.893  14.751  1.6508 -3.5246  0.3251
  841MPD2    H212364   3.420   2.707  14.953  0.0643 -1.8047 -0.8237
  841MPD2    H312365   3.625   2.827  14.950  0.1135 -1.0997 -0.5776
  841MPD2     N12366   3.643   2.850  14.498  0.6331 -0.4424  0.5338
  841MPD2    H512367   3.623   2.785  14.423 -0.7912 -0.7402  1.1719
  841MPD2    N112368   3.312   2.587  14.722 -0.4289 -0.2181  0.3784
  841MPD2    H712369   3.280   2.555  14.631  0.1770 -0.0532  0.1137
  842MPD2     C12370   4.682   3.436  16.775  0.3331  0.5178 -0.2468
  842MPD2    C112371   4.575   3.354  16.751 -0.1560 -0.4608 -0.1102
  842MPD2    C212372   4.511   3.305  16.859 -0.5727 -0.0096  1.1187
  842MPD2    C312373   4.550   3.335  16.985  0.3439  0.7570  0.3556
  842MPD2    C412374   4.658   3.409  17.013 -0.3888  0.7290 -0.0336
  842MPD2    C512375   0.007   3.458  16.904 -0.3328 -0.2574  1.0061
  842MPD2     H12376   4.427   3.237  16.851  0.1364 -0.6802 -0.5535
  842MPD2    H112377   4.686   3.443  17.112  0.1771  1.2823 -0.3850
  842MPD2    H212378   0.019   3.483  16.700  0.1465 -1.8112 -1.8511
  842MPD2    H312379   0.087   3.530  16.918 -1.9575  1.9356 -1.0900
  842MPD2     N12380   4.473   3.307  17.093  0.5969 -0.1108  0.2012
  842MPD2    H512381   4.495   3.346  17.184  1.8882 -1.8680  0.6395
  842MPD2    N112382   4.520   3.339  16.619  0.6144  0.6488 -0.4696
  842MPD2    H712383   4.554   3.402  16.547  3.0303 -1.0532 -0.8192
  843MPD2     C12384   1.577   3.044  17.468  0.0648  0.0123  0.0673
  843MPD2    C112385   1.518   3.073  17.595 -0.1345  0.4146  0.4331
  843MPD2    C212386   1.566   3.176  17.680  1.2307 -0.1029 -0.4203
  843MPD2    C312387   1.670   3.254  17.638  0.9537  0.0801  0.2316
  843MPD2    C412388   1.716   3.231  17.513  0.3992 -0.6342 -0.1761
  843MPD2    C512389   1.676   3.126  17.429  0.2241  0.4691 -0.4482
  843MPD2     H12390   1.516   3.201   0.072  0.4355 -3.6683  0.1075
  843MPD2    H112391   1.803   3.288  17.484  0.8768 -1.3289 -0.1014
  843MPD2    H212392   1.541   2.961  17.409 -1.7270 -0.1558  1.4076
  843MPD2    H312393   1.733   3.097  17.342  1.1705  0.4001  0.2000
  843MPD2     N12394   1.721   3.362   0.017 -0.2137  0.1045 -0.6773
  843MPD2    H512395   1.802   3.412  17.683  0.6287 -0.7508  0.0360
  843MPD2    N112396   1.408   2.986  17.633  1.0473  0.3017  0.2471
  843MPD2    H712397   1.361   2.934  17.559  0.7704  1.5635 -0.4624
  844MPD2     C12398   0.032   2.495  16.707 -0.9589  0.1504 -0.0405
  844MPD2    C112399   0.135   2.460  16.621 -0.3571 -0.2229 -0.7253
  844MPD2    C212400   0.259   2.512  16.632  0.1556  0.1184 -0.3224
  844MPD2    C312401   0.285   2.600  16.742  0.4579 -0.4816  0.1174
  844MPD2    C412402   0.174   2.628  16.821 -0.5534 -0.1097 -0.3476
  844MPD2    C512403   0.054   2.577  16.816 -0.7197 -0.5516 -0.5953
  844MPD2     H12404   0.330   2.500  16.551  0.6637 -0.6952  0.2279
  844MPD2    H112405   0.176   2.706  16.896  1.7803 -1.0846  0.6048
  844MPD2    H212406   4.661   2.450  16.685 -0.8044 -0.5532  0.7082
  844MPD2    H312407   4.712   2.601  16.898 -1.5577  0.9549 -1.7224
  844MPD2     N12408   0.417   2.639  16.772  0.0635  0.4385  0.0086
  844MPD2    H512409   0.487   2.580  16.728  0.8907  1.1342  0.3995
  844MPD2    N112410   0.105   2.386  16.505  0.1612 -0.1682  1.2566
  844MPD2    H712411   0.177   2.375  16.434 -0.4030  1.8085  0.3839
  845MPD2     C12412   0.958   3.448  17.017 -0.6368  0.0167  0.0491
  845MPD2    C112413   0.847   3.429  17.098  0.2258  0.2859 -0.5071
  845MPD2    C212414   0.795   3.303  17.110 -0.0179  0.4949 -0.3626
  845MPD2    C312415   0.854   3.194  17.043 -0.1740 -0.7326 -0.0983
  845MPD2    C412416   0.976   3.209  16.979  0.0633 -0.1056 -0.0465
  845MPD2    C512417   1.031   3.335  16.972  0.0248 -0.1610  0.4591
  845MPD2     H12418   0.713   3.287  17.180 -0.2628 -0.2656 -0.8161
  845MPD2    H112419   1.022   3.126  16.928 -0.8487 -0.4943 -0.2380
  845MPD2    H212420   0.996   3.547  16.997 -3.8243  1.1431 -0.4607
  845MPD2    H312421   1.130   3.351  16.931 -0.5042 -1.1128 -1.1560
  845MPD2     N12422   0.785   3.069  17.052 -0.1780 -0.4658  0.1533
  845MPD2    H512423   0.696   3.072  17.099 -0.6851  1.4898 -0.9662
  845MPD2    N112424   0.780   3.544  17.148 -0.2619  0.1164 -0.6462
  845MPD2    H712425   0.823   3.634  17.132 -0.5445  0.4409  0.4092
  846MPD2     C12426   1.343   3.676  13.286  0.2821 -0.1215  0.0857
  846MPD2    C112427   1.336   3.813  13.278  0.1134  0.1582  0.2205
  846MPD2    C212428   1.281   3.890  13.375  0.2763  0.0496 -0.5595
  846MPD2    C312429   1.224   3.820  13.484 -0.6448 -0.0753 -0.2499
  846MPD2    C412430   1.228   3.684  13.490 -0.7848  0.3435  0.2084
  846MPD2    C512431   1.284   3.606  13.389  0.2446 -0.4300 -0.3817
  846MPD2     H12432   1.290   3.998  13.369  0.6737 -0.0488 -1.7680
  846MPD2    H112433   1.185   3.629  13.573  1.1111 -0.6907  0.5016
  846MPD2    H212434   1.385   3.617  13.205  0.3202 -1.0234  0.7669
  846MPD2    H312435   1.286   3.498  13.402  0.2450 -0.4930 -0.8961
  846MPD2     N12436   1.163   3.882  13.593  0.3500 -0.1157 -0.3822
  846MPD2    H512437   1.137   3.828  13.675 -1.0411  2.3991  0.8355
  846MPD2    N112438   1.397   3.880  13.164  0.1703 -0.6790 -0.3478
  846MPD2    H712439   1.420   3.978  13.175  0.1581 -0.6895 -0.2296
  847MPD2     C12440   1.367   4.486  13.531  0.2364  0.2202 -0.1040
  847MPD2    C112441   1.500   4.517  13.571  0.1926  0.5864  0.6342
  847MPD2    C212442   1.591   4.412  13.595  0.0206  0.1885  0.2017
  847MPD2    C312443   1.545   4.276  13.593 -0.7339  0.0239  0.0159
  847MPD2    C412444   1.418   4.251  13.537  0.7155  0.3973 -0.0608
  847MPD2    C512445   1.337   4.354  13.501  0.1286 -0.2572 -0.0079
  847MPD2     H12446   1.694   4.432  13.621 -0.6500  0.7739  2.3903
  847MPD2    H112447   1.384   4.151  13.515 -1.0044  0.7697  0.9363
  847MPD2    H212448   1.289   4.560  13.517 -1.8547 -1.4667  2.7135
  847MPD2    H312449   1.237   4.328  13.468  0.1098 -0.8404  0.5152
  847MPD2     N12450   1.644   4.182  13.622 -0.3783 -0.0816  0.5274
  847MPD2    H512451   1.726   4.229  13.661  0.2020  0.1948 -1.0381
  847MPD2    N112452   1.533   4.654  13.602 -0.2851 -0.3245  0.1230
  847MPD2    H712453   1.457   4.720  13.588 -2.6858 -3.2679 -0.8111
  848MPD2     C12454   0.079   3.218  16.328 -0.2685 -0.5184  0.4279
  848MPD2    C112455   0.110   3.279  16.449  0.4178 -0.5046  0.1696
  848MPD2    C212456   0.159   3.404  16.444  0.7707  0.0007  0.2226
  848MPD2    C312457   0.178   3.471  16.322  0.1757  0.1209  0.0948
  848MPD2    C412458   0.150   3.408  16.206 -0.4689 -0.5816 -0.1117
  848MPD2    C512459   0.098   3.282  16.210 -0.1507  0.1900 -0.1252
  848MPD2     H12460   0.195   3.440  16.540  0.3942  0.7982  0.0693
  848MPD2    H112461   0.157   3.464  16.113 -0.6369  1.4683  1.1159
  848MPD2    H212462   0.035   3.120  16.316 -0.6609 -0.3582  0.5725
  848MPD2    H312463   0.069   3.241  16.114  1.8292  0.7645 -0.9538
  848MPD2     N12464   0.222   3.604  16.303 -0.6529 -0.3722 -0.2108
  848MPD2    H512465   0.233   3.629  16.205 -1.3862 -0.7567 -0.3938
  848MPD2    N112466   0.117   3.201  16.567 -0.1480 -0.2981  0.2472
  848MPD2    H712467   0.166   3.247  16.642 -1.1752  0.9049  0.1833
  849MPD2     C12468   3.629   2.642  13.897 -0.1855  0.3545  0.2870
  849MPD2    C112469   3.702   2.760  13.902 -0.2933  0.3269 -0.0016
  849MPD2    C212470   3.836   2.757  13.944 -0.0107 -0.0684 -0.1213
  849MPD2    C312471   3.902   2.634  13.948  0.7243  0.8495 -0.5666
  849MPD2    C412472   3.830   2.521  13.925 -0.5919  0.3057  0.3055
  849MPD2    C512473   3.695   2.527  13.910 -0.2054  0.4141 -0.1396
  849MPD2     H12474   3.887   2.851  13.933 -0.6173  0.0813 -1.5889
  849MPD2    H112475   3.878   2.424  13.924 -0.0313  0.5980 -0.8781
  849MPD2    H212476   3.523   2.639  13.874 -0.2959  0.1414  0.8265
  849MPD2    H312477   3.644   2.431  13.902  1.1097 -0.3955  1.2071
  849MPD2     N12478   4.040   2.628  13.958  0.2290  0.0004 -0.7551
  849MPD2    H512479   4.086   2.541  13.935  0.4485 -0.3689  1.0840
  849MPD2    N112480   3.633   2.874  13.861  0.4709  0.1507  0.7051
  849MPD2    H712481   3.541   2.873  13.817  1.1775  0.4617 -0.7624
  850MPD2     C12482   1.686   0.885  14.662 -0.3461  0.3606 -0.9052
  850MPD2    C112483   1.701   0.990  14.753  0.3559 -0.7634 -0.2900
  850MPD2    C212484   1.829   1.033  14.787  0.1988 -0.2104  0.7100
  850MPD2    C312485   1.933   0.961  14.731  0.1247 -0.1815  0.4876
  850MPD2    C412486   1.916   0.847  14.653 -1.0502 -0.0870  0.0597
  850MPD2    C512487   1.790   0.808  14.613 -0.6156 -0.5866 -0.3462
  850MPD2     H12488   1.839   1.121  14.850  0.6139  0.2357  0.0267
  850MPD2    H112489   2.002   0.792  14.617 -1.9420 -0.9451 -0.7772
  850MPD2    H212490   1.585   0.854  14.639  0.1462 -2.6186  1.0123
  850MPD2    H312491   1.771   0.724  14.547 -1.2914  0.2459 -1.1878
  850MPD2     N12492   2.070   0.978  14.780 -0.5243 -0.6449  0.0630
  850MPD2    H512493   2.137   0.906  14.755 -1.1321 -0.5751 -1.7178
  850MPD2    N112494   1.577   1.041  14.798 -0.5280  0.0704 -0.1029
  850MPD2    H712495   1.500   1.027  14.734 -0.8095 -2.6926  0.8719
  851MPD2     C12496   2.226   0.976  15.362 -0.6176  0.7612 -0.0504
  851MPD2    C112497   2.131   0.924  15.280 -0.5707  0.0561 -0.3056
  851MPD2    C212498   2.142   0.786  15.249  0.4636  0.2396  0.6112
  851MPD2    C312499   2.250   0.712  15.275  0.0338  0.6027  0.3081
  851MPD2    C412500   2.353   0.773  15.347 -0.3036  0.6533 -0.0847
  851MPD2    C512501   2.334   0.894  15.395  0.5086  0.4544 -0.0493
  851MPD2     H12502   2.057   0.725  15.219  0.5876  0.7034 -0.6749
  851MPD2    H112503   2.437   0.717  15.386 -2.0060 -1.4605  0.5452
  851MPD2    H212504   2.212   1.075  15.404  0.1520  0.6842  0.4036
  851MPD2    H312505   2.411   0.927  15.463  0.6568 -0.5451  0.2682
  851MPD2     N12506   2.256   0.580  15.223  0.0268  0.1824  0.0155
  851MPD2    H512507   2.179   0.542  15.169 -1.0361 -1.5698  2.7557
  851MPD2    N112508   2.014   1.007  15.256 -0.3163 -0.9849  0.5478
  851MPD2    H712509   2.018   1.102  15.292 -1.3981 -1.3012  1.5016
  852MPD2     C12510   1.239   3.329   9.524  0.7105 -0.0080  0.0223
  852MPD2    C112511   1.286   3.435   9.595 -0.5338 -1.1379  0.0888
  852MPD2    C212512   1.414   3.444   9.654  0.0640 -0.0183  0.6343
  852MPD2    C312513   1.500   3.337   9.638  0.0773 -0.3629 -0.4874
  852MPD2    C412514   1.456   3.229   9.559 -0.3531 -0.0197 -0.3389
  852MPD2    C512515   1.327   3.226   9.512  0.1199  0.0597  0.4131
  852MPD2     H12516   1.445   3.535   9.703  0.1722  1.9913 -3.1076
  852MPD2    H112517   1.518   3.144   9.535  2.3426  1.4997  1.2621
  852MPD2    H212518   1.146   3.318   9.468  0.6765  0.8537 -0.0959
  852MPD2    H312519   1.285   3.143   9.456  0.6975  0.8728 -1.2264
  852MPD2     N12520   1.628   3.355   9.698  0.4975  0.8643 -0.6187
  852MPD2    H512521   1.640   3.439   9.752  0.4688 -0.8680  2.1029
  852MPD2    N112522   1.203   3.544   9.623  0.5034  0.1706 -0.8008
  852MPD2    H712523   1.237   3.602   9.699  0.2802  1.1552 -1.4563
  853MPD2     C12524   3.099   2.979  12.077 -0.3690 -0.0852  0.0850
  853MPD2    C112525   3.108   3.112  12.051 -0.6245 -0.4020  0.7226
  853MPD2    C212526   3.136   3.152  11.916 -0.2869  0.1888  0.3075
  853MPD2    C312527   3.158   3.058  11.820  0.0387  0.5435  0.1122
  853MPD2    C412528   3.158   2.926  11.858  0.0792  0.4919  0.8814
  853MPD2    C512529   3.134   2.886  11.983  0.2129 -0.0962  0.0509
  853MPD2     H12530   3.126   3.252  11.876  0.4335 -0.0268 -0.4268
  853MPD2    H112531   3.181   2.852  11.783  0.4466  2.3491 -0.8284
  853MPD2    H212532   3.085   2.941  12.178 -0.1713  0.8302  0.4573
  853MPD2    H312533   3.145   2.782  12.014  0.0191 -0.5760 -1.4966
  853MPD2     N12534   3.180   3.089  11.681  0.9960  0.2329 -0.4577
  853MPD2    H512535   3.206   3.012  11.620 -0.4630 -1.8115  1.5485
  853MPD2    N112536   3.060   3.200  12.152 -0.0042 -0.2838 -0.1004
  853MPD2    H712537   3.024   3.161  12.239  0.6649 -1.4039 -0.3273
  854MPD2     C12538   0.231   3.736  12.900 -0.1620 -0.3662 -0.0609
  854MPD2    C112539   0.284   3.715  12.773  0.1236  0.2257 -0.2339
  854MPD2    C212540   0.400   3.637  12.761 -0.2675 -0.4989 -0.0623
  854MPD2    C312541   0.470   3.601  12.875  0.8036  0.5628  0.0048
  854MPD2    C412542   0.415   3.625  13.005  0.1048 -0.0476 -0.3543
  854MPD2    C512543   0.293   3.686  13.013 -0.4079  0.3367  0.0405
  854MPD2     H12544   0.440   3.618  12.662  0.6887 -0.3402  0.2897
  854MPD2    H112545   0.459   3.579  13.092 -1.3308 -1.5385 -0.4079
  854MPD2    H212546   0.135   3.786  12.908  0.1965  0.1228  1.1259
  854MPD2    H312547   0.239   3.682  13.107 -2.3172  0.9408 -1.0158
  854MPD2     N12548   0.597   3.536  12.868 -0.4844 -0.8071 -0.4238
  854MPD2    H512549   0.647   3.512  12.953  0.0359 -1.0661 -0.8063
  854MPD2    N112550   0.211   3.767  12.659 -0.1436 -0.5695 -0.2611
  854MPD2    H712551   0.124   3.812  12.685  1.6044  3.9353 -2.3407
  855MPD2     C12552   1.022   3.332  13.556 -1.0099  0.5594 -0.3608
  855MPD2    C112553   1.002   3.199  13.510  0.1082  0.1370  0.2311
  855MPD2    C212554   0.957   3.187  13.379  0.3571 -0.3434  0.4339
  855MPD2    C312555   0.931   3.298  13.296  0.0858 -0.3597  0.6945
  855MPD2    C412556   0.955   3.425  13.345  0.2275 -0.1768 -0.4288
  855MPD2    C512557   0.998   3.441  13.474  1.0355 -0.0574 -0.6725
  855MPD2     H12558   0.948   3.088  13.336 -0.4948  0.7057 -1.7764
  855MPD2    H112559   0.933   3.508  13.279 -0.0805 -1.1041 -1.4771
  855MPD2    H212560   1.067   3.355  13.652 -0.5784  0.2650 -0.4917
  855MPD2    H312561   1.013   3.535  13.527 -0.4546  1.4188 -2.8659
  855MPD2     N12562   0.889   3.295  13.159  0.3723  0.4480 -0.2761
  855MPD2    H512563   0.857   3.380  13.114 -4.0413  0.3573  2.6878
  855MPD2    N112564   1.011   3.083  13.591 -0.2017  0.0942  0.7911
  855MPD2    H712565   0.978   3.004  13.538 -1.9052  0.4370  1.3421
  856MPD2     C12566   2.603   3.783  13.493  0.4772 -0.0938  0.2723
  856MPD2    C112567   2.710   3.865  13.493 -0.3233  0.3024  0.0700
  856MPD2    C212568   2.688   3.990  13.442  0.1157 -0.5892 -0.3980
  856MPD2    C312569   2.565   4.032  13.389 -0.1022 -0.3356  0.7889
  856MPD2    C412570   2.456   3.946  13.400 -1.0529 -0.0067 -1.1722
  856MPD2    C512571   2.473   3.823  13.455  0.1648  0.3533  0.2872
  856MPD2     H12572   2.771   4.060  13.450  0.6132 -1.1659 -0.5372
  856MPD2    H112573   2.363   3.977  13.353 -0.1397  0.3248 -2.7759
  856MPD2    H212574   2.601   3.684  13.536 -2.0463  0.9738  2.6203
  856MPD2    H312575   2.385   3.759  13.454  0.5622 -0.1839 -0.1352
  856MPD2     N12576   2.538   4.163  13.338 -0.1345 -0.5324 -0.6041
  856MPD2    H512577   2.444   4.185  13.306  0.0804  1.3037  0.0302
  856MPD2    N112578   2.834   3.827  13.546 -0.0461  0.4728  0.3625
  856MPD2    H712579   2.903   3.901  13.539  0.9814 -0.1802  3.5441
  857MPD2     C12580   4.230   1.771  12.335 -0.2631  1.2283 -0.9133
  857MPD2    C112581   4.237   1.713  12.461  1.0238  0.3259 -0.1265
  857MPD2    C212582   4.276   1.789  12.569 -0.5934  0.5575 -0.3498
  857MPD2    C312583   4.317   1.919  12.554 -0.7282 -0.0709  0.2213
  857MPD2    C412584   4.325   1.963  12.426 -0.8622  0.1353  0.2855
  857MPD2    C512585   4.290   1.892  12.318  0.2925 -0.1060 -0.2620
  857MPD2     H12586   4.265   1.753  12.671  1.9197 -0.9772 -0.6111
  857MPD2    H112587   4.367   2.063  12.419  2.3275 -1.2598 -0.4341
  857MPD2    H212588   4.186   1.720  12.251 -1.3082 -0.1104  0.4373
  857MPD2    H312589   4.295   1.929  12.216 -1.6794 -1.4384 -0.8320
  857MPD2     N12590   4.361   2.001  12.666 -0.7355  0.0485 -0.2016
  857MPD2    H512591   4.359   1.955  12.756 -0.4322  0.9387  0.2581
  857MPD2    N112592   4.186   1.579  12.469 -0.5402  0.1052 -0.4596
  857MPD2    H712593   4.151   1.543  12.381 -1.3578 -1.2734  0.4174
  858MPD2     C12594   0.523   0.794  16.693  0.1858  0.0161 -0.7338
  858MPD2    C112595   0.580   0.684  16.751 -0.3023  0.2838 -0.3721
  858MPD2    C212596   0.585   0.680  16.885 -0.6790 -0.6067  0.1667
  858MPD2    C312597   0.548   0.784  16.967 -0.5645  0.1958  0.3116
  858MPD2    C412598   0.482   0.888  16.911 -0.1608 -0.1264 -0.3981
  858MPD2    C512599   0.472   0.889  16.774 -0.5595 -0.1238 -0.3714
  858MPD2     H12600   0.633   0.594  16.931 -2.0504 -1.0317  0.8097
  858MPD2    H112601   0.441   0.974  16.962  2.0429  0.9021 -0.3315
  858MPD2    H212602   0.514   0.800  16.585 -0.1571 -2.0399 -0.8306
  858MPD2    H312603   0.440   0.985  16.734 -1.7640 -0.5050 -0.3324
  858MPD2     N12604   0.579   0.789  17.105 -0.2021  0.5971  0.0749
  858MPD2    H512605   0.559   0.875  17.154 -2.6499 -0.5479  1.1035
  858MPD2    N112606   0.621   0.573  16.678  0.7931 -0.0265  0.0958
  858MPD2    H712607   0.664   0.505  16.739 -0.5897 -1.1046 -0.1366
  859MPD2     C12608   4.116   2.759  15.313  0.1578  0.1380 -0.5092
  859MPD2    C112609   4.034   2.790  15.207  0.4353 -0.6531  0.4355
  859MPD2    C212610   3.914   2.717  15.197  0.1589  0.3829  0.4706
  859MPD2    C312611   3.877   2.626  15.290  0.7115  0.7736  1.1519
  859MPD2    C412612   3.956   2.604  15.399  0.1204 -0.0377 -0.3860
  859MPD2    C512613   4.072   2.668  15.402  0.8491  0.6950 -0.1669
  859MPD2     H12614   3.843   2.746  15.120  0.5015 -1.4033 -0.4949
  859MPD2    H112615   3.925   2.532  15.473  0.3669 -0.8496 -1.0738
  859MPD2    H212616   4.215   2.802  15.322 -0.1251  1.0256 -1.5457
  859MPD2    H312617   4.122   2.656  15.498 -2.1421 -0.9689  1.1830
  859MPD2     N12618   3.750   2.561  15.289  0.1779  0.1137 -0.3365
  859MPD2    H512619   3.723   2.518  15.377  1.6718 -0.0902  0.0347
  859MPD2    N112620   4.081   2.885  15.111 -0.0003 -0.1148  0.2553
  859MPD2    H712621   4.166   2.937  15.131 -0.6892  0.9787  0.3464
  860MPD2     C12622   1.387   3.417  11.284  0.1911 -0.3331 -0.9920
  860MPD2    C112623   1.392   3.388  11.413  0.3035 -0.6846 -0.7363
  860MPD2    C212624   1.279   3.334  11.473 -0.8005  0.0163  0.1282
  860MPD2    C312625   1.156   3.327  11.406 -0.4247  0.1639  0.1610
  860MPD2    C412626   1.155   3.356  11.277  0.2860 -0.0963 -0.2050
  860MPD2    C512627   1.270   3.402  11.213  0.1733 -0.7167 -0.1827
  860MPD2     H12628   1.284   3.296  11.574 -1.1921 -0.1842  0.0721
  860MPD2    H112629   1.066   3.344  11.216  0.3434  0.3715 -0.3860
  860MPD2    H212630   1.469   3.455  11.224  0.6729  0.3066  0.0729
  860MPD2    H312631   1.264   3.440  11.112  0.6004  0.2154  0.1408
  860MPD2     N12632   1.044   3.270  11.477 -0.0816  0.2874  0.0163
  860MPD2    H512633   1.064   3.244  11.573 -1.1344 -1.1762 -0.1532
  860MPD2    N112634   1.510   3.403  11.491 -0.4930  0.4633  0.4353
  860MPD2    H712635   1.518   3.329  11.560 -1.1968 -0.9261 -0.9468
  861MPD2     C12636   0.220   1.618  10.830  0.3180  0.2562 -0.5560
  861MPD2    C112637   0.084   1.638  10.872  0.1286  0.3498 -0.0634
  861MPD2    C212638   0.002   1.697  10.781 -0.0428  0.0962 -0.1425
  861MPD2    C312639   0.042   1.759  10.665 -0.1147  0.1210 -0.2708
  861MPD2    C412640   0.174   1.743  10.624 -0.3904  0.2218 -0.4174
  861MPD2    C512641   0.256   1.665  10.705 -0.5400 -0.0239 -0.6390
  861MPD2     H12642   4.628   1.725  10.815  0.5469 -0.0402  1.6915
  861MPD2    H112643   0.219   1.785  10.535  0.5988  0.9436  0.4181
  861MPD2    H212644   0.295   1.561  10.883  0.7176  0.6525 -0.7009
  861MPD2    H312645   0.358   1.651  10.672 -0.4152 -0.6892  0.0308
  861MPD2     N12646   4.682   1.827  10.578 -0.4178  0.1236  0.0007
  861MPD2    H512647   4.710   1.861  10.486  0.3405 -0.2468  0.0930
  861MPD2    N112648   0.035   1.597  10.997  0.2310 -0.4126  0.1846
  861MPD2    H712649   4.663   1.614  11.022  0.0993  1.3263 -1.5296
  862MPD2     C12650   4.454   2.010   9.922 -0.1121  0.5460  0.2558
  862MPD2    C112651   4.536   1.942  10.005 -0.1193 -0.2933  0.3343
  862MPD2    C212652   4.563   1.812   9.971  0.6356 -0.3208  0.4522
  862MPD2    C312653   4.535   1.754   9.850 -0.2953  0.3666 -0.0056
  862MPD2    C412654   4.454   1.830   9.765 -0.5919  0.2428 -0.1868
  862MPD2    C512655   4.415   1.954   9.803 -0.4908  0.3411  0.1349
  862MPD2     H12656   4.617   1.752  10.043  1.9484  2.0484  1.4549
  862MPD2    H112657   4.432   1.793   9.666  0.0430  0.3339 -0.3622
  862MPD2    H212658   4.414   2.109   9.940  0.0526  0.9590 -1.5676
  862MPD2    H312659   4.348   2.009   9.738  0.5908  2.1762  0.5636
  862MPD2     N12660   4.582   1.626   9.827 -0.3772 -0.8020 -0.4653
  862MPD2    H512661   4.650   1.590   9.893  0.6576  1.3856 -0.3353
  862MPD2    N112662   4.579   1.983  10.133 -0.2779 -0.1667  0.1046
  862MPD2    H712663   4.648   1.923  10.178 -1.3043 -0.5000  1.2377
  863MPD2     C12664   3.767   4.212  16.211  0.3287 -0.1659 -0.2563
  863MPD2    C112665   3.739   4.314  16.293  0.3865 -0.2578  0.1626
  863MPD2    C212666   3.812   4.324  16.417  0.9054 -0.3911  0.5239
  863MPD2    C312667   3.898   4.224  16.451 -0.2351 -0.0754  0.1924
  863MPD2    C412668   3.923   4.124  16.366 -0.3773 -0.1329  0.0341
  863MPD2    C512669   3.863   4.122  16.244 -0.7204  0.2693 -0.1880
  863MPD2     H12670   3.785   4.403  16.486  0.3600 -1.0134  1.0250
  863MPD2    H112671   3.996   4.047  16.387 -1.8030 -0.9732  1.8657
  863MPD2    H212672   3.717   4.199  16.116 -0.4189 -1.0521  0.2584
  863MPD2    H312673   3.893   4.042  16.177  1.0219  1.2641 -0.6144
  863MPD2     N12674   3.952   4.198  16.582 -0.4590 -0.0182 -0.3191
  863MPD2    H512675   3.978   4.103  16.603 -1.6046 -0.2564  0.0517
  863MPD2    N112676   3.643   4.409  16.261  0.4736  0.1008 -0.4434
  863MPD2    H712677   3.589   4.400  16.176 -1.6897  0.1334  0.9038
  864MPD2     C12678   4.061   0.952  17.239 -0.5516  0.1517 -0.3070
  864MPD2    C112679   4.085   0.915  17.114  0.4378  0.1348  0.2675
  864MPD2    C212680   4.078   1.012  17.016  0.0654 -0.4983 -0.1269
  864MPD2    C312681   4.056   1.145  17.050 -0.5443 -0.6122  0.5202
  864MPD2    C412682   4.026   1.173  17.176  0.3623  0.3051 -0.1331
  864MPD2    C512683   4.031   1.080  17.271 -0.0061  1.1769 -0.4857
  864MPD2     H12684   4.094   0.989  16.911  1.7762 -0.8548  0.2034
  864MPD2    H112685   4.001   1.274  17.208 -1.5097 -0.1990  0.0053
  864MPD2    H212686   4.062   0.873  17.313  1.1435 -0.8462 -1.3729
  864MPD2    H312687   4.002   1.104  17.372 -0.6183 -1.3685 -0.0561
  864MPD2     N12688   4.067   1.253  16.957 -0.6301 -0.4044  0.3272
  864MPD2    H512689   4.075   1.343  17.003  1.2159 -0.4616  0.1261
  864MPD2    N112690   4.102   0.780  17.082 -0.6138  0.1573  0.1354
  864MPD2    H712691   4.112   0.715  17.159 -1.7300 -2.1251 -1.6253
  865MPD2     C12692   4.540   1.393  15.997 -0.4525  0.3172 -0.7534
  865MPD2    C112693   4.500   1.289  16.075  0.6190 -0.3259 -0.0185
  865MPD2    C212694   4.453   1.315  16.205 -0.6175 -0.0672  0.0787
  865MPD2    C312695   4.450   1.448  16.251 -0.1963 -0.0182 -0.0776
  865MPD2    C412696   4.496   1.554  16.171  0.1666 -0.3561  0.2407
  865MPD2    C512697   4.541   1.523  16.046  0.4178  0.1221 -0.1026
  865MPD2     H12698   4.419   1.235  16.270  0.0408 -1.2452 -1.0305
  865MPD2    H112699   4.486   1.657  16.201 -0.1731 -1.1612  2.8976
  865MPD2    H212700   4.580   1.386  15.897 -0.0123 -0.1089 -0.5518
  865MPD2    H312701   4.575   1.604  15.983 -0.7489  0.1416 -0.7226
  865MPD2     N12702   4.400   1.476  16.385 -0.0873  0.7850  0.3403
  865MPD2    H512703   4.415   1.567  16.426 -0.6346  1.5134 -1.0497
  865MPD2    N112704   4.510   1.158  16.017 -0.1459  0.8339  0.4474
  865MPD2    H712705   4.568   1.159  15.934  0.8262 -1.2292  1.0943
  866MPD2     C12706   0.502   1.574  11.366 -0.3649  0.3483  0.4390
  866MPD2    C112707   0.528   1.581  11.232 -0.0341 -0.8145 -0.2423
  866MPD2    C212708   0.446   1.673  11.157 -0.4421  0.1686 -0.4335
  866MPD2    C312709   0.344   1.743  11.215  0.1062 -0.2244 -0.2147
  866MPD2    C412710   0.306   1.719  11.340 -0.3885 -0.2794 -0.2239
  866MPD2    C512711   0.383   1.629  11.414  0.5847 -0.0086 -0.2976
  866MPD2     H12712   0.480   1.696  11.056  3.2807  2.2943  1.2976
  866MPD2    H112713   0.215   1.756  11.385  0.1780  1.0124 -0.1665
  866MPD2    H212714   0.554   1.498  11.424 -0.8455  1.0249  1.7648
  866MPD2    H312715   0.349   1.587  11.508 -0.6612  2.1233  0.1967
  866MPD2     N12716   0.279   1.842  11.145 -0.5647 -0.8645  0.1802
  866MPD2    H512717   0.194   1.883  11.181  0.0508  1.8751 -1.4847
  866MPD2    N112718   0.637   1.512  11.174 -0.0655 -0.0750  0.1617
  866MPD2    H712719   0.695   1.450  11.229  0.6063 -1.3987 -2.0405
  867MPD2     C12720   2.907   0.641  16.396  0.3958  0.0769 -0.0168
  867MPD2    C112721   2.959   0.605  16.515 -0.2601 -0.1793 -0.3868
  867MPD2    C212722   2.879   0.631  16.627 -0.2226  0.2145  0.0582
  867MPD2    C312723   2.748   0.681  16.612  0.5481  0.4973 -0.4881
  867MPD2    C412724   2.705   0.714  16.488  0.0142  0.2578  0.5197
  867MPD2    C512725   2.779   0.694  16.378  0.5410  0.0387 -0.5295
  867MPD2     H12726   2.924   0.629  16.725 -1.1533 -0.1127  0.4743
  867MPD2    H112727   2.604   0.751  16.474  0.5787  0.7546 -2.2519
  867MPD2    H212728   2.968   0.646  16.306  0.5490 -1.3974  0.0057
  867MPD2    H312729   2.744   0.729  16.282 -1.6802  0.9469  0.6152
  867MPD2     N12730   2.662   0.700  16.722  0.3917 -0.1630  0.3693
  867MPD2    H512731   2.571   0.745  16.716  0.1836 -0.5998  0.2620
  867MPD2    N112732   3.093   0.558  16.515 -0.1436 -0.2178 -0.2050
  867MPD2    H712733   3.137   0.531  16.428  0.1787 -0.1536 -0.0626
  868MPD2     C12734   4.658   0.222  13.110  0.8509  0.1043  0.9530
  868MPD2    C112735   4.648   0.085  13.100 -0.4614  0.3949 -0.5323
  868MPD2    C212736   4.557   0.012  13.173  0.4067  0.5833 -0.5015
  868MPD2    C312737   4.462   0.081  13.250 -0.1100 -0.0386  0.4412
  868MPD2    C412738   4.474   0.215  13.262 -0.1139 -0.2412 -0.2614
  868MPD2    C512739   4.563   0.288  13.184  0.1758  0.0996  0.1744
  868MPD2     H12740   4.560   4.629  13.182  0.9278  0.6547  0.2196
  868MPD2    H112741   4.422   0.283  13.328  2.5828  0.5377  1.0575
  868MPD2    H212742   0.016   0.270  13.059 -1.0002  1.5467 -0.6606
  868MPD2    H312743   4.565   0.395  13.197  1.5251  0.2531 -1.3398
  868MPD2     N12744   4.373   0.015  13.335  0.2716  0.2766 -0.0555
  868MPD2    H512745   4.374   4.639  13.329 -1.0503  0.3122 -0.8723
  868MPD2    N112746   0.019   0.028  13.013  0.7784  0.2394  0.0986
  868MPD2    H712747   0.083   0.081  12.955  1.0957 -0.5551 -0.2827
  869MPD2     C12748   1.749   2.308   1.635  0.1783  0.6656  0.4753
  869MPD2    C112749   1.650   2.225   1.586  0.2988 -1.1963  0.2167
  869MPD2    C212750   1.590   2.252   1.463 -0.0394 -0.2355  0.3698
  869MPD2    C312751   1.638   2.364   1.387  0.4798 -0.4824  0.7774
  869MPD2    C412752   1.729   2.449   1.449  0.0789 -0.0331 -0.3349
  869MPD2    C512753   1.786   2.421   1.567 -0.3862 -0.2267  0.0981
  869MPD2     H12754   1.524   2.173   1.430 -0.5407  0.0455  0.7025
  869MPD2    H112755   1.764   2.541   1.403  0.1413  0.9088  1.5972
  869MPD2    H212756   1.784   2.294   1.736 -2.4410  0.6116  1.3729
  869MPD2    H312757   1.866   2.480   1.610 -0.3942  1.1406 -1.7584
  869MPD2     N12758   1.574   2.404   1.271 -0.6481 -0.3236 -0.4624
  869MPD2    H512759   1.596   2.498   1.240 -0.9054 -0.8988 -2.3841
  869MPD2    N112760   1.615   2.111   1.669 -0.1226 -0.5466 -0.8314
  869MPD2    H712761   1.654   2.106   1.763  0.8758 -0.3784 -1.2404
  870MPD2     C12762   1.202   1.408   2.110  0.0079  0.3945 -0.2259
  870MPD2    C112763   1.227   1.320   2.008  0.5216  0.3510  0.4687
  870MPD2    C212764   1.137   1.292   1.905  1.0185 -0.1372  1.2659
  870MPD2    C312765   1.015   1.355   1.914 -0.2001 -0.4928  0.1521
  870MPD2    C412766   0.986   1.440   2.017  0.5703  0.2004 -1.1923
  870MPD2    C512767   1.079   1.464   2.111 -0.4130  0.3927  0.5043
  870MPD2     H12768   1.139   1.215   1.829  1.4014 -0.5643  1.7124
  870MPD2    H112769   0.893   1.496   2.018 -0.5775 -1.7687  1.6816
  870MPD2    H212770   1.264   1.432   2.195 -2.7412 -1.0633  2.1623
  870MPD2    H312771   1.062   1.537   2.190  0.9344  0.6441  0.5781
  870MPD2     N12772   0.918   1.311   1.820 -0.8616 -0.3591  0.5534
  870MPD2    H512773   0.953   1.266   1.736  1.1195  1.2017  0.5328
  870MPD2    N112774   1.344   1.241   2.025  0.3297  0.4821  0.4368
  870MPD2    H712775   1.405   1.268   2.102  2.5423 -0.1346 -1.0911
  871MPD2     C12776   2.143   0.986  16.405  1.3208  0.0493 -0.4758
  871MPD2    C112777   2.109   0.922  16.519 -0.7735 -0.5002 -0.2447
  871MPD2    C212778   2.091   0.785  16.516 -0.2942 -0.9925  0.4649
  871MPD2    C312779   2.117   0.721  16.401 -0.1635  0.4203 -0.1012
  871MPD2    C412780   2.143   0.782  16.282 -0.5156 -0.3161  0.2775
  871MPD2    C512781   2.156   0.918  16.287  0.0300  0.1385 -0.2883
  871MPD2     H12782   2.055   0.726  16.600 -0.3580  0.4004  1.4198
  871MPD2    H112783   2.159   0.730  16.188  0.1392  1.2996 -0.5059
  871MPD2    H212784   2.144   1.095  16.404 -0.6689  0.0643  1.2891
  871MPD2    H312785   2.199   0.972  16.203 -2.7652  1.8857 -0.5909
  871MPD2     N12786   2.110   0.581  16.412  0.2679 -0.4987 -0.5401
  871MPD2    H512787   2.087   0.545  16.504  1.3550  2.4900  0.9067
  871MPD2    N112788   2.084   0.999  16.634 -0.1029 -0.2226 -0.0408
  871MPD2    H712789   2.105   1.098  16.637  0.0685 -0.2497 -0.4118
  872MPD2     C12790   2.576   3.197  13.385  0.1128  0.0791 -0.4248
  872MPD2    C112791   2.606   3.319  13.438  0.2330  0.2772  0.4844
  872MPD2    C212792   2.496   3.387  13.498 -0.2596 -0.3152  0.1966
  872MPD2    C312793   2.371   3.324  13.519 -0.0428  0.6860 -0.3427
  872MPD2    C412794   2.342   3.203  13.462  0.2370 -0.1164  0.3737
  872MPD2    C512795   2.445   3.147  13.394  0.4739  0.1926 -0.5653
  872MPD2     H12796   2.508   3.493  13.521  2.9818 -0.9319  1.3591
  872MPD2    H112797   2.249   3.151  13.481  0.8265 -1.4663 -0.4003
  872MPD2    H212798   2.642   3.140  13.321  0.4123 -1.2810  1.0985
  872MPD2    H312799   2.429   3.046  13.358 -1.0969  1.7712 -4.2864
  872MPD2     N12800   2.265   3.389  13.596  0.2006 -0.8764  0.0627
  872MPD2    H512801   2.182   3.331  13.606 -0.7569  0.1604 -1.9228
  872MPD2    N112802   2.725   3.387  13.405  0.6650 -0.0546 -0.0778
  872MPD2    H712803   2.741   3.484  13.431  2.7717 -0.2229 -0.7222
  873MPD2     C12804   0.391   2.900   1.122  0.0166  0.4262  0.2372
  873MPD2    C112805   0.260   2.924   1.076  0.0296 -0.1273  0.9056
  873MPD2    C212806   0.162   2.830   1.091 -0.3531  0.5092 -0.8272
  873MPD2    C312807   0.192   2.710   1.157 -0.1944 -0.2055 -0.1418
  873MPD2    C412808   0.315   2.700   1.217  0.2026  0.2102 -0.0562
  873MPD2    C512809   0.419   2.785   1.188 -0.6798 -0.3997  0.6500
  873MPD2     H12810   0.068   2.847   1.040 -1.1314  1.2247  0.8483
  873MPD2    H112811   0.326   2.602   1.260 -1.9541  0.0240  0.0327
  873MPD2    H212812   0.477   2.967   1.120 -0.2935  0.8248  0.3291
  873MPD2    H312813   0.518   2.757   1.221 -0.0840 -1.4648 -2.0115
  873MPD2     N12814   0.096   2.609   1.181 -0.4917 -0.3823  0.5026
  873MPD2    H512815   0.131   2.529   1.234 -0.1491 -0.4638  0.1540
  873MPD2    N112816   0.234   3.060   1.034  0.1373 -0.4333  0.2852
  873MPD2    H712817   0.307   3.127   1.055  1.4788 -2.5426  2.3617
  874MPD2     C12818   4.452   3.693  15.860 -0.1145  0.2274  0.0874
  874MPD2    C112819   4.456   3.693  16.000 -0.5383  0.5048  0.0852
  874MPD2    C212820   4.516   3.803  16.061 -0.1532  0.0179 -0.6116
  874MPD2    C312821   4.598   3.884  15.993  0.6911  0.2207 -0.3095
  874MPD2    C412822   4.604   3.871  15.856  0.4947  0.3507 -0.0680
  874MPD2    C512823   4.530   3.783  15.788  0.0164 -0.8500  0.0150
  874MPD2     H12824   4.517   3.810  16.169  0.8949 -2.1077 -0.4780
  874MPD2    H112825   4.655   3.951  15.802  0.9068 -0.2872 -0.6292
  874MPD2    H212826   4.392   3.624  15.802 -0.8485  0.7915  0.1782
  874MPD2    H312827   4.531   3.781  15.679  1.0670 -2.0906  0.0374
  874MPD2     N12828   4.689   3.966  16.049  0.2258 -0.1712  0.0422
  874MPD2    H512829   0.044   3.997  15.995 -0.5507  0.4349 -0.7773
  874MPD2    N112830   4.403   3.587  16.076 -0.4168  0.2930  0.0594
  874MPD2    H712831   4.357   3.511  16.027 -1.4241  0.5876  0.5579
  875MPD2     C12832   0.124   1.656  13.950  0.2743  0.5669 -1.1181
  875MPD2    C112833   0.073   1.784  13.962  0.0583 -0.6914  0.0507
  875MPD2    C212834   0.067   1.841  14.085  0.1459  0.1152  0.3156
  875MPD2    C312835   0.110   1.775  14.202  0.5368  0.3184 -0.2661
  875MPD2    C412836   0.157   1.648  14.194 -1.0514 -0.5857  0.3299
  875MPD2    C512837   0.160   1.591  14.070 -1.0713 -0.1637  0.3940
  875MPD2     H12838   0.016   1.935  14.102 -1.3989 -0.4817 -0.9138
  875MPD2    H112839   0.195   1.591  14.279 -0.0407 -0.2669  0.0899
  875MPD2    H212840   0.138   1.599  13.859 -0.3622 -0.9026 -0.3057
  875MPD2    H312841   0.221   1.504  14.052  0.5124  1.9935 -4.9660
  875MPD2     N12842   0.108   1.834  14.331 -0.0355 -0.0030 -0.3047
  875MPD2    H512843   0.132   1.775  14.410  2.0646  2.1555  0.6791
  875MPD2    N112844   0.038   1.845  13.840 -0.2839 -0.0893 -0.2034
  875MPD2    H712845   0.031   1.785  13.758 -1.6696  0.1130 -0.2366
  876MPD2     C12846   4.169   3.453  15.592  0.5287 -0.4661  0.4190
  876MPD2    C112847   4.302   3.441  15.611 -0.1405  1.0604 -0.5801
  876MPD2    C212848   4.350   3.361  15.721  0.1270 -0.2509  0.4059
  876MPD2    C312849   4.258   3.278  15.787  0.0311 -0.1865 -0.0958
  876MPD2    C412850   4.130   3.299  15.777  0.0940 -0.1430 -0.1862
  876MPD2    C512851   4.086   3.383  15.677 -0.2846 -0.8600  0.0527
  876MPD2     H12852   4.455   3.352  15.745  0.2965 -0.3197 -0.3816
  876MPD2    H112853   4.060   3.233  15.827 -1.7020  1.1873 -0.9877
  876MPD2    H212854   4.128   3.501  15.504  0.0367 -0.9105  0.4099
  876MPD2    H312855   3.980   3.385  15.652 -0.2829 -1.2235  0.0128
  876MPD2     N12856   4.310   3.178  15.874 -0.3023 -0.4413 -0.8805
  876MPD2    H512857   4.411   3.173  15.884 -0.4409  1.5043  1.4555
  876MPD2    N112858   4.383   3.506  15.518 -0.5414 -0.1482  0.2123
  876MPD2    H712859   4.330   3.563  15.454 -1.2981 -2.9598 -1.6410
  877MPD2     C12860   4.265   3.707  14.862  0.6365  0.1881  0.7464
  877MPD2    C112861   4.404   3.701  14.852  0.1551 -0.1250  0.1561
  877MPD2    C212862   4.472   3.692  14.730 -0.0513  0.3751 -0.0208
  877MPD2    C312863   4.391   3.688  14.613  0.5360 -0.2657 -0.3149
  877MPD2    C412864   4.256   3.705  14.626  0.2240  0.0121  0.3498
  877MPD2    C512865   4.189   3.705  14.746 -0.2614  0.5189  0.7237
  877MPD2     H12866   4.580   3.695  14.735  0.1978 -3.5280 -2.8784
  877MPD2    H112867   4.194   3.694  14.538  3.6277 -1.8520 -1.8451
  877MPD2    H212868   4.205   3.703  14.952  0.1264  1.0137  0.4345
  877MPD2    H312869   4.081   3.715  14.750 -0.4731 -1.2638 -0.7121
  877MPD2     N12870   4.446   3.685  14.482  0.4629 -0.2152 -0.5181
  877MPD2    H512871   4.380   3.687  14.405  0.6087  0.5333 -0.6301
  877MPD2    N112872   4.489   3.722  14.962  0.6229  0.3548  0.3660
  877MPD2    H712873   4.586   3.698  14.941  0.0807 -0.4792 -1.1837
  878MPD2     C12874   3.373   2.687  13.005 -0.4109 -0.6047  0.3658
  878MPD2    C112875   3.446   2.801  12.975  0.0012 -0.3155 -0.2549
  878MPD2    C212876   3.491   2.870  13.083 -0.4814  1.0396  0.4423
  878MPD2    C312877   3.468   2.821  13.211  0.8461  0.9273 -0.5058
  878MPD2    C412878   3.395   2.706  13.235 -0.1622  0.0220  0.0243
  878MPD2    C512879   3.344   2.648  13.126  0.1143  0.4672  0.5064
  878MPD2     H12880   3.535   2.968  13.070  0.7371  0.2640 -1.3038
  878MPD2    H112881   3.384   2.658  13.332 -0.4048  0.8116  0.3918
  878MPD2    H212882   3.331   2.639  12.917 -0.5789  2.7195 -1.3338
  878MPD2    H312883   3.299   2.550  13.135  3.3924 -1.2477 -1.5748
  878MPD2     N12884   3.544   2.885  13.314 -0.3997  0.2573 -0.1026
  878MPD2    H512885   3.618   2.947  13.282 -0.2950  0.3722  0.3599
  878MPD2    N112886   3.449   2.845  12.843 -0.9524  0.4128 -0.9583
  878MPD2    H712887   3.405   2.783  12.777 -0.7310 -0.9543  0.1771
  879MPD2     C12888   4.679   4.475  16.541 -0.2486  0.1895 -0.8427
  879MPD2    C112889   4.620   4.390  16.632  0.2521  0.7568  0.3387
  879MPD2    C212890   4.525   4.299  16.592 -0.3734  0.7674  0.3212
  879MPD2    C312891   4.503   4.289  16.454 -0.1822 -0.4339 -0.2046
  879MPD2    C412892   4.563   4.369  16.364 -0.2072 -0.2774  0.4230
  879MPD2    C512893   4.652   4.462  16.408  0.4845 -0.1119  0.4122
  879MPD2     H12894   4.469   4.242  16.665 -0.9076 -0.2280 -0.8530
  879MPD2    H112895   4.557   4.363  16.256 -0.4458  3.3545  0.2056
  879MPD2    H212896   0.043   4.534  16.563 -0.6923  0.5797 -0.1051
  879MPD2    H312897   4.693   4.519  16.325  1.3470 -0.0313  0.8915
  879MPD2     N12898   4.414   4.189  16.402  0.5820 -0.4455 -0.3801
  879MPD2    H512899   4.410   4.180  16.301  0.9014 -0.8921 -0.3545
  879MPD2    N112900   4.652   4.406  16.769  0.1768 -0.3563  0.9172
  879MPD2    H712901   4.723   4.476  16.787 -0.8240  0.9767 -0.2573
  880MPD2     C12902   1.350   0.801   0.709 -0.4605  0.9540 -0.3702
  880MPD2    C112903   1.434   0.916   0.694 -0.3906 -0.0454  0.6130
  880MPD2    C212904   1.568   0.904   0.654  0.6012 -0.5725 -0.5420
  880MPD2    C312905   1.618   0.775   0.628 -0.2571 -0.3471 -0.1581
  880MPD2    C412906   1.532   0.665   0.639  0.1082  0.2049  0.8754
  880MPD2    C512907   1.400   0.680   0.678  0.4381 -0.4188  0.1257
  880MPD2     H12908   1.640   0.985   0.648 -0.1677  0.2701  1.4587
  880MPD2    H112909   1.550   0.562   0.611 -2.0822 -0.0839  0.4873
  880MPD2    H212910   1.255   0.806   0.761 -2.4233 -1.3321 -3.7619
  880MPD2    H312911   1.330   0.603   0.706  0.1488 -0.1407  0.1627
  880MPD2     N12912   1.753   0.758   0.606 -0.1289  0.3668 -0.7058
  880MPD2    H512913   1.810   0.840   0.625  3.6566 -2.0111 -1.7379
  880MPD2    N112914   1.379   1.042   0.729 -0.7817  0.5499 -0.3320
  880MPD2    H712915   1.281   1.054   0.754 -0.5503 -2.2117  1.9291
  881MPD2     C12916   0.990   1.807   0.119 -0.0612 -0.1422 -0.1081
  881MPD2    C112917   1.078   1.705   0.098  0.1460 -0.6020  0.1731
  881MPD2    C212918   1.125   1.630   0.205  0.1451  0.1567  0.1596
  881MPD2    C312919   1.087   1.667   0.333  0.3850  0.2681  0.1698
  881MPD2    C412920   1.002   1.777   0.353 -0.1368  0.4817  0.4558
  881MPD2    C512921   0.961   1.844   0.247  0.0310 -0.3716 -0.5535
  881MPD2     H12922   1.191   1.545   0.193  0.7667  0.6960 -0.2171
  881MPD2    H112923   0.962   1.809   0.448 -1.0999  0.3961  0.0827
  881MPD2    H212924   0.955   1.876   0.043 -1.5233 -0.4706  0.2663
  881MPD2    H312925   0.911   1.938   0.267  1.0767  0.6769 -2.8908
  881MPD2     N12926   1.128   1.602   0.453 -0.0264 -0.7854  0.3253
  881MPD2    H512927   1.113   1.653   0.540  2.2391  1.0969 -0.3714
  881MPD2    N112928   1.089   1.657  17.662  0.5346  0.0689  0.0250
  881MPD2    H712929   1.022   1.684  17.590  0.2188 -0.5853  0.0741
  882MPD2     C12930   4.384   3.306  13.923 -0.6078 -0.6868 -0.1798
  882MPD2    C112931   4.342   3.433  13.945  0.0905  0.0391 -0.5757
  882MPD2    C212932   4.206   3.454  13.951  0.7544 -0.0767  0.2784
  882MPD2    C312933   4.117   3.349  13.953 -0.1222  0.0258  0.0572
  882MPD2    C412934   4.155   3.218  13.928  0.6587 -0.1743 -0.3901
  882MPD2    C512935   4.293   3.204  13.921  0.0886 -0.3507 -0.4451
  882MPD2     H12936   4.177   3.559  13.955  2.2535  0.2411  2.5026
  882MPD2    H112937   4.098   3.127  13.922  0.7406 -0.1595 -1.3509
  882MPD2    H212938   4.490   3.285  13.913 -0.3336 -0.1712  1.5869
  882MPD2    H312939   4.330   3.104  13.901 -0.5401 -0.8509  0.8480
  882MPD2     N12940   3.979   3.372  13.971 -0.5535 -0.1437  0.2729
  882MPD2    H512941   3.914   3.298  13.948 -2.4150  1.9590 -1.1671
  882MPD2    N112942   4.441   3.531  13.967  0.4745 -0.0798  0.6547
  882MPD2    H712943   4.531   3.484  13.976  0.5019  0.2458  2.0654
  883MPD2     C12944   1.663   3.013  15.913 -0.2369  0.1962  0.7025
  883MPD2    C112945   1.660   3.152  15.936  0.8452  0.1545  0.0834
  883MPD2    C212946   1.773   3.217  15.981  0.2335 -1.0451  0.4694
  883MPD2    C312947   1.896   3.152  15.992  0.5258  0.4032 -0.5488
  883MPD2    C412948   1.899   3.016  15.960 -0.0686  0.7749  0.2783
  883MPD2    C512949   1.787   2.949  15.926  0.8585  0.1130  0.3331
  883MPD2     H12950   1.772   3.321  16.014 -0.5590 -1.2488  1.0674
  883MPD2    H112951   1.991   2.959  15.966  0.2766  1.1631 -1.4906
  883MPD2    H212952   1.585   2.948  15.876 -1.0562  0.2110  2.4176
  883MPD2    H312953   1.785   2.845  15.899  0.8655  0.4391 -0.9363
  883MPD2     N12954   2.004   3.222  16.044  0.3622 -0.6412 -0.4313
  883MPD2    H512955   1.996   3.322  16.060  2.1726 -0.3207 -1.5333
  883MPD2    N112956   1.541   3.223  15.935  0.6406 -0.0624  0.1516
  883MPD2    H712957   1.544   3.319  15.968  2.4814 -0.6809  1.8057
  884MPD2     C12958   3.259   4.267  15.045  0.5569 -0.6319  0.6382
  884MPD2    C112959   3.207   4.263  14.920  0.1475 -0.8587 -0.7337
  884MPD2    C212960   3.077   4.312  14.897  0.2025  0.6603  0.3716
  884MPD2    C312961   2.998   4.363  14.998 -0.0228 -0.5710  0.0040
  884MPD2    C412962   3.047   4.358  15.125  0.1434  0.2587  0.1981
  884MPD2    C512963   3.172   4.305  15.146 -0.0563  0.1393 -0.5553
  884MPD2     H12964   3.047   4.309  14.793 -1.0800 -0.7730  0.7853
  884MPD2    H112965   2.990   4.399  15.208  0.6488 -1.8591  1.5967
  884MPD2    H212966   3.361   4.239  15.070  1.1500  0.3476 -0.7417
  884MPD2    H312967   3.211   4.308  15.247 -2.2668  1.3212  0.2624
  884MPD2     N12968   2.877   4.412  14.954 -0.0215 -0.0259 -0.4984
  884MPD2    H512969   2.864   4.421  14.854 -0.0592 -0.1093 -0.5010
  884MPD2    N112970   3.278   4.202  14.811 -0.3017 -0.7847  0.5397
  884MPD2    H712971   3.232   4.197  14.721  0.4242  1.7603  0.0123
  885MPD2     C12972   1.728   4.264  17.531  0.0645  0.1856  0.5103
  885MPD2    C112973   1.852   4.296  17.495 -0.7269  0.2134 -0.0825
  885MPD2    C212974   1.879   4.367  17.384 -0.3132  0.0591 -0.1577
  885MPD2    C312975   1.776   4.411  17.305 -1.1000  0.0380  0.2340
  885MPD2    C412976   1.641   4.386  17.349 -0.2302 -0.7626  0.8739
  885MPD2    C512977   1.621   4.305  17.456 -0.0583 -0.7622  0.1900
  885MPD2     H12978   1.982   4.378  17.353 -0.7034 -0.7860 -1.7654
  885MPD2    H112979   1.550   4.404  17.292  1.3200  1.2137 -0.9620
  885MPD2    H212980   1.705   4.202  17.617 -1.9018 -1.5298 -1.2522
  885MPD2    H312981   1.520   4.274  17.478 -0.1870  0.6611  1.6704
  885MPD2     N12982   1.795   4.469  17.173 -0.7693  1.2538  0.5142
  885MPD2    H512983   1.885   4.454  17.130 -1.0538  1.6912 -0.2448
  885MPD2    N112984   1.952   4.243  17.589  0.2887 -0.2928 -0.0720
  885MPD2    H712985   1.911   4.190  17.664  1.2338 -1.2757 -0.2451
  886MPD2     C12986   2.702   2.809  14.931 -0.5697 -0.5235  0.4988
  886MPD2    C112987   2.835   2.793  14.907  0.1766  0.8305  0.1990
  886MPD2    C212988   2.898   2.857  14.800 -0.1769 -0.2233 -0.3664
  886MPD2    C312989   2.820   2.938  14.716  0.4977  1.0507  0.1485
  886MPD2    C412990   2.687   2.952  14.748 -0.4813 -0.1613 -0.4584
  886MPD2    C512991   2.627   2.891  14.851  0.4061 -0.3591  0.1485
  886MPD2     H12992   3.002   2.830  14.787 -0.3822 -0.6011 -1.2197
  886MPD2    H112993   2.624   3.019  14.691  1.0167  1.8262  0.2584
  886MPD2    H212994   2.653   2.745  15.003 -3.6498  1.7199  0.3830
  886MPD2    H312995   2.523   2.900  14.882  0.1439  0.2169 -0.9172
  886MPD2     N12996   2.871   3.002  14.603  0.4823 -0.3667 -0.2618
  886MPD2    H512997   2.810   3.059  14.544  0.7831 -1.3569 -1.5425
  886MPD2    N112998   2.916   2.702  14.983  0.0309 -0.1929  0.3743
  886MPD2    H712999   3.013   2.690  14.957  0.3744  0.1141  1.5307
  887MPD2     C13000   3.550   2.874  15.310  0.4145 -0.0685  0.3171
  887MPD2    C113001   3.443   2.893  15.224 -0.3223  0.2432 -0.2662
  887MPD2    C213002   3.452   2.988  15.124  0.5176  0.2645  0.5140
  887MPD2    C313003   3.571   3.069  15.114 -0.6790 -0.1779  0.2946
  887MPD2    C413004   3.673   3.055  15.204 -0.7468 -0.0822  0.2512
  887MPD2    C513005   3.670   2.950  15.295  0.3108  0.3454 -0.7089
  887MPD2     H13006   3.376   3.005  15.048  0.5440 -1.3995  0.1057
  887MPD2    H113007   3.764   3.115  15.200 -1.3721  0.8699  0.4118
  887MPD2    H213008   3.551   2.801  15.390 -0.9403 -1.0489 -0.5696
  887MPD2    H313009   3.743   2.944  15.374 -0.0299  0.2068 -0.4084
  887MPD2     N13010   3.562   3.180  15.029  0.0263 -0.3988 -0.8227
  887MPD2    H513011   3.483   3.197  14.968 -0.7919 -0.7716  0.1372
  887MPD2    N113012   3.334   2.804  15.222 -0.2895 -0.3681  0.0672
  887MPD2    H713013   3.259   2.810  15.153 -0.6775 -0.1813  0.5060
  888MPD2     C13014   0.778   3.253  14.599  0.2020 -0.6737 -0.0175
  888MPD2    C113015   0.752   3.282  14.732 -0.5525 -0.7218 -0.2908
  888MPD2    C213016   0.805   3.404  14.781 -0.1862  0.1822 -0.7190
  888MPD2    C313017   0.854   3.506  14.698 -0.4769 -0.5299 -0.6402
  888MPD2    C413018   0.856   3.479  14.557  0.4026  0.0958 -0.5777
  888MPD2    C513019   0.821   3.355  14.515  0.3564 -0.1867  0.0041
  888MPD2     H13020   0.806   3.417  14.889 -0.3107  0.2735 -0.7289
  888MPD2    H113021   0.890   3.548  14.481 -1.1454 -0.1163 -1.4551
  888MPD2    H213022   0.740   3.168  14.544 -1.3064  0.2327 -0.3855
  888MPD2    H313023   0.830   3.330  14.409  1.2364 -1.4386  0.3797
  888MPD2     N13024   0.891   3.632  14.754 -0.0513 -0.4721 -0.3472
  888MPD2    H513025   0.877   3.644  14.854  2.5201  1.4665 -0.2177
  888MPD2    N113026   0.701   3.187  14.827  0.0559 -1.1558  0.1780
  888MPD2    H713027   0.699   3.218  14.923  2.2390 -0.3663 -0.0136
  889MPD2     C13028   3.883   2.565  12.969  0.0343 -0.0071 -0.1321
  889MPD2    C113029   4.014   2.575  13.016  0.3697  0.3880  0.2537
  889MPD2    C213030   4.052   2.704  13.054  0.0174 -0.1549  0.1917
  889MPD2    C313031   3.969   2.810  13.058 -0.3619  0.1339 -0.3496
  889MPD2    C413032   3.833   2.789  13.041 -0.1711 -0.6536 -0.3816
  889MPD2    C513033   3.790   2.665  12.999 -0.7270 -0.6468 -0.0826
  889MPD2     H13034   4.155   2.731  13.071 -0.6476  2.0006  0.7505
  889MPD2    H113035   3.755   2.862  13.063  1.4684  1.2900 -1.0420
  889MPD2    H213036   3.847   2.468  12.938  0.5437 -0.9190  2.1042
  889MPD2    H313037   3.686   2.645  12.976 -1.6330  0.8749  2.7101
  889MPD2     N13038   4.027   2.931  13.105  0.0841 -0.5675  0.4151
  889MPD2    H513039   4.128   2.944  13.096  0.0789 -1.6634 -1.1644
  889MPD2    N113040   4.106   2.473  12.970  0.1925 -0.5329  0.0416
  889MPD2    H713041   4.074   2.396  12.912  1.4351 -0.6554 -0.4987
  890MPD2     C13042   4.447   4.403  14.310 -0.0910 -0.2029  0.3076
  890MPD2    C113043   4.452   4.496  14.410 -0.7996 -0.3643 -0.6140
  890MPD2    C213044   4.459   4.446  14.541  0.7142  0.3031 -0.1606
  890MPD2    C313045   4.460   4.310  14.573  0.4540  0.0955  0.6213
  890MPD2    C413046   4.469   4.223  14.470 -0.0171  0.0568  0.0419
  890MPD2    C513047   4.459   4.268  14.342  0.0536 -0.8495  0.0380
  890MPD2     H13048   4.442   4.510  14.627  2.9129 -0.2997  0.7311
  890MPD2    H113049   4.485   4.116  14.481 -0.3375 -0.2734 -2.6413
  890MPD2    H213050   4.442   4.435  14.206  2.2853 -0.9734 -0.0519
  890MPD2    H313051   4.446   4.188  14.270 -1.2193  1.3144 -2.1368
  890MPD2     N13052   4.464   4.278  14.709  0.2209  0.4294  0.0646
  890MPD2    H513053   4.468   4.345  14.785  0.5884  1.1711 -0.6071
  890MPD2    N113054   4.420   4.627  14.380  0.3145  1.1107  1.2093
  890MPD2    H713055   4.400   4.654  14.284 -0.3023 -1.4304  0.6364
  891MPD2     C13056   2.372   2.666  16.372  0.1309 -0.8481  0.1107
  891MPD2    C113057   2.282   2.617  16.469  0.4857  0.1878 -0.2539
  891MPD2    C213058   2.331   2.533  16.569  0.2268 -0.1865 -0.1132
  891MPD2    C313059   2.463   2.496  16.579  0.2383  0.5559 -0.1831
  891MPD2    C413060   2.547   2.547  16.480 -0.1124 -0.6414 -0.7127
  891MPD2    C513061   2.507   2.632  16.379  0.2336 -0.3315  0.3257
  891MPD2     H13062   2.266   2.499  16.649 -0.1865 -0.0191 -0.3788
  891MPD2    H113063   2.651   2.518  16.492  0.4567  1.7043 -0.0935
  891MPD2    H213064   2.349   2.732  16.289  1.6479 -1.0402 -0.4608
  891MPD2    H313065   2.586   2.671  16.315 -0.9410 -1.9993 -2.1419
  891MPD2     N13066   2.505   2.413  16.685 -0.5918 -0.1704  0.2312
  891MPD2    H513067   2.434   2.382  16.751 -0.1354 -2.9481 -0.5771
  891MPD2    N113068   2.151   2.654  16.447 -0.4450 -0.2482  0.7557
  891MPD2    H713069   2.133   2.709  16.364  0.9464  1.5061  1.6100
  892MPD2     C13070   3.391   4.129  14.198  0.4812  0.1732 -0.0717
  892MPD2    C113071   3.338   4.027  14.274 -0.1466  0.0424 -0.1515
  892MPD2    C213072   3.401   3.898  14.284  0.3625  0.1947  0.0928
  892MPD2    C313073   3.511   3.882  14.202  0.6781  0.4547 -0.6396
  892MPD2    C413074   3.558   3.990  14.117  0.9821 -0.2654  0.0290
  892MPD2    C513075   3.503   4.107  14.129  0.5859  0.0668 -0.1555
  892MPD2     H13076   3.360   3.820  14.347 -3.3575  0.9663 -1.4241
  892MPD2    H113077   3.645   3.978  14.054  0.7825  1.2539 -0.5349
  892MPD2    H213078   3.347   4.228  14.200  0.0379 -0.0452  0.9545
  892MPD2    H313079   3.545   4.192  14.077 -2.2141  1.5150 -0.0752
  892MPD2     N13080   3.579   3.754  14.196  0.0959  0.4399  0.4321
  892MPD2    H513081   3.654   3.751  14.128  1.3027 -2.5359  1.9061
  892MPD2    N113082   3.219   4.052  14.338  0.4242  0.2783  0.2494
  892MPD2    H713083   3.170   4.137  14.314  0.4298  0.4619  0.8852
  893MPD2     C13084   0.242   1.800   0.836  0.2083  0.5994  0.5038
  893MPD2    C113085   0.278   1.771   0.970 -0.0661 -0.5847 -0.9573
  893MPD2    C213086   0.178   1.738   1.055 -0.3222 -0.9913  0.6062
  893MPD2    C313087   0.046   1.713   1.013  0.1056  0.6933  0.9458
  893MPD2    C413088   0.018   1.730   0.877  0.2148 -0.6891 -0.4240
  893MPD2    C513089   0.115   1.768   0.790 -0.2818  0.0691 -0.0855
  893MPD2     H13090   0.205   1.727   1.160 -1.2919 -0.9074  0.8620
  893MPD2    H113091   4.646   1.715   0.832 -0.5249  0.8950  0.6563
  893MPD2    H213092   0.313   1.837   0.763  0.6709 -0.2636  0.5149
  893MPD2    H313093   0.082   1.786   0.688  2.5905 -0.5719 -1.1085
  893MPD2     N13094   4.668   1.672   1.099 -0.1845  0.2512 -0.4545
  893MPD2    H513095   4.576   1.667   1.056  0.1249  0.3692 -1.1369
  893MPD2    N113096   0.418   1.779   1.000  0.1592  0.0638  0.2642
  893MPD2    H713097   0.489   1.800   0.931 -0.4776 -0.8340 -0.6858
  894MPD2     C13098   3.691   0.007   0.578  0.2244  0.0303  0.6723
  894MPD2    C113099   3.589   0.068   0.649  0.3404 -0.2321 -0.2004
  894MPD2    C213100   3.605   0.197   0.689  0.4182  0.8640 -0.3874
  894MPD2    C313101   3.723   0.271   0.663  0.1328 -0.1808 -0.1889
  894MPD2    C413102   3.823   0.207   0.601 -0.1330  0.3524 -0.0137
  894MPD2    C513103   3.809   0.080   0.558 -0.1193  0.3080  0.2022
  894MPD2     H13104   3.524   0.254   0.735  0.3742 -0.1435  0.7976
  894MPD2    H113105   3.912   0.254   0.560  0.3887 -0.7077 -0.1023
  894MPD2    H213106   3.691   4.629   0.543 -1.6755  0.0592  0.5809
  894MPD2    H313107   3.883   0.035   0.493 -1.1413 -3.2450  1.5024
  894MPD2     N13108   3.729   0.407   0.712 -0.0964 -0.3044  0.0575
  894MPD2    H513109   3.646   0.440   0.759 -1.6583 -2.0301 -1.4523
  894MPD2    N113110   3.475   4.724   0.694  0.2508  0.0878 -0.6942
  894MPD2    H713111   3.410   0.050   0.752  1.4570  0.6070  0.1873
  895MPD2     C13112   2.316   2.872  13.544 -0.0685 -0.1093  0.1533
  895MPD2    C113113   2.306   2.801  13.428  0.7525 -0.7614 -0.1874
  895MPD2    C213114   2.417   2.740  13.374  0.4651 -0.5265 -0.0289
  895MPD2    C313115   2.536   2.759  13.435 -0.1570  0.8438  0.6733
  895MPD2    C413116   2.551   2.828  13.552 -0.5184 -0.1141  0.5457
  895MPD2    C513117   2.438   2.886  13.610  0.9062  0.2204  1.0707
  895MPD2     H13118   2.412   2.695  13.276  1.6347  2.0538 -1.2644
  895MPD2    H113119   2.648   2.829  13.601  1.1806 -0.5875 -2.7832
  895MPD2    H213120   2.232   2.924  13.590 -1.3282 -0.7029 -1.4773
  895MPD2    H313121   2.442   2.929  13.709  4.2962 -1.9126  1.8375
  895MPD2     N13122   2.651   2.696  13.387  0.0709  0.2949  0.4170
  895MPD2    H513123   2.732   2.704  13.448 -0.1305  0.0206  0.7196
  895MPD2    N113124   2.186   2.783  13.359 -0.3030 -0.0442 -1.0326
  895MPD2    H713125   2.184   2.692  13.313 -0.5177 -0.2492 -0.6247
  896MPD2     C13126   0.525   0.883   1.586 -0.7268  0.4119  0.4217
  896MPD2    C113127   0.529   0.891   1.450  0.1842  0.3680  0.1495
  896MPD2    C213128   0.414   0.882   1.376  0.1056 -0.2855  0.2648
  896MPD2    C313129   0.301   0.858   1.443 -0.7567  0.6453 -0.3881
  896MPD2    C413130   0.294   0.844   1.575 -0.1998 -0.1516 -0.4038
  896MPD2    C513131   0.408   0.849   1.647 -0.4190  0.1210  0.4688
  896MPD2     H13132   0.408   0.895   1.269  0.2485 -1.1258  0.1566
  896MPD2    H113133   0.201   0.814   1.622 -1.5332  1.7444 -1.8532
  896MPD2    H213134   0.607   0.905   1.653 -0.9725  1.3910  0.4016
  896MPD2    H313135   0.394   0.834   1.753 -0.3002  1.5870  0.6935
  896MPD2     N13136   0.184   0.838   1.356  0.1590  0.3304  0.1776
  896MPD2    H513137   0.205   0.820   1.258 -1.1933  0.1502 -0.0787
  896MPD2    N113138   0.654   0.912   1.391 -0.1251  0.6669  0.0548
  896MPD2    H713139   0.728   0.898   1.459 -0.1181 -0.0793 -0.1052
  897MPD2     C13140   1.188   2.550   9.858  0.0299  0.5456  0.1576
  897MPD2    C113141   1.101   2.647   9.908 -0.1392  0.0886 -0.2264
  897MPD2    C213142   1.006   2.601  10.003 -0.4810 -1.1708  0.0649
  897MPD2    C313143   0.996   2.469  10.041 -0.4069 -0.3125 -0.2693
  897MPD2    C413144   1.083   2.380   9.997  0.5881 -0.0701  0.2661
  897MPD2    C513145   1.177   2.420   9.907  0.0264 -0.2256  0.3549
  897MPD2     H13146   0.921   2.661  10.035  0.4686 -0.5423  1.4028
  897MPD2    H113147   1.075   2.276  10.024  0.0738  0.1622  0.9817
  897MPD2    H213148   1.265   2.577   9.787  1.2648 -1.1191  0.8980
  897MPD2    H313149   1.238   2.340   9.868  0.3778 -0.0134  0.4735
  897MPD2     N13150   0.894   2.435  10.132  0.3814 -0.3796  0.2771
  897MPD2    H513151   0.834   2.510  10.168  1.9083  1.2534 -0.5857
  897MPD2    N113152   1.108   2.776   9.861  0.2135 -0.0936  0.4198
  897MPD2    H713153   1.166   2.796   9.780 -1.4446  2.3225 -0.1702
  898MPD2     C13154   3.082   2.933  17.524 -0.0291  0.2335  0.1572
  898MPD2    C113155   3.128   3.060  17.516  0.1694  0.2957  0.4178
  898MPD2    C213156   3.064   3.150  17.441 -0.1922  0.3726 -0.4465
  898MPD2    C313157   2.949   3.110  17.368 -0.4456  0.4097 -0.1893
  898MPD2    C413158   2.902   2.982  17.378  0.5568 -0.3852 -0.4233
  898MPD2    C513159   2.965   2.897  17.458 -0.5875 -0.3448 -0.0337
  898MPD2     H13160   3.106   3.250  17.446  2.2581 -0.7897  1.9746
  898MPD2    H113161   2.806   2.950  17.339 -0.4698  2.5727 -0.2745
  898MPD2    H213162   3.127   2.852  17.581  1.2269  0.7121 -0.1426
  898MPD2    H313163   2.932   2.795  17.475 -0.3281 -0.5262 -0.6369
  898MPD2     N13164   2.904   3.197  17.264  0.1956  0.3437  0.1868
  898MPD2    H513165   2.935   3.293  17.263  1.4054 -0.0706 -1.1609
  898MPD2    N113166   3.255   3.096  17.571 -0.0441  0.4419  0.1613
  898MPD2    H713167   3.276   3.190  17.540  0.2155  0.3926  0.1891
  899MPD2     C13168   3.639   3.935  17.051  1.1719 -0.0275 -0.1007
  899MPD2    C113169   3.750   3.982  17.122  0.0646  0.1684  0.0703
  899MPD2    C213170   3.741   3.968  17.261  0.7267  0.2168 -0.0022
  899MPD2    C313171   3.633   3.914  17.324  0.5885  0.0539  0.1143
  899MPD2    C413172   3.529   3.864  17.249  0.0683 -0.1067 -0.1433
  899MPD2    C513173   3.533   3.878  17.112  0.1735  0.2745  0.2204
  899MPD2     H13174   3.820   4.006  17.325  0.9140  0.4972 -0.3960
  899MPD2    H113175   3.440   3.820  17.293  0.8111 -0.8799  0.5921
  899MPD2    H213176   3.631   3.941  16.943  1.4442  1.8149 -0.0157
  899MPD2    H313177   3.451   3.828  17.060  0.8573 -1.4538  0.7868
  899MPD2     N13178   3.619   3.909  17.466  0.3431 -0.3023 -0.8523
  899MPD2    H513179   3.531   3.866  17.493  0.3055 -0.4612 -1.2247
  899MPD2    N113180   3.850   4.043  17.049 -0.5412 -0.3707 -0.4800
  899MPD2    H713181   3.823   4.065  16.954 -3.0127  0.8991  0.5317
  900MPD2     C13182   3.005   0.885  12.096  0.1749 -0.2537 -0.2500
  900MPD2    C113183   2.956   0.783  12.026  0.7072  0.5690  0.5181
  900MPD2    C213184   2.829   0.792  11.975  0.4011  0.0302 -0.3730
  900MPD2    C313185   2.751   0.903  11.997 -0.3305 -0.5181  0.7513
  900MPD2    C413186   2.803   1.015  12.067  0.6148  1.0594  0.9835
  900MPD2    C513187   2.930   1.002  12.115  0.7353  0.2839 -0.3154
  900MPD2     H13188   2.788   0.714  11.911 -1.0735 -0.0124  0.6102
  900MPD2    H113189   2.753   1.110  12.085 -1.3949  0.0929  0.6039
  900MPD2    H213190   3.106   0.879  12.134  0.2860 -2.8935 -1.0135
  900MPD2    H313191   2.970   1.078  12.180 -0.5862  0.9783 -0.3178
  900MPD2     N13192   2.616   0.896  11.960  0.7465  0.2518  0.3092
  900MPD2    H513193   2.590   0.808  11.919  1.0114 -0.4570  1.6488
  900MPD2    N113194   3.033   0.668  12.015  0.4129  0.1195 -0.7288
  900MPD2    H713195   3.124   0.684  12.057 -0.4117  1.3774  0.5991
  901MPD2     C13196   2.903   4.386  12.233  0.4103 -0.2242 -0.5546
  901MPD2    C113197   3.008   4.377  12.148  0.0522  0.4441  0.2523
  901MPD2    C213198   3.075   4.494  12.115 -0.1586 -0.1740 -0.1806
  901MPD2    C313199   3.039   4.617  12.164  0.3553 -0.0279  0.2747
  901MPD2    C413200   2.945   4.623  12.272  0.3750  0.3736 -0.3470
  901MPD2    C513201   2.878   4.509  12.299 -0.2339 -0.0402 -0.6131
  901MPD2     H13202   3.160   4.488  12.047  1.0268  0.1929  1.2690
  901MPD2    H113203   2.911   4.716  12.316  0.8742  1.0612 -1.4078
  901MPD2    H213204   2.836   4.303  12.250  2.3974 -1.9664 -1.0977
  901MPD2    H313205   2.788   4.514  12.359  0.0475  1.8368 -0.3706
  901MPD2     N13206   3.094   0.010  12.109  0.0943 -0.3785  0.4954
  901MPD2    H513207   3.153   4.717  12.029  0.8759  1.7225  0.6094
  901MPD2    N113208   3.051   4.262  12.089 -0.1439  0.3958  0.1403
  901MPD2    H713209   3.143   4.259  12.045 -1.4415  0.1275 -2.5842
  902MPD2     C13210   2.198   3.149  12.726 -0.1459 -0.1017 -0.1368
  902MPD2    C113211   2.276   3.259  12.719  0.9760 -0.3609  0.1977
  902MPD2    C213212   2.385   3.261  12.629  0.4328 -0.2024 -0.5251
  902MPD2    C313213   2.409   3.152  12.542 -0.0793 -0.7584  0.1567
  902MPD2    C413214   2.322   3.047  12.544  0.4730 -0.1434  0.1297
  902MPD2    C513215   2.228   3.048  12.643 -0.5626  0.1500 -0.2579
  902MPD2     H13216   2.441   3.354  12.629 -0.6786  0.4480 -2.0071
  902MPD2    H113217   2.341   2.961  12.481  1.8233 -0.9793  1.6657
  902MPD2    H213218   2.115   3.147  12.797 -0.0082  1.3657  0.0740
  902MPD2    H313219   2.164   2.960  12.648 -2.7643  1.8023  0.5429
  902MPD2     N13220   2.490   3.157  12.428 -0.3827 -0.3509 -0.0554
  902MPD2    H513221   2.489   3.079  12.363  0.4032 -0.9353  0.6327
  902MPD2    N113222   2.247   3.370  12.803  0.1557  0.0639 -0.0781
  902MPD2    H713223   2.165   3.356  12.862  0.4054  2.1332  0.7644
  903MPD2     C13224   2.594   3.384  11.616 -0.4999 -0.4452  0.1514
  903MPD2    C113225   2.537   3.405  11.733  0.2346 -0.6144 -0.3742
  903MPD2    C213226   2.405   3.443  11.736 -0.9622  0.4601 -0.2255
  903MPD2    C313227   2.338   3.442  11.617 -0.0865 -0.3748 -0.0558
  903MPD2    C413228   2.401   3.424  11.495  0.0642 -0.3392  0.0132
  903MPD2    C513229   2.534   3.399  11.494 -0.5739 -0.2577 -0.2591
  903MPD2     H13230   2.350   3.470  11.825 -0.4899 -1.7567  0.7429
  903MPD2    H113231   2.340   3.421  11.406 -0.0346  0.3445  0.0513
  903MPD2    H213232   2.698   3.354  11.610 -0.0115  1.1679  0.3890
  903MPD2    H313233   2.583   3.370  11.402 -1.8284  0.7590 -1.2353
  903MPD2     N13234   2.194   3.458  11.632  0.6209  0.2617  0.0267
  903MPD2    H513235   2.158   3.456  11.727  2.1825 -2.3637  0.5480
  903MPD2    N113236   2.615   3.394  11.848 -0.2265 -0.0851 -0.3216
  903MPD2    H713237   2.711   3.367  11.827  0.1196  1.6773 -0.9966
  904MPD2     C13238   1.973   2.395  14.273 -0.2180  1.1459 -0.8672
  904MPD2    C113239   2.034   2.481  14.186  0.0962 -0.1626  0.1886
  904MPD2    C213240   2.170   2.496  14.185 -0.2142  0.0085  0.4481
  904MPD2    C313241   2.242   2.402  14.257  0.5873  0.3382  0.4922
  904MPD2    C413242   2.182   2.315  14.347 -0.2470  0.3250  0.1297
  904MPD2    C513243   2.046   2.319  14.362 -0.1670 -0.7658 -0.3753
  904MPD2     H13244   2.222   2.562  14.116 -2.4751  3.3834  1.9722
  904MPD2    H113245   2.240   2.237  14.395  0.8385 -0.2123 -2.0458
  904MPD2    H213246   1.866   2.383  14.281  0.0234 -1.5217 -1.6385
  904MPD2    H313247   1.995   2.234  14.406  2.1671 -1.5447  0.8315
  904MPD2     N13248   2.386   2.400  14.263 -0.4007 -0.0945 -0.2999
  904MPD2    H513249   2.420   2.360  14.350 -0.6930 -0.6742 -0.4527
  904MPD2    N113250   1.956   2.571  14.104  0.3150 -0.0914 -0.3567
  904MPD2    H713251   2.011   2.629  14.041 -0.3853  1.3200  0.3382
  905MPD2     C13252   1.779   2.311  13.434 -0.2768 -0.2165 -0.1189
  905MPD2    C113253   1.871   2.401  13.486  0.6046  0.0458  0.5548
  905MPD2    C213254   1.999   2.399  13.437  0.2607 -0.2979  0.3851
  905MPD2    C313255   2.043   2.297  13.347  1.1076 -0.3555 -0.5527
  905MPD2    C413256   1.951   2.205  13.308  0.5482  0.5021 -0.5471
  905MPD2    C513257   1.824   2.211  13.350 -0.1928 -0.1748 -0.5576
  905MPD2     H13258   2.077   2.462  13.478  1.0602 -0.1732 -1.2906
  905MPD2    H113259   1.985   2.118  13.252 -0.1143  0.1792 -0.4392
  905MPD2    H213260   1.675   2.314  13.463 -0.8036 -4.3119 -1.5883
  905MPD2    H313261   1.760   2.134  13.307  0.6364 -0.3897 -1.4078
  905MPD2     N13262   2.178   2.279  13.312 -0.1116  0.4123  0.2113
  905MPD2    H513263   2.208   2.190  13.274  0.1236  0.9768 -0.9009
  905MPD2    N113264   1.821   2.487  13.583 -0.7067  0.1647  0.4182
  905MPD2    H713265   1.728   2.479  13.622  0.0556  1.6261  2.5727
  906MPD2     C13266   4.221   2.758  10.954  0.3285 -0.2022 -0.3696
  906MPD2    C113267   4.230   2.640  10.890 -0.8352  0.0701 -0.1990
  906MPD2    C213268   4.190   2.527  10.964 -0.1163 -0.1455  0.1058
  906MPD2    C313269   4.146   2.536  11.096 -0.0652 -0.3008  0.0668
  906MPD2    C413270   4.135   2.663  11.154 -0.1558 -0.0459  0.6196
  906MPD2    C513271   4.172   2.772  11.082 -0.5742 -0.0068 -0.0828
  906MPD2     H13272   4.196   2.439  10.901  2.6678  0.5790 -0.6225
  906MPD2    H113273   4.106   2.675  11.258 -0.6938  0.8325  0.3681
  906MPD2    H213274   4.234   2.848  10.895 -1.2195  0.1889 -0.1224
  906MPD2    H313275   4.156   2.868  11.130 -0.8796  1.3939 -2.9630
  906MPD2     N13276   4.091   2.425  11.164 -0.3402 -0.0154  0.1554
  906MPD2    H513277   4.044   2.441  11.252 -2.0720 -0.9817 -0.6022
  906MPD2    N113278   4.271   2.628  10.757 -0.9621  0.0018 -0.1362
  906MPD2    H713279   4.266   2.539  10.707  0.3411  0.0485 -0.3499
  907MPD2     C13280   3.236   1.687  15.677  0.3609 -0.7076 -0.5921
  907MPD2    C113281   3.210   1.581  15.755 -0.4505  0.1319 -0.1221
  907MPD2    C213282   3.229   1.589  15.894 -0.5970  0.2950 -0.4119
  907MPD2    C313283   3.266   1.706  15.947 -0.3430  0.1212  0.3331
  907MPD2    C413284   3.302   1.812  15.868  0.7949 -0.1237 -0.0797
  907MPD2    C513285   3.283   1.800  15.733 -0.2810  0.1151 -0.1417
  907MPD2     H13286   3.186   1.508  15.951  0.7780  0.3023  0.6224
  907MPD2    H113287   3.343   1.903  15.910  0.9947  0.4472 -1.5040
  907MPD2    H213288   3.220   1.682  15.570 -0.5143 -0.0998 -0.4897
  907MPD2    H313289   3.316   1.883  15.672 -0.0558  0.2770  0.1954
  907MPD2     N13290   3.275   1.720  16.089 -0.5311  0.4669 -0.0395
  907MPD2    H513291   3.263   1.633  16.141 -0.7691  0.4554 -0.1180
  907MPD2    N113292   3.154   1.456  15.707 -0.4098 -0.0751  0.5267
  907MPD2    H713293   3.134   1.381  15.771  2.0673 -1.2851 -0.1106
  908MPD2     C13294   0.957   2.880   8.994  0.1755 -0.0868  0.4893
  908MPD2    C113295   1.036   2.799   9.073  0.1556  0.3778 -0.2976
  908MPD2    C213296   1.057   2.833   9.205  0.0363  0.7211  0.0982
  908MPD2    C313297   1.001   2.941   9.269 -0.2703  0.3889 -0.1551
  908MPD2    C413298   0.906   3.012   9.191  0.4949  0.1078  0.2027
  908MPD2    C513299   0.884   2.976   9.056  0.4050  0.1535  0.4311
  908MPD2     H13300   1.123   2.768   9.262 -0.1667  1.3597  1.0562
  908MPD2    H113301   0.853   3.101   9.221 -1.4536 -0.9041 -0.2715
  908MPD2    H213302   0.942   2.866   8.888  1.1949 -0.8471  0.4437
  908MPD2    H313303   0.817   3.035   8.995 -0.2200 -1.9804 -0.9345
  908MPD2     N13304   1.034   2.976   9.406 -0.3816 -0.7091  0.4182
  908MPD2    H513305   1.106   2.919   9.448  1.3109  0.4416 -0.8979
  908MPD2    N113306   1.106   2.691   9.014 -0.8579  0.4131  0.2673
  908MPD2    H713307   1.177   2.647   9.071 -2.9055 -3.0037  0.1886
  909MPD2     C13308   0.963   0.351  11.308  0.6534 -0.2261  0.2773
  909MPD2    C113309   0.960   0.488  11.287 -0.2914 -0.3893 -0.5000
  909MPD2    C213310   0.887   0.568  11.373  0.5183  0.3196 -0.1144
  909MPD2    C313311   0.834   0.526  11.496 -0.1121 -0.4357  0.6758
  909MPD2    C413312   0.854   0.391  11.521 -0.4049  0.1365 -0.4409
  909MPD2    C513313   0.898   0.308  11.424  0.0245 -0.2238  0.2214
  909MPD2     H13314   0.880   0.673  11.346 -0.7180  0.9146  2.4781
  909MPD2    H113315   0.803   0.349  11.606  0.8468  0.7700  0.6192
  909MPD2    H213316   1.010   0.279  11.244 -0.1332 -0.1518 -0.3830
  909MPD2    H313317   0.885   0.202  11.443 -1.4332 -0.1383 -0.3065
  909MPD2     N13318   0.771   0.613  11.586  0.2954  1.3759 -0.4218
  909MPD2    H513319   0.753   0.708  11.554  1.9428  2.0204  0.5321
  909MPD2    N113320   1.023   0.546  11.177  0.2336 -0.9261  0.5646
  909MPD2    H713321   1.003   0.642  11.150  0.8842 -0.5202  1.5194
  910MPD2     C13322   2.680   2.698  15.819  0.2924  0.7039  0.1314
  910MPD2    C113323   2.610   2.581  15.799 -0.6703 -0.2730  0.6193
  910MPD2    C213324   2.530   2.570  15.686  0.2108 -0.2517  0.0377
  910MPD2    C313325   2.516   2.675  15.593 -0.3698 -0.0755 -0.0341
  910MPD2    C413326   2.601   2.787  15.607  0.3354  0.2016  0.0184
  910MPD2    C513327   2.677   2.792  15.717 -0.5081  0.5544  0.0224
  910MPD2     H13328   2.478   2.476  15.675  3.4141 -2.4292  3.4126
  910MPD2    H113329   2.605   2.865  15.532 -0.4576 -0.3041 -0.5531
  910MPD2    H213330   2.730   2.721  15.912  0.6329  1.3668 -0.2164
  910MPD2    H313331   2.742   2.878  15.721  0.6984 -0.3612  0.2373
  910MPD2     N13332   2.440   2.670  15.477 -0.5455  0.3578 -0.3703
  910MPD2    H513333   2.467   2.733  15.402 -0.4083 -1.4630 -1.8583
  910MPD2    N113334   2.618   2.466  15.875 -0.1626  0.4022 -0.3348
  910MPD2    H713335   2.592   2.377  15.833 -0.4832  1.1620 -1.7525
  911MPD2     C13336   0.810   2.603  16.208 -0.3653 -0.1703  1.4235
  911MPD2    C113337   0.786   2.675  16.328 -0.0798 -0.1283 -0.0946
  911MPD2    C213338   0.722   2.798  16.327  0.1277 -0.0076 -0.0435
  911MPD2    C313339   0.677   2.855  16.206 -0.3896 -0.3564 -0.3298
  911MPD2    C413340   0.692   2.782  16.090  0.1744  0.1222 -0.1103
  911MPD2    C513341   0.761   2.662  16.092 -0.2796  0.3584 -0.1443
  911MPD2     H13342   0.708   2.860  16.415  0.5217  0.2660 -0.1738
  911MPD2    H113343   0.650   2.826  16.000  2.7965  1.8457 -0.4841
  911MPD2    H213344   0.854   2.504  16.217 -0.1396 -0.5251 -3.5252
  911MPD2    H313345   0.773   2.616  15.994 -0.6168 -0.1047  0.0368
  911MPD2     N13346   0.612   2.989  16.205  0.1159 -0.4926  0.1995
  911MPD2    H513347   0.560   3.016  16.287  1.2929 -2.6565  1.6812
  911MPD2    N113348   0.845   2.616  16.444  0.2571 -0.0770  0.3454
  911MPD2    H713349   0.897   2.530  16.425 -0.6846 -0.3602 -0.8958
  912MPD2     C13350   0.330   2.652  15.763 -0.3888 -1.0814  0.6337
  912MPD2    C113351   0.294   2.686  15.888 -0.1529 -0.1979  0.0863
  912MPD2    C213352   0.273   2.587  15.982 -0.5116 -0.5099 -0.0041
  912MPD2    C313353   0.266   2.460  15.945 -0.1064 -0.0595  0.2719
  912MPD2    C413354   0.286   2.423  15.817  0.1600  0.2856 -0.3726
  912MPD2    C513355   0.320   2.520  15.725 -0.3325 -0.5343 -0.5452
  912MPD2     H13356   0.254   2.612  16.086  0.2117 -2.3069  0.5610
  912MPD2    H113357   0.281   2.324  15.775  0.9051  0.4246 -0.7869
  912MPD2    H213358   0.356   2.725  15.688 -1.7026  1.0783  2.3077
  912MPD2    H313359   0.350   2.488  15.626  0.5121 -3.1866  0.5501
  912MPD2     N13360   0.225   2.366  16.046 -0.3220 -0.3450  0.6334
  912MPD2    H513361   0.228   2.400  16.142 -0.7512  2.6004 -0.3834
  912MPD2    N113362   0.276   2.828  15.916 -0.1707 -0.2791 -0.4238
  912MPD2    H713363   0.305   2.893  15.843 -2.0383  1.9471  0.8105
  913MPD2     C13364   0.287   4.268   9.836 -0.6420 -0.5158  0.2417
  913MPD2    C113365   0.387   4.358   9.849 -0.5986 -0.1023 -0.1420
  913MPD2    C213366   0.427   4.419   9.733 -0.0687  0.4340  0.2998
  913MPD2    C313367   0.375   4.392   9.608 -0.0491  0.3903 -0.3264
  913MPD2    C413368   0.266   4.306   9.603 -0.3908  0.6163  0.2701
  913MPD2    C513369   0.226   4.248   9.712  0.1315  0.2348 -0.4348
  913MPD2     H13370   0.510   4.489   9.740 -0.2139  0.3575  2.6559
  913MPD2    H113371   0.210   4.291   9.511  2.1699  0.9139 -1.3452
  913MPD2    H213372   0.251   4.212   9.921 -0.5000 -0.3397  0.4177
  913MPD2    H313373   0.140   4.181   9.712  1.7746 -1.8497 -0.9499
  913MPD2     N13374   0.421   4.454   9.488 -0.2494  0.6381  0.0550
  913MPD2    H513375   0.386   4.415   9.401 -0.7848 -0.7300  0.8911
  913MPD2    N113376   0.454   4.367   9.972  0.4910  0.1891 -0.4775
  913MPD2    H713377   0.423   4.307  10.048 -2.2961  1.3805 -0.6671
  914MPD2     C13378   2.813   3.720  11.327 -0.4235 -0.5146 -0.4468
  914MPD2    C113379   2.788   3.845  11.377 -0.6123  0.0028 -0.1510
  914MPD2    C213380   2.804   3.865  11.514 -0.0023 -0.0253 -0.4655
  914MPD2    C313381   2.853   3.774  11.600 -0.2852 -0.2353  0.4119
  914MPD2    C413382   2.882   3.649  11.542  0.0626  0.0567  0.1528
  914MPD2    C513383   2.869   3.626  11.407  0.1756 -0.3362  0.5344
  914MPD2     H13384   2.775   3.960  11.558 -2.0439 -1.1851  0.6949
  914MPD2    H113385   2.919   3.572  11.610 -1.4163  1.1402  2.1930
  914MPD2    H213386   2.805   3.714  11.219  1.0032  0.8047 -0.6147
  914MPD2    H313387   2.883   3.529  11.361  0.5171 -0.8223  1.6623
  914MPD2     N13388   2.885   3.816  11.724  0.8100  0.2127 -0.3647
  914MPD2    H513389   2.858   3.912  11.744  2.0848  0.4381  0.3248
  914MPD2    N113390   2.744   3.938  11.283  0.1604 -0.4304  0.0283
  914MPD2    H713391   2.711   3.900  11.195 -0.5410  1.0684 -0.3447
  915MPD2     C13392   1.773   3.976  15.390 -0.3326  0.4999 -0.1622
  915MPD2    C113393   1.684   4.076  15.364 -0.2148 -0.4261 -0.1760
  915MPD2    C213394   1.608   4.128  15.466  0.1783 -0.1676 -1.1379
  915MPD2    C313395   1.632   4.086  15.596 -0.3111 -0.1654 -0.5119
  915MPD2    C413396   1.706   3.975  15.616 -0.1227  0.1996 -0.1535
  915MPD2    C513397   1.781   3.926  15.512 -0.0070 -0.2004 -0.6940
  915MPD2     H13398   1.520   4.188  15.447  0.9156  0.9945 -0.8563
  915MPD2    H113399   1.714   3.922  15.710  0.2386 -0.8974 -0.8052
  915MPD2    H213400   1.837   3.940  15.310  0.2297  0.1444  0.4462
  915MPD2    H313401   1.850   3.846  15.538 -0.2005 -0.3759 -0.7249
  915MPD2     N13402   1.560   4.152  15.703  0.5321  0.1343 -0.5587
  915MPD2    H513403   1.489   4.217  15.671  0.6827  1.3870  1.6095
  915MPD2    N113404   1.664   4.095  15.221  0.6837  0.0876  0.2534
  915MPD2    H713405   1.706   4.030  15.155  0.1230 -0.4074  0.3749
  916MPD2     C13406   0.022   2.815  15.634  0.4844 -0.5233 -0.4314
  916MPD2    C113407   4.675   2.732  15.713 -0.4197 -0.1633 -0.4131
  916MPD2    C213408   4.694   2.591  15.690  0.3613  0.0459  0.5578
  916MPD2    C313409   0.039   2.540  15.575 -0.1923  0.1159  0.1021
  916MPD2    C413410   0.111   2.631  15.500 -0.2011  0.6792  0.3139
  916MPD2    C513411   0.106   2.762  15.539  0.5095 -0.5678  0.1321
  916MPD2     H13412   4.639   2.525  15.755 -0.6920  0.6274  0.2529
  916MPD2    H113413   0.180   2.610  15.419  0.3815  0.7314  0.7971
  916MPD2    H213414   0.012   2.923  15.630  0.9763 -0.4970 -0.9868
  916MPD2    H313415   0.161   2.824  15.469 -0.7897  0.3727 -0.0538
  916MPD2     N13416   0.036   2.404  15.540 -0.5001  0.3998 -0.3382
  916MPD2    H513417   4.711   2.338  15.599  1.6479 -1.9831 -1.1933
  916MPD2    N113418   4.585   2.799  15.804  0.0505 -0.3925 -0.0278
  916MPD2    H713419   4.565   2.898  15.796  2.5745  0.0357 -1.1360
  917MPD2     C13420   4.398   0.303  10.768 -0.1477 -0.1151  0.5218
  917MPD2    C113421   4.483   0.311  10.871 -0.3224  0.0609 -0.3578
  917MPD2    C213422   4.594   0.385  10.850 -0.6103  0.0575  0.1315
  917MPD2    C313423   4.624   0.436  10.727  0.7385  0.5481  0.6292
  917MPD2    C413424   4.544   0.409  10.617 -0.3003 -0.1291  0.4005
  917MPD2    C513425   4.431   0.339  10.639 -0.4921  0.3955 -0.0029
  917MPD2     H13426   4.671   0.392  10.926  1.0373 -0.1012 -1.5094
  917MPD2    H113427   4.568   0.449  10.519  1.8553 -0.5354  0.7707
  917MPD2    H213428   4.299   0.261  10.780  0.2333 -1.1900 -0.0449
  917MPD2    H313429   4.363   0.322  10.556 -1.8019 -2.0827  1.5846
  917MPD2     N13430   4.716   0.543  10.713  0.0672  0.0036  0.8480
  917MPD2    H513431   4.711   0.585  10.621  1.0092 -1.2797  0.2104
  917MPD2    N113432   4.436   0.263  10.994  0.8191  0.2044 -0.1655
  917MPD2    H713433   4.346   0.216  10.994  0.4247  0.9507  0.6945
  918MPD2     C13434   4.656   0.546  11.947 -0.1947  0.3340  0.2309
  918MPD2    C113435   0.009   0.483  11.855  0.4100  0.3229  0.0883
  918MPD2    C213436   4.681   0.419  11.743 -0.0549  0.5425 -0.2821
  918MPD2    C313437   4.544   0.420  11.728  0.6607  0.8923 -0.3494
  918MPD2    C413438   4.463   0.478  11.824 -0.3218  0.3788 -0.1199
  918MPD2    C513439   4.517   0.540  11.932 -0.7686 -0.1799 -0.5045
  918MPD2     H13440   0.016   0.368  11.668  0.0889  2.2251 -1.3095
  918MPD2    H113441   4.356   0.465  11.812 -0.3829 -1.7447  2.7973
  918MPD2    H213442   4.694   0.585  12.041 -2.1995  2.3176  0.2326
  918MPD2    H313443   4.449   0.572  12.009 -0.0538  0.1970 -0.0278
  918MPD2     N13444   4.494   0.357  11.614  0.3914 -0.1449  0.3183
  918MPD2    H513445   4.560   0.317  11.549 -1.4393 -1.9497 -0.4536
  918MPD2    N113446   0.150   0.465  11.876  0.1326 -0.1754 -0.0436
  918MPD2    H713447   0.194   0.400  11.811 -0.9317 -0.2979 -0.6568
  919MPD2     C13448   0.557   4.234  11.438  0.7295 -0.4169 -0.8981
  919MPD2    C113449   0.436   4.185  11.405  0.1154  0.1136  0.0918
  919MPD2    C213450   0.369   4.228  11.295  0.5618 -0.1335 -0.0563
  919MPD2    C313451   0.418   4.342  11.230 -0.1765  0.2093 -0.6186
  919MPD2    C413452   0.543   4.389  11.262  0.6892 -0.9168 -0.5662
  919MPD2    C513453   0.618   4.330  11.360  0.7263  0.2017 -0.2269
  919MPD2     H13454   0.283   4.174  11.257  0.6659 -0.9492  0.8606
  919MPD2    H113455   0.582   4.470  11.203 -0.9722  1.6003  1.7733
  919MPD2    H213456   0.621   4.184  11.510  2.3424 -0.2482 -2.1996
  919MPD2    H313457   0.717   4.366  11.385  1.5586 -2.1226 -0.2618
  919MPD2     N13458   0.346   4.392  11.121 -0.9508 -0.2477  0.7588
  919MPD2    H513459   0.394   4.471  11.078  1.2544 -1.5359  0.8779
  919MPD2    N113460   0.383   4.078  11.480  0.2866  0.3468 -0.0839
  919MPD2    H713461   0.311   4.025  11.432 -1.1526  1.3679  0.9594
  920MPD2     C13462   0.417   4.702  10.191 -0.4473  0.7371  0.0418
  920MPD2    C113463   0.294   4.643  10.193  0.1557  0.2193  0.7690
  920MPD2    C213464   0.248   4.590  10.307 -0.6490 -0.5213 -0.6661
  920MPD2    C313465   0.316   4.613  10.428 -0.1922 -0.0073 -0.5579
  920MPD2    C413466   0.437   4.678  10.430 -0.2952 -0.6583 -0.9208
  920MPD2    C513467   0.492   4.708  10.308 -0.3684  0.1784 -0.0208
  920MPD2     H13468   0.147   4.551  10.303 -1.5368  1.6527  0.9170
  920MPD2    H113469   0.510   4.689  10.510 -0.1792  0.0758 -1.1300
  920MPD2    H213470   0.464   0.023  10.105  1.8933 -1.3915  0.1588
  920MPD2    H313471   0.592   0.025  10.300 -0.5272  0.7621  1.0271
  920MPD2     N13472   0.262   4.557  10.543  0.4930  0.1739 -0.6175
  920MPD2    H513473   0.175   4.508  10.528  0.8113 -0.8066  0.7950
  920MPD2    N113474   0.220   4.635  10.079 -0.0155 -0.3345 -0.2617
  920MPD2    H713475   0.119   4.623  10.081 -0.1342  0.4810 -1.4701
  921MPD2     C13476   1.341   3.075  16.544  0.0803  0.8920  0.0034
  921MPD2    C113477   1.401   2.956  16.580  0.1931 -0.7909 -0.9414
  921MPD2    C213478   1.347   2.878  16.683 -0.1036 -0.0920 -1.2670
  921MPD2    C313479   1.240   2.927  16.748 -0.1236 -0.3607  0.2723
  921MPD2    C413480   1.180   3.042  16.703 -0.7835 -0.1789 -0.3512
  921MPD2    C513481   1.225   3.119  16.605 -0.1861 -0.6405  0.0630
  921MPD2     H13482   1.388   2.779  16.702  1.0361  0.4093 -1.1627
  921MPD2    H113483   1.093   3.080  16.755 -0.4422 -0.8222  0.6920
  921MPD2    H213484   1.359   3.133  16.454  0.8081 -0.2658 -0.5909
  921MPD2    H313485   1.171   3.209  16.580 -0.0903 -0.3798  0.7959
  921MPD2     N13486   1.174   2.841  16.837  0.5036 -1.1303  0.6626
  921MPD2    H513487   1.085   2.864  16.881 -0.5702  0.3192 -2.2881
  921MPD2    N113488   1.528   2.920  16.519 -0.5918 -0.7148 -0.6381
  921MPD2    H713489   1.567   2.971  16.441  2.1327  1.4530  2.1566
  922MPD2     C13490   2.269   0.768  17.082 -0.0116  0.7104  0.0862
  922MPD2    C113491   2.264   0.787  17.217 -0.3648  0.0249  0.2834
  922MPD2    C213492   2.227   0.674  17.296 -1.2682 -0.2379 -0.2150
  922MPD2    C313493   2.213   0.548  17.242 -0.8389 -0.5085 -0.5199
  922MPD2    C413494   2.210   0.532  17.106 -0.3077 -0.0666  0.1940
  922MPD2    C513495   2.243   0.642  17.028 -0.1307 -1.1531  0.1932
  922MPD2     H13496   2.218   0.683  17.404  0.4743 -0.9609 -0.0208
  922MPD2    H113497   2.188   0.439  17.055 -1.2912  1.0543 -1.4211
  922MPD2    H213498   2.289   0.843  17.006  0.4212  1.3028  0.7848
  922MPD2    H313499   2.232   0.633  16.920 -0.6996 -1.8632  0.3157
  922MPD2     N13500   2.194   0.442  17.336 -0.3613  0.7304  0.2300
  922MPD2    H513501   2.183   0.464  17.435  0.5926 -0.2767  0.5718
  922MPD2    N113502   2.299   0.909  17.279  0.7150  0.5498  0.2434
  922MPD2    H713503   2.297   0.905  17.381  3.8528  0.6224  0.3044
  923MPD2     C13504   3.427   2.361   8.753 -0.1812  0.3245 -0.2025
  923MPD2    C113505   3.432   2.486   8.802 -0.2984  0.1211  0.2823
  923MPD2    C213506   3.535   2.530   8.875 -0.3805  0.9311 -0.3150
  923MPD2    C313507   3.642   2.450   8.897  0.8882 -0.5938  0.5463
  923MPD2    C413508   3.640   2.323   8.847  0.1899  0.6274 -0.6702
  923MPD2    C513509   3.535   2.275   8.779 -0.0253 -0.2088 -0.0661
  923MPD2     H13510   3.520   2.630   8.914 -1.3118 -0.2673  2.4031
  923MPD2    H113511   3.721   2.252   8.845  1.2441  1.8068  0.4008
  923MPD2    H213512   3.348   2.325   8.687  0.6336  1.0074 -1.5332
  923MPD2    H313513   3.547   2.179   8.730  0.8739  0.2451 -0.7350
  923MPD2     N13514   3.753   2.485   8.980 -0.1991 -0.0393 -0.2653
  923MPD2    H513515   3.829   2.419   8.995  0.9980  1.3435 -0.3029
  923MPD2    N113516   3.318   2.564   8.765 -0.6433 -0.8084 -0.8012
  923MPD2    H713517   3.232   2.522   8.732 -0.0616 -0.6419 -2.5859
  924MPD2     C13518   3.205   1.132  16.734  0.0501  0.9442  0.1525
  924MPD2    C113519   3.203   1.169  16.597  0.7355 -0.4615 -0.0185
  924MPD2    C213520   3.256   1.285  16.552 -0.5726 -0.8946  0.2539
  924MPD2    C313521   3.320   1.368  16.636 -0.2224 -0.1312  0.2686
  924MPD2    C413522   3.332   1.333  16.770 -0.4718 -0.2640  0.0753
  924MPD2    C513523   3.272   1.219  16.817 -0.1396 -0.1852  0.0720
  924MPD2     H13524   3.245   1.311  16.447 -0.8773  1.4136  0.8694
  924MPD2    H113525   3.388   1.391  16.844 -2.5320  0.9743  0.6682
  924MPD2    H213526   3.164   1.039  16.772 -1.3039  1.9690  1.1925
  924MPD2    H313527   3.291   1.201  16.922 -1.8993  1.8745  0.7422
  924MPD2     N13528   3.379   1.487  16.591  0.1907  0.0353  0.1724
  924MPD2    H513529   3.420   1.551  16.659  0.7538 -2.0682  1.8202
  924MPD2    N113530   3.130   1.087  16.506  0.7939  0.3434  0.0762
  924MPD2    H713531   3.055   1.031  16.545  0.7717  0.0679 -0.3637
  925MPD2     C13532   2.085   3.792  14.356 -0.4954  0.0593 -0.3863
  925MPD2    C113533   2.024   3.678  14.321 -0.0949 -0.2141 -0.0613
  925MPD2    C213534   1.945   3.616  14.421  0.4139 -0.4464  0.3674
  925MPD2    C313535   1.921   3.673  14.543  0.8166 -0.5801 -0.1324
  925MPD2    C413536   1.992   3.785  14.576  0.3697 -0.5085  0.0463
  925MPD2    C513537   2.077   3.851  14.484  0.2026 -0.8350 -0.4720
  925MPD2     H13538   1.892   3.523  14.404  0.3024 -0.3889  0.3940
  925MPD2    H113539   1.988   3.832  14.674  1.2868 -0.3863  0.0275
  925MPD2    H213540   2.152   3.844  14.288 -0.1148  0.4554  0.2850
  925MPD2    H313541   2.142   3.929  14.522  0.6388 -1.2957 -0.2656
  925MPD2     N13542   1.855   3.593  14.636 -0.4474  0.1576  0.5159
  925MPD2    H513543   1.827   3.503  14.599  0.4106  0.5449 -1.0930
  925MPD2    N113544   2.020   3.626  14.191 -0.0046  0.2817 -0.8900
  925MPD2    H713545   1.959   3.548  14.170  0.1945 -0.0191 -0.3498
  926MPD2     C13546   0.982   1.924  13.512  0.2586  0.4887 -0.8360
  926MPD2    C113547   0.900   2.025  13.468  0.9104  0.5819 -0.4396
  926MPD2    C213548   0.948   2.137  13.401  0.6507  0.0123 -0.1650
  926MPD2    C313549   1.086   2.148  13.372 -0.0902  0.0208 -0.4563
  926MPD2    C413550   1.164   2.048  13.424  0.4076  0.7311  0.4757
  926MPD2    C513551   1.115   1.935  13.482  0.2236  0.0007 -0.5713
  926MPD2     H13552   0.878   2.216  13.377  0.3919 -0.7389 -1.8669
  926MPD2    H113553   1.268   2.044  13.396  0.1140  1.1868 -0.6795
  926MPD2    H213554   0.945   1.838  13.567  0.5839  0.7181 -0.2690
  926MPD2    H313555   1.178   1.853  13.513  1.2348  0.9936 -0.0149
  926MPD2     N13556   1.145   2.249  13.297 -0.1439 -0.0352 -0.7568
  926MPD2    H513557   1.239   2.239  13.262  0.2731  0.0860  0.3113
  926MPD2    N113558   0.764   2.031  13.505  0.4830  0.1936  0.0754
  926MPD2    H713559   0.730   2.117  13.463  2.0437 -0.4242 -2.4294
  927MPD2     C13560   1.328   3.857   0.319  0.4376  0.1637 -0.2565
  927MPD2    C113561   1.441   3.930   0.295  0.1728 -0.3018  0.5611
  927MPD2    C213562   1.509   3.908   0.176  0.1618 -0.8122  0.6284
  927MPD2    C313563   1.469   3.812   0.089 -0.2386 -0.1962 -0.0837
  927MPD2    C413564   1.345   3.750   0.101  0.7149 -0.1768  0.7832
  927MPD2    C513565   1.287   3.772   0.218 -0.4910  0.3028  0.0135
  927MPD2     H13566   1.597   3.966   0.152  0.0987 -1.1225 -0.3633
  927MPD2    H113567   1.309   3.677   0.029  1.9480  1.5157 -1.5687
  927MPD2    H213568   1.274   3.868   0.413  1.4951 -2.1014  0.6369
  927MPD2    H313569   1.192   3.724   0.239 -0.9164  0.7889 -0.7959
  927MPD2     N13570   1.549   3.798  17.677 -0.0725  0.4804  0.2670
  927MPD2    H513571   1.625   3.865  17.678 -0.7886  1.2953  0.0562
  927MPD2    N113572   1.502   4.014   0.394  0.4841  0.7939  0.5862
  927MPD2    H713573   1.465   4.013   0.489 -3.0701 -1.0682 -0.8448
  928MPD2     C13574   3.455   2.130   0.611 -0.5012  0.0568 -0.1722
  928MPD2    C113575   3.525   2.208   0.702  1.0590  0.3275  0.0741
  928MPD2    C213576   3.611   2.310   0.650 -0.2220 -0.6748  0.2662
  928MPD2    C313577   3.628   2.328   0.515  0.0629  0.4199 -1.1662
  928MPD2    C413578   3.559   2.246   0.428  0.3398  0.7865  0.3816
  928MPD2    C513579   3.485   2.143   0.478 -0.2574 -0.0194  0.3488
  928MPD2     H13580   3.673   2.367   0.719  0.2806  1.0612 -1.6304
  928MPD2    H113581   3.577   2.250   0.321 -0.0643  0.2694  0.2910
  928MPD2    H213582   3.386   2.051   0.637 -0.8899  0.1653 -0.8699
  928MPD2    H313583   3.434   2.079   0.408  1.8066 -1.7293  0.4413
  928MPD2     N13584   3.712   2.422   0.461 -0.5999 -0.8807 -0.0660
  928MPD2    H513585   3.707   2.426   0.360  0.7926 -1.2876 -0.1553
  928MPD2    N113586   3.495   2.197   0.838  0.2758  0.2451 -0.2193
  928MPD2    H713587   3.443   2.112   0.859 -1.3963  1.2255 -0.3452
  929MPD2     C13588   2.449   3.008   9.388  0.2963  0.1618  0.0778
  929MPD2    C113589   2.447   2.874   9.420  0.2191 -0.6674 -0.9461
  929MPD2    C213590   2.328   2.806   9.433 -0.0437  0.5309 -0.3860
  929MPD2    C313591   2.215   2.887   9.429  0.0222  0.3691 -0.5929
  929MPD2    C413592   2.215   3.018   9.407  0.5848  0.6023 -0.4727
  929MPD2    C513593   2.333   3.080   9.396  0.4928  0.1590 -0.0599
  929MPD2     H13594   2.327   2.701   9.463 -1.4771  0.7543  0.3602
  929MPD2    H113595   2.122   3.072   9.421  0.1702  0.1914 -1.6607
  929MPD2    H213596   2.541   3.066   9.381  0.5207 -0.0317  1.3166
  929MPD2    H313597   2.340   3.188   9.392 -1.5324  0.3253  1.0110
  929MPD2     N13598   2.084   2.840   9.455 -0.4416  0.5723  0.7821
  929MPD2    H513599   2.005   2.903   9.453 -0.1441  0.9602  1.0044
  929MPD2    N113600   2.565   2.809   9.411  0.6291  0.2676  0.4436
  929MPD2    H713601   2.648   2.867   9.406 -0.6649  2.0470 -0.5986
  930MPD2     C13602   1.029   0.098  13.754 -0.2192 -0.2705 -0.5147
  930MPD2    C113603   0.962   0.177  13.660 -0.5449 -0.0031 -0.1852
  930MPD2    C213604   0.850   0.124  13.594  0.0660  0.4739  0.5898
  930MPD2    C313605   0.800   0.003  13.633  0.0558  0.4470  0.1780
  930MPD2    C413606   0.868   4.656  13.725  0.2253 -0.0622 -0.4685
  930MPD2    C513607   0.986   4.696  13.783 -0.1999  0.0035  0.3203
  930MPD2     H13608   0.793   0.189  13.529  1.4412 -0.1586 -1.2182
  930MPD2    H113609   0.830   4.556  13.746 -2.0378  0.6620 -1.1062
  930MPD2    H213610   1.110   0.146  13.808 -1.0204  1.0968 -0.5140
  930MPD2    H313611   1.042   4.646  13.861 -2.4532  0.5522  2.2868
  930MPD2     N13612   0.680   4.670  13.583  0.0520 -0.4630 -0.6083
  930MPD2    H513613   0.649   4.590  13.637  0.6470 -1.4828 -1.7813
  930MPD2    N113614   1.007   0.307  13.635  0.0721  0.6166 -0.1390
  930MPD2    H713615   1.091   0.335  13.685  1.3663 -3.0216 -0.2414
  931MPD2     C13616   1.543   4.303   1.177 -0.0756 -0.7608  0.0254
  931MPD2    C113617   1.550   4.201   1.085 -0.2408  1.0380  0.1679
  931MPD2    C213618   1.511   4.073   1.124  0.5882 -0.3843  0.0360
  931MPD2    C313619   1.432   4.058   1.238  0.1041  0.5856 -0.6438
  931MPD2    C413620   1.420   4.166   1.324 -0.4310 -0.1880  0.0075
  931MPD2    C513621   1.478   4.285   1.300 -0.2150 -0.4150  0.7201
  931MPD2     H13622   1.511   3.988   1.056 -0.7125 -0.7664  0.5035
  931MPD2    H113623   1.357   4.158   1.412  1.1859  1.5117  1.2859
  931MPD2    H213624   1.600   4.393   1.158 -1.6912  0.2458 -0.0546
  931MPD2    H313625   1.465   4.361   1.376 -2.1520 -0.8194  0.7755
  931MPD2     N13626   1.359   3.944   1.277  0.1704 -0.5635 -0.5662
  931MPD2    H513627   1.293   3.951   1.353  1.2210  0.2434  0.2651
  931MPD2    N113628   1.599   4.232   0.956 -0.1437 -0.4682  0.6131
  931MPD2    H713629   1.621   4.327   0.929 -1.3741 -0.3413  0.0662
  932MPD2     C13630   1.951   3.564  11.041  0.7237  0.0492  0.3498
  932MPD2    C113631   2.083   3.581  11.004  0.1680 -0.5258 -0.0664
  932MPD2    C213632   2.165   3.471  11.005  0.2554  0.0013  0.1373
  932MPD2    C313633   2.119   3.351  11.053 -0.0930  0.6903 -0.2457
  932MPD2    C413634   1.986   3.336  11.074 -0.7585  0.1313  0.0559
  932MPD2    C513635   1.909   3.442  11.076  0.1514 -0.0782  0.0900
  932MPD2     H13636   2.270   3.480  10.980 -0.3428  1.6534 -1.8063
  932MPD2    H113637   1.952   3.240  11.110 -0.3654  0.2065  0.6166
  932MPD2    H213638   1.877   3.643  11.045  1.1971  0.5564 -0.7736
  932MPD2    H313639   1.803   3.444  11.099  0.8322  0.3726  3.1880
  932MPD2     N13640   2.201   3.238  11.082 -0.0231 -0.3352  0.1229
  932MPD2    H513641   2.160   3.150  11.110  0.7634 -0.9083 -0.5500
  932MPD2    N113642   2.131   3.708  10.980  0.2128 -0.3811  0.0139
  932MPD2    H713643   2.229   3.713  10.954  0.5664  0.3187  1.4542
  933MPD2     C13644   2.960   2.396   1.547  0.2988 -0.0588 -0.6389
  933MPD2    C113645   3.060   2.460   1.478 -0.2099 -0.1653 -0.0366
  933MPD2    C213646   3.061   2.597   1.497 -0.5085  0.1701  0.3550
  933MPD2    C313647   2.967   2.669   1.567 -0.5854  0.1366  0.8152
  933MPD2    C413648   2.863   2.603   1.632  0.5334  0.6145  0.0964
  933MPD2    C513649   2.858   2.465   1.620  0.3759  0.9987  0.3962
  933MPD2     H13650   3.141   2.655   1.452  1.1227 -0.8110  1.9623
  933MPD2    H113651   2.789   2.656   1.691 -1.0753 -1.1164 -0.3471
  933MPD2    H213652   2.949   2.288   1.554 -2.3502  0.3524  1.7631
  933MPD2    H313653   2.780   2.412   1.672  1.6002 -1.5279 -0.3432
  933MPD2     N13654   2.990   2.806   1.565 -0.1005  0.1359  0.2472
  933MPD2    H513655   3.076   2.838   1.522 -1.2151  1.6766 -0.8640
  933MPD2    N113656   3.164   2.390   1.407 -0.5768  0.1138 -0.3812
  933MPD2    H713657   3.170   2.289   1.421  1.6134  0.3757  0.6402
  934MPD2     C13658   0.482   0.497   1.467  0.5519 -0.1120 -0.9973
  934MPD2    C113659   0.501   0.439   1.348 -0.4459  0.2844  0.2840
  934MPD2    C213660   0.406   0.354   1.297 -0.1547  0.7442  0.5781
  934MPD2    C313661   0.283   0.335   1.348  1.0543  0.6557 -0.2040
  934MPD2    C413662   0.253   0.401   1.464 -0.1398  0.3161  0.4484
  934MPD2    C513663   0.355   0.473   1.527 -0.0873  0.0655 -0.8226
  934MPD2     H13664   0.448   0.312   1.206 -1.1150 -1.1290  0.9904
  934MPD2    H113665   0.160   0.388   1.518  0.7269 -0.6736  1.6789
  934MPD2    H213666   0.556   0.560   1.514  1.3184 -1.3213 -0.5578
  934MPD2    H313667   0.337   0.518   1.624  1.9022  0.5934 -0.7022
  934MPD2     N13668   0.190   0.252   1.286  0.0866 -0.3447 -1.0089
  934MPD2    H513669   0.094   0.245   1.316  0.2623  2.2854  0.1354
  934MPD2    N113670   0.619   0.467   1.268 -0.3039  0.4233  0.1964
  934MPD2    H713671   0.616   0.436   1.171 -0.1940  1.3964 -0.1127
  935MPD2     C13672   0.173   4.031   1.021 -0.4765 -0.0667  0.0466
  935MPD2    C113673   0.067   4.080   0.946 -0.5444 -0.1254  0.6975
  935MPD2    C213674   0.017   4.206   0.973  0.4116 -0.3566 -0.7755
  935MPD2    C313675   0.092   4.291   1.054 -0.7996 -0.8201  0.3103
  935MPD2    C413676   0.205   4.246   1.116 -0.3148  0.3244  0.4626
  935MPD2    C513677   0.248   4.113   1.098 -0.5065 -0.4975  0.4876
  935MPD2     H13678   4.662   4.237   0.907  1.1726  0.1696 -1.4491
  935MPD2    H113679   0.266   4.320   1.167  0.4788 -0.4388  0.6307
  935MPD2    H213680   0.208   3.929   1.019  2.4777  0.9902 -1.3150
  935MPD2    H313681   0.338   4.078   1.147  1.0238  1.8931 -0.6212
  935MPD2     N13682   0.067   4.431   1.082  0.2664  0.2334  0.0762
  935MPD2    H513683   0.117   4.477   1.158  1.0114 -0.2477 -0.1210
  935MPD2    N113684   0.003   4.000   0.846  0.4902 -0.5975  0.0289
  935MPD2    H713685   4.639   4.034   0.811  0.6064  0.6834  0.9813
  936MPD2     C13686   1.912   2.320  11.753 -0.4511  0.2090 -0.4357
  936MPD2    C113687   2.006   2.257  11.826  0.4575  0.2628  0.2528
  936MPD2    C213688   2.106   2.198  11.755  0.3700 -0.1781 -0.1897
  936MPD2    C313689   2.121   2.200  11.616  0.1026  0.3790  0.2230
  936MPD2    C413690   2.017   2.259  11.545 -0.2362  0.2049 -0.3888
  936MPD2    C513691   1.917   2.325  11.614  0.9706  0.3450 -0.1886
  936MPD2     H13692   2.172   2.130  11.807 -0.5852  0.3525  1.7076
  936MPD2    H113693   2.021   2.255  11.437 -1.1423 -0.5615 -0.3923
  936MPD2    H213694   1.827   2.369  11.800  0.3920 -0.6335  1.9517
  936MPD2    H313695   1.832   2.365  11.560  0.7888  1.5568  1.0161
  936MPD2     N13696   2.229   2.128  11.564  0.0723  0.1610 -0.4042
  936MPD2    H513697   2.287   2.082  11.633  1.3384 -1.1106 -2.2992
  936MPD2    N113698   2.001   2.233  11.964  0.5426  0.1154 -0.1340
  936MPD2    H713699   2.073   2.166  11.989  0.1453 -0.4661 -0.5315
  937MPD2     C13700   0.360   3.373  11.438 -0.0210  0.2864  0.0797
  937MPD2    C113701   0.351   3.497  11.380 -0.1777 -0.3815 -0.3428
  937MPD2    C213702   0.409   3.511  11.253  0.5777  0.0651 -0.0784
  937MPD2    C313703   0.457   3.396  11.185 -0.5336 -0.1796 -0.1047
  937MPD2    C413704   0.457   3.272  11.240  0.2505  0.8377 -0.1485
  937MPD2    C513705   0.403   3.266  11.368 -0.8574  0.1054  0.2376
  937MPD2     H13706   0.416   3.611  11.211 -0.8178  0.7089  1.1787
  937MPD2    H113707   0.506   3.189  11.191  0.8385  1.9241 -1.3717
  937MPD2    H213708   0.331   3.360  11.542  2.1080 -1.7866  0.4079
  937MPD2    H313709   0.392   3.169  11.416 -1.0623 -0.5505 -1.1081
  937MPD2     N13710   0.535   3.400  11.064 -0.1144  0.0845  0.0352
  937MPD2    H513711   0.605   3.328  11.046  0.0799  0.1151  0.6402
  937MPD2    N113712   0.318   3.616  11.454  0.0304 -0.2827 -0.7532
  937MPD2    H713713   0.341   3.710  11.423  1.6513  0.6392  3.2826
  938MPD2     C13714   3.609   4.567   0.990 -0.4188 -0.5395  0.0188
  938MPD2    C113715   3.680   4.466   0.923 -0.2795  0.2312 -0.0946
  938MPD2    C213716   3.638   4.333   0.929 -0.5381 -0.5901 -0.1765
  938MPD2    C313717   3.525   4.299   1.004  0.2079  0.8003  0.4396
  938MPD2    C413718   3.457   4.399   1.061  0.5052 -0.4283  0.1506
  938MPD2    C513719   3.493   4.533   1.052  0.0905 -0.2692 -0.4243
  938MPD2     H13720   3.693   4.256   0.876 -0.6251 -0.3651 -0.5925
  938MPD2    H113721   3.366   4.372   1.114  1.3346  1.0210  2.3147
  938MPD2    H213722   3.638   4.670   0.981 -0.5160 -0.3776  1.6109
  938MPD2    H313723   3.438   4.610   1.105 -0.7726 -0.8618 -0.4649
  938MPD2     N13724   3.480   4.168   1.016  0.3539 -0.3666 -0.0411
  938MPD2    H513725   3.387   4.163   1.056  0.7414 -2.6895  0.6102
  938MPD2    N113726   3.802   4.496   0.855  0.6185  0.6406  0.0384
  938MPD2    H713727   3.851   4.414   0.820  1.1275  0.3707  1.3819
  939MPD2     C13728   4.601   1.170   1.353  0.3541 -0.4292  0.0650
  939MPD2    C113729   4.493   1.162   1.269 -0.3478  0.3948  0.4520
  939MPD2    C213730   4.509   1.118   1.140  0.4764 -0.1669 -0.3836
  939MPD2    C313731   4.630   1.069   1.097 -0.4073 -0.6878 -0.1520
  939MPD2    C413732   0.014   1.075   1.182  0.3938 -0.7946 -0.4251
  939MPD2    C513733   4.721   1.140   1.299  0.6634 -0.1914  0.3668
  939MPD2     H13734   4.422   1.112   1.075 -0.0690  0.3703  0.2905
  939MPD2    H113735   0.113   1.042   1.154  0.7244  0.5091 -0.8225
  939MPD2    H213736   4.597   1.205   1.456 -1.7731  0.5982 -0.3612
  939MPD2    H313737   0.086   1.145   1.358  0.5041 -2.3205  0.7693
  939MPD2     N13738   4.642   1.009   0.966  0.3058  0.2611  0.2071
  939MPD2    H513739   4.565   1.022   0.901 -0.0844 -0.5326  0.5014
  939MPD2    N113740   4.366   1.211   1.312 -0.6681 -0.8863  0.5548
  939MPD2    H713741   4.356   1.245   1.407 -1.7464  1.8762 -0.5343
  940MPD2     C13742   3.166   1.958  13.344 -0.5112 -0.5282  0.0592
  940MPD2    C113743   3.300   1.928  13.331 -0.2967 -0.1379  0.0016
  940MPD2    C213744   3.346   1.882  13.213 -0.3138 -0.0097 -0.6230
  940MPD2    C313745   3.255   1.853  13.110 -0.1754 -0.2675  0.8009
  940MPD2    C413746   3.120   1.879  13.119  0.8057 -0.4054 -1.5118
  940MPD2    C513747   3.073   1.941  13.237  0.1658 -0.2078 -1.0641
  940MPD2     H13748   3.454   1.868  13.207 -0.0864  0.9643  1.0114
  940MPD2    H113749   3.069   1.866  13.025  0.2440 -1.1890 -1.0968
  940MPD2    H213750   3.133   2.019  13.427  1.3307  2.0063 -1.0465
  940MPD2    H313751   2.968   1.966  13.238  0.5405  1.2900  0.2715
  940MPD2     N13752   3.296   1.792  12.989  0.4202 -0.1759  0.2154
  940MPD2    H513753   3.231   1.755  12.921  0.8338 -1.3831  0.4818
  940MPD2    N113754   3.402   1.960  13.433 -0.2402  0.9259  0.5491
  940MPD2    H713755   3.501   1.960  13.410  0.0021 -0.1179  1.6106
  941MPD2     C13756   3.176   1.364  10.109  0.8205  0.5324  0.2333
  941MPD2    C113757   3.172   1.254  10.037  0.4047 -0.9437  0.4658
  941MPD2    C213758   3.109   1.143  10.086  0.4682 -0.2502  0.7524
  941MPD2    C313759   3.054   1.135  10.214 -0.6132 -0.5064 -0.1562
  941MPD2    C413760   3.070   1.250  10.286  0.3807 -0.4623 -0.4804
  941MPD2    C513761   3.135   1.359  10.236 -0.4018 -0.7880  0.0962
  941MPD2     H13762   3.103   1.053  10.027  0.4296 -0.4818  1.1072
  941MPD2    H113763   3.031   1.262  10.387 -2.7346  1.2366 -1.9041
  941MPD2    H213764   3.219   1.455  10.067  0.5075  1.1610  1.2910
  941MPD2    H313765   3.140   1.447  10.299 -2.2452  0.5735 -1.6590
  941MPD2     N13766   2.996   1.017  10.269 -0.1200 -0.0298 -0.2869
  941MPD2    H513767   2.955   1.030  10.361 -1.4917 -3.6551 -0.3711
  941MPD2    N113768   3.234   1.251   9.910 -0.4657  0.6581  0.6019
  941MPD2    H713769   3.240   1.159   9.868  0.5174  0.3386  1.4630
  942MPD2     C13770   1.873   3.028   8.573 -0.2459 -0.0361 -0.6714
  942MPD2    C113771   1.854   2.887   8.563  0.1707 -0.0267 -0.8378
  942MPD2    C213772   1.959   2.803   8.602 -0.8365 -0.1507  0.1909
  942MPD2    C313773   2.075   2.850   8.660  0.4092 -0.0446 -0.4534
  942MPD2    C413774   2.093   2.984   8.665 -0.2455 -0.7621  0.0361
  942MPD2    C513775   1.996   3.071   8.621  0.3120 -0.0837 -0.0382
  942MPD2     H13776   1.925   2.700   8.607 -1.4662  0.1011  1.0812
  942MPD2    H113777   2.172   3.034   8.721 -0.2863  0.0353 -0.6167
  942MPD2    H213778   1.789   3.090   8.546 -1.1385 -1.1643 -0.4887
  942MPD2    H313779   2.014   3.178   8.631  2.8033 -0.5737  0.6393
  942MPD2     N13780   2.174   2.765   8.705 -0.1445  0.0498  0.4033
  942MPD2    H513781   2.243   2.809   8.764 -0.3400  1.5396 -0.4810
  942MPD2    N113782   1.737   2.833   8.514 -0.1887 -0.0571 -0.1030
  942MPD2    H713783   1.735   2.734   8.491  0.4714 -0.3207  0.9962
  943MPD2     C13784   1.120   1.300   8.666  0.3179  0.1454 -0.1255
  943MPD2    C113785   1.124   1.224   8.779  0.3447 -0.0675 -0.0234
  943MPD2    C213786   1.217   1.258   8.877 -0.1551 -0.1072  0.2059
  943MPD2    C313787   1.299   1.367   8.855 -0.4742 -0.4019  0.7744
  943MPD2    C413788   1.284   1.453   8.754 -0.4650  0.0566  0.8080
  943MPD2    C513789   1.194   1.419   8.656 -0.1046  0.3253  0.0592
  943MPD2     H13790   1.226   1.189   8.960 -0.8270 -0.2922  0.1249
  943MPD2    H113791   1.343   1.543   8.742  0.5068 -0.5133  1.2767
  943MPD2    H213792   1.046   1.280   8.590  0.5113 -3.8746  0.7504
  943MPD2    H313793   1.166   1.489   8.578 -0.0894  2.3503  1.8631
  943MPD2     N13794   1.386   1.416   8.957 -0.5203 -0.2260 -0.2143
  943MPD2    H513795   1.417   1.512   8.954  3.0417 -1.3717 -0.9385
  943MPD2    N113796   1.035   1.117   8.784  0.4373  1.0498 -0.1938
  943MPD2    H713797   0.972   1.111   8.705 -0.9314 -0.6587  1.0223
  944MPD2     C13798   0.892   0.611  10.582 -0.2978  0.0566 -0.1976
  944MPD2    C113799   0.949   0.490  10.551  0.1327  0.1778 -0.0585
  944MPD2    C213800   0.926   0.383  10.634 -0.4122 -0.9312  0.5519
  944MPD2    C313801   0.851   0.400  10.754  0.1386 -0.0706  0.2971
  944MPD2    C413802   0.806   0.518  10.785 -0.1701 -0.3526 -0.2482
  944MPD2    C513803   0.827   0.625  10.703  0.7366  0.0274 -0.6804
  944MPD2     H13804   0.972   0.287  10.613 -0.1383 -0.6022 -0.3614
  944MPD2    H113805   0.761   0.548  10.879 -0.5531 -1.0023 -0.2268
  944MPD2    H213806   0.908   0.693  10.513  0.6298 -0.3056 -0.4065
  944MPD2    H313807   0.800   0.723  10.742  1.6690  0.0624 -0.1349
  944MPD2     N13808   0.843   0.282  10.835  0.6200  0.1643  0.0036
  944MPD2    H513809   0.874   0.192  10.799  0.5146 -0.5469  1.6561
  944MPD2    N113810   1.030   0.480  10.439 -0.0361  0.0206  1.2701
  944MPD2    H713811   1.052   0.562  10.383  0.2058 -2.0632 -1.6736
    1TCq1    O113812   3.255   1.148  15.031 -0.4570 -0.3481 -0.0391
    1TCq1    C113813   3.230   1.277  15.065 -0.4728  0.4433  0.1336
    1TCq1    O213814   3.271   1.344  15.157  0.6258  0.2328  0.5978
    1TCq1    C213815   3.169   1.336  14.954  0.0097  0.1302 -0.0208
    1TCq1    C313816   3.090   1.445  14.987 -0.1720  0.4549 -0.0924
    1TCq1    C413817   3.031   1.513  14.885  0.2660 -0.1075  0.0418
    1TCq1    C513818   3.032   1.475  14.752  0.3455  0.2864 -0.4443
    1TCq1    C613819   3.087   1.353  14.731  0.6940 -0.0418 -0.5680
    1TCq1    C713820   3.158   1.282  14.827  0.0828  0.0573  0.4430
    1TCq1    C813821   3.062   1.290  14.606  0.5595 -0.0222 -0.0199
    1TCq1    O413822   3.055   1.168  14.595 -0.3664  0.0139 -0.0777
    1TCq1    C913823   2.948   1.629  14.921  0.4536  0.4698 -0.1723
    1TCq1    O513824   2.938   1.651  15.048 -0.1012  0.6090  0.2884
    1TCq1    O613825   2.903   1.697  14.823 -0.1501 -0.0114  0.7369
    1TCq1    H113826   3.207   1.107  14.957 -1.7082  0.9868  0.0560
    1TCq1    H213827   3.077   1.483  15.087 -0.0229  0.9356 -0.2556
    1TCq1    H313828   2.978   1.530  14.676 -0.5244  2.3295  1.6338
    1TCq1    H413829   3.207   1.188  14.805 -0.1706  0.2718 -1.0112
    2MPD2     C13830   2.866   1.371  14.134  1.1164  0.4220  0.5075
    2MPD2    C113831   2.960   1.469  14.164 -0.8732  0.3076  0.1579
    2MPD2    C213832   3.016   1.466  14.289  0.1466  0.3973  0.3748
    2MPD2    C313833   2.989   1.372  14.382  0.2137  0.6843 -0.1069
    2MPD2    C413834   2.906   1.272  14.349 -0.8170  0.1659  0.5478
    2MPD2    C513835   2.838   1.274  14.227 -0.1610 -0.0792  0.9601
    2MPD2     H13836   3.093   1.539  14.313  0.1368  0.8174 -0.8445
    2MPD2    H113837   2.882   1.192  14.417 -1.1352 -2.5158 -2.6991
    2MPD2    H213838   2.823   1.373  14.034  0.0192  1.0041  1.0012
    2MPD2    H313839   2.762   1.201  14.202  1.7347 -1.9398  0.5669
    2MPD2     N13840   3.048   1.386  14.508  0.3948  0.0012 -0.0728
    2MPD2    H513841   3.091   1.474  14.535  2.2835 -0.6918 -0.8015
    2MPD2    N113842   3.012   1.546  14.056 -0.0462 -0.0698  0.4917
    2MPD2    H713843   2.956   1.528  13.973  0.4186  3.4705 -0.5863
    3TMC2    C113844   3.149   1.677  13.924  0.3900  0.2427  0.5562
    3TMC2    C213845   3.037   1.710  13.855 -0.2658  0.5923  0.3092
    3TMC2    C313846   3.063   1.715  13.719 -0.0870 -0.2460 -0.0172
    3TMC2    C413847   3.272   1.652  13.877  0.1892 -0.5884  0.0973
    3TMC2    C513848   3.293   1.664  13.740 -0.2140  0.2120 -0.4050
    3TMC2    C613849   3.185   1.693  13.657  0.5816  0.4934 -0.6252
    3TMC2     C13850   3.131   1.612  14.051 -0.5891  0.3324 -0.3954
    3TMC2     O13851   3.225   1.603  14.129  0.4447 -0.4911  0.1400
    3TMC2     H13852   2.934   1.711  13.890  0.0983  2.4703  1.3011
    3TMC2    H113853   3.347   1.621  13.949  1.4362 -0.4939 -1.1445
    3TMC2    H213854   3.195   1.702  13.549  2.3355 -1.4313 -0.6257
    3TMC2    C713855   3.422   1.670  13.686  0.9449  0.7425 -0.5002
    3TMC2    C813856   2.963   1.776  13.640  0.0929 -0.2644 -0.2718
    3TMC2    O113857   3.417   1.672  13.563  0.7341  0.8770  0.5494
    3TMC2    O213858   2.851   1.761  13.683 -0.1496 -0.0095  0.3416
    3TMC2    O513859   3.021   1.896  13.623  0.0204  0.1726  0.2041
    3TMC2    H513860   3.119   1.901  13.632  0.0094 -1.0534  1.0595
    4MPD2     C13861   3.155   2.269  13.126  0.4454 -0.2786 -0.4219
    4MPD2    C113862   3.191   2.188  13.019  0.0656  0.2017  0.4761
    4MPD2    C213863   3.325   2.160  13.008 -0.5367 -0.1513  0.6024
    4MPD2    C313864   3.414   2.220  13.100  0.5701 -0.0000 -0.0084
    4MPD2    C413865   3.372   2.298  13.205  0.0039  0.3468 -0.4963
    4MPD2    C513866   3.239   2.316  13.222 -0.3904  0.0922 -0.3820
    4MPD2     H13867   3.360   2.078  12.946 -1.0154  0.0398  0.0842
    4MPD2    H113868   3.434   2.336  13.285 -2.4104  1.3878  0.9131
    4MPD2    H213869   3.055   2.312  13.126 -0.3293 -2.0719  0.6198
    4MPD2    H313870   3.206   2.378  13.305  1.6398  0.8404 -0.1434
    4MPD2     N13871   3.551   2.193  13.092  0.4422  0.7400  0.9023
    4MPD2    H513872   3.569   2.115  13.030  2.1792  1.3694  0.6381
    4MPD2    N113873   3.092   2.139  12.932  0.6980 -0.0574  0.2528
    4MPD2    H713874   2.997   2.174  12.939  1.2959  1.0287  2.8326
    5TCq2    C113875   3.649   2.265  13.157 -0.8829  0.5907  0.3685
    5TCq2    O213876   3.657   2.380  13.201  0.1422  0.3827 -0.1410
    5TCq2    C213877   3.767   2.187  13.151 -0.4412  0.2749 -0.1548
    5TCq2    C313878   3.880   2.259  13.194 -0.2030 -0.5551 -0.3282
    5TCq2    C413879   3.971   2.193  13.273  0.1721 -0.0717  0.0515
    5TCq2    C513880   3.970   2.063  13.305 -0.5890 -0.6081  0.2307
    5TCq2    C613881   3.855   1.995  13.267  0.5201 -0.0198 -0.2158
    5TCq2    C713882   3.754   2.056  13.194 -0.0194 -0.7353  0.3025
    5TCq2    C813883   3.795   1.910  13.368 -0.0249  0.5073  0.2180
    5TCq2    O413884   3.674   1.895  13.356 -0.0492 -0.4294  0.6957
    5TCq2    C913885   4.069   2.272  13.345  0.3879 -0.7935 -0.4876
    5TCq2    O513886   4.052   2.393  13.363  0.3710 -0.1777 -0.2287
    5TCq2    O613887   4.181   2.211  13.362 -0.6233 -0.3929 -0.2480
    5TCq2    H213888   3.894   2.366  13.182  1.0537 -0.3906  2.5522
    5TCq2    H313889   4.043   2.032  13.380  1.5621  0.8466 -1.2645
    5TCq2    H413890   3.665   2.001  13.166 -1.9762  2.6421 -0.0896
    6MPD1     C13891   2.312   3.580  13.233 -0.8983 -0.1499  0.3860
    6MPD1    C113892   2.447   3.562  13.194 -0.4510 -0.1645  0.2268
    6MPD1    C213893   2.464   3.446  13.122 -1.0011  0.4045 -0.4740
    6MPD1    C313894   2.369   3.338  13.114  0.3218 -0.4025  0.6758
    6MPD1    C413895   2.246   3.360  13.169 -0.5587 -0.4407 -0.3905
    6MPD1    C513896   2.219   3.481  13.221  0.3961 -0.4392 -0.4314
    6MPD1     H13897   2.559   3.423  13.075  0.0832  0.4559  1.7075
    6MPD1    H113898   2.170   3.283  13.176 -1.2819  0.4423  1.5023
    6MPD1    H213899   2.267   3.665  13.283 -0.2743  1.0944 -1.1568
    6MPD1    H313900   2.119   3.498  13.259  1.0159  2.9021 -0.2666
    6MPD1     N13901   2.397   3.214  13.057 -0.1688 -0.6661  0.8320
    6MPD1    H513902   2.315   3.155  13.063  0.4649 -1.4888  1.4042
    6MPD1    N113903   2.539   3.665  13.179 -0.3308 -0.0440 -0.7250
    6MPD1    H613904   2.543   3.714  13.268  0.3170 -2.5305  0.6334
    6MPD1    H713905   2.625   3.613  13.162  0.5416  1.1869 -0.0921
    7MPD2     C13906   2.271   2.432  12.955 -0.3592  0.0711  0.5462
    7MPD2    C113907   2.389   2.481  12.911 -0.5405 -0.1718  0.4051
    7MPD2    C213908   2.488   2.392  12.874 -0.0397  0.0347  0.6131
    7MPD2    C313909   2.464   2.260  12.862 -0.0869  0.7868  0.8312
    7MPD2    C413910   2.342   2.218  12.905 -0.2856 -0.0558  0.2024
    7MPD2    C513911   2.249   2.296  12.961  0.4220  0.1628  0.2281
    7MPD2     H13912   2.578   2.446  12.845 -0.0423 -0.1001  0.3469
    7MPD2    H113913   2.329   2.111  12.909  1.1791 -0.1883  1.5993
    7MPD2    H213914   2.195   2.504  12.984  0.0676  0.1310  1.5163
    7MPD2    H313915   2.158   2.255  13.003  0.6085  0.6281  1.0787
    7MPD2     N13916   2.563   2.164  12.823 -0.1632  0.4350  0.5392
    7MPD2    H513917   2.534   2.067  12.825 -0.2983  0.4886  1.0936
    7MPD2    N113918   2.422   2.622  12.903  1.0160  0.3909  0.1496
    7MPD2    H713919   2.514   2.643  12.864  1.3292 -0.5760  0.3840
    8TMC3    C113920   2.763   2.081  12.721  0.4986  0.1210  0.9536
    8TMC3    C213921   2.869   2.037  12.801  0.7139  0.0178  0.2608
    8TMC3    C313922   2.995   2.031  12.739  0.6183 -0.6999  0.4755
    8TMC3    C413923   2.785   2.108  12.591 -0.2729 -0.5479 -0.2211
    8TMC3    C513924   2.906   2.093  12.535 -0.0592  0.9511 -0.1733
    8TMC3    C613925   3.016   2.053  12.611  0.2915  0.9663  0.3027
    8TMC3     C13926   2.691   2.191  12.774  0.1275  0.1969 -0.4524
    8TMC3     O13927   2.743   2.298  12.761 -0.2428  0.0829 -0.4362
    8TMC3     H13928   2.868   2.053  12.908 -0.9267  1.9323 -0.0516
    8TMC3    H113929   2.705   2.132  12.522 -1.0111  0.5210  1.0050
    8TMC3    H213930   3.115   2.047  12.568  0.0521  1.5979 -0.3357
    8TMC3    C713931   2.933   2.215  12.466  0.2761  0.3953 -0.2544
    8TMC3    C813932   3.115   2.056  12.822 -0.2391  0.5505 -0.0397
    8TMC3    O113933   3.018   2.220  12.383  0.0062 -0.4778 -0.3528
    8TMC3    O213934   3.220   2.003  12.784  0.1761  0.4306  0.2388
    9TMC3    C113935   2.499   3.065  12.900  0.0671 -0.3534 -0.1909
    9TMC3    C213936   2.603   3.046  12.806  0.2768  0.2140 -0.4103
    9TMC3    C313937   2.599   2.922  12.746  0.4793  0.6997 -0.3658
    9TMC3    C413938   2.415   2.968  12.947  0.6111 -0.2647  0.2309
    9TMC3    C513939   2.431   2.843  12.891 -0.3210  0.6964  0.0417
    9TMC3    C613940   2.514   2.829  12.783  0.0522  0.4967  0.1128
    9TMC3     C13941   2.516   3.176  12.992  0.5425 -0.0044 -0.0371
    9TMC3     O13942   2.630   3.226  12.999  0.6080 -0.2088 -0.2311
    9TMC3     H13943   2.677   3.122  12.785 -1.9309  2.4418 -0.0836
    9TMC3    H113944   2.361   2.973  13.041 -1.6275  0.8758 -1.1276
    9TMC3    H213945   2.492   2.750  12.712  0.5185  1.8104 -1.5233
    9TMC3    C713946   2.352   2.733  12.941 -0.0441  0.6016 -0.1666
    9TMC3    C813947   2.693   2.893  12.639  0.4610  0.2790 -0.2017
    9TMC3    O113948   2.235   2.741  12.979  0.2131 -0.3873  0.0885
    9TMC3    O213949   2.725   2.975  12.556  0.0457  0.1081  0.5969
   10MPD2     C13950   2.904   2.495  12.367  0.2951  0.9283 -0.5892
   10MPD2    C113951   2.854   2.454  12.483  0.2726 -0.3742  0.5275
   10MPD2    C213952   2.785   2.539  12.568 -0.6400 -0.3080  0.9906
   10MPD2    C313953   2.785   2.674  12.550  0.6166  0.3915 -0.2847
   10MPD2    C413954   2.853   2.716  12.437 -0.4552  0.5352  0.7925
   10MPD2    C513955   2.905   2.632  12.343 -0.2324 -0.2188 -0.9626
   10MPD2     H13956   2.741   2.497  12.658 -0.2154 -0.7336  0.9950
   10MPD2    H113957   2.859   2.822  12.419  0.3827  0.4672  0.6565
   10MPD2    H213958   2.953   2.428  12.298  0.2419  0.1727  0.0999
   10MPD2    H313959   2.958   2.673  12.258 -0.3369  0.3558 -0.7489
   10MPD2     N13960   2.719   2.758  12.648  0.2701 -0.9294  0.4258
   10MPD2    H513961   2.690   2.717  12.737  1.5570 -0.1677  1.1822
   10MPD2    N113962   2.868   2.318  12.527  0.1120 -0.1309 -0.2904
   10MPD2    H713963   2.818   2.302  12.613 -1.2816 -2.1023 -1.4737
   11MPD2     C13964   3.765   1.674  13.836 -0.1320  0.2235  0.4529
   11MPD2    C113965   3.665   1.696  13.739  0.0052 -0.1105  0.1357
   11MPD2    C213966   3.708   1.747  13.618  0.6310  0.2466  0.3477
   11MPD2    C313967   3.839   1.779  13.587  0.8655  0.0809  0.1846
   11MPD2    C413968   3.932   1.738  13.682  0.3551 -0.3313  0.4929
   11MPD2    C513969   3.895   1.681  13.800 -0.3780  0.1237 -0.7030
   11MPD2     H13970   3.630   1.768  13.545  1.2289 -1.7999 -0.8983
   11MPD2    H113971   4.036   1.763  13.665  0.1704 -0.4530 -0.8351
   11MPD2    H213972   3.747   1.626  13.931 -2.7737  0.3963  0.0484
   11MPD2    H313973   3.975   1.650  13.866  0.1714  2.6513 -0.1546
   11MPD2     N13974   3.879   1.845  13.465 -0.4155 -0.5097  0.0258
   11MPD2    H513975   3.979   1.863  13.455 -0.3203 -0.6610  0.7417
   11MPD2    N113976   3.532   1.667  13.773 -0.9708  0.9815 -0.0406
   11MPD2    H713977   3.518   1.635  13.869  1.7798 -0.9426 -0.2941
    1MPD1     C13978   2.700   2.186   0.172 -0.7219 -0.3610 -0.3189
    1MPD1    C113979   2.795   2.222   0.086  0.0053 -0.1098  0.1683
    1MPD1    C213980   2.771   2.332   0.008 -0.4530 -0.5355 -0.0896
    1MPD1    C313981   2.671   2.420   0.041 -0.0851  0.5313 -0.0284
    1MPD1    C413982   2.582   2.385   0.146 -0.7161 -0.2039 -0.4131
    1MPD1    C513983   2.594   2.260   0.204 -0.2593  0.0594 -0.1313
    1MPD1     H13984   2.839   2.353  17.627  0.3697 -1.3331  0.3878
    1MPD1    H113985   2.494   2.444   0.171 -0.5431 -0.0931 -0.0589
    1MPD1    H213986   2.708   2.089   0.221 -0.8221 -0.1252  0.1621
    1MPD1    H313987   2.523   2.232   0.281  1.4181 -0.2235  1.3060
    1MPD1     N13988   2.639   2.536  17.670  0.4833  0.1382 -0.4993
    1MPD1    H513989   2.544   2.571  17.682  0.9037  0.5471  1.6998
    1MPD1    N113990   2.894   2.131   0.053  0.8497 -0.0021  0.2679
    1MPD1    H613991   2.972   2.179   0.008  0.2075 -0.7383 -1.6477
    1MPD1    H713992   2.922   2.077   0.134 -0.0494  0.9213  1.1830
    2MPD1     C13993   2.750   2.768  16.623  0.6400 -0.7367  0.1169
    2MPD1    C113994   2.691   2.877  16.681 -0.0764 -0.1202 -0.2504
    2MPD1    C213995   2.685   2.886  16.815 -0.0699 -0.2300 -0.2751
    2MPD1    C313996   2.710   2.772  16.893  0.7020  0.3446  0.1451
    2MPD1    C413997   2.772   2.660  16.838  0.7384  0.2233  0.0584
    2MPD1    C513998   2.781   2.664  16.701 -0.6283  0.0967  0.0291
    2MPD1     H13999   2.641   2.975  16.858  0.9906 -0.2617  0.8813
    2MPD1    H114000   2.786   2.567  16.893  0.0843  0.2219  0.2285
    2MPD1    H214001   2.756   2.761  16.515  0.4918  1.9420 -0.0685
    2MPD1    H314002   2.824   2.582  16.645 -0.8719  0.3525 -0.5365
    2MPD1     N14003   2.685   2.784  17.028  0.9067  0.3426  0.0003
    2MPD1    H514004   2.619   2.860  17.043 -1.3395 -1.1506 -2.4932
    2MPD1    N114005   2.680   2.999  16.602 -0.4184  0.6169  0.1752
    2MPD1    H614006   2.612   3.067  16.635  0.2521  2.2442 -1.8063
    2MPD1    H714007   2.646   2.981  16.508  0.6937 -0.1092 -0.0896
    3TMC3    C114008   2.655   2.716  17.240  0.1154  0.6051 -0.0016
    3TMC3    C214009   2.517   2.742  17.233 -1.2175  0.8815 -0.3262
    3TMC3    C314010   2.451   2.714  17.350 -0.0267 -0.3428 -0.4780
    3TMC3    C414011   2.722   2.675  17.349  0.0435  0.2653 -0.2398
    3TMC3    C514012   2.645   2.652  17.460 -0.2662 -0.3044  0.1137
    3TMC3    C614013   2.515   2.692  17.470 -1.0650  0.1351  0.1055
    3TMC3     C14014   2.727   2.696  17.119 -0.2242 -0.5598  0.7906
    3TMC3     O14015   2.820   2.618  17.115 -0.0479  0.1774 -0.1034
    3TMC3     H14016   2.471   2.762  17.137 -2.0032  3.2641  0.5286
    3TMC3    H114017   2.826   2.647  17.339 -0.4773 -1.6046 -0.5506
    3TMC3    H214018   2.454   2.663  17.555 -1.5540 -2.3185 -1.0871
    3TMC3    C714019   2.717   2.584  17.568  0.3645 -0.2096  0.1484
    3TMC3    C814020   2.311   2.741  17.365 -0.1781 -0.6820 -0.6785
    3TMC3    O114021   2.838   2.572  17.561 -0.1912 -0.1788  0.2947
    3TMC3    O214022   2.267   2.756  17.479  0.3271 -0.3090  0.6109
    4MPD1     C14023   1.846   2.861  17.183  0.7895  0.5703  0.4126
    4MPD1    C114024   1.924   2.826  17.072  0.2048  0.2444 -0.1278
    4MPD1    C214025   2.056   2.792  17.100  0.2051 -0.3400 -0.6382
    4MPD1    C314026   2.112   2.790  17.227  0.4175 -0.4617  0.2854
    4MPD1    C414027   2.030   2.832  17.330 -0.4035 -0.8188 -0.1003
    4MPD1    C514028   1.898   2.860  17.311  0.0998 -0.5180  0.4736
    4MPD1     H14029   2.122   2.757  17.021  1.8202 -0.0237  0.5767
    4MPD1    H114030   2.073   2.846  17.428  0.9988 -0.4833 -0.7779
    4MPD1    H214031   1.746   2.902  17.174  0.1284 -1.0359  0.6578
    4MPD1    H314032   1.834   2.889  17.394  1.5457  1.0290  1.0243
    4MPD1     N14033   2.251   2.753  17.246 -0.2114  0.1750  0.0036
    4MPD1    H514034   2.318   2.743  17.171  0.7521  1.2353  0.7197
    4MPD1    N114035   1.861   2.811  16.940 -0.3455 -0.2192 -0.2024
    4MPD1    H614036   1.789   2.879  16.917  0.6556 -0.1231 -3.0138
    4MPD1    H714037   1.930   2.814  16.866  0.1719  0.3076  0.3045
    1TCq1    O114038   1.815   3.259  10.737  0.1735  0.1046 -0.0101
    1TCq1    C114039   1.919   3.342  10.735  0.1800  0.3072 -0.5470
    1TCq1    O214040   1.915   3.457  10.687 -0.2364  0.3578 -0.1073
    1TCq1    C214041   2.044   3.258  10.753 -0.7633  0.6365  0.5123
    1TCq1    C314042   2.035   3.119  10.758 -0.6182  0.0705 -0.2143
    1TCq1    C414043   2.145   3.050  10.722 -0.3362  0.7704  0.2404
    1TCq1    C514044   2.264   3.114  10.691 -0.1738 -0.4597  0.4209
    1TCq1    C614045   2.273   3.252  10.707 -0.3804  0.9080 -0.3706
    1TCq1    C714046   2.166   3.327  10.729 -0.2599  0.1710  0.1778
    1TCq1    C814047   2.391   3.321  10.678  0.4706  0.4834  0.2698
    1TCq1    O414048   2.413   3.432  10.722 -0.1341  0.1934 -0.5016
    1TCq1    C914049   2.119   2.925  10.650 -0.8164  0.4649 -0.2638
    1TCq1    O514050   2.025   2.853  10.692  0.1522 -0.0075  0.2740
    1TCq1    O614051   2.203   2.891  10.562  0.8538  0.3041 -0.6481
    1TCq1    H114052   1.828   3.191  10.807  0.6856 -1.1400 -1.3069
    1TCq1    H214053   1.943   3.063  10.750 -0.5972 -0.2523  1.7890
    1TCq1    H314054   2.340   3.052  10.646 -1.3017 -0.6681 -1.1934
    1TCq1    H414055   2.173   3.435  10.725 -0.5680  0.2064  0.6322
    2MPD1     C14056   2.864   3.323  10.489  0.2363 -0.3620  0.3876
    2MPD1    C114057   2.794   3.219  10.428 -0.7073  0.5204  0.1606
    2MPD1    C214058   2.663   3.206  10.471 -0.1264  0.1651  0.2741
    2MPD1    C314059   2.607   3.273  10.575 -0.2986  0.4043  0.1364
    2MPD1    C414060   2.679   3.366  10.641  0.0264  0.4622  0.4847
    2MPD1    C514061   2.804   3.393  10.589  0.5962  0.1065  0.7912
    2MPD1     H14062   2.607   3.124  10.428 -0.3507  0.9449 -0.9175
    2MPD1    H114063   2.643   3.424  10.725 -0.1425 -1.1153  1.4975
    2MPD1    H214064   2.963   3.350  10.454  0.4511  1.0908  2.0820
    2MPD1    H314065   2.858   3.479  10.628  0.2972  1.2307 -1.2841
    2MPD1     N14066   2.474   3.243  10.601  0.4406 -0.5721 -0.5045
    2MPD1    H514067   2.430   3.167  10.551 -2.0846  0.0907  0.7361
    2MPD1    N114068   2.848   3.135  10.336  0.4808  0.4019 -0.5502
    2MPD1    H614069   2.905   3.066  10.384  0.5037 -0.6649 -2.1160
    2MPD1    H714070   2.781   3.093  10.271  1.3745 -0.1771 -1.0895
    1TCq1    O114071   2.637   3.647   0.053 -0.0159 -0.4526 -0.4962
    1TCq1    C114072   2.765   3.648   0.098  0.5906  0.1643 -0.3287
    1TCq1    O214073   2.867   3.626   0.033 -0.0296 -0.0813 -0.0448
    1TCq1    C214074   2.762   3.605   0.240  1.1370 -0.0467  0.6717
    1TCq1    C314075   2.657   3.629   0.322  0.5852  0.5275 -0.4376
    1TCq1    C414076   2.677   3.592   0.454  0.1721  0.1438 -0.5287
    1TCq1    C514077   2.761   3.497   0.496 -0.6072 -0.2425 -0.5759
    1TCq1    C614078   2.856   3.461   0.404 -0.0192 -0.1478 -0.2984
    1TCq1    C714079   2.866   3.520   0.275  0.0581  0.8888 -0.1628
    1TCq1    C814080   2.915   3.332   0.407  0.6389 -0.2495 -0.1511
    1TCq1    O414081   3.018   3.319   0.344  0.5793 -0.2730  0.3527
    1TCq1    C914082   2.573   3.629   0.546  0.4556  0.0861  0.3171
    1TCq1    O514083   2.489   3.723   0.516  0.2900  0.5804 -0.0130
    1TCq1    O614084   2.550   3.547   0.642  0.4554  0.2886 -0.5107
    1TCq1    H114085   2.575   3.597   0.110 -0.6580  2.5906  1.4804
    1TCq1    H214086   2.575   3.696   0.299  2.0619  1.8963 -1.7128
    1TCq1    H314087   2.760   3.456   0.597  0.6571  0.2804 -0.3518
    1TCq1    H414088   2.941   3.499   0.199  1.1456 -0.0026  1.1796
    2MPD1     C14089   2.912   2.835   0.575 -0.1202  0.7759  0.5051
    2MPD1    C114090   2.801   2.900   0.634  0.0274 -0.3921 -0.3168
    2MPD1    C214091   2.774   3.036   0.600  0.2926 -0.1646  0.6730
    2MPD1    C314092   2.865   3.107   0.514  0.4323 -0.6368 -0.0420
    2MPD1    C414093   2.968   3.037   0.470 -0.5470  0.2461 -0.1847
    2MPD1    C514094   2.995   2.909   0.506 -0.0312  0.2694 -0.0018
    2MPD1     H14095   2.684   3.084   0.638  1.2928  1.2529  1.2604
    2MPD1    H114096   3.052   3.083   0.420 -1.3515  0.4788 -1.3315
    2MPD1    H214097   2.926   2.728   0.588 -0.3385  0.7057  0.1458
    2MPD1    H314098   3.090   2.874   0.466 -1.3171 -0.4751 -2.3901
    2MPD1     N14099   2.832   3.240   0.466 -0.0991  0.4242 -0.3193
    2MPD1    H514100   2.745   3.264   0.512  1.1351  1.3388  1.5782
    2MPD1    N114101   2.706   2.822   0.707 -0.0815  0.6143  0.4503
    2MPD1    H614102   2.661   2.881   0.777 -0.2722  0.1801  0.6982
    2MPD1    H714103   2.757   2.748   0.754 -0.7931  0.1573  0.5118
    1MPD1     C14104   0.335   2.709  12.526 -0.1689 -0.2521  0.5309
    1MPD1    C114105   0.245   2.811  12.534 -0.1545 -0.6519  0.5974
    1MPD1    C214106   0.148   2.834  12.436 -0.2310 -0.0728  0.7480
    1MPD1    C314107   0.154   2.763  12.318  0.0636 -1.2004  0.3458
    1MPD1    C414108   0.249   2.667  12.297 -0.4328  0.2767  0.4752
    1MPD1    C514109   0.333   2.637  12.406  0.4513  0.2287 -0.5054
    1MPD1     H14110   0.083   2.918  12.457 -0.0563 -0.3148  2.2582
    1MPD1    H114111   0.251   2.597  12.215 -1.7023 -0.9746  1.5063
    1MPD1    H214112   0.408   2.688  12.603 -1.0961 -1.6702  1.0285
    1MPD1    H314113   0.406   2.559  12.388 -0.6690 -0.9762  0.1636
    1MPD1     N14114   0.055   2.790  12.223 -0.0709 -1.1443  0.1825
    1MPD1    H514115   4.717   2.865  12.248  0.5529 -0.0485 -1.5736
    1MPD1    N114116   0.220   2.876  12.659 -0.9516 -0.0988  0.3342
    1MPD1    H614117   0.306   2.897  12.708 -0.8854  0.6556 -0.1024
    1MPD1    H714118   0.157   2.955  12.648  0.8281  1.3220  0.4189
    2MPD1     C14119   4.149   4.225  10.908  0.1173  0.1820  0.5284
    2MPD1    C114120   4.073   4.150  11.002 -0.7598  0.2314  0.0645
    2MPD1    C214121   3.982   4.057  10.952  0.5548  0.0082  0.3445
    2MPD1    C314122   3.954   4.049  10.819  0.1711 -0.1560  0.3953
    2MPD1    C414123   4.032   4.119  10.731 -0.4010 -0.0248 -0.1172
    2MPD1    C514124   4.117   4.214  10.775  0.2032  0.2738  0.9569
    2MPD1     H14125   3.935   3.989  11.022 -1.3921  0.7681 -0.2272
    2MPD1    H114126   4.032   4.107  10.623  1.6550 -0.6355 -0.0401
    2MPD1    H214127   4.222   4.296  10.945 -0.8253  1.7452 -0.5833
    2MPD1    H314128   4.153   4.277  10.694  1.3809 -0.9755  0.5015
    2MPD1     N14129   3.883   3.942  10.768 -0.2799 -0.6185 -0.4661
    2MPD1    H514130   3.898   3.924  10.669 -1.6462  1.9005 -1.1389
    2MPD1    N114131   4.095   4.158  11.142  0.0717 -0.4874 -0.0119
    2MPD1    H614132   4.003   4.170  11.185 -0.8467 -2.1693 -1.5184
    2MPD1    H714133   4.144   4.244  11.168 -0.5541 -0.5975  1.5811
    3MPD1     C14134   3.346   2.992  10.865  0.2956 -0.3790  0.1480
    3MPD1    C114135   3.443   2.990  10.775  0.0612 -0.2407  0.2956
    3MPD1    C214136   3.534   3.094  10.766  0.0220 -0.2315  0.3680
    3MPD1    C314137   3.515   3.213  10.837 -0.0636 -0.2205  0.2940
    3MPD1    C414138   3.408   3.212  10.928  0.2519  0.3385 -0.4588
    3MPD1    C514139   3.328   3.105  10.943 -0.6631 -0.1465 -0.0642
    3MPD1     H14140   3.613   3.087  10.692  0.4154 -0.0834  0.7732
    3MPD1    H114141   3.376   3.301  10.981 -2.2540 -1.2132  0.6335
    3MPD1    H214142   3.277   2.908  10.871  2.3098 -2.0566 -0.1385
    3MPD1    H314143   3.241   3.117  11.006  0.2915  1.3770  0.9660
    3MPD1     N14144   3.610   3.321  10.826 -0.6478  0.5791 -0.4751
    3MPD1    H514145   3.688   3.316  10.761 -0.7371 -2.7743 -0.2872
    3MPD1    N114146   3.462   2.872  10.706 -0.0400 -1.5324  0.3057
    3MPD1    H614147   3.511   2.887  10.618 -3.0950 -0.0547 -1.1800
    3MPD1    H714148   3.380   2.813  10.692  0.5954 -2.2696 -0.3380
    4MPD2     C14149   4.507   3.393  11.882 -0.8977 -0.0190 -0.3114
    4MPD2    C114150   4.524   3.277  11.807  0.0072  0.6300 -0.1192
    4MPD2    C214151   4.577   3.289  11.677 -0.0210  0.4035  0.1990
    4MPD2    C314152   4.593   3.418  11.624 -0.6325 -0.0221 -0.2431
    4MPD2    C414153   4.563   3.535  11.700 -0.3120  0.3212 -0.5769
    4MPD2    C514154   4.533   3.517  11.831 -0.3184  0.2823  0.0147
    4MPD2     H14155   4.611   3.204  11.618 -2.7893  0.1367 -1.0252
    4MPD2    H114156   4.575   3.637  11.666  0.4985  1.8671  4.3185
    4MPD2    H214157   4.483   3.389  11.988  0.0729 -1.6448 -0.1601
    4MPD2    H314158   4.523   3.602  11.897  0.1698  1.1367 -1.0086
    4MPD2     N14159   4.643   3.430  11.494 -0.4369 -0.4738 -0.7048
    4MPD2    H514160   4.664   3.340  11.451 -0.5894 -1.3567  1.0443
    4MPD2    N114161   4.503   3.146  11.851 -0.0081  0.3758 -0.0158
    4MPD2    H714162   4.532   3.067  11.793 -1.4853 -0.2589  0.1232
    5TMC3    C114163   4.482   2.967  11.986  0.4934  0.1787 -0.2921
    5TMC3    C214164   4.590   2.925  12.062 -1.0333 -0.1667  0.3522
    5TMC3    C314165   4.677   2.825  12.012  0.1170  0.6667 -0.3556
    5TMC3    C414166   4.465   2.910  11.863 -0.1228  0.4820 -0.0622
    5TMC3    C514167   4.551   2.820  11.809 -0.5486 -0.6160 -0.1938
    5TMC3    C614168   4.658   2.777  11.884 -0.1477  0.1050  0.3656
    5TMC3     C14169   4.454   3.111  11.970  0.1886 -0.1577 -0.6245
    5TMC3     O14170   4.434   3.180  12.066 -0.0258  0.1827  0.8822
    5TMC3     H14171   4.589   2.958  12.166 -0.7666 -2.4588  1.0721
    5TMC3    H114172   4.369   2.929  11.817 -0.0823 -0.1802 -0.4182
    5TMC3    H214173   0.001   2.702  11.846  0.4716  0.8185  0.0745
    5TMC3    C714174   4.572   2.836  11.665 -0.0206  0.0753  0.1133
    5TMC3    C814175   0.057   2.758  12.088  0.3085  0.4838  0.5803
    5TMC3    O114176   4.522   2.940  11.619 -0.9903 -0.3917  0.0770
    5TMC3    O214177   0.134   2.687  12.026 -0.2988  0.4117  0.8407
    6TMC3    C114178   3.759   3.751  10.752  0.4459 -0.2201  0.3795
    6TMC3    C214179   3.679   3.668  10.827 -0.1014 -0.1639  0.1919
    6TMC3    C314180   3.712   3.536  10.835  0.7631 -0.0493 -0.2609
    6TMC3    C414181   3.871   3.693  10.685  0.1465  0.3010 -0.5449
    6TMC3    C514182   3.888   3.557  10.705 -1.0056 -0.9604  0.7324
    6TMC3    C614183   3.810   3.472  10.771 -0.0692 -0.5448 -0.1605
    6TMC3     C14184   3.799   3.860  10.838 -0.0446 -0.3821  0.3702
    6TMC3     O14185   3.755   3.861  10.955 -0.7701 -0.3871  0.3110
    6TMC3     H14186   3.601   3.705  10.893  2.9595  0.3317  3.4818
    6TMC3    H114187   3.940   3.743  10.618  2.6938  0.3142  2.0856
    6TMC3    H214188   3.841   3.369  10.790 -2.4621 -1.4054 -0.9659
    6TMC3    C714189   4.021   3.512  10.705  0.2274 -0.1197  0.8027
    6TMC3    C814190   3.604   3.448  10.885  0.2154 -0.5715  0.4793
    6TMC3    O114191   4.107   3.593  10.732  0.1387 -0.4440 -0.1462
    6TMC3    O214192   3.515   3.486  10.957 -0.0876 -0.6041  0.7038
    7MPD2     C14193   0.129   2.816  11.237  0.5393 -0.0369 -0.8268
    7MPD2    C114194   0.068   2.926  11.300 -0.3521 -0.2913 -0.5844
    7MPD2    C214195   0.002   2.909  11.420  0.0445  0.7181  0.3118
    7MPD2    C314196   0.007   2.780  11.477  0.4843 -0.3787  0.2093
    7MPD2    C414197   0.075   2.675  11.416 -0.2009 -0.1904  0.0794
    7MPD2    C514198   0.141   2.695  11.301 -1.0521  0.2233 -0.0849
    7MPD2     H14199   4.679   2.991  11.472 -1.3817  0.7023 -0.9525
    7MPD2    H114200   0.085   2.582  11.470 -0.8062 -0.9936 -1.2106
    7MPD2    H214201   0.180   2.832  11.142  2.4772 -2.1771 -0.1275
    7MPD2    H314202   0.218   2.628  11.266 -0.3407  1.0038 -0.0031
    7MPD2     N14203   4.665   2.749  11.601  0.5357  0.4109  0.1681
    7MPD2    H514204   4.685   2.657  11.639  0.8827  1.0286  1.5196
    7MPD2    N114205   0.071   3.048  11.232  0.4387 -0.6912  0.2378
    7MPD2    H714206   0.102   3.045  11.135  1.7012 -2.1149  0.6880
    8TMC3    C114207   0.035   3.281  11.199  0.1298  0.1280  0.8852
    8TMC3    C214208   4.662   3.270  11.104 -0.0285 -0.3422  0.0957
    8TMC3    C314209   4.568   3.375  11.100  0.3540  0.5727 -0.7841
    8TMC3    C414210   0.039   3.394  11.277  0.9615  0.2003 -0.2350
    8TMC3    C514211   4.674   3.494  11.274  0.4683  0.0148  0.1403
    8TMC3    C614212   4.566   3.473  11.192  0.0848 -0.0777 -0.0307
    8TMC3     C14213   0.034   3.171  11.296  0.6325 -0.6364 -0.7812
    8TMC3     O14214   0.012   3.197  11.412 -0.1168  0.3738 -0.8848
    8TMC3     H14215   4.653   3.181  11.042  2.2495 -1.5139  1.4598
    8TMC3    H114216   0.122   3.394  11.347  0.0542 -1.2895  0.8337
    8TMC3    H214217   4.485   3.542  11.214 -1.2774 -1.1387 -1.6942
    8TMC3    C714218   4.640   3.537  11.408  0.5641 -0.4840  0.0978
    8TMC3    C814219   4.448   3.368  11.022  0.2250  0.3596  0.1053
    8TMC3    O114220   4.571   3.638  11.417 -0.2481 -0.3726 -0.5244
    8TMC3    O214221   4.358   3.443  11.056  0.0855  0.3996 -0.0447
    9MPD2     C14222   4.370   3.141  10.739  0.0520  0.4378  0.4602
    9MPD2    C114223   4.347   3.250  10.826  0.0659 -0.1035  0.7379
    9MPD2    C214224   4.246   3.337  10.808  0.3203 -0.1129  0.2317
    9MPD2    C314225   4.155   3.303  10.707  0.4554 -0.0208 -0.2597
    9MPD2    C414226   4.167   3.183  10.636  0.1678  0.3892  0.0636
    9MPD2    C514227   4.277   3.100  10.649 -0.1443  0.3760 -0.4609
    9MPD2     H14228   4.233   3.425  10.869 -0.9033  0.3493 -0.6923
    9MPD2    H114229   4.101   3.159  10.553  2.3673  3.3659 -2.5455
    9MPD2    H214230   4.456   3.075  10.751 -0.0347  0.0101 -1.3234
    9MPD2    H314231   4.293   3.016  10.583 -1.1723 -2.3731  2.7911
    9MPD2     N14232   4.041   3.375  10.674 -0.2147 -0.2080  0.1881
    9MPD2    H514233   3.966   3.324  10.629  0.2172 -1.6811  1.1424
    9MPD2    N114234   4.445   3.266  10.927 -0.3275 -0.3329 -0.0418
    9MPD2    H714235   4.513   3.192  10.934  0.7281  0.7682  1.2894
    1MPD1     C14236   4.675   2.736  16.359  0.2869 -0.2236  0.6461
    1MPD1    C114237   4.658   2.644  16.263 -0.2524  0.0030 -0.8340
    1MPD1    C214238   4.569   2.545  16.276  0.0212 -0.0614 -0.0576
    1MPD1    C314239   4.495   2.531  16.393  0.5868  0.1056  0.1367
    1MPD1    C414240   4.518   2.613  16.494 -0.0402 -0.2274 -0.6983
    1MPD1    C514241   4.610   2.714  16.482 -0.0521 -0.0795 -0.2460
    1MPD1     H14242   4.558   2.478  16.191 -2.3062 -1.8154  1.6114
    1MPD1    H114243   4.462   2.611  16.587 -2.7242  0.6872 -2.2989
    1MPD1    H214244   0.012   2.824  16.351  2.6713 -1.8882  0.7114
    1MPD1    H314245   4.623   2.784  16.564 -1.7340  0.7823 -0.7200
    1MPD1     N14246   4.404   2.420  16.413 -0.7458  0.6467 -0.4290
    1MPD1    H514247   4.360   2.422  16.504  1.0251 -1.5843  0.4629
    1MPD1    N114248   4.706   2.675  16.139  0.0188 -0.3427 -0.1455
    1MPD1    H614249   4.711   2.590  16.083 -0.1390 -0.0005 -0.6789
    1MPD1    H714250   0.068   2.728  16.134 -0.2389  0.1550  0.6904
    2MPD1     C14251   4.118   1.625  15.912  0.8980  0.1525  0.1136
    2MPD1    C114252   4.222   1.711  15.899  0.2222  1.2377 -0.2289
    2MPD1    C214253   4.220   1.820  15.984 -0.9903 -0.5029  0.9325
    2MPD1    C314254   4.125   1.838  16.077  0.4287 -0.1557 -0.4262
    2MPD1    C414255   4.023   1.748  16.082 -0.3576 -0.6633 -1.3888
    2MPD1    C514256   4.019   1.641  15.995  0.0079 -0.4241 -0.0711
    2MPD1     H14257   4.302   1.890  15.978 -0.0508 -1.9032 -2.7389
    2MPD1    H114258   3.941   1.748  16.153  1.8288  1.7126  1.0810
    2MPD1    H214259   4.114   1.550  15.834 -2.2119  1.1753 -0.6922
    2MPD1    H314260   3.938   1.569  15.993 -2.2553  2.2244 -1.5556
    2MPD1     N14261   4.139   1.937  16.172 -0.6839  0.4221  0.1458
    2MPD1    H514262   4.228   1.986  16.170  0.5823 -1.8346  0.8268
    2MPD1    N114263   4.304   1.700  15.787 -0.2112 -0.3550  0.7861
    2MPD1    H614264   4.394   1.748  15.785 -2.3584  3.6738  0.5385
    2MPD1    H714265   4.326   1.602  15.773 -0.2446 -0.1514 -0.6724
    3TCq2    C114266   4.051   1.977  16.267  0.3832  0.4015  0.3863
    3TCq2    O214267   3.946   1.917  16.297 -0.0817 -0.6254  0.1302
    3TCq2    C214268   4.104   2.072  16.356 -0.0398  0.3053  0.0290
    3TCq2    C314269   4.097   2.062  16.494 -0.3606 -0.3185 -0.2448
    3TCq2    C414270   4.166   2.141  16.575 -0.2976 -0.2977 -0.0439
    3TCq2    C514271   4.261   2.232  16.520  0.6763  0.2116  0.1517
    3TCq2    C614272   4.260   2.243  16.382 -0.5351  1.3347  0.3608
    3TCq2    C714273   4.193   2.165  16.297 -0.5862 -0.1044  0.2365
    3TCq2    C814274   4.359   2.328  16.322  0.2113 -0.0468  0.1846
    3TCq2    O414275   4.374   2.314  16.200  0.5560 -0.4802 -0.2113
    3TCq2    C914276   4.133   2.134  16.717  0.7368  0.3323 -0.3084
    3TCq2    O514277   4.071   2.035  16.758 -0.4216  0.3540  0.2857
    3TCq2    O614278   4.184   2.225  16.787 -0.4358 -0.0871  0.7092
    3TCq2    H214279   4.041   1.983  16.543 -0.1327  1.3308  2.6761
    3TCq2    H314280   4.317   2.293  16.591 -1.7496  1.3075  1.1218
    3TCq2    H414281   4.216   2.169  16.192 -0.2536 -0.9649  0.2773
    1TCq1    O114282   2.268   0.987  12.645 -0.2333 -0.5765  0.3693
    1TCq1    C114283   2.400   0.984  12.662 -0.2132 -0.1608 -0.5626
    1TCq1    O214284   2.460   0.933  12.755  0.0639  0.0758  0.0130
    1TCq1    C214285   2.439   1.108  12.602  0.2825  0.3246 -0.0389
    1TCq1    C314286   2.415   1.130  12.471 -0.1577 -0.0613  0.5088
    1TCq1    C414287   2.412   1.257  12.421 -0.6906  0.7976  0.0767
    1TCq1    C514288   2.457   1.360  12.502 -0.5125  0.5584  0.4843
    1TCq1    C614289   2.484   1.336  12.632  0.1034 -0.0224 -0.3770
    1TCq1    C714290   2.479   1.209  12.687 -0.0696  0.0821 -0.0032
    1TCq1    C814291   2.554   1.442  12.694  0.2673  0.3875 -0.7462
    1TCq1    O414292   2.544   1.556  12.648  0.1989  0.3351 -0.0446
    1TCq1    C914293   2.396   1.270  12.279 -0.5098  0.1906  1.0753
    1TCq1    O514294   2.293   1.209  12.230 -0.1781  0.4133 -0.3127
    1TCq1    O614295   2.459   1.360  12.221  0.4193 -0.8756 -0.2361
    1TCq1    H114296   2.226   1.050  12.584 -1.2290  0.0186  1.6580
    1TCq1    H214297   2.383   1.048  12.408 -1.5108  1.1416 -0.3651
    1TCq1    H314298   2.463   1.458  12.455 -1.0456 -0.1911 -1.1508
    1TCq1    H414299   2.475   1.187  12.793 -0.0495 -0.4082 -0.1013
    2MPD2     C14300   2.673   1.619  12.906  0.3592  0.3985  0.2040
    2MPD2    C114301   2.683   1.485  12.904 -0.2232  0.4518  0.0669
    2MPD2    C214302   2.752   1.424  13.009  0.2728  0.7031  0.0740
    2MPD2    C314303   2.801   1.497  13.119  0.4121 -0.3728  0.2776
    2MPD2    C414304   2.781   1.634  13.126  0.3784 -0.6084  0.1058
    2MPD2    C514305   2.722   1.688  13.015  0.4675  0.7990  0.1238
    2MPD2     H14306   2.780   1.321  12.990 -0.5458  0.6506 -0.8455
    2MPD2    H114307   2.819   1.697  13.205 -0.6860 -2.6517  2.2497
    2MPD2    H214308   2.616   1.658  12.822  0.5299  1.7462  0.7151
    2MPD2    H314309   2.730   1.796  13.010 -1.0869  0.7883 -2.9364
    2MPD2     N14310   2.861   1.428  13.233 -0.0838 -0.6551  0.1074
    2MPD2    H514311   2.896   1.338  13.202 -0.7156 -0.1184 -2.2382
    2MPD2    N114312   2.630   1.401  12.803  0.1047  0.1729  0.8094
    2MPD2    H714313   2.636   1.301  12.817  1.5086 -0.0876 -1.6908
    3TCq1    O114314   3.084   1.288  13.869 -0.5498 -0.3583 -0.2551
    3TCq1    C114315   3.002   1.355  13.785 -0.8478 -0.1763  0.7955
    3TCq1    O214316   2.889   1.400  13.806  0.9378 -0.2690 -0.3127
    3TCq1    C214317   3.028   1.335  13.649  0.3092  0.5967 -0.4043
    3TCq1    C314318   3.105   1.230  13.612 -0.2473 -0.1328 -0.2133
    3TCq1    C414319   3.114   1.206  13.470  0.0091 -0.1953 -0.5806
    3TCq1    C514320   3.037   1.279  13.382 -0.2296 -0.5379  0.2600
    3TCq1    C614321   2.967   1.391  13.429 -0.4592  0.2214  0.0607
    3TCq1    C714322   2.959   1.413  13.564  0.4573  0.8334  0.3398
    3TCq1    C814323   2.894   1.487  13.349 -0.7014  0.0158 -0.4045
    3TCq1    O414324   2.873   1.602  13.396  0.3174 -0.8318  0.3100
    3TCq1    C914325   3.185   1.085  13.429  0.0112 -0.3159 -0.4937
    3TCq1    O514326   3.193   1.070  13.303  0.3520  0.1046  0.2349
    3TCq1    O614327   3.242   1.023  13.523  0.1336  0.2174 -0.0700
    3TCq1    H114328   3.178   1.298  13.842 -1.4996  1.9435 -2.6066
    3TCq1    H214329   3.158   1.172  13.687  1.9723  1.5832 -0.4588
    3TCq1    H314330   3.031   1.249  13.278  0.7813 -2.2095  0.6760
    3TCq1    H414331   2.909   1.501  13.604  0.2556  1.3840 -1.1230
    1MPD2     C14332   1.991   2.232  15.110 -0.0632  0.2465  0.1845
    1MPD2    C114333   1.934   2.127  15.041 -0.2310 -0.1611 -0.1446
    1MPD2    C214334   2.000   2.007  15.043  0.3520 -0.1351  0.3653
    1MPD2    C314335   2.120   1.987  15.106 -0.1757 -0.7463  1.2174
    1MPD2    C414336   2.178   2.088  15.182  0.2099 -0.3683 -0.2915
    1MPD2    C514337   2.115   2.213  15.167  0.2652  0.1847  0.7182
    1MPD2     H14338   1.965   1.929  14.976  0.6371 -0.6642  0.8378
    1MPD2    H114339   2.276   2.086  15.227  0.4225  0.7038 -0.7027
    1MPD2    H214340   1.948   2.332  15.102  0.5166  0.4233 -0.7836
    1MPD2    H314341   2.155   2.296  15.225  2.4249  0.8535 -1.7544
    1MPD2     N14342   2.170   1.854  15.099  0.1072 -0.1347  0.2011
    1MPD2    H514343   2.112   1.787  15.048 -0.3177  2.3348 -2.5756
    1MPD2    N114344   1.798   2.144  14.995 -0.2684  0.0680 -0.7934
    1MPD2    H714345   1.762   2.239  15.000  0.3529  0.2901 -0.5507
    2TMC3    C114346   1.588   2.081  14.916 -1.1226  0.2719 -0.0750
    2TMC3    C214347   1.522   1.964  14.905  0.1746  0.0087  0.0475
    2TMC3    C314348   1.453   1.944  14.791  0.0393  0.6076  0.2174
    2TMC3    C414349   1.583   2.181  14.828  0.1568 -0.4653 -0.1418
    2TMC3    C514350   1.504   2.158  14.717  0.1770 -0.1485  0.6281
    2TMC3    C614351   1.435   2.042  14.698  0.9911  0.0842 -0.1774
    2TMC3     C14352   1.715   2.043  14.966 -0.5454 -0.0257 -0.6747
    2TMC3     O14353   1.737   1.920  14.961  0.2611 -0.0257  0.2401
    2TMC3     H14354   1.516   1.907  14.996 -1.8453 -0.0995 -0.1542
    2TMC3    H114355   1.631   2.274  14.857 -1.1398  0.1178  0.0961
    2TMC3    H214356   1.382   2.015  14.607  1.7370 -1.9056 -0.0182
    2TMC3    C714357   1.484   2.260  14.621  0.1116 -0.4725 -0.0811
    2TMC3    C814358   1.461   1.814  14.746 -0.2361  0.1652  0.4094
    2TMC3    O114359   1.403   2.241  14.536  0.3086  0.5566  0.9763
    2TMC3    O214360   1.380   1.773  14.664 -0.3316  0.8554  0.2335
    3TCq1    O114361   2.313   2.574  14.556 -0.3063  0.3526 -0.2576
    3TCq1    C114362   2.371   2.692  14.520 -0.1080  0.3973 -0.3331
    3TCq1    O214363   2.494   2.723  14.533 -0.0892 -1.3093 -0.1913
    3TCq1    C214364   2.272   2.788  14.479  0.4581 -0.4649  0.3454
    3TCq1    C314365   2.320   2.911  14.462 -0.5828  0.6590 -0.5372
    3TCq1    C414366   2.223   2.997  14.419 -0.1624 -0.3890  0.7625
    3TCq1    C514367   2.097   2.968  14.387 -0.5613  0.5620  0.5282
    3TCq1    C614368   2.062   2.836  14.394  0.6050 -0.7200  0.1121
    3TCq1    C714369   2.154   2.740  14.431 -0.1435  0.4803 -0.1704
    3TCq1    C814370   1.916   2.799  14.382 -0.1965  0.5158  0.5301
    3TCq1    O414371   1.845   2.877  14.312  0.2107  0.3298  0.1337
    3TCq1    C914372   2.276   3.134  14.411 -0.0916  0.3059  0.1667
    3TCq1    O514373   2.382   3.153  14.472 -0.7178  0.5914  0.5769
    3TCq1    O614374   2.194   3.223  14.370  0.6607  0.1879  0.1010
    3TCq1    H114375   2.216   2.582  14.548 -0.2703  2.9665  2.0100
    3TCq1    H214376   2.422   2.939  14.489 -0.4271  0.2132 -0.6679
    3TCq1    H314377   2.041   3.050  14.344 -1.1090  0.5441  1.2126
    3TCq1    H414378   2.136   2.637  14.402 -1.1121  0.1260  1.7031
    4MPD2     C14379   1.656   2.667  14.356 -0.1178 -0.1876  0.0955
    4MPD2    C114380   1.762   2.615  14.430  0.3926  0.2861  0.9447
    4MPD2    C214381   1.744   2.509  14.514  0.1646  0.9328 -0.0619
    4MPD2    C314382   1.617   2.453  14.528  0.5511 -0.3548 -0.4132
    4MPD2    C414383   1.518   2.501  14.445  0.7416  0.2369  0.0856
    4MPD2    C514384   1.542   2.596  14.354 -0.7779 -0.0172  0.1178
    4MPD2     H14385   1.824   2.472  14.578 -1.1314  1.3610  1.8212
    4MPD2    H114386   1.422   2.451  14.436  1.4488 -0.9271 -0.9344
    4MPD2    H214387   1.666   2.751  14.289  0.3068 -0.9517 -0.8067
    4MPD2    H314388   1.456   2.623  14.294 -0.0964  0.1958 -0.7535
    4MPD2     N14389   1.597   2.342  14.619  0.1790 -0.3792  0.3293
    4MPD2    H514390   1.677   2.311  14.673  0.2781 -0.9701 -0.1546
    4MPD2    N114391   1.889   2.675  14.432 -0.1086 -0.3435 -0.3215
    4MPD2    H714392   1.950   2.625  14.496 -0.4178 -1.5842 -0.9908
    5TMC2    C114393   2.137   1.522  14.994 -0.5559 -0.4935 -0.1474
    5TMC2    C214394   2.120   1.447  15.108 -0.1020 -0.3123 -0.1973
    5TMC2    C314395   2.173   1.485  15.230 -0.0364 -0.4891 -0.2774
    5TMC2    C414396   2.226   1.625  15.011 -0.7434  0.3648 -0.1032
    5TMC2    C514397   2.289   1.657  15.129  0.2290 -0.5944 -0.2476
    5TMC2    C614398   2.269   1.579  15.240  0.6131 -0.8260 -0.1475
    5TMC2     C14399   2.012   1.569  14.926 -0.3453  0.1632 -0.3775
    5TMC2     O14400   2.011   1.690  14.902  0.4919  0.1372  0.3823
    5TMC2     H14401   2.048   1.367  15.117 -0.5470  0.1972  0.7616
    5TMC2    H114402   2.234   1.697  14.931  0.7532 -0.8870 -1.0721
    5TMC2    H214403   2.320   1.591  15.335  1.7746 -0.3427 -0.8184
    5TMC2    C714404   2.285   1.802  15.160  0.1239 -0.2178  0.6361
    5TMC2    C814405   2.168   1.377  15.332 -0.5042 -0.7577  0.9978
    5TMC2    O114406   2.369   1.855  15.235  0.2355 -0.2518 -0.2422
    5TMC2    O214407   2.131   1.260  15.302  0.6026  0.1897  0.1701
    5TMC2    O514408   2.168   1.433  15.461 -0.1865  0.7473 -0.0362
    5TMC2    H514409   2.175   1.531  15.454 -2.0119  0.9992  1.7852
    6MPD2     C14410   1.558   1.550  14.695 -0.3760  0.4010  0.4313
    6MPD2    C114411   1.624   1.635  14.773  0.3361 -0.2792  0.0065
    6MPD2    C214412   1.750   1.609  14.844 -0.5680 -0.4691  0.8557
    6MPD2    C314413   1.814   1.490  14.815  0.4959  0.4876  0.3567
    6MPD2    C414414   1.749   1.396  14.740 -0.6578  0.4827  0.9137
    6MPD2    C514415   1.621   1.425  14.683 -0.0877  0.3354  0.6531
    6MPD2     H14416   1.783   1.681  14.918 -2.2190  1.3224 -0.1250
    6MPD2    H114417   1.803   1.304  14.721 -0.8699  0.2377  1.4703
    6MPD2    H214418   1.461   1.561  14.647 -0.6496 -1.0339  0.6467
    6MPD2    H314419   1.576   1.354  14.615  0.2206  0.3510  0.4282
    6MPD2     N14420   1.942   1.469  14.873  0.0992  0.3531 -0.6989
    6MPD2    H514421   1.962   1.371  14.889 -0.3362  0.2370 -0.8597
    6MPD2    N114422   1.573   1.761  14.802  0.3188  0.1511 -0.3087
    6MPD2    H714423   1.629   1.829  14.852  2.0244 -1.0458 -0.5817
  945NH3     N114424   2.820   1.375   1.991  0.9718  0.2247 -0.1025
  945NH3     H214425   2.897   1.436   2.019  2.6636 -1.5015 -0.9796
  945NH3     H314426   2.842   1.295   2.049  0.5843  1.0594  1.1979
  945NH3     H414427   2.852   1.350   1.898 -1.4502 -1.8770 -0.3575
  946SOD     NA14428   2.415   3.361  14.487  0.0975  0.3258  0.0312
  947SOD     NA14429   1.918   0.935  14.143 -0.4822  0.4631  0.7945
  948SOD     NA14430   4.350   1.137   1.740 -0.5638 -0.1027  0.0359
  949SOD     NA14431   1.237   0.523   4.056  0.3153  0.4399 -0.0380
  950SOD     NA14432   1.435   0.860  10.172 -0.2628 -0.3137 -0.3790
  951SOD     NA14433   3.229   1.445  10.707 -0.2133 -0.1384 -0.0963
  952SOD     NA14434   1.340   1.813   9.254 -0.4308 -0.7040 -0.3371
  953SOD     NA14435   0.833   3.792  11.330  0.1173  0.0993 -0.4133
  954SOD     NA14436   2.683   0.413  11.914  0.4135  0.7379  0.6676
  955SOD     NA14437   0.770   2.576  15.385 -0.1473 -0.5480  0.6753
  956SOD     NA14438   2.606   4.556   2.016 -0.4328 -0.3599 -0.3995
  957SOD     NA14439   3.629   3.171  11.994  0.1109 -0.1419 -0.1498
  958SOD     NA14440   2.869   1.883  14.909  0.0525 -0.6061 -0.0879
  959SOD     NA14441   3.332   3.133  15.723  0.5044  0.1222  0.2076
  960SOD     NA14442   2.081   0.089  10.958  0.2123  0.3691  0.0840
  961SOD     NA14443   2.431   2.440  10.227  0.6542 -0.3798  0.2567
  962SOD     NA14444   1.769   0.746  11.480  0.2126 -0.1351 -0.6735
  963SOD     NA14445   0.072   3.729   7.503  0.0749  0.3467  0.0715
  964SOD     NA14446   3.849   0.988  16.101 -0.2181 -0.2083 -0.1467
  965SOD     NA14447   0.611   0.277  17.680  0.5772  0.1512 -0.4680
  966SOD     NA14448   4.197   2.562  13.347 -0.2418 -0.1855 -0.1074
  967SOD     NA14449   0.485   1.026  11.195 -0.4388 -0.0523 -0.1920
  968SOD     NA14450   3.112   3.980  16.765  0.0272  0.1083 -0.0831
  969SOD     NA14451   2.482   1.331  12.015 -0.6941  0.0872 -0.5365
  970SOD     NA14452   4.573   4.411   0.732 -0.6477 -0.2017  0.2903
  971SOD     NA14453   3.620   1.747  15.084  0.4265  0.1402  0.2393
  972SOD     NA14454   2.132   2.625   1.776  0.5567 -0.6451 -0.5410
  973SOD     NA14455   0.555   1.450   8.859  0.3740  0.2580  0.3710
  974SOD     NA14456   1.802   0.891  12.264 -0.0469 -0.3438 -0.2372
  975SOD     NA14457   3.034   4.570   4.906  0.4016  0.2698 -0.0592
  976SOD     NA14458   2.491   1.145   3.018 -0.4911  0.1919  0.5569
  977SOD     NA14459   0.006   4.132  11.847  0.1514  0.2047 -0.2658
  978SOD     NA14460   3.801   1.266  10.487  0.0056  0.1445  0.0719
  979SOD     NA14461   4.385   1.883  13.128 -0.9765  0.2275  0.1375
  980SOD     NA14462   3.044   2.018  15.256 -0.3820  0.1378 -0.8035
  981SOD     NA14463   1.713   3.882  10.792  0.0631  0.0119  0.2159
  982SOD     NA14464   3.193   4.183   6.315 -0.4702  0.0394  0.1973
  983SOD     NA14465   3.101   0.911  14.212 -0.2711  0.0021  0.2291
  984SOD     NA14466   1.783   0.056   2.923  0.0836  0.5319  0.1112
  985SOD     NA14467   4.328   0.923   2.128  0.3598  0.6679 -0.1861
  986SOD     NA14468   1.566   3.557   0.746 -0.5759 -0.1880  0.0159
  987SOD     NA14469   3.283   2.684   0.928 -0.0790 -0.4824 -0.1846
  988SOD     NA14470   3.909   2.488  13.487  0.3975  0.5022  0.4751
  989SOD     NA14471   2.377   0.518   2.723  0.3623 -0.3138  0.1244
  990SOD     NA14472   0.395   4.523   2.289 -0.1628 -0.4181 -0.1072
  991SOD     NA14473   3.395   0.888  14.015  0.1214 -0.1608  0.0294
  992SOD     NA14474   4.114   3.770  14.132 -0.1048  0.3305 -0.0326
  993SOD     NA14475   0.302   0.793  11.236  0.2256 -0.3108  0.9021
  994SOD     NA14476   0.622   4.220   1.918 -0.1706  0.2013  0.0308
  995SOD     NA14477   4.330   0.847  13.819  0.0774 -0.2801  0.2936
  996SOD     NA14478   0.887   4.603   0.955  0.2824 -0.3250 -0.2226
  997SOD     NA14479   1.497   0.684  10.427 -0.1981  0.2804 -0.1591
  998SOD     NA14480   3.468   2.684   7.923  0.1922  0.2952  0.1397
  999SOD     NA14481   2.046   2.746  10.883 -0.4490  0.0630  0.1734
 1000SOD     NA14482   1.218   2.331  10.882 -0.3331  0.1338 -0.1817
 1001SOD     NA14483   4.177   4.704  16.748 -0.6080 -0.4012  0.1086
 1002SOD     NA14484   0.809   1.595  15.875 -0.6164  0.6161 -0.1190
 1003SOD     NA14485   2.107   1.080  12.248  0.6145 -0.2399  0.3671
 1004SOD     NA14486   2.268   1.276  11.452  0.3193 -0.0793  0.1865
 1005SOD     NA14487   1.704   0.175  15.083  0.6259  0.5647  0.4688
 1006SOD     NA14488   3.109   0.137  17.361  0.5028 -0.2133 -0.1822
 1007SOD     NA14489   2.386   1.017  11.411  0.0385 -0.0826 -0.0627
 1008SOD     NA14490   1.792   2.685  15.375 -0.4203 -0.2191 -0.2819
 1009SOD     NA14491   3.736   0.796  14.703 -0.2609 -0.0432 -0.3959
 1010SOD     NA14492   3.250   0.123   8.522  0.7254  0.2044  0.3729
 1011SOD     NA14493   2.298   1.424  11.741 -0.0543 -0.3770 -0.1682
 1012SOL     OW14494   1.374   1.540  12.212  0.7137 -0.4108 -0.1234
 1012SOL    HW114495   1.291   1.513  12.251  0.6558 -0.2871 -0.1599
 1012SOL    HW214496   1.417   1.587  12.284  0.7976 -1.5171  0.5384
 1013SOL     OW14497   0.543   0.951   1.951  0.0367  0.2019  0.3507
 1013SOL    HW114498   0.627   0.921   1.917 -0.3811 -1.6319  0.9373
 1013SOL    HW214499   0.582   1.029   1.990 -0.8498  0.6906  0.2501
 1014SOL     OW14500   1.806   3.152   7.756 -0.3570 -0.4195 -0.5003
 1014SOL    HW114501   1.845   3.070   7.726  0.2292 -0.9585  1.6913
 1014SOL    HW214502   1.787   3.127   7.847  3.3336 -2.4815 -0.3014
 1015SOL     OW14503   0.995   2.455   6.262  0.2639 -0.0316 -0.4959
 1015SOL    HW114504   0.921   2.504   6.227 -1.4080 -1.4868  0.9973
 1015SOL    HW214505   0.954   2.432   6.345  0.2284 -2.5151 -1.2025
 1016SOL     OW14506   4.109   0.343   2.271  0.0446  0.3935 -0.2268
 1016SOL    HW114507   4.137   0.401   2.200  2.5031  2.1041  2.1102
 1016SOL    HW214508   4.133   0.254   2.245  0.2838  0.5849 -0.6634
 1017SOL     OW14509   4.623   3.736  13.080  0.0823 -0.0842  0.2468
 1017SOL    HW114510   4.595   3.757  12.991  1.2912 -0.9977 -0.3469
 1017SOL    HW214511   4.620   3.640  13.076  0.4985 -0.0419 -0.9685
 1018SOL     OW14512   1.170   2.492   3.631 -0.1404  0.2513  0.4879
 1018SOL    HW114513   1.127   2.408   3.649  1.2208 -0.2911  1.1915
 1018SOL    HW214514   1.106   2.523   3.568 -0.7141  0.1705  1.0289
 1019SOL     OW14515   1.183   3.103   5.194 -0.3389  0.1208  0.2622
 1019SOL    HW114516   1.122   3.169   5.161 -0.3692 -0.4023 -0.7201
 1019SOL    HW214517   1.186   3.125   5.287  2.5080 -0.2016  0.2268
 1020SOL     OW14518   3.482   0.215   1.897 -0.1317  0.0709 -0.3829
 1020SOL    HW114519   3.445   0.282   1.840 -0.2314  0.6928  0.4114
 1020SOL    HW214520   3.432   0.218   1.979 -0.4049  0.9969 -0.5908
 1021SOL     OW14521   0.453   4.418   3.573  0.3647 -0.4078  0.5987
 1021SOL    HW114522   0.379   4.385   3.523 -0.5395  2.9084 -0.2192
 1021SOL    HW214523   0.402   4.417   3.654  0.0517 -1.5806  0.3888
 1022SOL     OW14524   4.308   1.434  15.031 -0.4319 -0.2109 -0.7320
 1022SOL    HW114525   4.401   1.455  15.032 -0.6903  0.9041 -0.0902
 1022SOL    HW214526   4.273   1.514  14.992  0.1446 -0.2992 -1.4354
 1023SOL     OW14527   4.014   1.081   0.203  0.2652 -0.2338 -0.3884
 1023SOL    HW114528   4.105   1.088   0.177  0.1069 -1.4969 -1.2868
 1023SOL    HW214529   4.005   1.160   0.257  1.2577  0.0771 -0.6796
 1024SOL     OW14530   1.716   3.505   6.638 -0.0891 -0.0263 -0.2097
 1024SOL    HW114531   1.729   3.410   6.631  0.2488  0.1296 -1.6034
 1024SOL    HW214532   1.691   3.527   6.549 -0.4967 -0.8713 -0.3032
 1025SOL     OW14533   3.617   1.137  16.629  0.3130  0.1699  0.5497
 1025SOL    HW114534   3.617   1.229  16.604 -1.1913 -0.2650 -1.1131
 1025SOL    HW214535   3.579   1.139  16.717 -1.5735 -1.6817 -0.2056
 1026SOL     OW14536   2.551   2.602   0.839  0.2328  0.6707  0.7033
 1026SOL    HW114537   2.638   2.634   0.866  0.2723  0.8139  0.4034
 1026SOL    HW214538   2.549   2.636   0.750 -0.0383 -1.2913 -0.0482
 1027SOL     OW14539   3.413   4.145  15.448 -0.0406  0.1041 -0.0554
 1027SOL    HW114540   3.374   4.129  15.361 -0.3544 -0.8320  0.2496
 1027SOL    HW214541   3.341   4.105  15.497  0.8125 -0.2445  0.9028
 1028SOL     OW14542   0.399   2.596  12.865 -0.6967  0.6765 -0.3440
 1028SOL    HW114543   0.477   2.574  12.915 -0.9799 -2.7742 -1.3703
 1028SOL    HW214544   0.402   2.530  12.795 -0.3726  0.4469 -0.1117
 1029SOL     OW14545   3.597   0.818   8.275  0.1317  0.0049 -0.4048
 1029SOL    HW114546   3.609   0.795   8.183 -1.6191 -2.7587  0.0811
 1029SOL    HW214547   3.545   0.743   8.303  0.2450 -0.5540 -1.7156
 1030SOL     OW14548   1.430   0.210   1.330 -0.4631 -0.0681  0.3868
 1030SOL    HW114549   1.433   0.183   1.238  1.2755  2.5521 -0.3434
 1030SOL    HW214550   1.481   0.292   1.326 -1.4464  0.4839 -0.7936
 1031SOL     OW14551   1.285   4.272   0.381  0.5758 -0.0883  0.4430
 1031SOL    HW114552   1.328   4.331   0.443  0.3582  0.1560  0.3601
 1031SOL    HW214553   1.230   4.216   0.437 -0.0558 -0.4208 -0.5110
 1032SOL     OW14554   1.594   4.054  10.855 -0.1175  0.1121  0.5094
 1032SOL    HW114555   1.513   4.051  10.804 -0.4766 -0.2185  1.0943
 1032SOL    HW214556   1.568   4.116  10.923 -1.5630  3.6009 -3.2123
 1033SOL     OW14557   3.942   0.308   6.620  0.1805 -0.4431  0.2352
 1033SOL    HW114558   3.982   0.394   6.632 -1.2772  0.3477 -0.6073
 1033SOL    HW214559   3.911   0.284   6.707  0.4208 -0.7938  0.2236
 1034SOL     OW14560   1.576   0.937  14.358 -0.8300 -0.0764  0.1768
 1034SOL    HW114561   1.527   0.976  14.430  0.7707  2.7564 -0.2418
 1034SOL    HW214562   1.572   0.842  14.365  0.4397 -0.1038  0.6068
 1035SOL     OW14563   3.939   2.092  15.778 -0.2550 -0.1097  0.4998
 1035SOL    HW114564   3.966   2.070  15.689 -1.1075 -0.1742  0.2499
 1035SOL    HW214565   3.958   2.185  15.776  0.7010 -0.3087  0.3659
 1036SOL     OW14566   3.802   3.013   9.222 -0.1897  0.0483  0.0385
 1036SOL    HW114567   3.768   3.032   9.135 -0.4480  0.6189  0.2627
 1036SOL    HW214568   3.896   3.033   9.220 -0.1947 -0.0839 -1.4581
 1037SOL     OW14569   0.563   2.106   0.540 -0.4292  0.0747 -0.1587
 1037SOL    HW114570   0.478   2.145   0.518 -1.6796 -3.1212 -0.9966
 1037SOL    HW214571   0.533   2.044   0.606 -1.1179  0.5217 -0.0497
 1038SOL     OW14572   0.876   1.877   9.558 -1.3464 -0.3695 -0.6199
 1038SOL    HW114573   0.876   1.833   9.643 -0.2297 -0.7709 -0.8220
 1038SOL    HW214574   0.900   1.806   9.499 -0.0336 -0.9099  0.5562
 1039SOL     OW14575   2.411   2.014   2.024 -0.3074 -0.1791  0.1851
 1039SOL    HW114576   2.381   1.942   2.078 -0.9985  0.9206  1.2602
 1039SOL    HW214577   2.333   2.033   1.972  1.1538 -0.1111 -1.9987
 1040SOL     OW14578   1.239   0.292   4.545  0.0487  0.4417 -0.3446
 1040SOL    HW114579   1.195   0.277   4.629  0.0097  0.8431 -0.2959
 1040SOL    HW214580   1.173   0.257   4.485  1.6011 -1.2188 -1.0909
 1041SOL     OW14581   0.287   2.691  13.907  0.2012 -0.3062  0.4861
 1041SOL    HW114582   0.317   2.612  13.861  0.7757 -0.6978  1.5212
 1041SOL    HW214583   0.220   2.646  13.958  0.5529 -0.9662  0.3613
 1042SOL     OW14584   1.403   2.015  17.578  0.0212  0.1188  0.1110
 1042SOL    HW114585   1.446   1.997  17.661  1.1070 -2.1733 -0.9614
 1042SOL    HW214586   1.312   2.041  17.597  0.4316  1.2108  0.5722
 1043SOL     OW14587   3.097   0.675   4.382  0.1391  0.3430 -0.4541
 1043SOL    HW114588   3.091   0.750   4.440 -0.0200  0.8409 -1.1106
 1043SOL    HW214589   3.145   0.611   4.435 -1.2545 -1.6372 -1.5822
 1044SOL     OW14590   4.272   1.149   7.610  0.2654  0.2670 -0.7753
 1044SOL    HW114591   4.239   1.179   7.695 -0.1091 -0.4389 -0.6750
 1044SOL    HW214592   4.194   1.166   7.558  0.3529  0.1095 -0.9568
 1045SOL     OW14593   0.271   1.681  12.954  0.0072 -0.8927  0.2644
 1045SOL    HW114594   0.287   1.626  13.030  2.1830 -0.8195 -0.1382
 1045SOL    HW214595   0.198   1.736  12.984 -0.0090 -1.7539  1.7982
 1046SOL     OW14596   3.402   2.734   1.113 -0.1043 -0.1509  0.3826
 1046SOL    HW114597   3.483   2.693   1.145  1.2114  1.2481 -1.2039
 1046SOL    HW214598   3.404   2.815   1.164  1.7896 -0.7721  1.2781
 1047SOL     OW14599   2.999   4.302   8.490  0.1119  0.2308  0.5214
 1047SOL    HW114600   3.070   4.243   8.464 -1.3493 -0.7483 -1.1878
 1047SOL    HW214601   3.045   4.373   8.535  0.9809  0.4144 -0.6645
 1048SOL     OW14602   1.930   0.248   6.995 -0.1915  0.4029  0.0200
 1048SOL    HW114603   2.022   0.272   6.990  0.1823 -1.2714 -1.0679
 1048SOL    HW214604   1.919   0.247   7.091 -1.2771 -2.0790 -0.1325
 1049SOL     OW14605   1.522   1.757   9.972 -0.1339 -0.6000  0.5658
 1049SOL    HW114606   1.429   1.738   9.984 -0.0509 -0.7820  0.9291
 1049SOL    HW214607   1.521   1.827   9.907 -0.4238 -1.1345 -0.0006
 1050SOL     OW14608   3.818   4.500  16.916  0.0952  0.4974  0.3705
 1050SOL    HW114609   3.855   4.573  16.867 -1.9138  0.5458 -1.0575
 1050SOL    HW214610   3.799   4.542  17.000  2.6162  0.9363  0.7030
 1051SOL     OW14611   3.947   4.163   1.708 -0.1522  0.1371 -0.0741
 1051SOL    HW114612   3.937   4.166   1.613 -2.0344 -0.8919  0.0903
 1051SOL    HW214613   4.026   4.211   1.731 -0.8478  3.3299 -4.4394
 1052SOL     OW14614   3.279   2.992   4.346 -0.6826  0.3206 -0.0221
 1052SOL    HW114615   3.250   2.962   4.260  1.6157 -0.9355 -0.3556
 1052SOL    HW214616   3.193   3.014   4.383 -0.6139 -0.0347  0.3496
 1053SOL     OW14617   0.967   1.826  16.225 -0.2317  0.1194 -0.0722
 1053SOL    HW114618   0.930   1.829  16.137 -0.8594  0.7723  0.2118
 1053SOL    HW214619   1.020   1.750  16.199 -0.0227  0.2507 -0.0278
 1054SOL     OW14620   1.490   0.555   2.800  0.3426  0.9560 -0.0333
 1054SOL    HW114621   1.406   0.597   2.815 -0.6394 -0.6032 -1.1586
 1054SOL    HW214622   1.473   0.519   2.713  1.1093  0.8620 -0.1457
 1055SOL     OW14623   3.229   0.478  10.626 -0.7372  0.4881  0.5655
 1055SOL    HW114624   3.208   0.566  10.656 -0.6121  0.9420 -0.6958
 1055SOL    HW214625   3.309   0.462  10.676  1.2780  1.2542 -2.4337
 1056SOL     OW14626   1.055   0.106   6.726 -0.2689 -0.2808  0.2294
 1056SOL    HW114627   1.045   0.039   6.794  2.1346  0.4921  1.3439
 1056SOL    HW214628   0.994   0.059   6.669 -0.7023 -0.5172  0.8841
 1057SOL     OW14629   2.064   1.095   7.300  0.1939 -0.7006 -0.7967
 1057SOL    HW114630   1.973   1.095   7.329  1.1504 -3.5634  2.1168
 1057SOL    HW214631   2.080   1.190   7.300 -2.2877 -0.2705 -1.3932
 1058SOL     OW14632   2.289   0.243   1.725  0.0939  0.3588  0.0339
 1058SOL    HW114633   2.339   0.210   1.651 -0.9210 -0.8764 -0.1092
 1058SOL    HW214634   2.207   0.223   1.680  0.1022  0.1101  0.1267
 1059SOL     OW14635   3.924   1.298  17.570  0.3468 -0.0097 -0.3775
 1059SOL    HW114636   4.010   1.330  17.597 -0.6709  0.1616  2.6745
 1059SOL    HW214637   3.906   1.351  17.493  2.4806 -0.1219 -0.9333
 1060SOL     OW14638   2.111   4.560   7.647  0.0481 -0.4763  1.0622
 1060SOL    HW114639   2.157   4.497   7.703 -1.9419 -1.4080  1.6482
 1060SOL    HW214640   2.032   4.580   7.698  0.1701  2.7598 -0.0031
 1061SOL     OW14641   2.220   0.391  13.340 -0.0598 -0.0647  0.0388
 1061SOL    HW114642   2.166   0.468  13.324  0.7993 -0.1704 -3.4235
 1061SOL    HW214643   2.221   0.344  13.256  0.5368  4.0782 -2.2994
 1062SOL     OW14644   3.283   2.022   4.199  0.2097  0.4081  0.6403
 1062SOL    HW114645   3.354   2.013   4.136  1.3154  1.5337  1.7214
 1062SOL    HW214646   3.208   2.039   4.143 -0.4281 -0.4888  1.2218
 1063SOL     OW14647   0.738   3.488   3.846 -0.7851 -0.1699 -0.8147
 1063SOL    HW114648   0.712   3.466   3.936 -0.1128  0.5408 -0.4405
 1063SOL    HW214649   0.786   3.407   3.829  0.9438  1.1529 -2.2166
 1064SOL     OW14650   1.951   1.961   2.616 -0.1442 -0.1713 -0.2929
 1064SOL    HW114651   2.006   2.014   2.673  2.5622 -1.8202 -1.3510
 1064SOL    HW214652   1.919   2.027   2.555 -1.9957  0.0133  0.8845
 1065SOL     OW14653   2.860   1.305   4.262 -0.0685  0.1359  0.3187
 1065SOL    HW114654   2.947   1.295   4.300  0.7429  2.8425 -0.8723
 1065SOL    HW214655   2.853   1.393   4.225  1.5722  0.1562  0.0662
 1066SOL     OW14656   1.677   2.338   3.281  0.2076  0.3094 -0.2755
 1066SOL    HW114657   1.684   2.242   3.281 -1.1236  0.2147  1.0996
 1066SOL    HW214658   1.658   2.342   3.187  0.2673 -1.4686 -0.3666
 1067SOL     OW14659   0.395   3.631  15.677  0.4039 -0.4817 -0.5422
 1067SOL    HW114660   0.340   3.558  15.705 -0.0742 -0.3169 -1.0450
 1067SOL    HW214661   0.332   3.701  15.659 -0.5749 -1.0824  0.5490
 1068SOL     OW14662   0.540   2.098   6.469 -0.1442  0.1355  0.9024
 1068SOL    HW114663   0.465   2.135   6.424  1.2467  0.8301 -0.8567
 1068SOL    HW214664   0.599   2.173   6.478  1.2822 -1.0563  1.4703
 1069SOL     OW14665   2.112   2.784   2.070 -0.6463 -0.2002 -0.2242
 1069SOL    HW114666   2.187   2.728   2.051 -1.0074 -0.2997 -1.3888
 1069SOL    HW214667   2.122   2.850   2.001  2.8173  0.2078  0.6719
 1070SOL     OW14668   1.004   1.855   9.832  0.4720 -0.3742  0.2542
 1070SOL    HW114669   1.012   1.786   9.766 -0.1236  1.8977 -2.1765
 1070SOL    HW214670   1.068   1.918   9.798 -0.0414 -0.1092 -0.2338
 1071SOL     OW14671   2.722   3.704   8.243  0.0813  0.2106  0.5120
 1071SOL    HW114672   2.817   3.701   8.232  0.1751  0.4738  1.2958
 1071SOL    HW214673   2.704   3.791   8.277 -1.5105 -0.1058  0.4450
 1072SOL     OW14674   1.106   0.884   4.893 -0.6229  0.2914  0.6122
 1072SOL    HW114675   1.039   0.952   4.886 -0.2873  0.5141 -0.3829
 1072SOL    HW214676   1.046   0.824   4.937 -1.0354  0.5831  0.4472
 1073SOL     OW14677   3.134   0.949   4.833 -0.6683 -0.0368 -0.2246
 1073SOL    HW114678   3.133   0.860   4.870  1.0265  0.2745  0.5801
 1073SOL    HW214679   3.189   0.995   4.897 -0.6341 -0.6893  0.2155
 1074SOL     OW14680   0.066   2.198   4.297  0.0697 -0.0457 -0.2099
 1074SOL    HW114681   0.158   2.203   4.320 -0.7068  0.6881  2.6905
 1074SOL    HW214682   0.067   2.153   4.212 -1.6661 -0.2685 -0.1168
 1075SOL     OW14683   3.981   2.629   7.810  0.3026  0.1258  0.1977
 1075SOL    HW114684   3.966   2.709   7.760 -1.8515 -0.2363  0.2715
 1075SOL    HW214685   4.077   2.638   7.810  0.3751 -0.6232  0.4854
 1076SOL     OW14686   4.261   2.929   6.633  0.0840 -0.6283 -0.1931
 1076SOL    HW114687   4.343   2.950   6.589 -0.1913  1.8739  0.4792
 1076SOL    HW214688   4.248   2.840   6.600  2.4752  0.2659 -3.4903
 1077SOL     OW14689   0.087   0.839   3.405  0.1875  0.2101  0.8144
 1077SOL    HW114690   0.058   0.867   3.319 -2.1193  0.5713  1.7054
 1077SOL    HW214691   0.148   0.910   3.423  0.8437 -0.1124 -0.1766
 1078SOL     OW14692   3.962   0.062   3.651  0.2868  0.1345  0.2687
 1078SOL    HW114693   4.056   0.075   3.659 -0.1664  1.6912  3.1830
 1078SOL    HW214694   3.939   0.103   3.568 -1.8567  1.4975  1.5332
 1079SOL     OW14695   2.462   0.761   1.394  0.1753 -0.5587  0.4672
 1079SOL    HW114696   2.385   0.771   1.450  0.5988  0.3525  0.8818
 1079SOL    HW214697   2.519   0.829   1.429  0.3146  1.3128 -3.3856
 1080SOL     OW14698   2.487   2.575   3.642 -0.4217  0.5286 -0.4982
 1080SOL    HW114699   2.438   2.583   3.561 -1.2306 -0.4293 -0.0938
 1080SOL    HW214700   2.576   2.575   3.606  0.6689  1.0540  2.2003
 1081SOL     OW14701   0.662   0.905   3.114  0.0441  0.0051 -0.3104
 1081SOL    HW114702   0.619   0.939   3.036 -0.5339 -0.1343 -0.0531
 1081SOL    HW214703   0.599   0.922   3.184 -1.1395 -1.1183 -1.1118
 1082SOL     OW14704   1.978   3.464  15.829 -0.2845  0.2003 -0.1750
 1082SOL    HW114705   2.042   3.534  15.818  0.4697 -0.6907 -1.5828
 1082SOL    HW214706   2.025   3.386  15.799  2.1784  1.8600 -0.6384
 1083SOL     OW14707   4.428   1.139   6.874 -0.2901  0.5889  0.0086
 1083SOL    HW114708   4.375   1.217   6.889  1.9990  2.2565 -0.7405
 1083SOL    HW214709   4.507   1.163   6.923 -1.2151  2.1292  0.7421
 1084SOL     OW14710   4.408   3.000   2.349  0.3556 -0.4343  0.1657
 1084SOL    HW114711   4.465   3.065   2.309  0.4470 -0.7497 -0.2243
 1084SOL    HW214712   4.440   2.925   2.297 -1.1389 -1.1687  0.3119
 1085SOL     OW14713   0.536   4.386   1.773  0.7616 -0.2047  0.2147
 1085SOL    HW114714   0.446   4.353   1.770  1.1770 -1.2392 -0.9868
 1085SOL    HW214715   0.517   4.475   1.743  1.0649 -0.0476  0.4787
 1086SOL     OW14716   2.060   4.491   8.064 -0.3404  0.1653 -0.5266
 1086SOL    HW114717   1.984   4.497   8.007 -0.9551 -1.6388  0.0947
 1086SOL    HW214718   2.077   4.397   8.064  2.2536  0.6391 -0.8843
 1087SOL     OW14719   1.791   0.649   4.729  0.3618  0.6463 -0.3496
 1087SOL    HW114720   1.828   0.650   4.641  2.0134 -1.0726  0.3178
 1087SOL    HW214721   1.866   0.643   4.788  0.7758 -1.1618 -1.0587
 1088SOL     OW14722   0.543   4.441   0.309  0.1981  0.6318  0.5995
 1088SOL    HW114723   0.517   4.390   0.231  0.6994  0.6307  0.4335
 1088SOL    HW214724   0.503   4.390   0.380  0.1529 -0.3566 -0.1314
 1089SOL     OW14725   0.774   4.650   9.716 -0.0334 -0.0096 -0.3980
 1089SOL    HW114726   0.707   4.620   9.654 -0.3217  1.7483 -0.9301
 1089SOL    HW214727   0.765   4.585   9.786 -2.0535 -0.9470 -1.4977
 1090SOL     OW14728   0.355   1.517   3.610 -0.0815 -0.2822  0.6043
 1090SOL    HW114729   0.267   1.523   3.573  0.8792  1.3052 -1.4203
 1090SOL    HW214730   0.367   1.609   3.634  3.1903 -0.5462 -0.0349
 1091SOL     OW14731   3.859   3.461   4.986  0.0143 -0.2116 -0.2402
 1091SOL    HW114732   3.852   3.527   4.917 -1.6440 -1.1257 -0.9293
 1091SOL    HW214733   3.791   3.498   5.042 -0.6888  0.3690 -1.4781
 1092SOL     OW14734   3.882   0.661   5.980 -0.2518  0.2174 -0.0116
 1092SOL    HW114735   3.913   0.712   6.054  0.2484 -1.3576  0.8718
 1092SOL    HW214736   3.873   0.733   5.917  0.9498 -0.3355 -0.8280
 1093SOL     OW14737   3.726   1.236  10.257  0.5926  0.7631 -0.2815
 1093SOL    HW114738   3.636   1.205  10.262  1.5833 -1.7139  2.2488
 1093SOL    HW214739   3.763   1.163  10.206  3.2248  2.0224 -0.1539
 1094SOL     OW14740   1.497   0.654  14.399 -0.3348  0.5056  0.3962
 1094SOL    HW114741   1.459   0.634  14.485  0.2666 -2.1748  0.0259
 1094SOL    HW214742   1.574   0.597  14.405  2.3529  4.0876  0.1818
 1095SOL     OW14743   2.698   1.022  10.064 -0.2710  0.1917 -0.3066
 1095SOL    HW114744   2.774   0.987  10.017  0.1840 -1.5612  1.7012
 1095SOL    HW214745   2.664   0.940  10.101 -1.0618  0.1347 -1.1804
 1096SOL     OW14746   2.023   0.370   9.221  0.2667 -0.0740  0.1333
 1096SOL    HW114747   1.989   0.283   9.200 -1.0705  0.3730  0.4519
 1096SOL    HW214748   1.944   0.423   9.211  0.9884  0.8517 -0.6344
 1097SOL     OW14749   3.177   0.935   5.981 -0.2023  0.3256 -0.1705
 1097SOL    HW114750   3.176   0.885   6.062 -0.2012 -2.0110 -1.6066
 1097SOL    HW214751   3.138   1.015   6.016 -0.4095  0.1328  0.0382
 1098SOL     OW14752   3.696   3.509   8.179  0.3840  0.3044  0.2607
 1098SOL    HW114753   3.708   3.487   8.271  0.2394 -1.5924 -0.1728
 1098SOL    HW214754   3.771   3.458   8.149 -0.6750  0.3220 -2.4566
 1099SOL     OW14755   0.030   0.455   2.757 -0.5599 -0.3142 -0.5266
 1099SOL    HW114756   4.698   0.490   2.824  1.3493  1.4671  0.1625
 1099SOL    HW214757   4.722   0.365   2.749 -1.7774  0.0028  1.0904
 1100SOL     OW14758   0.395   3.491   2.646  0.1385 -0.2519 -0.4712
 1100SOL    HW114759   0.456   3.504   2.719  2.3703 -1.2234 -2.1847
 1100SOL    HW214760   0.322   3.454   2.696  2.1654 -2.7460  0.6651
 1101SOL     OW14761   1.591   3.115  15.397 -0.0265 -0.1962 -0.4132
 1101SOL    HW114762   1.586   3.023  15.422 -0.9801  0.6376  2.4999
 1101SOL    HW214763   1.619   3.107  15.306 -0.6114 -1.2132 -0.5000
 1102SOL     OW14764   2.859   3.091  12.993  0.5229 -0.2545  0.1842
 1102SOL    HW114765   2.813   3.015  13.026  0.3114  0.0278  0.5380
 1102SOL    HW214766   2.796   3.160  13.014  0.5039  0.5284 -2.3286
 1103SOL     OW14767   3.868   2.976  12.442  0.1922 -0.8277  0.5444
 1103SOL    HW114768   3.931   2.978  12.370 -0.2874  1.2013  0.1859
 1103SOL    HW214769   3.907   2.917  12.506  1.3946 -0.4104  0.2067
 1104SOL     OW14770   2.330   2.111   9.583 -0.0069  0.5398  0.0132
 1104SOL    HW114771   2.345   2.049   9.512  0.4882 -0.7641  1.2505
 1104SOL    HW214772   2.284   2.183   9.540 -0.9709 -0.5062 -0.7235
 1105SOL     OW14773   3.217   3.414   5.524 -0.0577 -0.1846 -0.2017
 1105SOL    HW114774   3.302   3.459   5.525 -0.0869 -0.1131 -1.1954
 1105SOL    HW214775   3.210   3.393   5.617  1.6332  1.6523  0.3412
 1106SOL     OW14776   4.285   3.061  15.212  0.0700 -0.2352  0.2351
 1106SOL    HW114777   4.362   3.117  15.200 -0.7495  1.5170  3.1469
 1106SOL    HW214778   4.300   3.024  15.299 -3.1885  0.5878  1.1483
 1107SOL     OW14779   1.430   2.470  10.507  0.5815 -0.0196  0.3696
 1107SOL    HW114780   1.468   2.388  10.538 -1.2472 -1.3606 -0.9676
 1107SOL    HW214781   1.391   2.453  10.421  1.1203  0.4586  0.0271
 1108SOL     OW14782   2.564   4.675   3.967 -0.3038 -0.1093 -0.0693
 1108SOL    HW114783   2.475   4.670   4.000 -0.7102  0.6659 -1.0642
 1108SOL    HW214784   2.565   4.617   3.891  0.5679 -1.1531  0.7230
 1109SOL     OW14785   1.961   0.909   3.768  0.6828  0.2025 -0.3101
 1109SOL    HW114786   1.913   0.826   3.766  1.9474 -0.4718 -2.7729
 1109SOL    HW214787   1.979   0.928   3.676  0.5947 -2.0863 -0.7952
 1110SOL     OW14788   0.578   4.717   6.454  0.4240 -0.2001  0.6372
 1110SOL    HW114789   0.616   0.010   6.540  3.0799 -1.6228 -0.2361
 1110SOL    HW214790   0.593   0.076   6.409 -0.7014 -1.2192 -1.6416
 1111SOL     OW14791   4.265   3.781   6.044 -0.1058  0.0727 -0.6405
 1111SOL    HW114792   4.294   3.843   5.977 -1.8528  0.7280 -0.7811
 1111SOL    HW214793   4.334   3.714   6.041  0.1687  0.2416  1.8816
 1112SOL     OW14794   2.794   2.223   0.898 -0.3374  0.1090 -0.0532
 1112SOL    HW114795   2.749   2.293   0.946  2.2873  0.2857  2.1956
 1112SOL    HW214796   2.724   2.159   0.894 -0.5569  0.4020 -0.8960
 1113SOL     OW14797   4.713   3.255   9.420  0.7031 -0.3522 -0.3344
 1113SOL    HW114798   0.039   3.196   9.476  0.8594 -1.2425 -1.4085
 1113SOL    HW214799   4.660   3.204   9.359  1.9869  0.6539 -2.3002
 1114SOL     OW14800   4.080   2.660   2.003 -0.0354  0.5753 -0.0976
 1114SOL    HW114801   3.985   2.660   2.002 -0.0249 -0.8486 -2.6804
 1114SOL    HW214802   4.095   2.728   1.937 -1.9279  2.0191  0.9596
 1115SOL     OW14803   3.510   0.732   7.962 -0.2896  0.0441  0.4110
 1115SOL    HW114804   3.474   0.742   7.874  0.0726 -1.6789  0.0724
 1115SOL    HW214805   3.448   0.664   7.990  1.9797 -1.9955  0.4729
 1116SOL     OW14806   3.367   2.805  14.278  0.2637  0.0627 -0.2884
 1116SOL    HW114807   3.291   2.844  14.236  0.5979  0.4747 -0.5122
 1116SOL    HW214808   3.336   2.775  14.363  0.0722  0.8954 -0.0670
 1117SOL     OW14809   0.359   3.221  14.578 -0.3665  0.1029 -0.2346
 1117SOL    HW114810   0.307   3.144  14.554 -0.1626  0.5068 -1.9507
 1117SOL    HW214811   0.318   3.288  14.522 -0.3708  0.2951 -0.0021
 1118SOL     OW14812   2.873   0.804  14.618  0.0415  0.0993 -0.1365
 1118SOL    HW114813   2.788   0.818  14.661 -0.2268 -0.0645 -0.6197
 1118SOL    HW214814   2.909   0.734  14.671  0.8195  1.1384  0.7083
 1119SOL     OW14815   1.256   0.776   5.395 -0.3075 -0.2732  0.1795
 1119SOL    HW114816   1.265   0.706   5.331  2.0985 -0.7812  1.0783
 1119SOL    HW214817   1.283   0.722   5.469 -1.0047 -2.0906 -0.9005
 1120SOL     OW14818   0.190   0.116   6.989 -0.1079 -0.3147 -0.0851
 1120SOL    HW114819   0.147   0.198   7.015  1.0467  0.5778 -1.0331
 1120SOL    HW214820   0.283   0.135   6.987  0.0047 -0.5494  2.4268
 1121SOL     OW14821   1.118   4.103   7.032 -0.0150  0.1265 -0.3135
 1121SOL    HW114822   1.097   4.159   7.107  0.6428 -0.1066  0.0478
 1121SOL    HW214823   1.213   4.107   7.032 -0.0242  0.6642  2.3306
 1122SOL     OW14824   2.672   2.074   1.189 -0.8654  0.2832  0.6877
 1122SOL    HW114825   2.690   2.167   1.183  0.7898  0.0697  2.4492
 1122SOL    HW214826   2.642   2.041   1.104 -0.7552  0.9428  0.3974
 1123SOL     OW14827   1.772   3.724  13.362 -0.1368 -0.2059 -0.1714
 1123SOL    HW114828   1.755   3.818  13.355 -1.4548 -0.1998  3.0444
 1123SOL    HW214829   1.693   3.700  13.412  0.0171  1.1897  0.7501
 1124SOL     OW14830   3.665   0.725   3.545  0.5230 -0.2022 -0.0264
 1124SOL    HW114831   3.707   0.746   3.461 -0.3225 -0.1538 -0.4389
 1124SOL    HW214832   3.734   0.674   3.587 -0.2896 -0.4415  1.0024
 1125SOL     OW14833   0.459   3.617   9.146 -0.3942 -0.3122  0.3173
 1125SOL    HW114834   0.508   3.613   9.064 -2.2186 -0.5501 -0.7575
 1125SOL    HW214835   0.482   3.708   9.168 -0.9891 -0.0830 -0.0262
 1126SOL     OW14836   0.778   1.327   7.710 -0.1463 -0.4021  0.2453
 1126SOL    HW114837   0.821   1.280   7.639 -2.3157  0.1646 -1.4325
 1126SOL    HW214838   0.853   1.373   7.746 -0.7284  0.2359  0.6460
 1127SOL     OW14839   1.422   2.637  16.354 -0.0918  0.3595 -0.0285
 1127SOL    HW114840   1.341   2.689  16.355 -0.0285  0.5102 -2.1348
 1127SOL    HW214841   1.418   2.570  16.422 -0.2623 -1.5617 -1.9291
 1128SOL     OW14842   1.298   1.014  10.311  0.4839 -0.0515  0.2868
 1128SOL    HW114843   1.239   0.974  10.375 -1.5425  1.8821 -0.3567
 1128SOL    HW214844   1.233   1.061  10.259  1.4654 -0.5127 -1.3324
 1129SOL     OW14845   1.280   0.372   6.137  0.5890  0.3237 -0.1794
 1129SOL    HW114846   1.326   0.333   6.212 -1.2175 -0.1680  0.6632
 1129SOL    HW214847   1.331   0.329   6.068  0.3834  0.0408 -0.1544
 1130SOL     OW14848   2.471   0.984   6.926  0.6589  0.8678 -0.4291
 1130SOL    HW114849   2.462   0.958   6.835  2.4412  2.2320 -0.9924
 1130SOL    HW214850   2.401   1.049   6.925 -0.4794 -0.3446  0.5006
 1131SOL     OW14851   2.179   1.006   5.894 -0.0530  0.1146 -0.0190
 1131SOL    HW114852   2.113   1.075   5.886 -2.0055 -2.0602 -3.0004
 1131SOL    HW214853   2.129   0.932   5.858  0.1054  0.3454 -0.7112
 1132SOL     OW14854   0.066   3.243  15.457 -0.1691 -1.0364  0.4053
 1132SOL    HW114855   0.055   3.172  15.395 -0.3527 -0.2903 -0.4226
 1132SOL    HW214856   4.714   3.238  15.514  0.2066  3.5374  1.3560
 1133SOL     OW14857   1.958   3.410  13.400 -0.2592  0.8744  0.0231
 1133SOL    HW114858   1.963   3.315  13.395 -0.0931  0.8328  1.1322
 1133SOL    HW214859   1.917   3.430  13.316  0.3774 -0.4755 -0.6058
 1134SOL     OW14860   1.986   4.276  15.354  0.0434  0.6757 -0.3722
 1134SOL    HW114861   1.931   4.348  15.386  1.4646  1.2431  0.8093
 1134SOL    HW214862   2.074   4.312  15.359 -0.2194  1.0597  1.3215
 1135SOL     OW14863   2.454   1.246   2.361  0.6303  0.2793  0.2030
 1135SOL    HW114864   2.478   1.260   2.269  0.1357  0.5935  0.1240
 1135SOL    HW214865   2.361   1.270   2.361  1.5351  3.7248 -1.0052
 1136SOL     OW14866   3.728   1.551  14.530 -0.2276  0.1201 -0.4842
 1136SOL    HW114867   3.776   1.590  14.603  1.2266  1.1527 -1.9911
 1136SOL    HW214868   3.655   1.515  14.581  0.4513  0.1310  0.4991
 1137SOL     OW14869   0.146   1.822   2.479 -0.2848  0.2664  0.1598
 1137SOL    HW114870   0.148   1.901   2.425 -2.0646 -0.3762 -0.8262
 1137SOL    HW214871   0.057   1.822   2.512 -0.5482  0.7026 -0.5598
 1138SOL     OW14872   2.331   0.728  13.291  0.0103  0.2062 -0.3730
 1138SOL    HW114873   2.246   0.709  13.330  0.9721 -1.6649  0.8378
 1138SOL    HW214874   2.300   0.770  13.211  1.6296 -0.2754 -1.2555
 1139SOL     OW14875   4.426   2.105   4.848  0.2366 -0.3203 -0.4849
 1139SOL    HW114876   4.407   2.199   4.841 -0.7964 -0.5913 -1.3402
 1139SOL    HW214877   4.354   2.059   4.805  0.6359 -0.6845 -0.7717
 1140SOL     OW14878   4.380   0.207   2.747 -0.4546 -0.1045  0.3428
 1140SOL    HW114879   4.424   0.229   2.829  2.4098  1.0213 -1.4899
 1140SOL    HW214880   4.324   0.284   2.744 -0.2246  0.0886  1.0041
 1141SOL     OW14881   1.192   2.836   3.332 -0.0068 -0.4463  0.2286
 1141SOL    HW114882   1.268   2.802   3.380 -0.3219 -2.0407 -0.4290
 1141SOL    HW214883   1.206   2.792   3.248 -2.3012  0.3776 -0.5663
 1142SOL     OW14884   2.407   0.473   1.812  0.0112 -0.6519 -0.1346
 1142SOL    HW114885   2.437   0.539   1.750  0.3111 -0.5105  0.1610
 1142SOL    HW214886   2.380   0.396   1.763 -1.4707 -0.2477  0.0488
 1143SOL     OW14887   2.577   4.580   8.677  0.0039  0.8172  0.1946
 1143SOL    HW114888   2.615   4.600   8.592 -1.7374 -0.3587 -0.8488
 1143SOL    HW214889   2.632   4.510   8.712  1.1840  0.2439 -2.8668
 1144SOL     OW14890   4.319   1.476   8.620  0.2066 -0.3006  0.2445
 1144SOL    HW114891   4.389   1.459   8.683  0.9910 -1.9624 -1.0980
 1144SOL    HW214892   4.373   1.520   8.555 -2.3345  0.6173 -1.2757
 1145SOL     OW14893   4.199   1.689   3.172  0.6507  0.6047  0.1533
 1145SOL    HW114894   4.288   1.703   3.142  0.1218 -0.6277 -1.9863
 1145SOL    HW214895   4.163   1.778   3.175 -1.8453 -0.3199 -2.0547
 1146SOL     OW14896   3.237   1.750  14.957  0.1014 -0.0048  0.3102
 1146SOL    HW114897   3.176   1.822  14.953  1.0546  0.8018  0.2495
 1146SOL    HW214898   3.278   1.761  15.043  1.1321 -1.2452 -0.0081
 1147SOL     OW14899   0.874   0.719   3.177 -0.8792 -0.1033  0.0020
 1147SOL    HW114900   0.931   0.736   3.251 -0.2306  1.9000 -0.9529
 1147SOL    HW214901   0.812   0.793   3.179 -0.8644 -0.1379  1.9320
 1148SOL     OW14902   2.833   3.934   2.670  0.5457  0.4565 -0.3788
 1148SOL    HW114903   2.874   3.913   2.587  0.1333 -3.7196  0.4797
 1148SOL    HW214904   2.794   4.021   2.661 -1.7804 -0.5820 -0.3466
 1149SOL     OW14905   3.340   2.382   1.905 -0.2357  0.0421 -0.3889
 1149SOL    HW114906   3.282   2.458   1.909 -1.7704 -1.2854  3.5117
 1149SOL    HW214907   3.374   2.388   1.816 -0.8928  0.0463 -0.6461
 1150SOL     OW14908   4.407   1.103   2.528  0.4233 -0.9604  0.7653
 1150SOL    HW114909   4.465   1.156   2.472 -0.5079 -1.5617 -0.7694
 1150SOL    HW214910   4.318   1.136   2.515  1.3969  0.7384 -1.6526
 1151SOL     OW14911   3.368   1.067   4.524  0.4238  0.2159  0.1238
 1151SOL    HW114912   3.337   1.128   4.591 -2.1052 -0.0527 -0.7796
 1151SOL    HW214913   3.435   1.019   4.572  1.0323  1.5887  0.6184
 1152SOL     OW14914   0.056   2.977   6.544 -0.2822 -0.3529  0.0763
 1152SOL    HW114915   0.023   2.996   6.632  0.3166  0.1803  0.1852
 1152SOL    HW214916   0.124   2.913   6.560 -1.3359 -1.5719 -0.3303
 1153SOL     OW14917   0.858   3.907   8.811 -0.5078 -0.1538  0.0625
 1153SOL    HW114918   0.772   3.904   8.769 -0.2366 -1.5212 -0.3986
 1153SOL    HW214919   0.843   3.938   8.900  2.3242 -0.9326  0.8244
 1154SOL     OW14920   0.388   1.631   3.047 -0.1871  0.3273  0.1363
 1154SOL    HW114921   0.452   1.621   3.118 -0.5456  0.8397  0.5331
 1154SOL    HW214922   0.431   1.598   2.969  0.5095  2.4603 -0.3874
 1155SOL     OW14923   3.155   3.767  16.422 -0.2083 -0.3710  0.5138
 1155SOL    HW114924   3.135   3.706  16.351  1.4122 -0.7150  0.3510
 1155SOL    HW214925   3.250   3.757  16.423 -0.2514 -0.8452 -0.4803
 1156SOL     OW14926   3.634   0.317  14.623  0.0359  0.3470  0.1884
 1156SOL    HW114927   3.623   0.226  14.594  0.9833  0.3086 -0.0739
 1156SOL    HW214928   3.541   0.327  14.640  0.0405  2.1330 -0.8432
 1157SOL     OW14929   4.513   4.596   7.226  0.0487  0.0451 -0.3872
 1157SOL    HW114930   4.589   4.610   7.170  0.2976 -0.3654 -0.1471
 1157SOL    HW214931   4.442   4.576   7.165  1.2467  1.3108 -2.1991
 1158SOL     OW14932   4.040   4.529   7.546  0.1758  0.2584 -0.6943
 1158SOL    HW114933   4.014   4.512   7.636  1.8736 -2.4138 -0.6888
 1158SOL    HW214934   4.101   4.600   7.568 -1.1994  0.6885  1.6850
 1159SOL     OW14935   2.318   2.341   5.127 -0.1956 -0.3848 -0.0796
 1159SOL    HW114936   2.313   2.249   5.102 -0.0029 -0.3741 -0.1631
 1159SOL    HW214937   2.234   2.371   5.092  0.1405 -0.6313 -1.0884
 1160SOL     OW14938   1.077   2.932  11.438 -0.1425 -0.1544 -0.2170
 1160SOL    HW114939   1.106   2.843  11.460  0.1740 -0.1252 -0.5058
 1160SOL    HW214940   0.982   2.928  11.426  0.1127 -1.0706 -1.9918
 1161SOL     OW14941   1.542   0.105   2.257 -0.0619 -0.1601 -0.4340
 1161SOL    HW114942   1.561   0.019   2.219  0.9911 -0.3959  0.6202
 1161SOL    HW214943   1.449   0.113   2.237 -0.1747 -1.0387 -0.2908
 1162SOL     OW14944   4.692   3.075  17.444 -0.1801  0.2134  0.3550
 1162SOL    HW114945   0.058   3.063  17.472 -0.5844 -0.6205  1.3460
 1162SOL    HW214946   4.666   2.986  17.470 -1.5566  0.4843 -0.0694
 1163SOL     OW14947   2.951   1.814  11.001  0.2095  0.3008 -0.5080
 1163SOL    HW114948   2.949   1.753  11.075  0.8902  0.5678 -0.2681
 1163SOL    HW214949   2.898   1.764  10.938 -0.6405  1.8181 -0.9908
 1164SOL     OW14950   3.268   0.323   7.047 -0.0782  0.3430  0.0105
 1164SOL    HW114951   3.293   0.371   6.969  0.0463  1.7162  0.8967
 1164SOL    HW214952   3.339   0.348   7.107 -1.8330  2.8105  1.0577
 1165SOL     OW14953   1.285   0.907   6.286  0.2309 -0.0795 -0.2357
 1165SOL    HW114954   1.259   0.963   6.359  2.4057  1.1650 -0.3868
 1165SOL    HW214955   1.324   0.837   6.339  1.4656  1.7655  1.3042
 1166SOL     OW14956   4.639   4.561  12.651  0.5169  0.3134 -0.0708
 1166SOL    HW114957   4.637   4.656  12.643  0.2321  0.1961 -1.2846
 1166SOL    HW214958   4.565   4.545  12.710  2.5266  0.4447  2.5043
 1167SOL     OW14959   0.705   0.752   3.749 -0.3386  0.0173  0.2467
 1167SOL    HW114960   0.797   0.777   3.763 -0.5509 -0.9216  3.3507
 1167SOL    HW214961   0.696   0.694   3.825 -0.4876 -1.6828 -1.0765
 1168SOL     OW14962   0.489   3.487   2.167 -0.8604 -0.4984  0.2833
 1168SOL    HW114963   0.582   3.499   2.151 -0.6778 -2.0951  0.1452
 1168SOL    HW214964   0.462   3.511   2.255 -0.9285 -0.6351  0.3001
 1169SOL     OW14965   4.555   2.591   2.055  0.0116  0.3621  0.1477
 1169SOL    HW114966   4.473   2.559   2.017 -0.3823 -0.6995  1.8813
 1169SOL    HW214967   4.610   2.515   2.036  0.1998  0.0963  1.7476
 1170SOL     OW14968   2.622   4.291   2.410  0.6142  0.3395  0.1501
 1170SOL    HW114969   2.637   4.207   2.366  2.8210  1.3164 -0.9315
 1170SOL    HW214970   2.697   4.338   2.375  0.0521  1.1225  0.0196
 1171SOL     OW14971   4.445   1.697   3.428  0.2311  0.3434  0.5037
 1171SOL    HW114972   4.420   1.678   3.338 -0.6160  1.1035  0.5831
 1171SOL    HW214973   4.378   1.643   3.472  0.8701 -0.9975 -0.1573
 1172SOL     OW14974   0.649   2.372   6.451 -0.2761 -0.1438 -0.1809
 1172SOL    HW114975   0.688   2.328   6.375 -0.2897 -3.0231  1.4772
 1172SOL    HW214976   0.726   2.402   6.500 -0.5163 -0.9810  0.7060
 1173SOL     OW14977   1.972   2.532  10.119  0.3995  0.0883  0.0616
 1173SOL    HW114978   1.918   2.544  10.197  0.2363 -0.5343  0.0462
 1173SOL    HW214979   1.909   2.486  10.063 -0.9298 -0.5242  2.0557
 1174SOL     OW14980   2.899   4.659  15.416 -0.1189  0.1802 -0.3154
 1174SOL    HW114981   2.957   4.607  15.470  2.6718  2.4324 -1.1008
 1174SOL    HW214982   2.864   0.004  15.470 -1.1597 -0.4313 -0.2108
 1175SOL     OW14983   1.632   1.882  11.135 -0.4595  0.3913 -0.0015
 1175SOL    HW114984   1.588   1.948  11.189  0.1041 -0.9792  2.1424
 1175SOL    HW214985   1.672   1.935  11.067 -1.2952  0.5789 -0.3553
 1176SOL     OW14986   1.649   1.536   7.736 -0.2852  0.4370 -0.3558
 1176SOL    HW114987   1.672   1.629   7.731  0.4770  0.3044  0.5045
 1176SOL    HW214988   1.677   1.517   7.826  0.8267 -2.5392 -1.3100
 1177SOL     OW14989   3.120   1.575  17.290 -0.2546  0.5253 -0.0419
 1177SOL    HW114990   3.107   1.521  17.212  0.2080 -0.6522  0.6995
 1177SOL    HW214991   3.101   1.666  17.264 -0.4503  0.1833 -1.1118
 1178SOL     OW14992   0.411   4.677   0.573  0.7438 -0.4031 -0.2045
 1178SOL    HW114993   0.430   4.607   0.635  1.7248 -0.5477 -0.6810
 1178SOL    HW214994   0.322   4.651   0.547  0.3808 -0.1278  0.7629
 1179SOL     OW14995   3.387   3.295   4.075 -0.6239  0.5151  0.3134
 1179SOL    HW114996   3.423   3.333   4.156  0.1772 -1.1875  0.7499
 1179SOL    HW214997   3.425   3.365   4.022  0.7309 -0.1389  0.4048
 1180SOL     OW14998   1.866   3.562   7.028  0.2497  0.2966  0.4711
 1180SOL    HW114999   1.799   3.494   7.024  2.0627 -1.5344  1.3747
 1180SOL    HW215000   1.941   3.503   7.024  0.5357  0.5408  2.1168
 1181SOL     OW15001   0.477   3.973  12.479  0.3801  0.7093  0.2134
 1181SOL    HW115002   0.525   3.936  12.553  3.6153 -0.0901 -2.2988
 1181SOL    HW215003   0.505   3.913  12.410  0.2685  2.8567 -1.7094
 1182SOL     OW15004   4.499   1.158   5.864  0.0912 -0.3874  0.0030
 1182SOL    HW115005   4.425   1.118   5.819  0.1040 -0.0805 -0.2891
 1182SOL    HW215006   4.477   1.246   5.835 -1.5871 -0.8319 -0.0694
 1183SOL     OW15007   1.389   1.535   2.947 -0.2151 -0.0460  0.3911
 1183SOL    HW115008   1.331   1.518   3.021 -0.7094 -1.7683 -0.3977
 1183SOL    HW215009   1.457   1.597   2.975 -0.4381  0.8243 -1.0526
 1184SOL     OW15010   4.241   0.301  15.082 -0.2422  0.1950 -0.2099
 1184SOL    HW115011   4.335   0.288  15.068 -0.4331 -1.7889  0.3292
 1184SOL    HW215012   4.234   0.380  15.136 -0.9646 -0.8702  1.2619
 1185SOL     OW15013   4.681   2.671   3.201  0.1437  0.2963 -0.1064
 1185SOL    HW115014   4.706   2.582   3.228 -2.7870 -0.2440  0.8016
 1185SOL    HW215015   0.041   2.712   3.185 -0.1360  0.3036 -1.5912
 1186SOL     OW15016   3.429   1.446  17.305  0.0173  0.1044 -0.0304
 1186SOL    HW115017   3.462   1.526  17.263  0.2361  0.2850  0.4973
 1186SOL    HW215018   3.510   1.395  17.310 -0.1085 -0.1807 -0.8421
 1187SOL     OW15019   3.111   0.481   3.857 -0.0232 -0.5453  0.7227
 1187SOL    HW115020   3.096   0.473   3.762 -2.1029  3.6868  0.7117
 1187SOL    HW215021   3.025   0.475   3.898 -1.0502 -0.5481 -1.4326
 1188SOL     OW15022   4.019   1.945   6.945  0.2008  0.1593 -0.0802
 1188SOL    HW115023   3.966   1.877   6.987  1.5896 -1.4944 -0.9936
 1188SOL    HW215024   4.103   1.914   6.979 -0.4678 -2.2944 -0.6554
 1189SOL     OW15025   3.731   1.401   6.002  0.0752 -0.5811 -0.3581
 1189SOL    HW115026   3.689   1.473   5.954  0.1920 -0.5516 -0.4164
 1189SOL    HW215027   3.814   1.412   5.957 -0.4821  1.6220 -0.8629
 1190SOL     OW15028   2.947   1.601   3.628 -0.1344 -0.3116 -0.6028
 1190SOL    HW115029   2.987   1.638   3.707  2.4004 -2.9034 -0.6846
 1190SOL    HW215030   2.949   1.506   3.631 -2.5722 -0.4231 -2.9200
 1191SOL     OW15031   1.922   4.287   1.552  0.3567  0.6308 -0.6991
 1191SOL    HW115032   2.009   4.293   1.591  0.3661 -1.0451 -0.4552
 1191SOL    HW215033   1.925   4.362   1.492 -0.7068  0.2315 -1.2595
 1192SOL     OW15034   1.198   0.498   5.901 -0.1397  0.4352  0.1552
 1192SOL    HW115035   1.229   0.456   5.981 -0.1335  0.2916  0.0768
 1192SOL    HW215036   1.233   0.585   5.922 -0.4230  0.4822  0.4296
 1193SOL     OW15037   2.690   2.113   5.020 -0.0417  0.2283  0.0371
 1193SOL    HW115038   2.708   2.204   5.045  0.1632 -0.2659  1.6572
 1193SOL    HW215039   2.611   2.086   5.067 -0.9049  0.1578 -1.4179
 1194SOL     OW15040   3.616   0.326   2.297 -0.1277 -0.5378  0.1063
 1194SOL    HW115041   3.573   0.372   2.369  0.0570  1.2636 -0.9170
 1194SOL    HW215042   3.708   0.322   2.324  0.4172 -3.6458 -2.3231
 1195SOL     OW15043   4.136   0.056   2.334 -0.0588 -0.6379  0.1527
 1195SOL    HW115044   4.042   0.047   2.319 -0.2696 -1.0506  1.8089
 1195SOL    HW215045   4.173   4.725   2.266  0.7252  1.9381 -1.5883
 1196SOL     OW15046   2.569   3.207   4.536  0.6997  0.5300  0.0028
 1196SOL    HW115047   2.545   3.217   4.628 -0.2302 -1.6421  0.0006
 1196SOL    HW215048   2.568   3.112   4.523  0.6886  0.6055 -0.5726
 1197SOL     OW15049   3.009   2.384   4.500 -0.3454 -0.2357  0.3106
 1197SOL    HW115050   2.975   2.410   4.586  0.7097  0.8348  0.4035
 1197SOL    HW215051   2.996   2.290   4.488  3.4772 -0.6331 -0.9202
 1198SOL     OW15052   2.498   2.399   1.635 -0.2747 -0.8171 -0.3412
 1198SOL    HW115053   2.458   2.325   1.589 -1.1360 -0.7000  0.2104
 1198SOL    HW215054   2.530   2.455   1.564 -2.2530  0.0777 -0.5252
 1199SOL     OW15055   0.261   3.081   7.658 -0.1089 -0.2586 -0.1668
 1199SOL    HW115056   0.276   3.144   7.587 -0.9029 -0.4231 -0.4838
 1199SOL    HW215057   0.177   3.048   7.625 -1.0249  1.0956  0.8087
 1200SOL     OW15058   3.904   0.698   7.312 -0.1455 -0.0477 -0.2835
 1200SOL    HW115059   3.939   0.779   7.350 -0.2624 -0.0048 -0.2670
 1200SOL    HW215060   3.967   0.631   7.340  0.0422 -0.0462 -0.7110
 1201SOL     OW15061   3.450   4.366   5.974 -0.4346  0.4995  0.0759
 1201SOL    HW115062   3.405   4.391   5.894 -1.6029 -0.3749  0.4516
 1201SOL    HW215063   3.538   4.374   5.936  0.1390 -2.8171  0.6359
 1202SOL     OW15064   1.072   4.247   4.514  0.4619  0.3370 -0.2006
 1202SOL    HW115065   1.118   4.328   4.490  0.2685  1.2024  2.3206
 1202SOL    HW215066   0.985   4.275   4.542  0.4429  0.6261 -0.5401
 1203SOL     OW15067   0.274   2.225   2.937  0.0749  0.1727  0.4577
 1203SOL    HW115068   0.282   2.146   2.991 -0.7506 -1.1740 -1.3961
 1203SOL    HW215069   0.218   2.190   2.868  0.8736 -0.6923  0.2563
 1204SOL     OW15070   4.048   0.119   2.913  0.7052 -0.0283 -0.0765
 1204SOL    HW115071   3.981   0.167   2.961  2.1967  2.4119 -0.4085
 1204SOL    HW215072   4.130   0.152   2.949  0.9404 -2.2719  1.4319
 1205SOL     OW15073   0.346   1.002  11.390  0.2117  0.1905  0.0459
 1205SOL    HW115074   0.272   1.060  11.404  0.2325  0.7768 -2.1701
 1205SOL    HW215075   0.352   0.962  11.477  0.1211 -1.4741 -0.7041
 1206SOL     OW15076   2.606   2.869   3.173 -0.0700  0.0496  0.1561
 1206SOL    HW115077   2.613   2.936   3.105  0.4591 -1.1037 -0.9185
 1206SOL    HW215078   2.689   2.826   3.153 -0.1367 -0.5967  1.2976
 1207SOL     OW15079   0.750   4.474   1.360 -0.2904 -0.0885  0.5733
 1207SOL    HW115080   0.784   4.486   1.449  0.1084  0.5812  0.3304
 1207SOL    HW215081   0.737   4.379   1.369  0.4248 -0.0333  2.2681
 1208SOL     OW15082   2.994   0.329   6.318 -0.6850 -0.1119  0.0544
 1208SOL    HW115083   2.922   0.320   6.255 -0.7346 -0.4123  0.1544
 1208SOL    HW215084   3.067   0.306   6.261  1.8875  2.9112  2.1921
 1209SOL     OW15085   4.356   3.036   2.639 -0.5818  0.1979 -0.0836
 1209SOL    HW115086   4.327   2.969   2.577 -0.9379 -0.4593  0.7875
 1209SOL    HW215087   4.443   3.059   2.605  1.0073 -3.9455  1.1684
 1210SOL     OW15088   4.572   1.690  15.546 -0.0660 -0.4853 -0.3232
 1210SOL    HW115089   4.528   1.744  15.480 -0.0507 -0.6715 -0.4854
 1210SOL    HW215090   4.582   1.745  15.624  1.4969 -0.9938 -0.1629
 1211SOL     OW15091   0.376   2.856   4.020 -0.7641  0.3815 -0.0413
 1211SOL    HW115092   0.283   2.844   4.041 -0.4254 -2.6260 -0.2189
 1211SOL    HW215093   0.378   2.945   3.985 -1.5691  0.8421  1.0774
 1212SOL     OW15094   1.006   1.855   3.648 -0.4872 -0.5244 -0.0888
 1212SOL    HW115095   1.081   1.818   3.603 -0.8891 -0.6461 -0.6536
 1212SOL    HW215096   1.051   1.906   3.716 -0.2800 -0.1783 -0.4881
 1213SOL     OW15097   2.177   4.354  16.279  0.6950  0.4648 -0.7642
 1213SOL    HW115098   2.127   4.274  16.267  1.2117  0.2299 -1.3882
 1213SOL    HW215099   2.109   4.415  16.309 -1.3833 -1.6613 -1.1211
 1214SOL     OW15100   0.633   1.144   0.867 -0.4147  0.4265 -0.1807
 1214SOL    HW115101   0.620   1.239   0.863  1.0510  0.7106  1.3247
 1214SOL    HW215102   0.566   1.113   0.928 -0.4484  1.6774  0.4203
 1215SOL     OW15103   0.391   1.917   7.272  0.8614 -0.7600  0.2662
 1215SOL    HW115104   0.362   1.957   7.190 -0.0185 -0.9634  0.4872
 1215SOL    HW215105   0.332   1.950   7.339  1.8232 -4.1212  2.7500
 1216SOL     OW15106   2.631   3.596   3.201  0.9521 -0.3184  0.1446
 1216SOL    HW115107   2.687   3.611   3.125  0.5994  0.4180  0.0344
 1216SOL    HW215108   2.684   3.523   3.233  2.3396  0.7381  0.2654
 1217SOL     OW15109   4.479   0.761   4.181 -0.1749 -0.0364 -0.0715
 1217SOL    HW115110   4.419   0.716   4.122 -1.3239  1.5770 -0.1398
 1217SOL    HW215111   4.495   0.832   4.118 -3.2003 -1.7371 -2.7629
 1218SOL     OW15112   3.049   3.733   2.705  0.1589  0.0643 -0.4463
 1218SOL    HW115113   2.979   3.797   2.701 -0.4138 -0.5507 -0.2302
 1218SOL    HW215114   3.013   3.659   2.657  1.0242 -0.5973 -0.0967
 1219SOL     OW15115   2.779   3.310  13.710 -0.3048 -0.5725 -0.2109
 1219SOL    HW115116   2.755   3.383  13.652 -1.3159  0.3580  1.3757
 1219SOL    HW215117   2.700   3.267  13.741 -0.3836 -0.8926 -0.8411
 1220SOL     OW15118   3.422   3.840   2.854  0.1164  0.4981 -0.0830
 1220SOL    HW115119   3.371   3.901   2.800 -0.2129 -1.4635 -1.9977
 1220SOL    HW215120   3.380   3.758   2.831 -0.4791  0.6117  0.6100
 1221SOL     OW15121   2.033   1.042   8.528 -0.1586 -0.4731  0.7338
 1221SOL    HW115122   2.031   1.098   8.605  0.8336  0.1746  0.2852
 1221SOL    HW215123   2.120   1.049   8.489 -0.2001 -0.2686  0.6817
 1222SOL     OW15124   3.230   2.900   8.186 -0.1787 -0.3495 -0.0480
 1222SOL    HW115125   3.214   2.825   8.128  0.0290 -0.7054  0.3544
 1222SOL    HW215126   3.150   2.907   8.237  0.3889  2.3423  0.4606
 1223SOL     OW15127   1.498   4.029   4.502 -0.1044  0.0342  0.5149
 1223SOL    HW115128   1.403   4.027   4.487 -0.3963 -1.0425  2.4236
 1223SOL    HW215129   1.518   4.123   4.500 -1.9236  0.4501  1.1285
 1224SOL     OW15130   1.611   3.164  10.477 -0.1809  0.1940  0.4629
 1224SOL    HW115131   1.645   3.251  10.498  1.9171 -0.3146 -0.7939
 1224SOL    HW215132   1.628   3.127  10.564 -0.9991  2.5001  1.6036
 1225SOL     OW15133   1.646   2.526   6.856  0.1965 -0.0309 -0.0954
 1225SOL    HW115134   1.562   2.481   6.862 -0.2123  0.9860  1.8577
 1225SOL    HW215135   1.701   2.474   6.914  2.2709  1.1744 -0.9721
 1226SOL     OW15136   0.970   1.473   7.860 -0.1353  0.0375 -0.1374
 1226SOL    HW115137   1.051   1.437   7.824 -0.0886  0.0078 -0.0030
 1226SOL    HW215138   0.982   1.441   7.949 -0.4327 -2.9228 -1.1505
 1227SOL     OW15139   2.664   4.656   6.226  0.6306 -0.0272 -0.2549
 1227SOL    HW115140   2.689   4.635   6.136 -0.5024 -0.4831 -0.4615
 1227SOL    HW215141   2.661   4.568   6.265 -1.4327  0.4826  0.7200
 1228SOL     OW15142   2.412   4.244   1.425 -0.5688  0.2300 -0.1722
 1228SOL    HW115143   2.498   4.226   1.463 -0.0242  0.9475 -1.0409
 1228SOL    HW215144   2.373   4.157   1.430  0.1697  0.0845  2.9636
 1229SOL     OW15145   1.631   2.163   4.469 -0.1469  0.6229 -0.7324
 1229SOL    HW115146   1.632   2.220   4.546 -0.0224 -0.9244  0.4300
 1229SOL    HW215147   1.593   2.219   4.402 -5.0076 -0.6363  0.9646
 1230SOL     OW15148   1.486   0.543  12.061  0.6009 -0.1311  0.5229
 1230SOL    HW115149   1.535   0.567  12.140  0.6754 -0.7822  0.6764
 1230SOL    HW215150   1.561   0.523  12.004  0.1564 -1.7775  0.5203
 1231SOL     OW15151   3.838   4.389   2.424  0.4037  0.3227 -0.1332
 1231SOL    HW115152   3.895   4.440   2.366  2.6767 -0.1209  1.7182
 1231SOL    HW215153   3.818   4.452   2.494 -1.1628 -0.1593 -0.1544
 1232SOL     OW15154   1.308   0.753  11.300  0.1063 -0.5044  0.3594
 1232SOL    HW115155   1.238   0.787  11.356 -0.8942 -0.0439 -1.1719
 1232SOL    HW215156   1.296   0.808  11.223  0.6038 -0.9505 -0.0296
 1233SOL     OW15157   3.335   3.783   6.145 -0.1887 -0.2739  0.3098
 1233SOL    HW115158   3.394   3.849   6.110 -0.3309 -0.0551  0.4802
 1233SOL    HW215159   3.272   3.840   6.189 -0.1184 -0.0096  0.0623
 1234SOL     OW15160   1.367   3.115   4.740  0.1305  1.0978  0.3601
 1234SOL    HW115161   1.454   3.074   4.746 -0.0108  0.2896 -3.3991
 1234SOL    HW215162   1.327   3.063   4.810  1.7800 -1.5753 -0.6659
 1235SOL     OW15163   3.510   0.831   3.034 -0.3152  0.1069  0.0984
 1235SOL    HW115164   3.528   0.777   2.957  3.5899  0.4412  0.7466
 1235SOL    HW215165   3.518   0.918   2.995 -2.4277  0.5354  0.6189
 1236SOL     OW15166   3.670   1.526   8.076  0.0201  0.0864  0.0383
 1236SOL    HW115167   3.682   1.496   7.986  2.0335  2.9408 -0.6164
 1236SOL    HW215168   3.578   1.500   8.085 -0.5110  2.0917  0.3799
 1237SOL     OW15169   1.614   3.479   6.384  0.6023  0.0705  0.3930
 1237SOL    HW115170   1.696   3.440   6.353 -0.5831 -0.9430 -1.4447
 1237SOL    HW215171   1.561   3.399   6.380 -0.2614  0.5405  2.3476
 1238SOL     OW15172   1.989   2.378   6.384 -0.0374  0.4622  0.3795
 1238SOL    HW115173   1.912   2.376   6.326  0.9284 -0.8344 -0.8632
 1238SOL    HW215174   1.989   2.296   6.432  1.0211 -0.2862 -0.9013
 1239SOL     OW15175   4.395   2.124   0.214  0.0427 -1.0185 -0.1497
 1239SOL    HW115176   4.353   2.116   0.299  0.7984  1.4115  0.4632
 1239SOL    HW215177   4.331   2.148   0.147  1.8071  1.2164 -1.0601
 1240SOL     OW15178   2.303   4.271   5.315 -0.5207 -0.4109 -0.4389
 1240SOL    HW115179   2.289   4.350   5.262  0.5326 -0.7714 -1.2350
 1240SOL    HW215180   2.274   4.301   5.402 -0.5628  1.8078 -1.2162
 1241SOL     OW15181   1.496   4.517   0.833 -0.7116  0.1931 -0.1681
 1241SOL    HW115182   1.509   4.612   0.836 -0.5220  0.2330 -2.7627
 1241SOL    HW215183   1.421   4.510   0.893  0.2885 -0.6378  0.9823
 1242SOL     OW15184   1.669   2.351   2.365  0.3859 -0.4230  0.3205
 1242SOL    HW115185   1.729   2.416   2.402  0.0360  0.1116 -0.0521
 1242SOL    HW215186   1.725   2.274   2.373  0.0510 -1.0382 -3.0851
 1243SOL     OW15187   0.336   3.501   9.928 -0.3476 -0.3572 -0.6949
 1243SOL    HW115188   0.269   3.536   9.986 -0.8186  0.7030 -1.8831
 1243SOL    HW215189   0.378   3.432   9.980 -2.0665  0.5319  1.8203
 1244SOL     OW15190   2.702   0.831   7.944  0.6592 -0.2134 -0.0172
 1244SOL    HW115191   2.702   0.858   7.852 -2.3565 -0.4757 -0.1010
 1244SOL    HW215192   2.788   0.867   7.967 -1.1951  3.7259  0.7353
 1245SOL     OW15193   2.972   3.261  10.861 -0.0446 -0.3898 -0.1533
 1245SOL    HW115194   3.045   3.299  10.909 -1.5892  1.4190  0.7597
 1245SOL    HW215195   2.897   3.318  10.877 -0.6598 -0.7686 -1.7158
 1246SOL     OW15196   1.675   4.022  10.424 -0.7594 -0.3165 -0.0292
 1246SOL    HW115197   1.726   4.098  10.398 -1.8807  0.5652  0.3469
 1246SOL    HW215198   1.628   4.065  10.496  2.3710  2.0550  0.6262
 1247SOL     OW15199   2.895   0.623   4.221  0.1630  0.5265 -0.1778
 1247SOL    HW115200   2.931   0.545   4.178  0.2828 -0.0721  0.9922
 1247SOL    HW215201   2.963   0.632   4.289 -0.5489 -1.8720  0.8745
 1248SOL     OW15202   1.702   3.667  10.453 -0.4732 -0.3819  0.0459
 1248SOL    HW115203   1.728   3.711  10.372 -1.1374  2.0538  1.1858
 1248SOL    HW215204   1.701   3.725  10.528  0.0455 -1.2542  0.7272
 1249SOL     OW15205   1.694   0.407  16.435  0.2512 -0.1548 -0.0923
 1249SOL    HW115206   1.728   0.453  16.512 -1.0969  0.2690  0.2519
 1249SOL    HW215207   1.680   0.490  16.389  2.5599  0.9903  1.2929
 1250SOL     OW15208   1.815   0.475  12.104  0.0449  0.1088 -0.0802
 1250SOL    HW115209   1.751   0.494  12.173  3.9167 -0.0839  3.5788
 1250SOL    HW215210   1.761   0.443  12.032 -1.5047  1.0307  0.6634
 1251SOL     OW15211   2.447   2.933   5.435 -0.0141 -0.2383 -0.5576
 1251SOL    HW115212   2.405   2.851   5.459 -1.1710  0.3335 -0.6025
 1251SOL    HW215213   2.379   2.998   5.454 -0.4311 -1.3610  1.7321
 1252SOL     OW15214   0.953   2.497   3.098 -0.5504 -0.3284  0.0533
 1252SOL    HW115215   0.971   2.563   3.031 -1.1939 -1.1654 -0.9579
 1252SOL    HW215216   0.943   2.421   3.041  1.9410  0.2622 -1.1558
 1253SOL     OW15217   0.833   2.370   0.718 -0.4214  0.1042 -0.2823
 1253SOL    HW115218   0.906   2.335   0.666 -1.4279  1.2478 -2.4640
 1253SOL    HW215219   0.796   2.293   0.762 -0.4613  0.8601  0.9972
 1254SOL     OW15220   3.352   1.523  17.662  0.3761 -0.0528  0.0918
 1254SOL    HW115221   3.368   1.431  17.682 -1.3846 -0.6102 -1.1129
 1254SOL    HW215222   3.425   1.540  17.603  0.7788  2.3691  1.2941
 1255SOL     OW15223   0.736   0.079   0.997 -0.0863  0.0681 -0.1845
 1255SOL    HW115224   0.674   0.070   1.069  0.2671  1.6035  0.3099
 1255SOL    HW215225   0.684   0.077   0.917  0.5572 -0.1556 -0.5977
 1256SOL     OW15226   3.526   0.920   4.292 -0.0804 -0.0098 -0.0671
 1256SOL    HW115227   3.453   0.980   4.310  1.5741  1.1083  2.9467
 1256SOL    HW215228   3.520   0.895   4.200 -0.2483  0.2188 -0.1171
 1257SOL     OW15229   0.147   3.418  13.049  0.9021  0.1670 -0.4726
 1257SOL    HW115230   0.129   3.452  12.961 -0.2250 -0.2318 -0.3861
 1257SOL    HW215231   0.236   3.441  13.078  0.4588  2.0056 -0.5603
 1258SOL     OW15232   2.990   2.153  16.249 -0.0867 -0.0411  0.5272
 1258SOL    HW115233   3.062   2.173  16.310 -0.4288  0.4049  0.7887
 1258SOL    HW215234   2.984   2.231  16.193  3.7311  0.6191  1.0003
 1259SOL     OW15235   1.251   2.815   6.309  0.2956  0.0658  0.0391
 1259SOL    HW115236   1.239   2.723   6.284  1.5280  0.1505 -0.8539
 1259SOL    HW215237   1.317   2.799   6.378  0.4268  0.1500 -0.0673
 1260SOL     OW15238   1.831   2.149   7.239  0.5682  0.2317 -0.0299
 1260SOL    HW115239   1.911   2.201   7.247 -0.5570  1.4249  3.4094
 1260SOL    HW215240   1.818   2.117   7.329  0.1414 -2.8654 -1.1872
 1261SOL     OW15241   1.594   2.173   0.531  0.0106  0.5085  0.2996
 1261SOL    HW115242   1.531   2.219   0.586  0.0069  0.2190  0.5429
 1261SOL    HW215243   1.608   2.096   0.588 -1.5395 -1.4147 -1.9086
 1262SOL     OW15244   0.655   3.223   6.230 -0.0078  0.4858  0.3071
 1262SOL    HW115245   0.750   3.208   6.228 -0.3646 -1.5392 -0.6042
 1262SOL    HW215246   0.623   3.142   6.192  0.3531  1.2350 -1.5665
 1263SOL     OW15247   2.055   2.639   6.478  0.3760  0.3815 -0.4869
 1263SOL    HW115248   1.984   2.694   6.511 -0.6931 -0.9993 -0.5143
 1263SOL    HW215249   2.041   2.550   6.510  0.6825  0.3572 -0.4202
 1264SOL     OW15250   1.376   1.401   3.859 -0.0804 -0.2502  0.6347
 1264SOL    HW115251   1.294   1.448   3.876 -1.3999 -2.2112 -0.1590
 1264SOL    HW215252   1.406   1.367   3.943  1.3351 -1.9081 -0.5570
 1265SOL     OW15253   2.883   1.703  15.464 -0.3606 -0.3926 -0.2420
 1265SOL    HW115254   2.907   1.729  15.553  0.7538  0.4323 -0.7841
 1265SOL    HW215255   2.933   1.623  15.450  1.1362  0.6543 -0.8023
 1266SOL     OW15256   4.302   2.980  12.978 -0.3231 -0.1826  0.6046
 1266SOL    HW115257   4.356   3.057  12.964  0.9439 -0.8080  2.0921
 1266SOL    HW215258   4.343   2.914  12.922  0.7239  1.6076 -0.7151
 1267SOL     OW15259   3.750   4.702   7.932  0.0742  0.2238 -0.0218
 1267SOL    HW115260   3.707   0.061   7.946 -1.9869 -0.5099 -2.1028
 1267SOL    HW215261   3.699   4.667   7.859 -0.9456  0.8790  0.3825
 1268SOL     OW15262   2.588   1.439   4.646  0.2161  0.4889 -0.2492
 1268SOL    HW115263   2.640   1.519   4.654 -0.6982  1.1103 -0.5110
 1268SOL    HW215264   2.527   1.439   4.720  0.4588  2.7966 -0.0516
 1269SOL     OW15265   0.816   1.075  15.578  0.1858  0.1159  0.0706
 1269SOL    HW115266   0.769   1.027  15.646  1.2851 -1.8897 -0.5608
 1269SOL    HW215267   0.777   1.161  15.585  1.7197  0.8000  0.2865
 1270SOL     OW15268   1.066   2.680   6.036 -0.4946 -0.0665 -0.2809
 1270SOL    HW115269   1.042   2.688   5.943  2.1904 -4.2509 -1.3368
 1270SOL    HW215270   1.095   2.589   6.031  2.8708  0.9164  1.2979
 1271SOL     OW15271   0.832   0.453  12.875  0.0158  0.2588  0.9997
 1271SOL    HW115272   0.811   0.364  12.903  0.7457 -0.7624 -1.7123
 1271SOL    HW215273   0.906   0.477  12.931  0.7107  0.9586 -0.2279
 1272SOL     OW15274   3.940   1.781   8.130  0.0515 -0.1584 -0.0315
 1272SOL    HW115275   4.027   1.816   8.148  0.3125  0.0216 -1.6015
 1272SOL    HW215276   3.959   1.699   8.084  4.5228  0.9443 -0.0835
 1273SOL     OW15277   4.097   4.300   6.154  0.1674 -0.3986  0.0937
 1273SOL    HW115278   4.172   4.297   6.214  0.9692 -0.0633 -0.8779
 1273SOL    HW215279   4.074   4.393   6.155 -1.6156 -0.8565  0.4676
 1274SOL     OW15280   0.286   3.464   6.168 -0.2894  0.0351 -0.0637
 1274SOL    HW115281   0.374   3.493   6.192 -0.2211 -1.3785  1.3729
 1274SOL    HW215282   0.309   3.427   6.082 -1.5362  1.3679 -0.9631
 1275SOL     OW15283   1.178   1.744   2.311  0.1336  0.3217 -0.7289
 1275SOL    HW115284   1.166   1.766   2.219 -0.8459 -1.7347 -1.0895
 1275SOL    HW215285   1.265   1.777   2.331  0.7904 -1.1391 -1.1973
 1276SOL     OW15286   1.248   3.807   9.100  0.2324 -0.1938 -0.4166
 1276SOL    HW115287   1.178   3.768   9.048  0.3775  1.8341 -2.1654
 1276SOL    HW215288   1.323   3.756   9.070 -1.3694 -1.6758 -1.8865
 1277SOL     OW15289   0.114   4.528  13.282 -0.1988  0.2537 -1.2209
 1277SOL    HW115290   0.038   4.536  13.225 -0.5648  3.4013 -0.2890
 1277SOL    HW215291   0.133   4.619  13.305 -1.0263 -0.1489  1.0851
 1278SOL     OW15292   4.003   3.105  15.507  0.4973  0.4005 -0.4397
 1278SOL    HW115293   3.964   3.032  15.554  1.1061  1.4813  1.7397
 1278SOL    HW215294   3.943   3.176  15.533  0.9438  0.4588  0.4267
 1279SOL     OW15295   3.582   3.759  16.637 -0.1693  0.1144  0.1341
 1279SOL    HW115296   3.525   3.692  16.674  0.0252 -0.9100 -1.4329
 1279SOL    HW215297   3.661   3.751  16.691  0.8928  2.0096 -1.1181
 1280SOL     OW15298   1.071   4.061   8.640 -0.1434 -0.3174 -0.0898
 1280SOL    HW115299   0.997   4.094   8.589  1.3379  3.8126  0.4580
 1280SOL    HW215300   1.059   4.106   8.723 -1.6142  0.4817 -0.7285
 1281SOL     OW15301   4.419   2.369   6.361  0.0724 -0.8995  0.3360
 1281SOL    HW115302   4.401   2.310   6.434 -3.7672 -2.8173 -2.1953
 1281SOL    HW215303   4.350   2.338   6.303  2.5482 -1.8003 -2.1079
 1282SOL     OW15304   2.344   2.456   4.092  0.2284 -0.0196 -0.0807
 1282SOL    HW115305   2.310   2.393   4.155  0.4542 -1.0434 -0.9870
 1282SOL    HW215306   2.358   2.526   4.156 -1.3512 -0.6755  0.9660
 1283SOL     OW15307   0.519   0.157   9.793 -0.4250 -0.5457 -0.2459
 1283SOL    HW115308   0.605   0.143   9.830 -0.3558  0.4219 -0.0410
 1283SOL    HW215309   0.471   0.085   9.834  0.1132 -1.4371 -1.1864
 1284SOL     OW15310   2.925   1.439   5.703  1.1050  0.8217 -0.0457
 1284SOL    HW115311   2.971   1.514   5.741 -0.1811  1.4284  0.2984
 1284SOL    HW215312   2.838   1.450   5.741 -0.1769  0.8069 -2.9616
 1285SOL     OW15313   4.577   1.931  17.063 -0.0804 -0.0442  0.1568
 1285SOL    HW115314   4.573   1.935  17.159 -1.0238 -1.5233  0.1642
 1285SOL    HW215315   4.487   1.919  17.036  0.0187  0.7252 -0.5170
 1286SOL     OW15316   3.968   2.906  12.126  0.4124 -0.0154  0.2103
 1286SOL    HW115317   3.887   2.856  12.118 -0.7582  1.8719  0.1082
 1286SOL    HW215318   3.979   2.942  12.038  0.6618  2.4963  1.2515
 1287SOL     OW15319   4.261   4.581   3.994  0.0555 -0.0023  0.2965
 1287SOL    HW115320   4.180   4.624   3.966  1.2939  2.1473 -0.0305
 1287SOL    HW215321   4.242   4.490   3.971 -2.3004  1.0197 -1.8687
 1288SOL     OW15322   1.067   0.746  16.585  0.5205  0.2218 -0.1839
 1288SOL    HW115323   1.147   0.753  16.637  1.1272  1.2979 -1.2683
 1288SOL    HW215324   1.019   0.682  16.637  0.7001  0.6877  0.5604
 1289SOL     OW15325   4.168   0.826   7.882  0.1904  0.0165 -0.1758
 1289SOL    HW115326   4.107   0.891   7.917  0.0207 -0.9432  1.3103
 1289SOL    HW215327   4.219   0.810   7.962 -1.6672  0.9667  1.1865
 1290SOL     OW15328   1.440   1.393   7.608 -0.1826 -0.3607  0.0791
 1290SOL    HW115329   1.431   1.459   7.539 -2.4653 -0.8909 -0.1462
 1290SOL    HW215330   1.504   1.429   7.669  2.3566 -0.0091 -2.8169
 1291SOL     OW15331   4.334   3.944  11.099 -0.2151  0.3172  0.2456
 1291SOL    HW115332   4.297   3.856  11.103 -0.6175  0.4696 -0.1050
 1291SOL    HW215333   4.258   3.996  11.072  2.0986  1.0704 -4.8881
 1292SOL     OW15334   4.166   4.199   8.093  0.1885 -0.1183 -0.0495
 1292SOL    HW115335   4.240   4.143   8.116 -0.1743 -0.8082 -0.5827
 1292SOL    HW215336   4.094   4.142   8.118 -1.3486  0.6118 -2.7673
 1293SOL     OW15337   1.829   4.643  17.542  0.3577  0.2077  0.0902
 1293SOL    HW115338   1.804   4.566  17.593  0.1563 -0.8876 -1.6817
 1293SOL    HW215339   1.923   4.644  17.562 -0.0886  0.1591  2.1819
 1294SOL     OW15340   0.964   0.832   3.823  0.1140 -0.2827 -0.4474
 1294SOL    HW115341   1.029   0.779   3.776 -1.2422 -0.8164 -1.7161
 1294SOL    HW215342   1.014   0.851   3.902 -2.3174 -1.0190  1.2455
 1295SOL     OW15343   3.360   0.299  17.007 -0.4510  0.2318 -0.1585
 1295SOL    HW115344   3.366   0.382  17.054 -1.9319  1.4052 -2.0522
 1295SOL    HW215345   3.404   0.243  17.071 -0.7327 -1.6599 -1.6371
 1296SOL     OW15346   2.909   0.285   8.807  0.1948  0.3018  0.2015
 1296SOL    HW115347   2.851   0.210   8.792  0.3556  0.8293 -3.1377
 1296SOL    HW215348   2.851   0.356   8.780 -0.9329 -0.4804  0.5645
 1297SOL     OW15349   2.173   0.218  12.815  0.0770  0.4830  0.0612
 1297SOL    HW115350   2.238   0.148  12.813 -0.5735 -0.1860  1.8426
 1297SOL    HW215351   2.212   0.277  12.880  2.2137  0.7794 -1.4939
 1298SOL     OW15352   0.735   3.564   0.597 -0.2198  0.0564  0.0262
 1298SOL    HW115353   0.759   3.524   0.514  0.5006  1.6651 -0.5319
 1298SOL    HW215354   0.719   3.481   0.643 -1.7024 -0.3830 -1.2840
 1299SOL     OW15355   2.321   1.008   8.533 -0.7080  0.1242  0.0695
 1299SOL    HW115356   2.294   0.994   8.624 -1.9025 -1.2215 -0.4950
 1299SOL    HW215357   2.328   0.919   8.499  0.1484  0.0830  0.3424
 1300SOL     OW15358   4.236   2.893   4.997 -0.0570 -0.1723 -0.1173
 1300SOL    HW115359   4.309   2.832   5.011  0.1688  0.3105  0.8052
 1300SOL    HW215360   4.218   2.921   5.086 -0.5125  2.6415 -1.0985
 1301SOL     OW15361   3.740   1.932  17.044  0.1829 -0.1994 -0.1920
 1301SOL    HW115362   3.693   2.009  17.077 -0.5301 -1.2055  1.1075
 1301SOL    HW215363   3.694   1.855  17.078  3.5847 -0.8699  2.8945
 1302SOL     OW15364   1.543   3.308   4.862 -0.0077 -0.0493 -0.0266
 1302SOL    HW115365   1.483   3.270   4.797 -0.2039 -1.9736  1.3131
 1302SOL    HW215366   1.522   3.401   4.854  0.6720 -0.1043 -2.7181
 1303SOL     OW15367   2.806   4.719   4.606 -0.2015 -0.1651  0.2148
 1303SOL    HW115368   2.831   0.030   4.521  0.3163  0.5700  0.6764
 1303SOL    HW215369   2.757   4.642   4.577 -1.0545  0.5127 -0.1363
 1304SOL     OW15370   3.731   1.954   4.649  0.2990 -0.2065 -0.3581
 1304SOL    HW115371   3.824   1.950   4.626 -0.2353 -2.8368 -2.1401
 1304SOL    HW215372   3.694   1.904   4.577 -0.7321  0.7689 -0.5035
 1305SOL     OW15373   2.402   2.194   5.756 -0.0860  0.3299  0.0570
 1305SOL    HW115374   2.358   2.271   5.790  0.7371  0.5173  0.7027
 1305SOL    HW215375   2.483   2.233   5.724  0.4583 -1.6305 -0.9889
 1306SOL     OW15376   0.376   4.005   5.176  0.3217  0.7061  0.1958
 1306SOL    HW115377   0.324   4.083   5.194 -0.2708  0.0139  1.5062
 1306SOL    HW215378   0.327   3.943   5.231  2.6910 -1.1496  0.2122
 1307SOL     OW15379   3.024   2.113   9.869  0.2761 -0.2608  0.1736
 1307SOL    HW115380   2.950   2.118   9.930  0.4442  0.1398  0.3428
 1307SOL    HW215381   3.102   2.099   9.922  0.6796 -2.6501 -1.0450
 1308SOL     OW15382   2.452   1.606   9.379 -0.4868  0.1052 -0.2185
 1308SOL    HW115383   2.421   1.524   9.341 -0.0746  0.0745 -0.4922
 1308SOL    HW215384   2.524   1.582   9.437 -1.4702 -0.2117  0.8546
 1309SOL     OW15385   4.059   1.627   2.469 -0.0358 -0.1650 -0.1909
 1309SOL    HW115386   4.084   1.612   2.560  0.4639 -0.5635 -0.3919
 1309SOL    HW215387   4.092   1.713   2.445  1.9493 -0.0918  2.7444
 1310SOL     OW15388   4.506   0.429   4.464  0.6296 -0.1423 -0.2779
 1310SOL    HW115389   4.441   0.495   4.441  0.5437  0.2980  1.2150
 1310SOL    HW215390   4.452   0.350   4.453  2.5538 -1.3379 -1.0964
 1311SOL     OW15391   0.491   0.898   3.318  0.0682  0.5503 -0.5314
 1311SOL    HW115392   0.414   0.955   3.325  0.5547  1.1155  0.2665
 1311SOL    HW215393   0.537   0.905   3.402  2.3989  2.4494 -1.9472
 1312SOL     OW15394   1.973   0.563   8.570 -0.0714 -0.2780  1.0402
 1312SOL    HW115395   1.882   0.533   8.576  0.9504 -3.6728 -1.0256
 1312SOL    HW215396   2.025   0.484   8.576 -0.4461 -0.5340  0.8986
 1313SOL     OW15397   4.078   0.984   9.759 -0.1114  0.6539  0.1100
 1313SOL    HW115398   4.171   0.965   9.746 -0.5953 -1.3608 -0.3617
 1313SOL    HW215399   4.066   1.041   9.683  0.6128 -2.6029 -2.4461
 1314SOL     OW15400   2.672   1.675  16.264 -0.6546 -0.1789  0.5235
 1314SOL    HW115401   2.730   1.617  16.314 -0.4574 -1.3079 -0.9976
 1314SOL    HW215402   2.722   1.752  16.239 -1.0169 -0.5986 -1.5240
 1315SOL     OW15403   2.478   0.610   5.948  0.6413  0.2437 -0.0061
 1315SOL    HW115404   2.447   0.625   5.859 -0.6811 -2.8614 -0.0443
 1315SOL    HW215405   2.520   0.525   5.938 -1.3584 -0.8075  0.4658
 1316SOL     OW15406   3.980   1.213   8.912  0.2063 -0.3623  0.4630
 1316SOL    HW115407   3.956   1.152   8.981 -0.6377 -0.4894  0.0565
 1316SOL    HW215408   4.055   1.166   8.875 -0.4340 -0.3796 -0.8165
 1317SOL     OW15409   1.898   1.028   5.864 -1.1858  0.1281 -0.3499
 1317SOL    HW115410   1.809   1.038   5.830 -0.7964  2.5946 -0.6235
 1317SOL    HW215411   1.902   0.937   5.894 -1.6467  0.1453 -0.2350
 1318SOL     OW15412   0.832   0.672   7.221 -0.0103 -0.2542  0.5627
 1318SOL    HW115413   0.868   0.654   7.134  0.6698  1.5155  0.4838
 1318SOL    HW215414   0.738   0.679   7.203  0.0592 -0.3876  0.1346
 1319SOL     OW15415   3.177   1.896   7.512 -0.7021  0.3495  0.1347
 1319SOL    HW115416   3.183   1.821   7.453  1.3092 -1.5288  2.7520
 1319SOL    HW215417   3.113   1.873   7.580 -0.9079  1.1829  0.2203
 1320SOL     OW15418   2.303   4.513  15.106  0.2213  0.0758 -0.0780
 1320SOL    HW115419   2.394   4.498  15.132  0.3262 -0.6404 -0.8363
 1320SOL    HW215420   2.268   4.541  15.190 -0.6254  1.0098 -0.7431
 1321SOL     OW15421   3.900   1.869   3.182  0.2113  0.0566  0.3726
 1321SOL    HW115422   3.968   1.904   3.239 -0.0752  0.9387  0.1694
 1321SOL    HW215423   3.837   1.854   3.252  0.6946 -0.3219  0.7176
 1322SOL     OW15424   3.716   4.137  15.691  0.1698 -0.5823  0.3436
 1322SOL    HW115425   3.644   4.102  15.744 -0.4564 -2.2975 -1.6045
 1322SOL    HW215426   3.699   4.229  15.709 -2.0859 -1.1356  1.0836
 1323SOL     OW15427   3.919   3.665  11.378  0.1137  0.2841  0.2685
 1323SOL    HW115428   3.850   3.652  11.314 -0.6044 -0.2353  1.1485
 1323SOL    HW215429   3.953   3.748  11.345 -0.3758  0.9033  1.3008
 1324SOL     OW15430   0.647   0.766   2.839  0.1747  0.3680  0.6247
 1324SOL    HW115431   0.562   0.743   2.876  0.2649 -2.1200 -0.7311
 1324SOL    HW215432   0.646   0.861   2.832  0.7777  0.2646 -0.8945
 1325SOL     OW15433   3.249   2.402   2.903  0.0258  0.2258  0.0354
 1325SOL    HW115434   3.282   2.492   2.906  0.6778  0.0374 -1.4760
 1325SOL    HW215435   3.328   2.360   2.934 -0.2408 -2.0287 -2.4109
 1326SOL     OW15436   3.809   2.890  17.004  0.2091  0.4929  0.0330
 1326SOL    HW115437   3.878   2.865  16.943  1.0299 -1.5865  1.8271
 1326SOL    HW215438   3.823   2.983  17.018  2.7000  0.1572 -0.3277
 1327SOL     OW15439   2.258   3.880   5.716 -0.5076  0.3482  0.0166
 1327SOL    HW115440   2.314   3.806   5.739 -1.3463 -0.6854 -1.2841
 1327SOL    HW215441   2.193   3.903   5.782 -0.6953  0.9131 -0.3622
 1328SOL     OW15442   1.290   0.144   4.960 -0.2543 -0.0689  0.1203
 1328SOL    HW115443   1.368   0.089   4.949  0.7912  1.4596 -0.1138
 1328SOL    HW215444   1.324   0.228   4.930 -1.0373 -0.8983 -3.0453
 1329SOL     OW15445   4.044   3.680   8.128  0.3695 -0.6483 -0.4514
 1329SOL    HW115446   4.038   3.586   8.143  1.3101 -0.6476 -0.0598
 1329SOL    HW215447   4.114   3.705   8.187  1.6100 -0.5579 -1.9496
 1330SOL     OW15448   2.775   0.642  10.974  0.3566  0.4134  0.6370
 1330SOL    HW115449   2.772   0.738  10.969  1.9234  0.4937  1.3074
 1330SOL    HW215450   2.824   0.630  10.892  1.1684  0.0753  1.1727
 1331SOL     OW15451   0.497   2.924   6.402 -0.3656  0.4360 -0.4009
 1331SOL    HW115452   0.546   2.868   6.461 -0.8755  0.4723  0.0547
 1331SOL    HW215453   0.493   2.995   6.466 -0.4369 -0.3119  0.4158
 1332SOL     OW15454   0.532   0.109   4.878 -0.0936 -0.2403  0.7713
 1332SOL    HW115455   0.488   0.082   4.959 -0.1137 -0.2000  0.7738
 1332SOL    HW215456   0.593   0.037   4.858 -0.2863 -0.4598  0.9746
 1333SOL     OW15457   1.691   3.062   1.831  0.5121  0.3659 -0.1345
 1333SOL    HW115458   1.779   3.041   1.798  0.4691  0.8975 -0.5902
 1333SOL    HW215459   1.653   2.979   1.859  0.0829  0.3829 -0.6706
 1334SOL     OW15460   4.357   3.905   9.817 -0.2547 -0.1427  0.8850
 1334SOL    HW115461   4.414   3.896   9.741  1.5584  0.8278  2.1367
 1334SOL    HW215462   4.333   3.997   9.829 -1.9458 -0.4924  0.2830
 1335SOL     OW15463   1.546   3.743  13.510 -0.4066 -0.6897  0.1495
 1335SOL    HW115464   1.466   3.706  13.473 -2.1931  3.1355  0.3050
 1335SOL    HW215465   1.522   3.833  13.529  0.4654 -0.1811 -1.1331
 1336SOL     OW15466   3.511   0.931   5.736 -0.2863 -0.2052  0.2305
 1336SOL    HW115467   3.418   0.943   5.720 -0.2525 -2.1727 -1.3926
 1336SOL    HW215468   3.539   1.017   5.702  0.6655 -0.7749 -0.4252
 1337SOL     OW15469   2.658   1.993   6.581  0.4192 -0.3007  0.2414
 1337SOL    HW115470   2.679   1.935   6.654 -0.4872  1.9044  2.2374
 1337SOL    HW215471   2.735   1.985   6.524 -0.4010  1.9224 -1.1438
 1338SOL     OW15472   4.205   2.863   3.903 -0.4817 -0.2974  0.1493
 1338SOL    HW115473   4.149   2.909   3.840 -0.9805  2.5355  2.6897
 1338SOL    HW215474   4.203   2.770   3.878  3.0091 -0.1541 -0.5759
 1339SOL     OW15475   1.115   4.502   2.393 -0.0894 -0.3519 -0.4202
 1339SOL    HW115476   1.186   4.464   2.340  0.4166  0.7906 -0.5611
 1339SOL    HW215477   1.143   4.498   2.484 -0.3034 -0.3398 -0.3539
 1340SOL     OW15478   2.987   4.488  13.150  0.3408 -0.6212 -0.2449
 1340SOL    HW115479   3.073   4.483  13.108  1.5768  0.7894  2.1282
 1340SOL    HW215480   2.989   4.412  13.209  0.1449  1.0573  1.9421
 1341SOL     OW15481   2.079   0.985  12.042 -0.2340 -0.2131  0.5848
 1341SOL    HW115482   2.027   0.961  11.965 -0.0353  3.2668 -0.6178
 1341SOL    HW215483   2.167   0.977  12.005  0.2850 -0.8117  1.9637
 1342SOL     OW15484   0.648   2.774   2.804  0.3161  0.0938 -0.3807
 1342SOL    HW115485   0.723   2.747   2.858 -0.3246  0.1159  0.5260
 1342SOL    HW215486   0.656   2.741   2.715 -1.2730 -0.3149 -0.3647
 1343SOL     OW15487   2.077   0.937   9.623  0.2343 -0.3604  0.2768
 1343SOL    HW115488   2.137   1.008   9.601 -1.2994  0.8841  0.0617
 1343SOL    HW215489   2.077   0.933   9.718 -0.4696 -2.2065  0.2021
 1344SOL     OW15490   1.016   4.307   1.587  0.2533 -0.2432 -0.5933
 1344SOL    HW115491   1.065   4.259   1.654  0.5369 -3.7087 -3.3377
 1344SOL    HW215492   1.056   4.273   1.508 -1.5428 -0.6730 -1.3212
 1345SOL     OW15493   2.664   2.525   4.672 -0.4384  0.1510  0.2820
 1345SOL    HW115494   2.685   2.519   4.579 -0.1030 -0.4675  0.4009
 1345SOL    HW215495   2.686   2.617   4.687  1.1644 -0.8083  3.8384
 1346SOL     OW15496   0.285   4.313   1.696 -0.1435 -0.2704 -0.4600
 1346SOL    HW115497   0.251   4.245   1.638 -1.1389 -0.0911 -0.0912
 1346SOL    HW215498   0.204   4.350   1.733  0.5378 -0.0851  0.8525
 1347SOL     OW15499   4.509   4.305   5.300 -0.4332 -0.3109  0.1778
 1347SOL    HW115500   4.558   4.333   5.377  0.8443 -1.7094 -0.1348
 1347SOL    HW215501   4.505   4.211   5.319 -0.8906 -0.6358 -1.4902
 1348SOL     OW15502   3.129   1.562   1.827 -0.2140  0.0597 -0.4861
 1348SOL    HW115503   3.179   1.619   1.886 -0.5930  0.2403 -0.3419
 1348SOL    HW215504   3.090   1.620   1.762 -0.3999 -1.4806 -1.7324
 1349SOL     OW15505   2.232   2.056   4.071  0.1382 -0.4378 -0.3706
 1349SOL    HW115506   2.200   1.967   4.062  0.1279 -0.2533 -2.3083
 1349SOL    HW215507   2.176   2.101   4.008 -0.2953 -0.3895  0.0522
 1350SOL     OW15508   1.267   1.254   0.157 -0.2000  0.3252 -0.2263
 1350SOL    HW115509   1.302   1.324   0.101  1.0729  0.3316  0.5656
 1350SOL    HW215510   1.271   1.303   0.240  2.6889 -0.7093  0.2454
 1351SOL     OW15511   2.582   0.502   4.242  0.0938 -0.4068  0.1031
 1351SOL    HW115512   2.584   0.488   4.148  0.4047  2.3260 -0.2984
 1351SOL    HW215513   2.521   0.573   4.260  0.0775  0.1453 -2.1763
 1352SOL     OW15514   3.875   0.783  15.300  0.2000  0.2248 -0.1859
 1352SOL    HW115515   3.962   0.812  15.274 -0.4035  1.5939 -0.6766
 1352SOL    HW215516   3.817   0.798  15.225  0.6438  0.5998 -0.4454
 1353SOL     OW15517   0.302   0.785   8.548  0.5371 -0.0602 -0.6677
 1353SOL    HW115518   0.274   0.877   8.543 -0.0934 -0.4008 -3.2874
 1353SOL    HW215519   0.362   0.774   8.622 -0.9037 -0.5028  0.4488
 1354SOL     OW15520   1.816   4.517  11.640 -0.1660  0.5831 -0.1390
 1354SOL    HW115521   1.888   4.457  11.623 -1.3827 -1.1930  0.8514
 1354SOL    HW215522   1.755   4.465  11.693  0.8827 -1.4475 -0.9266
 1355SOL     OW15523   4.715   0.640   4.128  0.2182  0.5454  0.5340
 1355SOL    HW115524   0.041   0.721   4.125 -2.4523  2.1366 -2.2681
 1355SOL    HW215525   4.622   0.663   4.133  0.2305  0.7239 -0.0163
 1356SOL     OW15526   0.708   2.815   5.000 -0.1983  0.5048 -0.2091
 1356SOL    HW115527   0.698   2.773   5.085  0.0450  1.3134  0.2238
 1356SOL    HW215528   0.673   2.901   5.024 -1.7817 -0.6870  1.7194
 1357SOL     OW15529   4.331   2.320  12.371  0.3672 -0.4232  0.3186
 1357SOL    HW115530   4.320   2.281  12.458 -1.9070 -1.1184 -0.2756
 1357SOL    HW215531   4.282   2.402  12.375  1.7645  0.4267  0.0421
 1358SOL     OW15532   2.061   1.662  11.830 -0.0144 -0.0147 -0.1749
 1358SOL    HW115533   2.153   1.672  11.808  0.3939 -1.6572  0.7797
 1358SOL    HW215534   2.043   1.595  11.764 -0.9858  0.8321 -0.7749
 1359SOL     OW15535   0.617   0.580  11.170  0.1636  0.2689  0.0458
 1359SOL    HW115536   0.537   0.545  11.132 -0.2690  0.1748  1.0318
 1359SOL    HW215537   0.684   0.523  11.131  0.8780  0.1054  1.5041
 1360SOL     OW15538   0.324   4.017   4.556  0.0248 -0.6014  0.5011
 1360SOL    HW115539   0.253   4.051   4.610  0.1708 -0.7072  0.7565
 1360SOL    HW215540   0.319   4.055   4.468  2.2444  0.1569  0.7062
 1361SOL     OW15541   1.507   1.593   0.997 -0.2574 -0.4135  0.1440
 1361SOL    HW115542   1.520   1.502   0.972 -1.9909 -0.7989  0.6443
 1361SOL    HW215543   1.449   1.581   1.072  0.7873 -0.6608  0.9207
 1362SOL     OW15544   3.300   3.104   9.223 -0.1038  0.3882 -0.2561
 1362SOL    HW115545   3.391   3.092   9.248 -0.7102 -0.7130  1.4578
 1362SOL    HW215546   3.253   3.083   9.304 -0.0427  1.4189  0.0472
 1363SOL     OW15547   1.481   0.755   5.996  0.1363 -0.5198  0.7758
 1363SOL    HW115548   1.562   0.755   5.944 -1.5406 -0.5613 -1.8371
 1363SOL    HW215549   1.531   0.764   6.077 -0.0122 -1.6996  0.9858
 1364SOL     OW15550   3.187   3.752  16.759 -0.3655  0.0770  0.0067
 1364SOL    HW115551   3.268   3.710  16.731 -2.3411 -2.3804 -1.9345
 1364SOL    HW215552   3.144   3.679  16.802 -1.8504  0.8642 -0.1590
 1365SOL     OW15553   2.755   1.540   6.623  0.3150  0.0622 -0.1225
 1365SOL    HW115554   2.777   1.624   6.663  0.8518  0.3033 -0.9184
 1365SOL    HW215555   2.832   1.511   6.573 -0.3499  0.9036 -1.6373
 1366SOL     OW15556   3.972   1.888   4.552  0.1311  0.7231 -0.4131
 1366SOL    HW115557   4.037   1.933   4.605  0.1134  0.2407  0.0208
 1366SOL    HW215558   3.953   1.945   4.478 -1.9629  0.2228 -0.2676
 1367SOL     OW15559   2.414   0.741   1.124  0.4950  0.1689  0.3880
 1367SOL    HW115560   2.421   0.726   1.218 -2.1184 -3.1365  0.0657
 1367SOL    HW215561   2.346   0.808   1.124 -0.2651 -0.5722 -1.2290
 1368SOL     OW15562   3.242   0.267  10.023 -0.1606  0.3376 -0.3710
 1368SOL    HW115563   3.173   0.324  10.058 -1.6484 -0.5143 -1.9256
 1368SOL    HW215564   3.197   0.211   9.961  0.4008  0.0071 -0.4782
 1369SOL     OW15565   3.370   4.240   6.205  0.3343  0.0576 -0.3368
 1369SOL    HW115566   3.378   4.263   6.112 -0.1339 -0.9569 -0.6301
 1369SOL    HW215567   3.457   4.205   6.220  0.0807 -0.3660  0.1316
 1370SOL     OW15568   2.476   0.725  10.439  0.0783  0.2001  0.0575
 1370SOL    HW115569   2.396   0.755  10.394 -0.6012 -2.0252 -0.2495
 1370SOL    HW215570   2.470   0.631  10.459  0.4976  0.4449  1.2854
 1371SOL     OW15571   3.295   1.182   8.741 -0.5036  0.1045  0.5901
 1371SOL    HW115572   3.388   1.205   8.736 -0.6932  0.4118 -1.6673
 1371SOL    HW215573   3.256   1.270   8.740  2.1971  1.2902 -2.2757
 1372SOL     OW15574   3.280   3.179   3.196 -0.1709  0.4319 -0.5377
 1372SOL    HW115575   3.209   3.215   3.249  0.3950 -0.8740  1.0927
 1372SOL    HW215576   3.350   3.242   3.212 -0.1328  1.1971 -3.8077
 1373SOL     OW15577   4.643   3.247   1.929 -0.0638 -0.0377  0.1727
 1373SOL    HW115578   0.011   3.229   1.939 -0.4320 -2.6136 -1.0853
 1373SOL    HW215579   4.602   3.186   1.990 -0.9952 -2.4975 -2.9187
 1374SOL     OW15580   4.322   3.994   7.562 -0.5485 -0.4661  0.3686
 1374SOL    HW115581   4.353   4.013   7.650  1.5234  1.2524 -0.7207
 1374SOL    HW215582   4.229   3.974   7.573 -0.8784  1.0830  0.4191
 1375SOL     OW15583   2.149   0.276  10.100 -0.2394  0.6981 -0.1858
 1375SOL    HW115584   2.173   0.350  10.044  0.7709  0.3978 -0.1494
 1375SOL    HW215585   2.231   0.227  10.099 -1.2209 -0.9179 -0.9884
 1376SOL     OW15586   1.929   1.797   5.427  0.6355 -0.1208  0.0972
 1376SOL    HW115587   1.923   1.799   5.331 -1.1016 -0.4324  0.1995
 1376SOL    HW215588   1.910   1.888   5.449 -0.7661 -0.4498  0.1923
 1377SOL     OW15589   1.473   0.767   3.189 -0.5784 -0.5758  0.2608
 1377SOL    HW115590   1.526   0.704   3.140 -1.0746 -0.8800  0.1140
 1377SOL    HW215591   1.494   0.742   3.279 -2.2463  1.6562  1.2889
 1378SOL     OW15592   2.649   1.114   8.526  0.5141  0.2522 -0.2577
 1378SOL    HW115593   2.595   1.181   8.570 -0.7857 -2.1152  1.7231
 1378SOL    HW215594   2.612   1.028   8.542 -0.8866  0.8255 -0.3759
 1379SOL     OW15595   3.453   3.976   7.520  0.1701 -0.4769 -0.3613
 1379SOL    HW115596   3.432   3.883   7.522 -0.6249 -0.3056 -0.5949
 1379SOL    HW215597   3.486   4.004   7.606  0.1511  1.5708 -1.0161
 1380SOL     OW15598   4.038   4.706  14.934  0.0851 -0.1208 -0.0740
 1380SOL    HW115599   4.089   4.657  14.870 -1.3865 -0.5945 -0.8742
 1380SOL    HW215600   3.969   4.647  14.962  0.2137 -0.3045 -0.1450
 1381SOL     OW15601   0.077   0.891   4.526  0.0692  0.3237 -0.2437
 1381SOL    HW115602   0.141   0.950   4.565 -2.9905  1.1720  3.4380
 1381SOL    HW215603   4.718   0.935   4.514  0.4820  0.6041 -2.0677
 1382SOL     OW15604   1.029   4.041   2.582 -0.4111  0.2546  0.3335
 1382SOL    HW115605   0.957   4.033   2.520  0.2262 -0.1050 -0.3618
 1382SOL    HW215606   0.995   4.029   2.671  1.7155 -1.7106  0.8986
 1383SOL     OW15607   1.713   4.720   1.108 -0.4759  0.2248 -0.1067
 1383SOL    HW115608   1.768   4.687   1.037  0.3591 -0.7367  1.0018
 1383SOL    HW215609   1.748   0.077   1.141 -0.8285  0.6560 -0.8087
 1384SOL     OW15610   4.658   2.103   7.411  0.3274 -0.4428  0.1592
 1384SOL    HW115611   4.620   2.085   7.497  0.0612 -0.9906 -0.0694
 1384SOL    HW215612   4.652   2.198   7.402  0.6115 -0.3943  0.5365
 1385SOL     OW15613   1.956   1.248  15.994  0.2437 -0.1181 -0.0368
 1385SOL    HW115614   2.048   1.273  15.995 -0.5011  2.7487 -1.3583
 1385SOL    HW215615   1.943   1.224  16.085 -0.5016  1.3937  0.2518
 1386SOL     OW15616   4.013   0.460   6.329 -0.0594 -0.9269  0.3353
 1386SOL    HW115617   4.086   0.521   6.334  0.1664 -0.9851 -2.2739
 1386SOL    HW215618   3.944   0.488   6.390  0.8906  0.7716  0.6365
 1387SOL     OW15619   1.328   0.309   7.442  0.4819  0.0191 -0.2581
 1387SOL    HW115620   1.413   0.266   7.433  1.4995  2.0298 -0.3319
 1387SOL    HW215621   1.342   0.366   7.518 -1.2403  0.1622 -0.0411
 1388SOL     OW15622   2.268   3.495  14.365  0.1497 -0.0498 -0.0584
 1388SOL    HW115623   2.230   3.410  14.341 -1.6875  1.3260 -2.0727
 1388SOL    HW215624   2.209   3.555  14.319  0.7921  0.5157 -0.1461
 1389SOL     OW15625   2.239   4.713  14.538  0.2353  0.4093 -0.2104
 1389SOL    HW115626   2.147   0.015  14.532  0.8506  2.9689  1.6359
 1389SOL    HW215627   2.280   4.698  14.453  0.1159  0.9290 -0.3621
 1390SOL     OW15628   0.463   2.865   2.984  0.2587  0.3493  0.0869
 1390SOL    HW115629   0.524   2.830   2.919 -0.2622 -0.8078  0.2218
 1390SOL    HW215630   0.479   2.958   2.968 -1.6467  1.0062  2.1111
 1391SOL     OW15631   2.144   3.132   4.336  0.5105 -0.6973 -0.6886
 1391SOL    HW115632   2.071   3.071   4.326  0.2796 -0.2738 -1.5268
 1391SOL    HW215633   2.187   3.093   4.412 -1.1980  0.3762  0.8102
 1392SOL     OW15634   1.849   0.557  10.690  0.3089  0.0188  0.8195
 1392SOL    HW115635   1.809   0.638  10.658  0.4669 -0.2873 -0.1401
 1392SOL    HW215636   1.884   0.575  10.778  0.4020 -1.6998  1.1350
 1393SOL     OW15637   0.570   4.572   3.378  0.1724  0.2820  0.2611
 1393SOL    HW115638   0.513   4.550   3.304  0.0577  0.7747  0.2014
 1393SOL    HW215639   0.530   4.509   3.438  0.3313  0.7063  0.8105
 1394SOL     OW15640   2.463   2.552   5.183 -0.3212  0.7163 -0.2259
 1394SOL    HW115641   2.410   2.477   5.153  0.9320 -1.4867  3.0708
 1394SOL    HW215642   2.501   2.577   5.099 -1.9490 -2.2482 -1.8660
 1395SOL     OW15643   3.700   1.868  16.405  0.1919  0.8939 -0.6907
 1395SOL    HW115644   3.786   1.888  16.367  0.0374  1.1970 -0.8898
 1395SOL    HW215645   3.657   1.873  16.319 -0.3672  1.3787 -0.3820
 1396SOL     OW15646   4.225   2.155   5.430  0.3798  0.3589 -0.4793
 1396SOL    HW115647   4.255   2.204   5.354  1.1769  0.2693 -0.2161
 1396SOL    HW215648   4.263   2.068   5.415  0.1783  0.0357  0.8168
 1397SOL     OW15649   0.898   2.634   4.925 -0.2615 -0.0786  0.4044
 1397SOL    HW115650   0.929   2.636   5.016 -0.6815 -4.9956  0.6712
 1397SOL    HW215651   0.866   2.724   4.916  0.1502  0.0012 -0.2542
 1398SOL     OW15652   3.550   0.128   4.298 -0.1277  0.1083 -0.1915
 1398SOL    HW115653   3.500   0.060   4.343  2.1724 -0.2980  1.7451
 1398SOL    HW215654   3.544   0.197   4.364  0.1555 -0.4343  0.4043
 1399SOL     OW15655   3.264   1.618   5.654 -0.0431 -0.1528  0.2684
 1399SOL    HW115656   3.200   1.649   5.590  1.9362  2.0937 -0.5939
 1399SOL    HW215657   3.222   1.616   5.740  3.2497 -1.3143  1.8712
 1400SOL     OW15658   3.432   0.854  11.426 -0.0612 -0.2342  0.1032
 1400SOL    HW115659   3.351   0.817  11.460 -0.9175  3.2361  1.8394
 1400SOL    HW215660   3.507   0.804  11.457  1.9370  1.6211 -1.7902
 1401SOL     OW15661   2.521   2.234   4.048 -0.0512 -0.5697  0.2033
 1401SOL    HW115662   2.460   2.302   4.076  1.9726  1.0533  0.7548
 1401SOL    HW215663   2.565   2.264   3.968  4.3091 -1.6844  2.1548
 1402SOL     OW15664   1.841   2.386   0.109 -0.1951  0.1147 -0.1880
 1402SOL    HW115665   1.774   2.336   0.063 -0.9009 -0.1137  1.0814
 1402SOL    HW215666   1.790   2.419   0.183  1.2218  1.6040  0.1323
 1403SOL     OW15667   3.965   3.137   3.965 -0.4660  0.1024 -0.7853
 1403SOL    HW115668   3.991   3.183   4.045 -2.0275  2.3964 -1.5776
 1403SOL    HW215669   4.054   3.140   3.931 -0.9541 -0.3108 -2.1170
 1404SOL     OW15670   3.253   3.409   1.632 -0.3228  0.4116  0.3332
 1404SOL    HW115671   3.321   3.411   1.565 -0.0530  2.0409  0.6477
 1404SOL    HW215672   3.263   3.317   1.657  0.0321  0.2175 -0.5402
 1405SOL     OW15673   3.878   4.534   0.028 -0.2923 -0.1465  0.3262
 1405SOL    HW115674   3.853   4.502   0.115 -0.2667 -2.3051 -0.4740
 1405SOL    HW215675   3.879   4.452  17.680  1.5723  0.0805 -0.0006
 1406SOL     OW15676   2.691   3.768   4.653 -0.0927  0.0617  0.1651
 1406SOL    HW115677   2.624   3.701   4.642 -0.7536  0.6262  0.7825
 1406SOL    HW215678   2.651   3.805   4.731  1.9323  2.5563  0.0284
 1407SOL     OW15679   3.954   2.779   3.674 -0.1992 -0.5156  0.3704
 1407SOL    HW115680   3.963   2.762   3.581 -1.0795  1.8871 -0.1609
 1407SOL    HW215681   4.017   2.721   3.717 -1.1145 -3.4961 -2.3615
 1408SOL     OW15682   2.392   2.986   5.915 -0.5317  0.3011  0.3706
 1408SOL    HW115683   2.328   3.029   5.858  1.1345  1.9339 -0.2963
 1408SOL    HW215684   2.472   3.016   5.870 -0.9900 -0.3714 -0.8950
 1409SOL     OW15685   0.624   1.094   4.979  0.2688 -0.2976 -0.5593
 1409SOL    HW115686   0.602   1.007   5.012 -0.6749 -0.2067 -0.9523
 1409SOL    HW215687   0.652   1.140   5.058 -0.5990 -0.1768 -0.3211
 1410SOL     OW15688   2.521   3.003   5.018  0.3200  0.0776 -1.1238
 1410SOL    HW115689   2.598   3.028   4.968  0.9853  2.0810  0.9076
 1410SOL    HW215690   2.551   2.921   5.055  2.7202  1.0516 -0.9320
 1411SOL     OW15691   2.020   3.797   9.147  0.3040  0.1610 -0.3604
 1411SOL    HW115692   2.017   3.703   9.166 -0.9146 -0.4534 -3.5690
 1411SOL    HW215693   2.086   3.822   9.211  2.3010 -1.5894 -1.7389
 1412SOL     OW15694   0.178   1.290   7.077  0.0505  0.3507  0.6690
 1412SOL    HW115695   0.143   1.350   7.142 -0.1648  0.7792  0.1546
 1412SOL    HW215696   0.254   1.340   7.046  0.0755 -2.5038 -3.8684
 1413SOL     OW15697   0.266   3.959   7.041  0.1575 -0.6726  0.0598
 1413SOL    HW115698   0.182   3.961   6.995  0.7440  0.0966 -0.9720
 1413SOL    HW215699   0.322   3.901   6.990 -0.0809  1.0245 -2.1183
 1414SOL     OW15700   3.462   1.592   2.722 -0.3207  0.6184 -0.1960
 1414SOL    HW115701   3.403   1.599   2.647 -1.9254 -1.9476  0.7918
 1414SOL    HW215702   3.547   1.580   2.680  0.0186  0.8188  0.4426
 1415SOL     OW15703   4.550   4.166   5.607  0.1701  0.2140 -0.4123
 1415SOL    HW115704   4.594   4.239   5.651  1.4844 -1.7416  1.5527
 1415SOL    HW215705   4.458   4.191   5.604  0.1465 -0.0187 -1.8337
 1416SOL     OW15706   1.719   2.795  15.000  0.0332 -0.1728  0.1746
 1416SOL    HW115707   1.698   2.723  14.941  0.5139  0.6693 -1.0420
 1416SOL    HW215708   1.805   2.764  15.029 -0.4972 -1.0603  0.7628
 1417SOL     OW15709   0.545   1.262   6.193 -0.7816  0.6244 -0.6406
 1417SOL    HW115710   0.522   1.181   6.239  2.3358 -0.3988 -0.8961
 1417SOL    HW215711   0.628   1.294   6.228 -1.5848 -0.6232  2.3888
 1418SOL     OW15712   1.254   4.224   6.813 -0.4696  0.1855 -0.5151
 1418SOL    HW115713   1.242   4.254   6.903  1.1943 -0.3899 -0.1079
 1418SOL    HW215714   1.346   4.243   6.797 -0.3896  1.1140  1.0294
 1419SOL     OW15715   0.285   1.670   1.429 -0.0456  0.2270 -0.2644
 1419SOL    HW115716   0.326   1.718   1.358 -0.6615  0.5072 -0.4367
 1419SOL    HW215717   0.195   1.663   1.398  0.3306 -1.2936 -0.9751
 1420SOL     OW15718   0.780   0.145   2.703 -0.3721 -0.3023  0.5116
 1420SOL    HW115719   0.849   0.079   2.707 -0.5808 -0.5175  0.5861
 1420SOL    HW215720   0.729   0.109   2.630 -1.1926  0.9644  0.4633
 1421SOL     OW15721   1.126   2.225   4.666 -0.1897 -0.2503 -0.0839
 1421SOL    HW115722   1.077   2.307   4.661 -0.7637 -0.5101  1.2690
 1421SOL    HW215723   1.207   2.245   4.618  0.1695  0.9837  1.0342
 1422SOL     OW15724   1.929   4.433   3.715 -0.4244  0.3965  1.0400
 1422SOL    HW115725   2.011   4.403   3.753  0.3124  1.7925  0.5543
 1422SOL    HW215726   1.873   4.432   3.792 -0.6457  0.7721  0.8867
 1423SOL     OW15727   3.360   3.522   7.237  0.2938 -0.1989 -0.3705
 1423SOL    HW115728   3.296   3.591   7.221 -0.8523 -1.6101 -1.9692
 1423SOL    HW215729   3.304   3.448   7.259 -0.0314 -0.5752 -2.4362
 1424SOL     OW15730   2.858   0.781   2.643 -0.1458  0.7638  0.1438
 1424SOL    HW115731   2.781   0.774   2.586  0.1039  0.2210 -0.1250
 1424SOL    HW215732   2.890   0.869   2.627 -2.4443  1.4227 -0.8889
 1425SOL     OW15733   0.805   4.028   6.638  0.2549 -0.5187 -0.0897
 1425SOL    HW115734   0.712   4.034   6.656  0.4055 -0.9616  0.8276
 1425SOL    HW215735   0.841   4.094   6.697  1.3177 -0.1607 -1.1356
 1426SOL     OW15736   4.442   3.569   8.445  0.0135  0.7058  0.0928
 1426SOL    HW115737   4.450   3.475   8.461 -0.7411  0.2748 -2.1114
 1426SOL    HW215738   4.536   3.590   8.448  0.3841 -0.8175 -0.6481
 1427SOL     OW15739   2.284   2.607   7.944 -0.3123 -0.5909 -0.2323
 1427SOL    HW115740   2.198   2.586   7.981 -0.0920 -1.0166  0.0394
 1427SOL    HW215741   2.344   2.571   8.010 -2.1975  2.4134  3.1338
 1428SOL     OW15742   2.849   2.813   6.850  0.0852  0.4125  0.4610
 1428SOL    HW115743   2.823   2.826   6.941 -0.7867 -2.0876  0.5643
 1428SOL    HW215744   2.796   2.738   6.825  0.9499 -0.4519  1.2267
 1429SOL     OW15745   3.454   3.646   3.534  0.5631 -0.7162 -0.4772
 1429SOL    HW115746   3.413   3.651   3.448 -0.0410  0.5709 -0.1051
 1429SOL    HW215747   3.406   3.712   3.584  0.6288 -1.0557  0.0346
 1430SOL     OW15748   0.503   1.576   1.534 -0.3697 -0.4966  0.7913
 1430SOL    HW115749   0.439   1.610   1.471 -0.7716 -2.0637  0.3477
 1430SOL    HW215750   0.438   1.558   1.602  1.5280 -0.3395  2.6555
 1431SOL     OW15751   2.896   1.952  11.776 -0.6143  0.0297 -0.2898
 1431SOL    HW115752   2.912   1.879  11.716  0.5976 -0.0953  0.1866
 1431SOL    HW215753   2.964   1.931  11.839 -0.2167 -0.8512 -1.0058
 1432SOL     OW15754   0.998   3.104   2.412  0.0824  0.4089 -0.0928
 1432SOL    HW115755   1.014   3.184   2.363  0.0802  0.2521 -0.3519
 1432SOL    HW215756   0.906   3.095   2.386 -0.1309 -0.6471  1.0111
 1433SOL     OW15757   1.863   3.059   9.390 -0.0742 -0.1733 -0.1763
 1433SOL    HW115758   1.837   3.101   9.472 -1.3761  0.0100 -0.6987
 1433SOL    HW215759   1.776   3.051   9.352 -0.8423  1.2701  1.3237
 1434SOL     OW15760   1.811   0.346  12.435 -0.0968  0.3407 -0.2517
 1434SOL    HW115761   1.803   0.428  12.482 -0.9749  1.4017 -2.2620
 1434SOL    HW215762   1.895   0.327  12.476  1.5173  1.2762 -3.0987
 1435SOL     OW15763   3.147   1.756  11.414 -0.0513  0.1272  0.4993
 1435SOL    HW115764   3.212   1.810  11.369 -0.1689  0.0702  0.2579
 1435SOL    HW215765   3.073   1.817  11.413  0.1706  0.4322  3.1869
 1436SOL     OW15766   2.521   2.317  12.456  0.7235 -0.1201 -0.1133
 1436SOL    HW115767   2.478   2.369  12.388  4.4936  2.9276 -0.1454
 1436SOL    HW215768   2.450   2.256  12.476 -1.6495  2.1230 -1.6849
 1437SOL     OW15769   4.374   0.996  14.861 -0.5862 -0.2079 -0.5110
 1437SOL    HW115770   4.296   0.967  14.815 -0.5527 -2.4138  0.8683
 1437SOL    HW215771   4.346   0.975  14.950  1.1425  0.7799  0.2905
 1438SOL     OW15772   2.241   3.870   9.306 -0.4000  0.6701  1.0611
 1438SOL    HW115773   2.299   3.802   9.271 -1.8735  0.1040 -0.3477
 1438SOL    HW215774   2.273   3.877   9.395 -0.9852 -0.2574  1.3416
 1439SOL     OW15775   2.584   0.765  10.169  0.2378  0.5457 -0.6335
 1439SOL    HW115776   2.570   0.745  10.262  1.8500  3.3929  0.2446
 1439SOL    HW215777   2.496   0.775  10.134 -0.1564 -0.9300 -0.0719
 1440SOL     OW15778   2.413   3.484   3.733 -0.1653 -0.4764 -0.4322
 1440SOL    HW115779   2.319   3.491   3.753  0.0105  2.7493 -0.7550
 1440SOL    HW215780   2.452   3.557   3.781  0.1802 -0.9262 -0.0252
 1441SOL     OW15781   0.641   1.748   0.207 -0.3686 -0.2763 -0.4421
 1441SOL    HW115782   0.554   1.708   0.207 -1.2219  1.6272  0.1897
 1441SOL    HW215783   0.695   1.675   0.239  1.7942 -0.0436 -3.5832
 1442SOL     OW15784   3.323   1.950   6.424  0.4877 -0.0796 -0.5057
 1442SOL    HW115785   3.308   1.991   6.338  0.4161  0.0286 -0.4424
 1442SOL    HW215786   3.305   2.027   6.478  1.8199  0.3944 -0.7331
 1443SOL     OW15787   1.040   1.152   5.955 -0.2847 -0.1620 -0.2979
 1443SOL    HW115788   1.072   1.224   5.902 -0.1615  0.2462  0.3335
 1443SOL    HW215789   1.069   1.182   6.041  0.6465  0.5591 -0.8619
 1444SOL     OW15790   2.702   4.232   9.141 -0.7167  0.0299 -0.0435
 1444SOL    HW115791   2.680   4.240   9.233  0.2636 -0.1110  0.1973
 1444SOL    HW215792   2.797   4.239   9.138 -0.6879 -0.7690 -1.2532
 1445SOL     OW15793   3.107   0.448   4.550 -0.6334 -0.8437 -0.6082
 1445SOL    HW115794   3.073   0.378   4.605  0.9004 -0.2279  1.1404
 1445SOL    HW215795   3.150   0.492   4.623 -1.6828  0.4673 -0.7766
 1446SOL     OW15796   0.711   3.819  11.116 -0.1763  0.4231  0.0071
 1446SOL    HW115797   0.743   3.845  11.029 -1.1324 -1.7421 -1.0023
 1446SOL    HW215798   0.616   3.815  11.099 -0.0407  1.7264 -1.0852
 1447SOL     OW15799   2.418   0.885   6.319 -0.0963 -0.5165  0.4136
 1447SOL    HW115800   2.448   0.939   6.246 -0.8903  1.0650  1.2539
 1447SOL    HW215801   2.324   0.901   6.308 -0.0294  0.9368  1.8412
 1448SOL     OW15802   1.265   1.087   2.774 -0.6825  0.6053  0.0599
 1448SOL    HW115803   1.239   1.178   2.792 -0.9521  0.0260  2.6985
 1448SOL    HW215804   1.278   1.046   2.860 -0.1392  1.4213  0.3624
 1449SOL     OW15805   4.168   2.805  11.833 -0.0340  0.0125  0.4993
 1449SOL    HW115806   4.113   2.763  11.767 -0.9840  0.7095  0.8585
 1449SOL    HW215807   4.127   2.889  11.849  1.8243  1.0293 -0.1149
 1450SOL     OW15808   4.228   2.578   6.213  0.2665  0.2767 -0.0651
 1450SOL    HW115809   4.296   2.609   6.153  1.4674 -0.9856  0.6317
 1450SOL    HW215810   4.236   2.484   6.194  0.7009  0.5713 -1.3197
 1451SOL     OW15811   1.520   2.299  12.449 -0.3037  0.3087 -0.5477
 1451SOL    HW115812   1.562   2.225  12.492 -0.5839  0.5056  0.0634
 1451SOL    HW215813   1.591   2.363  12.437  0.8000 -0.5574  1.4880
 1452SOL     OW15814   1.140   2.259   5.078 -0.4478 -0.0802 -0.1974
 1452SOL    HW115815   1.088   2.252   4.999  3.3115 -1.3888 -2.5569
 1452SOL    HW215816   1.080   2.304   5.137 -0.3472  2.4626 -2.0593
 1453SOL     OW15817   4.049   3.295  11.902  0.2188  0.0232 -0.6904
 1453SOL    HW115818   4.071   3.303  11.809  0.9384  2.3571 -0.3275
 1453SOL    HW215819   3.987   3.365  11.922 -0.7821 -0.8836 -0.6530
 1454SOL     OW15820   2.460   3.265  14.977  0.5573  0.6313 -0.3434
 1454SOL    HW115821   2.437   3.214  14.898  0.6792  0.3615 -0.2054
 1454SOL    HW215822   2.520   3.331  14.942  1.2006 -0.3846 -1.1878
 1455SOL     OW15823   2.776   1.067  10.503 -0.2334 -0.0436  0.0378
 1455SOL    HW115824   2.852   1.043  10.557  0.4815  1.1264 -0.4495
 1455SOL    HW215825   2.760   1.160  10.517 -0.4590  0.2108 -1.9889
 1456SOL     OW15826   2.256   2.201   3.278  0.1567 -0.0506  0.2770
 1456SOL    HW115827   2.304   2.200   3.195 -1.6857 -0.2724 -0.7715
 1456SOL    HW215828   2.323   2.251   3.326 -1.2491  0.9496  1.2115
 1457SOL     OW15829   1.398   1.394   6.133 -0.1660  0.7162 -0.3705
 1457SOL    HW115830   1.493   1.386   6.140 -0.3345  0.5459  1.8560
 1457SOL    HW215831   1.371   1.309   6.098  2.5963 -0.9955  1.7267
 1458SOL     OW15832   0.726   4.537   5.137 -0.8569 -0.1606 -0.2097
 1458SOL    HW115833   0.721   4.450   5.176 -2.0480 -0.5308 -1.1987
 1458SOL    HW215834   0.809   4.569   5.173 -0.1965 -4.5758  2.1799
 1459SOL     OW15835   2.132   0.575  14.314  0.0954  0.6907 -0.4670
 1459SOL    HW115836   2.085   0.515  14.256 -0.9845  0.0155  1.1178
 1459SOL    HW215837   2.199   0.515  14.347 -1.8275  0.1664  2.5348
 1460SOL     OW15838   4.048   0.259   1.983  1.0838 -0.8984 -0.3325
 1460SOL    HW115839   3.997   0.259   1.902  0.7504  1.5745 -0.1175
 1460SOL    HW215840   3.979   0.252   2.048  2.3592  0.2746  1.1342
 1461SOL     OW15841   0.521   2.614  11.300 -0.2346  0.3674  0.2856
 1461SOL    HW115842   0.493   2.620  11.392  0.7417 -0.8459  0.6699
 1461SOL    HW215843   0.444   2.563  11.275  0.2158 -0.8412  1.3042
 1462SOL     OW15844   0.269   4.010   7.856 -0.3977  0.2535 -0.6494
 1462SOL    HW115845   0.334   4.061   7.904 -1.5709  0.6286  0.5538
 1462SOL    HW215846   0.198   4.004   7.920 -1.4169  0.1929 -1.7834
 1463SOL     OW15847   0.123   1.637  14.553  0.3254  0.6946  0.1171
 1463SOL    HW115848   0.071   1.561  14.526  1.0479  0.3419 -0.2796
 1463SOL    HW215849   0.107   1.641  14.648  1.4515 -0.5377  0.3528
 1464SOL     OW15850   2.841   2.838   7.825  0.6388 -0.6192 -0.8028
 1464SOL    HW115851   2.767   2.800   7.777 -0.4836 -0.1844  0.5882
 1464SOL    HW215852   2.912   2.822   7.763  2.2442 -1.0394  1.1659
 1465SOL     OW15853   1.967   3.383   7.665  0.1537  0.3434  0.1040
 1465SOL    HW115854   1.923   3.299   7.673 -0.3692  0.3571 -2.5774
 1465SOL    HW215855   1.997   3.393   7.755  0.5364 -0.2203  0.0398
 1466SOL     OW15856   0.516   4.447   7.836 -0.2944  0.8505  0.1988
 1466SOL    HW115857   0.427   4.429   7.804 -0.0954  0.9427 -0.4021
 1466SOL    HW215858   0.495   4.499   7.914  0.4098  1.4922 -0.0447
 1467SOL     OW15859   4.692   2.115   2.401 -0.7904  0.2960  0.1936
 1467SOL    HW115860   4.634   2.169   2.347  3.5296  0.9020 -3.7874
 1467SOL    HW215861   0.007   2.054   2.339 -0.3657  2.3782 -1.5521
 1468SOL     OW15862   0.340   1.496  13.134 -0.4104  0.2240  0.3881
 1468SOL    HW115863   0.349   1.452  13.219 -0.3209 -0.7531 -0.1180
 1468SOL    HW215864   0.372   1.416  13.092 -0.1400  0.2182  0.6038
 1469SOL     OW15865   3.551   3.740  15.700 -0.5644  0.1066  0.1791
 1469SOL    HW115866   3.563   3.796  15.776 -3.7804  1.6347 -0.4320
 1469SOL    HW215867   3.543   3.806  15.632 -0.2353  0.4442  0.4732
 1470SOL     OW15868   3.018   1.767   2.643 -0.5860 -0.6376 -1.2876
 1470SOL    HW115869   3.000   1.728   2.729  1.3992 -1.1657 -1.1137
 1470SOL    HW215870   2.933   1.779   2.602 -0.3282  0.8395 -1.3978
 1471SOL     OW15871   0.267   3.881  11.286  0.0852 -0.6777  0.6418
 1471SOL    HW115872   0.321   3.859  11.210 -0.1151 -1.1090  0.6235
 1471SOL    HW215873   0.180   3.850  11.260 -0.2441 -0.2323  1.2070
 1472SOL     OW15874   0.102   4.698   1.879 -0.3965 -0.2869  0.0002
 1472SOL    HW115875   0.193   0.000   1.862 -1.0111  1.2735 -0.7684
 1472SOL    HW215876   0.079   4.622   1.826  0.0084 -0.9274  0.7487
 1473SOL     OW15877   3.076   3.129   4.455  0.0922 -0.6082  0.4787
 1473SOL    HW115878   3.124   3.204   4.490  1.2969 -0.0342 -2.4112
 1473SOL    HW215879   2.991   3.174   4.453  1.6765  2.3933  0.7440
 1474SOL     OW15880   2.186   2.414   1.698 -0.4704 -0.0916 -0.6786
 1474SOL    HW115881   2.280   2.398   1.693 -0.2329  0.9528  0.5200
 1474SOL    HW215882   2.161   2.322   1.703  2.8117 -0.9079  0.4373
 1475SOL     OW15883   1.955   0.137   2.355 -0.0236  0.4638 -0.8392
 1475SOL    HW115884   1.943   0.190   2.276  2.1275  2.9358  0.5024
 1475SOL    HW215885   2.028   0.173   2.405 -0.4292  0.3152 -0.1387
 1476SOL     OW15886   4.019   1.658  11.428 -0.3802 -0.4200 -0.1160
 1476SOL    HW115887   3.927   1.676  11.409 -0.6084 -2.7862 -1.3185
 1476SOL    HW215888   4.011   1.601  11.505  0.6133 -0.2865  0.0749
 1477SOL     OW15889   3.912   2.972   3.220  0.9003  0.4546 -0.8571
 1477SOL    HW115890   3.832   3.018   3.245  1.2330  0.3377  0.4258
 1477SOL    HW215891   3.901   2.896   3.278 -0.2500  1.1383 -0.1803
 1478SOL     OW15892   1.557   0.093   3.272 -0.1105 -0.2958  0.2141
 1478SOL    HW115893   1.601   0.092   3.357  1.2438  1.4611 -0.4524
 1478SOL    HW215894   1.478   0.045   3.297  1.4101 -2.4809  0.7623
 1479SOL     OW15895   0.446   1.222  11.625 -0.1512  0.0826  0.1337
 1479SOL    HW115896   0.524   1.239  11.572 -1.5708  0.2752 -1.8826
 1479SOL    HW215897   0.443   1.126  11.632 -0.0442  0.1020  0.4427
 1480SOL     OW15898   1.347   1.447   4.476 -0.1034  0.1047  0.0671
 1480SOL    HW115899   1.290   1.371   4.466 -1.2286  1.1993 -1.7974
 1480SOL    HW215900   1.428   1.401   4.500 -1.3434 -1.8658  0.4216
 1481SOL     OW15901   0.140   0.115  11.826  0.3139 -0.1680  0.1559
 1481SOL    HW115902   0.062   0.096  11.773  1.1977 -1.5677 -0.6479
 1481SOL    HW215903   0.095   0.162  11.895  0.2053 -0.6286  0.4032
 1482SOL     OW15904   2.285   0.275  16.834  0.6323  0.7244  0.1532
 1482SOL    HW115905   2.369   0.231  16.821 -0.4202 -0.9315 -1.1040
 1482SOL    HW215906   2.265   0.229  16.915  4.1875  1.4602  1.4331
 1483SOL     OW15907   3.922   1.694   7.001 -0.3675  0.2066 -0.2455
 1483SOL    HW115908   3.894   1.696   7.093  0.6543 -2.5271  0.1191
 1483SOL    HW215909   3.845   1.725   6.953 -0.9981  1.2785  1.4183
 1484SOL     OW15910   1.891   4.003   2.577 -0.1436  0.4652  0.4191
 1484SOL    HW115911   1.878   3.909   2.588  1.3483 -0.0230 -2.0261
 1484SOL    HW215912   1.845   4.026   2.497 -0.4204  1.5019  0.8742
 1485SOL     OW15913   1.879   1.866   2.969 -0.5175 -0.1105  0.1392
 1485SOL    HW115914   1.957   1.912   2.938 -0.4535 -0.2786  0.0528
 1485SOL    HW215915   1.896   1.778   2.936 -1.5677  0.7201 -2.5754
 1486SOL     OW15916   2.292   1.989   0.392  0.1289 -0.0379 -0.0191
 1486SOL    HW115917   2.225   2.045   0.354 -0.1288 -1.6217 -1.8816
 1486SOL    HW215918   2.229   1.922   0.419  1.4367 -0.9798  0.7007
 1487SOL     OW15919   2.634   1.393  13.724  0.2773  0.1231 -0.1001
 1487SOL    HW115920   2.612   1.482  13.697 -0.1187 -0.4646 -1.7118
 1487SOL    HW215921   2.729   1.403  13.719  0.1441  0.2182 -2.2495
 1488SOL     OW15922   3.854   2.936   5.720  0.1882 -0.0139 -0.0437
 1488SOL    HW115923   3.949   2.948   5.728  0.0920  2.1228 -2.0599
 1488SOL    HW215924   3.825   3.013   5.671  4.3098  0.6198 -1.5092
 1489SOL     OW15925   3.690   1.909   5.095  0.0978 -0.4134 -0.0777
 1489SOL    HW115926   3.729   1.842   5.151  0.6176  1.9055  2.3274
 1489SOL    HW215927   3.603   1.913   5.134  0.0495 -1.2243 -0.1090
 1490SOL     OW15928   1.170   2.329   7.267  0.6345  0.0278  0.3862
 1490SOL    HW115929   1.234   2.400   7.260  0.6645 -0.0528 -0.1430
 1490SOL    HW215930   1.220   2.270   7.211 -0.7210 -0.6911 -0.0678
 1491SOL     OW15931   0.354   0.081   7.836 -0.4877 -0.6446 -0.8395
 1491SOL    HW115932   0.352   0.008   7.898 -1.8761  3.3419  3.8709
 1491SOL    HW215933   0.426   0.133   7.873  0.8743 -1.6156 -2.1375
 1492SOL     OW15934   3.495   3.131   0.693 -0.5997 -0.5790 -0.8351
 1492SOL    HW115935   3.581   3.125   0.651  0.7898 -0.7016  2.0464
 1492SOL    HW215936   3.451   3.054   0.657  0.2143 -2.5447  2.3799
 1493SOL     OW15937   4.692   4.288   6.009 -0.2166 -0.0037 -0.1877
 1493SOL    HW115938   4.643   4.368   6.028  1.0803  0.6896  0.2536
 1493SOL    HW215939   4.720   4.315   5.921  1.1742  0.0880  0.2740
 1494SOL     OW15940   3.063   3.509  16.820  0.2025  0.5029  0.0446
 1494SOL    HW115941   3.100   3.423  16.842 -1.3674 -0.2316 -0.2313
 1494SOL    HW215942   3.031   3.508  16.730  4.0374 -1.1059 -1.3075
 1495SOL     OW15943   3.487   2.740   9.807  0.2873 -0.3882 -0.3337
 1495SOL    HW115944   3.450   2.661   9.848 -1.9496 -0.5615 -2.6499
 1495SOL    HW215945   3.419   2.806   9.816 -0.6173 -1.5430  1.4528
 1496SOL     OW15946   2.950   2.197  17.373 -0.2923 -0.3689  0.5509
 1496SOL    HW115947   2.865   2.190  17.417 -0.7722  1.4861 -0.0763
 1496SOL    HW215948   2.925   2.265  17.310 -0.5060  0.5359  1.5998
 1497SOL     OW15949   0.605   0.746   6.147  0.3440  0.2907  0.4164
 1497SOL    HW115950   0.689   0.792   6.149  0.0765  0.7732  0.6343
 1497SOL    HW215951   0.544   0.817   6.130  0.7989  0.6623  0.3298
 1498SOL     OW15952   3.932   0.799   1.914 -0.4341  0.5257 -0.6552
 1498SOL    HW115953   4.019   0.774   1.882  0.1947  1.7683  0.0464
 1498SOL    HW215954   3.929   0.893   1.894  1.0903  0.8686  0.6957
 1499SOL     OW15955   3.762   0.364   3.116 -0.4072  0.1334 -0.4590
 1499SOL    HW115956   3.795   0.277   3.137  0.8146  0.9681  1.0498
 1499SOL    HW215957   3.840   0.419   3.124 -1.2408  1.1011  1.1922
 1500SOL     OW15958   3.301   2.221  17.174  0.0964 -0.0470 -0.2030
 1500SOL    HW115959   3.209   2.195  17.175  0.5912 -1.7652  1.2161
 1500SOL    HW215960   3.302   2.299  17.119  0.7270  0.7312  0.9128
 1501SOL     OW15961   3.085   0.273  15.536  0.5564 -0.1071 -0.5413
 1501SOL    HW115962   3.090   0.221  15.616  1.1844  1.6071  0.5374
 1501SOL    HW215963   3.154   0.235  15.481  1.8034 -0.2547  1.1550
 1502SOL     OW15964   2.790   4.716   5.658  0.3016 -0.0261  0.1781
 1502SOL    HW115965   2.868   4.670   5.690  0.7713  0.1238 -0.7319
 1502SOL    HW215966   2.846   0.052   5.609  1.7430  0.0479  1.9265
 1503SOL     OW15967   1.401   3.931  16.718 -0.4624  0.5878 -0.3637
 1503SOL    HW115968   1.457   3.884  16.781 -1.4599 -0.3627 -0.1818
 1503SOL    HW215969   1.471   3.974  16.669  0.3552  0.2174  0.4843
 1504SOL     OW15970   0.059   3.915  10.810  0.3437  0.1303  0.2288
 1504SOL    HW115971   4.720   3.983  10.829 -0.5925 -0.7925  0.3957
 1504SOL    HW215972   4.722   3.850  10.776 -0.5160  1.1804 -0.2111
 1505SOL     OW15973   1.102   4.156   6.499 -0.3924  0.0232 -0.1808
 1505SOL    HW115974   1.022   4.208   6.496 -0.4214  0.0222  0.6479
 1505SOL    HW215975   1.103   4.121   6.588 -0.9438  0.1486 -0.1251
 1506SOL     OW15976   2.710   1.063   5.752  0.3763  0.1449  0.0667
 1506SOL    HW115977   2.650   1.117   5.701  0.0922  0.1314  0.3873
 1506SOL    HW215978   2.666   0.983   5.782 -0.9871 -0.2405 -2.9190
 1507SOL     OW15979   1.592   3.628  13.747 -0.2857 -0.3137  0.0819
 1507SOL    HW115980   1.573   3.677  13.667  3.5719 -0.6969 -1.0672
 1507SOL    HW215981   1.632   3.548  13.714  0.1484  0.2545 -0.7809
 1508SOL     OW15982   1.765   0.070  11.161  0.4113 -0.3313  0.2819
 1508SOL    HW115983   1.804   0.127  11.095  1.3247 -0.3448  0.8112
 1508SOL    HW215984   1.820   4.716  11.158  1.4605  0.4301 -0.5134
 1509SOL     OW15985   1.661   1.495   6.393  0.3449 -0.2548 -0.2008
 1509SOL    HW115986   1.737   1.539   6.432 -0.7097  1.2497  0.1710
 1509SOL    HW215987   1.707   1.463   6.315  0.2879 -1.1245  0.1258
 1510SOL     OW15988   4.509   4.281  11.729 -0.4212 -0.2158 -0.5869
 1510SOL    HW115989   4.544   4.293  11.817  2.5667 -0.4942 -1.7628
 1510SOL    HW215990   4.470   4.194  11.728  1.5929 -1.1108 -0.7429
 1511SOL     OW15991   3.817   3.316   1.861 -0.7972 -0.7434 -0.6756
 1511SOL    HW115992   3.762   3.322   1.783  0.9774 -0.5635 -1.9062
 1511SOL    HW215993   3.864   3.398   1.850  1.0937 -1.7968 -0.3666
 1512SOL     OW15994   1.979   3.301  12.957 -0.0260 -0.0617  0.0714
 1512SOL    HW115995   1.935   3.278  13.039  1.0510 -3.2559 -0.2394
 1512SOL    HW215996   1.910   3.297  12.890 -0.2958 -1.2580  0.4321
 1513SOL     OW15997   0.205   4.082   4.267 -0.0821  0.0210  0.2980
 1513SOL    HW115998   0.265   4.106   4.197 -0.0400  0.2588  0.4182
 1513SOL    HW215999   0.127   4.134   4.250 -0.3318  0.4264  2.6087
 1514SOL     OW16000   1.225   1.429   7.302  0.2549  0.3287  0.3597
 1514SOL    HW116001   1.305   1.479   7.320  0.6833 -0.2512  0.0780
 1514SOL    HW216002   1.233   1.359   7.367  0.1829  0.1222  0.1450
 1515SOL     OW16003   0.792   2.475   4.511 -0.1261 -0.1063 -0.4682
 1515SOL    HW116004   0.735   2.552   4.506 -0.2419 -0.2795 -1.7026
 1515SOL    HW216005   0.868   2.511   4.466 -1.6690  1.3287 -1.8776
 1516SOL     OW16006   2.666   0.478  10.747 -0.0366  0.0951 -0.3585
 1516SOL    HW116007   2.672   0.468  10.842 -1.1159 -0.2762 -0.3241
 1516SOL    HW216008   2.731   0.547  10.731 -1.0424  0.8836 -1.0930
 1517SOL     OW16009   0.581   2.469   8.351 -0.3295  0.0333  0.3275
 1517SOL    HW116010   0.560   2.494   8.441 -2.8966 -1.0146  0.0040
 1517SOL    HW216011   0.634   2.544   8.323  0.4958 -0.9520 -0.7746
 1518SOL     OW16012   3.159   0.105   6.136 -0.0092  0.4741 -0.1944
 1518SOL    HW116013   3.254   0.109   6.142  0.0055  0.2858 -0.3194
 1518SOL    HW216014   3.149   0.176   6.072  1.1218  1.8404  1.1487
 1519SOL     OW16015   3.046   4.353   0.152 -0.2130  0.6588  0.0862
 1519SOL    HW116016   3.095   4.295   0.094 -1.1328  0.2021 -0.2383
 1519SOL    HW216017   2.959   4.341   0.115  0.5482 -1.3260 -1.0347
 1520SOL     OW16018   4.705   3.227  10.378  0.6664  0.0148 -0.1451
 1520SOL    HW116019   4.720   3.237  10.284  0.1832 -1.4509 -0.3726
 1520SOL    HW216020   4.698   3.321  10.396 -2.9265 -0.6275  1.7064
 1521SOL     OW16021   2.175   4.472  14.868 -0.2940 -0.7430 -0.1498
 1521SOL    HW116022   2.222   4.481  14.951 -2.1843 -1.1469  0.9610
 1521SOL    HW216023   2.113   4.408  14.904 -2.3102  0.9610 -0.5801
 1522SOL     OW16024   1.835   2.652  11.756 -0.3735 -0.1514 -0.1040
 1522SOL    HW116025   1.873   2.600  11.827  1.6055  0.3508 -0.7750
 1522SOL    HW216026   1.804   2.730  11.801  0.2112  0.8518 -1.4131
 1523SOL     OW16027   0.335   0.777   1.063 -0.9455 -0.3398  0.1786
 1523SOL    HW116028   0.390   0.802   0.988  1.9141  0.1627  2.4603
 1523SOL    HW216029   0.252   0.822   1.048 -1.0973 -0.6416  0.1203
 1524SOL     OW16030   3.733   0.202  11.662  0.1408 -0.3712 -0.6532
 1524SOL    HW116031   3.737   0.127  11.604  0.9173 -0.2621 -0.7482
 1524SOL    HW216032   3.721   0.156  11.745  2.1555  1.2075  0.5336
 1525SOL     OW16033   0.795   3.318   1.993  0.9902  0.2732 -0.3660
 1525SOL    HW116034   0.757   3.398   2.028  1.8827  0.3137  0.5187
 1525SOL    HW216035   0.884   3.342   2.020  0.8796  2.1585 -1.7054
 1526SOL     OW16036   2.213   0.880   6.675  0.8636 -0.3177  0.1004
 1526SOL    HW116037   2.245   0.791   6.687 -1.0410 -0.9901  0.1271
 1526SOL    HW216038   2.126   0.874   6.716 -0.0402  0.5115 -1.7253
 1527SOL     OW16039   3.552   3.885   7.130 -0.1689  0.1844 -0.3201
 1527SOL    HW116040   3.613   3.849   7.194 -1.3171 -1.3507 -0.0902
 1527SOL    HW216041   3.522   3.966   7.172 -0.8216  0.3226 -1.0410
 1528SOL     OW16042   4.670   0.447   6.008 -0.4175 -0.6027  0.2898
 1528SOL    HW116043   4.591   0.482   5.966  0.9148  0.7766 -1.0746
 1528SOL    HW216044   4.622   0.404   6.079  0.1471 -1.0116  0.4153
 1529SOL     OW16045   0.932   2.866   3.656  0.2401  0.1286  0.1710
 1529SOL    HW116046   0.880   2.874   3.576  0.7847 -0.5747 -0.2509
 1529SOL    HW216047   0.980   2.786   3.637  0.7609  0.2821  0.8201
 1530SOL     OW16048   0.240   4.118   3.758  0.1983  0.1856  0.2215
 1530SOL    HW116049   0.282   4.095   3.675 -0.7174 -2.9485  0.6199
 1530SOL    HW216050   0.226   4.026   3.779 -0.0019  0.2407  0.3265
 1531SOL     OW16051   2.208   2.296   9.756 -0.3110  0.0536 -0.5272
 1531SOL    HW116052   2.286   2.242   9.749 -1.0790 -0.9124 -1.6446
 1531SOL    HW216053   2.196   2.342   9.672 -0.4273  1.3561  0.1982
 1532SOL     OW16054   2.053   3.417   7.922  0.0534  0.1124  0.1876
 1532SOL    HW116055   2.102   3.497   7.902  1.0786 -0.8472 -1.1210
 1532SOL    HW216056   2.094   3.388   8.003  0.7095  2.2119  0.6159
 1533SOL     OW16057   0.418   1.269  15.665  0.0831 -0.5257  0.5653
 1533SOL    HW116058   0.346   1.319  15.703  1.9874  1.6470  1.3217
 1533SOL    HW216059   0.434   1.204  15.733 -1.5559 -0.8339  0.6464
 1534SOL     OW16060   2.687   0.437   8.852 -0.0826 -0.1839  0.0360
 1534SOL    HW116061   2.598   0.466   8.830 -0.1653  0.3047  1.0254
 1534SOL    HW216062   2.671   0.413   8.943 -0.8205 -0.8977 -0.2846
 1535SOL     OW16063   4.276   4.320   1.931  0.1740 -0.2138 -0.4082
 1535SOL    HW116064   4.199   4.271   1.960  1.1855 -0.3790  1.9575
 1535SOL    HW216065   4.233   4.378   1.868  1.1138  0.7606 -0.1513
 1536SOL     OW16066   1.299   2.754   3.109 -0.4300  0.5413  0.2509
 1536SOL    HW116067   1.333   2.713   3.029  1.3618  0.3273  1.1401
 1536SOL    HW216068   1.346   2.837   3.115 -1.9527  1.6058 -2.3313
 1537SOL     OW16069   0.997   3.281   4.641  0.3256 -0.0942 -0.0057
 1537SOL    HW116070   0.942   3.213   4.603  2.0944 -1.2081 -0.5850
 1537SOL    HW216071   1.067   3.280   4.575  1.4776 -0.6722  1.2184
 1538SOL     OW16072   1.921   0.408   1.694  0.3817 -0.7393  0.7234
 1538SOL    HW116073   1.889   0.383   1.607 -1.7623  3.1106  0.4287
 1538SOL    HW216074   1.864   0.359   1.754  0.8633 -0.2887  1.5439
 1539SOL     OW16075   3.442   0.800  13.802  0.2061  0.0476  0.5850
 1539SOL    HW116076   3.449   0.877  13.745  0.6687  0.9283  1.8304
 1539SOL    HW216077   3.465   0.723  13.751 -2.0543  0.8908 -1.7299
 1540SOL     OW16078   3.566   2.180   6.509 -0.4463  0.1376  0.0728
 1540SOL    HW116079   3.652   2.208   6.539 -0.6923  3.6440 -2.5416
 1540SOL    HW216080   3.566   2.166   6.415 -0.4084 -2.3569  0.4393
 1541SOL     OW16081   3.481   2.530   3.830 -0.3460 -0.0767 -0.2480
 1541SOL    HW116082   3.554   2.589   3.811 -1.7303  1.0182 -2.1826
 1541SOL    HW216083   3.531   2.449   3.830  0.7507  0.5911 -0.8603
 1542SOL     OW16084   0.073   4.636   6.031  0.3537  0.4325  0.4676
 1542SOL    HW116085   0.150   4.633   5.976  0.4478  0.4856  0.5966
 1542SOL    HW216086   0.107   4.595   6.111  1.4356  1.6852  0.6296
 1543SOL     OW16087   2.456   0.272   8.615  0.3649  0.4764 -0.0850
 1543SOL    HW116088   2.473   0.321   8.695 -0.8420  0.3203  0.2589
 1543SOL    HW216089   2.457   0.345   8.554 -1.1873 -2.1564 -3.2768
 1544SOL     OW16090   2.630   2.021   4.718 -1.0657  0.3857 -0.4281
 1544SOL    HW116091   2.685   2.007   4.796 -2.4808  0.0986  0.5165
 1544SOL    HW216092   2.598   2.111   4.726  2.6010  1.4117  2.5877
 1545SOL     OW16093   3.899   0.671   2.807 -0.1664 -0.2828 -1.1208
 1545SOL    HW116094   3.964   0.601   2.817 -0.6207 -0.4222  0.7390
 1545SOL    HW216095   3.882   0.655   2.714 -2.2256  0.2930 -0.8475
 1546SOL     OW16096   3.805   0.399  10.758  0.0803  0.1429  0.2239
 1546SOL    HW116097   3.865   0.469  10.782  0.1377  0.1488  0.0657
 1546SOL    HW216098   3.828   0.340  10.829  0.3977  0.4703  0.3891
 1547SOL     OW16099   3.565   2.185   3.608  0.1856 -0.3031 -0.9134
 1547SOL    HW116100   3.637   2.182   3.545 -0.3080 -2.1187 -1.4173
 1547SOL    HW216101   3.603   2.221   3.687  0.2245 -2.4979  0.0868
 1548SOL     OW16102   2.283   0.090   0.495  0.0332 -0.2657 -0.4121
 1548SOL    HW116103   2.249   0.004   0.519  1.1725 -1.0877 -1.7795
 1548SOL    HW216104   2.375   0.073   0.513 -0.6228 -1.4557  1.8788
 1549SOL     OW16105   2.357   2.245   7.352  0.0562 -0.0102 -0.1076
 1549SOL    HW116106   2.332   2.260   7.444  0.7800  0.3789  0.0254
 1549SOL    HW216107   2.453   2.244   7.357  0.0427 -1.1161 -0.0956
 1550SOL     OW16108   0.383   0.126   7.569  0.6827  0.1857  0.0979
 1550SOL    HW116109   0.348   0.103   7.655  1.0947 -0.4451  0.0968
 1550SOL    HW216110   0.405   0.039   7.537  0.2178 -0.1134  0.5885
 1551SOL     OW16111   1.300   0.964  13.713  0.7893 -0.1489  0.0894
 1551SOL    HW116112   1.210   0.952  13.682  1.1773  0.1627 -1.1542
 1551SOL    HW216113   1.334   1.027  13.650 -0.7965  0.6320  0.0164
 1552SOL     OW16114   2.767   0.109  11.228  0.1898  0.4431 -0.3836
 1552SOL    HW116115   2.749   0.016  11.241 -0.2635  0.9191  2.4309
 1552SOL    HW216116   2.854   0.103  11.189 -0.3668 -2.4656 -1.1322
 1553SOL     OW16117   0.488   1.872  12.989  0.0270  0.0288 -0.2460
 1553SOL    HW116118   0.436   1.794  12.967  0.1337 -0.4687  1.3100
 1553SOL    HW216119   0.435   1.944  12.954  1.5984  1.2268 -0.1374
 1554SOL     OW16120   1.570   2.917   7.520 -0.0388  0.1487 -0.8204
 1554SOL    HW116121   1.569   2.853   7.591 -1.5188  1.1186  0.0294
 1554SOL    HW216122   1.491   2.907   7.467  0.6905 -1.3867 -1.5989
 1555SOL     OW16123   3.689   3.036  12.191  0.2451 -0.1294 -0.4704
 1555SOL    HW116124   3.715   2.959  12.140  1.4467  0.6319 -1.0099
 1555SOL    HW216125   3.703   3.008  12.282 -2.5200  0.6225  0.1811
 1556SOL     OW16126   2.936   4.081   7.450  0.0093  0.0428 -0.1067
 1556SOL    HW116127   2.939   4.001   7.501  1.6401 -0.7162 -1.3900
 1556SOL    HW216128   2.844   4.097   7.472 -0.1824 -1.7848  0.3992
 1557SOL     OW16129   1.071   4.010   0.333  0.0474 -0.1790  0.5199
 1557SOL    HW116130   1.074   3.949   0.259 -0.4444 -1.5887  1.6595
 1557SOL    HW216131   1.046   4.091   0.289 -2.0602 -0.8427  0.4556
 1558SOL     OW16132   4.408   1.226   3.010 -0.0458 -0.1942  0.0068
 1558SOL    HW116133   4.469   1.268   3.071  0.1905  1.7856 -1.5966
 1558SOL    HW216134   4.462   1.214   2.931  0.3566 -0.5378  0.3333
 1559SOL     OW16135   2.346   0.467   6.685 -0.4487  0.6144 -0.0631
 1559SOL    HW116136   2.389   0.382   6.695 -1.1411  0.3717  0.8969
 1559SOL    HW216137   2.392   0.518   6.752  0.8236  1.6102 -1.7198
 1560SOL     OW16138   0.086   4.242   7.672  0.2384  0.2054 -0.1749
 1560SOL    HW116139   0.067   4.301   7.745 -0.6886  0.9206 -0.9844
 1560SOL    HW216140   0.086   4.154   7.710  0.0813 -0.7330 -2.3657
 1561SOL     OW16141   2.701   0.715   2.392  0.2719 -0.3414  0.4104
 1561SOL    HW116142   2.665   0.634   2.427 -0.1599 -0.6669 -0.8364
 1561SOL    HW216143   2.621   0.763   2.373  0.2627  0.7228  3.0326
 1562SOL     OW16144   1.054   0.439   4.226  0.0424 -0.4746 -0.0003
 1562SOL    HW116145   0.968   0.454   4.265  0.2388 -4.1342  1.8486
 1562SOL    HW216146   1.027   0.375   4.161  3.0321 -1.7660  0.0325
 1563SOL     OW16147   0.887   1.938  10.374 -0.0446 -0.0450 -0.2210
 1563SOL    HW116148   0.899   1.956  10.280  0.4751  0.0279 -0.1408
 1563SOL    HW216149   0.975   1.919  10.406 -0.3198 -0.5079  0.2614
 1564SOL     OW16150   2.134   2.655   6.792  0.4013 -0.3877 -0.0384
 1564SOL    HW116151   2.041   2.640   6.778  0.7945 -1.0874 -1.8781
 1564SOL    HW216152   2.147   2.712   6.717  2.4278 -1.8139 -0.7866
 1565SOL     OW16153   3.209   0.625  10.172  0.1741 -0.1066  0.0173
 1565SOL    HW116154   3.131   0.601  10.122 -1.3177  2.2863  1.2472
 1565SOL    HW216155   3.200   0.573  10.252  2.2326  1.3162  1.1726
 1566SOL     OW16156   3.599   4.482   1.746 -0.4523  0.0566  0.5930
 1566SOL    HW116157   3.653   4.560   1.758  0.0542 -0.1684 -0.1925
 1566SOL    HW216158   3.663   4.412   1.755  1.0753  1.5371  1.2350
 1567SOL     OW16159   1.345   2.691  10.172 -0.1798  0.2770  0.0310
 1567SOL    HW116160   1.438   2.704  10.157 -0.5587  2.8238 -0.1502
 1567SOL    HW216161   1.340   2.596  10.187  0.0527  0.6761  2.6691
 1568SOL     OW16162   0.020   3.744   2.827 -0.5375  0.0812 -0.5124
 1568SOL    HW116163   0.032   3.717   2.736 -3.0016 -1.7281 -0.3293
 1568SOL    HW216164   0.035   3.662   2.874 -2.9742  0.1484  0.3789
 1569SOL     OW16165   2.582   4.649   2.207 -0.1264 -0.2823  0.3647
 1569SOL    HW116166   2.595   4.641   2.302 -2.8927 -0.1571  0.7566
 1569SOL    HW216167   2.581   0.019   2.195 -3.5801  0.1413  3.9173
 1570SOL     OW16168   2.634   4.031   2.317 -0.9748  0.0663 -0.0375
 1570SOL    HW116169   2.708   4.044   2.257 -2.3385  1.8497 -1.3502
 1570SOL    HW216170   2.568   3.999   2.255 -0.9531 -2.6691  1.3710
 1571SOL     OW16171   1.032   3.313   3.326  0.3220  0.1457 -0.0205
 1571SOL    HW116172   0.946   3.273   3.341  0.5115 -0.0322  0.6051
 1571SOL    HW216173   1.085   3.284   3.400 -0.9893 -0.3622  0.7203
 1572SOL     OW16174   4.450   1.089   6.593  0.5935 -0.5090 -0.6813
 1572SOL    HW116175   4.493   1.004   6.603 -1.2883 -1.6575 -2.4872
 1572SOL    HW216176   4.410   1.097   6.680  1.4830 -0.5226 -0.2658
 1573SOL     OW16177   0.712   2.890   1.253  0.4431 -0.1652  0.3657
 1573SOL    HW116178   0.709   2.904   1.159 -1.9375  0.1984  0.4861
 1573SOL    HW216179   0.799   2.852   1.254  1.0110  1.1410  1.6183
 1574SOL     OW16180   4.200   1.903  14.827 -0.1883  0.0578  0.2031
 1574SOL    HW116181   4.121   1.953  14.807 -1.1034 -0.7050  1.8835
 1574SOL    HW216182   4.258   1.914  14.752 -1.9072  0.5403 -1.0725
 1575SOL     OW16183   0.435   0.428   7.925 -0.6489 -0.4306  0.3056
 1575SOL    HW116184   0.445   0.506   7.979 -1.1241 -1.2291  1.5531
 1575SOL    HW216185   0.394   0.374   7.993 -3.3711 -1.2681 -1.9899
 1576SOL     OW16186   0.113   0.916  11.164 -0.2877 -0.7195 -0.1470
 1576SOL    HW116187   0.097   0.965  11.083  0.2195 -0.9443 -0.3906
 1576SOL    HW216188   0.026   0.924  11.203 -0.2152 -0.1052 -0.1093
 1577SOL     OW16189   2.527   4.457  15.270  0.2907  0.0038  0.0618
 1577SOL    HW116190   2.574   4.443  15.352  2.6413 -1.2679 -1.4917
 1577SOL    HW216191   2.605   4.459  15.214  0.8639 -0.4356  0.8492
 1578SOL     OW16192   0.310   1.660   7.159 -0.0682 -0.5998 -0.3098
 1578SOL    HW116193   0.360   1.740   7.173 -2.1593  0.3986  1.2252
 1578SOL    HW216194   0.294   1.643   7.252 -0.3687 -0.0828 -0.2698
 1579SOL     OW16195   4.403   4.118   9.018 -0.0538 -0.0858 -0.0265
 1579SOL    HW116196   4.395   4.205   8.979  1.6362  0.6890  1.3601
 1579SOL    HW216197   4.312   4.104   9.042  1.0110 -1.0735  3.3344
 1580SOL     OW16198   2.125   0.724   9.093  0.3035 -0.6810 -1.1940
 1580SOL    HW116199   2.121   0.763   9.180  2.6700  2.5114 -2.4688
 1580SOL    HW216200   2.032   0.710   9.075 -0.1726  0.7844  0.1220
 1581SOL     OW16201   4.323   4.500   7.067 -0.7813 -0.0368  0.2064
 1581SOL    HW116202   4.324   4.446   7.146  0.6081 -1.0642 -0.4944
 1581SOL    HW216203   4.235   4.535   7.073 -0.9064 -0.2126 -0.5301
 1582SOL     OW16204   2.800   1.618   4.009  0.0878  0.0296 -0.6981
 1582SOL    HW116205   2.812   1.695   3.953 -1.6782  0.6165 -0.2907
 1582SOL    HW216206   2.883   1.571   4.016 -1.3752 -2.7731 -2.1691
 1583SOL     OW16207   0.931   4.694   4.368 -0.5502 -0.6545 -0.0478
 1583SOL    HW116208   0.858   4.716   4.310 -1.4578 -0.8004  1.0643
 1583SOL    HW216209   0.921   0.031   4.439 -0.7374 -0.2181 -0.4545
 1584SOL     OW16210   3.853   0.996  11.688  0.1346  0.6074 -0.8530
 1584SOL    HW116211   3.941   0.972  11.715  0.1786  0.7168 -0.8977
 1584SOL    HW216212   3.845   0.942  11.609  1.0250  2.3136 -2.1128
 1585SOL     OW16213   1.862   1.759   2.286 -0.8822 -0.1939  0.4363
 1585SOL    HW116214   1.924   1.807   2.230  2.1661 -3.6282  0.8755
 1585SOL    HW216215   1.778   1.772   2.242 -0.2802 -0.1610 -0.7114
 1586SOL     OW16216   1.605   2.256   3.682  0.4005 -0.4231  0.1505
 1586SOL    HW116217   1.654   2.211   3.613 -1.7963  0.0967 -1.7360
 1586SOL    HW216218   1.557   2.314   3.623  1.4028  0.6140  0.3283
 1587SOL     OW16219   4.157   4.497  14.746  0.3668  0.3712 -0.6460
 1587SOL    HW116220   4.163   4.565  14.680  1.0232 -0.6523 -1.6275
 1587SOL    HW216221   4.246   4.476  14.774 -0.7333 -2.7559  0.5356
 1588SOL     OW16222   0.786   0.582  16.177 -0.7712 -0.0088  0.5289
 1588SOL    HW116223   0.737   0.648  16.227  0.1532  0.6998  0.5097
 1588SOL    HW216224   0.721   0.540  16.122  1.1636 -0.6150 -1.3089
 1589SOL     OW16225   0.494   1.073   0.597 -0.0292  0.1816 -0.1999
 1589SOL    HW116226   0.420   1.017   0.620 -1.3551  0.8511 -2.8864
 1589SOL    HW216227   0.538   1.078   0.682  2.1138 -0.9389 -1.2453
 1590SOL     OW16228   0.122   1.955   2.211  0.0763 -0.1228 -0.1131
 1590SOL    HW116229   0.108   1.875   2.159 -0.6409  0.0085 -0.1202
 1590SOL    HW216230   0.141   2.020   2.143 -1.9008  1.6429  1.0113
 1591SOL     OW16231   4.488   3.244  15.194  0.1931  0.2091 -0.2092
 1591SOL    HW116232   4.508   3.215  15.105  0.3628 -1.6575  0.4354
 1591SOL    HW216233   4.576   3.248  15.230 -0.3912 -2.2822  1.4798
 1592SOL     OW16234   0.605   0.382   0.995  0.2461 -0.7124 -0.1252
 1592SOL    HW116235   0.598   0.295   0.955 -1.4834 -1.0236  0.8567
 1592SOL    HW216236   0.519   0.421   0.982  0.2659  0.1766  2.3941
 1593SOL     OW16237   4.379   3.373   0.585 -0.3369  0.2433  0.2771
 1593SOL    HW116238   4.424   3.392   0.667 -1.0454 -0.4363  0.8173
 1593SOL    HW216239   4.446   3.405   0.524  0.7646 -0.2129  1.2600
 1594SOL     OW16240   4.508   3.008   3.586 -0.6244  0.7235 -0.4306
 1594SOL    HW116241   4.455   3.087   3.577  0.9510  1.9762  1.4584
 1594SOL    HW216242   4.449   2.936   3.563 -0.9557  1.3067 -1.4383
 1595SOL     OW16243   0.383   0.032   1.887  0.1960 -0.0614 -0.0777
 1595SOL    HW116244   0.435   4.720   1.815  1.8313 -1.2377  1.7263
 1595SOL    HW216245   0.430   0.115   1.892 -1.2377  0.7479  0.1037
 1596SOL     OW16246   2.382   3.975   0.516 -0.4541  0.0455  0.4403
 1596SOL    HW116247   2.406   3.883   0.501  0.1671  0.2080  0.4422
 1596SOL    HW216248   2.438   4.002   0.589  0.8851 -3.1191  0.5665
 1597SOL     OW16249   4.593   2.680   3.460  0.0877  0.0279 -0.8427
 1597SOL    HW116250   4.615   2.693   3.368  0.2942  0.7725 -0.6853
 1597SOL    HW216251   4.668   2.623   3.475 -0.5057 -0.4177  0.4627
 1598SOL     OW16252   2.391   3.000   6.453 -0.0531  0.0377 -0.2306
 1598SOL    HW116253   2.470   3.039   6.415 -0.2755 -0.0214 -0.7530
 1598SOL    HW216254   2.383   2.921   6.401  0.6024  0.1716 -0.5361
 1599SOL     OW16255   3.959   1.836   4.128  0.2700  0.1005 -0.0605
 1599SOL    HW116256   3.983   1.898   4.059 -0.5639 -1.6530 -1.9143
 1599SOL    HW216257   3.984   1.747   4.103 -0.4522  0.1262 -0.8535
 1600SOL     OW16258   4.417   1.541   5.529 -0.4055  1.0439  0.4306
 1600SOL    HW116259   4.353   1.555   5.458 -1.1598 -2.0265  0.5069
 1600SOL    HW216260   4.407   1.621   5.581 -0.1738  0.9634  0.5953
 1601SOL     OW16261   2.225   0.569   4.939 -0.1291 -0.0808 -0.0916
 1601SOL    HW116262   2.180   0.503   4.886  1.6067  0.2052 -1.9159
 1601SOL    HW216263   2.195   0.543   5.026  2.5144 -0.8388  0.6147
 1602SOL     OW16264   4.480   3.110   3.239 -0.3508  0.4486 -0.0792
 1602SOL    HW116265   4.535   3.162   3.298  0.1037  0.6737 -0.6883
 1602SOL    HW216266   4.443   3.181   3.185  2.8938  2.9127  0.9045
 1603SOL     OW16267   0.035   1.798   6.796  0.3355 -0.3348  1.0231
 1603SOL    HW116268   4.669   1.829   6.796  0.3069 -0.4903 -3.1291
 1603SOL    HW216269   0.016   1.706   6.810  0.1138 -0.5386 -0.6025
 1604SOL     OW16270   0.986   3.149  10.818  0.7533 -0.1304 -0.3390
 1604SOL    HW116271   0.983   3.071  10.764  0.7729  0.5888 -1.3812
 1604SOL    HW216272   1.073   3.139  10.855  1.7775  0.0638 -2.7087
 1605SOL     OW16273   1.406   4.563  14.946 -0.3011  0.3056 -0.1214
 1605SOL    HW116274   1.350   4.640  14.949 -1.9909 -0.8881 -0.5962
 1605SOL    HW216275   1.337   4.497  14.936  0.6947 -0.6987 -0.4114
 1606SOL     OW16276   1.090   0.997   4.580  0.1534  0.3865 -0.1021
 1606SOL    HW116277   1.180   1.029   4.585  0.4084 -0.6922  2.3408
 1606SOL    HW216278   1.064   0.963   4.666 -3.0084  0.8211 -0.8689
 1607SOL     OW16279   2.828   3.415   1.283 -0.1829 -0.7641 -0.2830
 1607SOL    HW116280   2.831   3.508   1.305 -0.0102 -0.9528  0.4873
 1607SOL    HW216281   2.765   3.367   1.337  1.4812 -1.9198  0.6523
 1608SOL     OW16282   1.737   0.488   5.092 -0.2282  0.1400 -0.4016
 1608SOL    HW116283   1.805   0.539   5.135  0.8318 -0.5956 -1.2077
 1608SOL    HW216284   1.663   0.526   5.139  0.8662 -0.7103  2.0212
 1609SOL     OW16285   4.185   1.955  15.677  0.1297  0.1964  0.1011
 1609SOL    HW116286   4.232   2.001  15.608 -0.9666  0.3962 -0.5173
 1609SOL    HW216287   4.226   1.869  15.686  0.9535  0.3984 -1.7914
 1610SOL     OW16288   4.178   1.815  13.433 -0.4139 -0.1204 -0.1963
 1610SOL    HW116289   4.205   1.760  13.506  0.7199  2.0990  1.0700
 1610SOL    HW216290   4.238   1.888  13.451 -1.1353  0.0350  1.4824
 1611SOL     OW16291   2.767   2.305   9.892 -0.0578  0.3889 -0.3129
 1611SOL    HW116292   2.679   2.304   9.854  0.1823 -2.2202 -0.8042
 1611SOL    HW216293   2.776   2.234   9.956 -0.2516 -0.0887 -0.8113
 1612SOL     OW16294   1.179   0.270   1.332 -0.4285  0.4559  0.4662
 1612SOL    HW116295   1.268   0.234   1.333 -0.6819 -0.1757  0.5066
 1612SOL    HW216296   1.191   0.362   1.312  1.8218 -0.0615 -0.5438
 1613SOL     OW16297   4.300   4.240   5.894  0.3099 -0.1790  0.3552
 1613SOL    HW116298   4.207   4.222   5.907  0.0929  0.4707 -0.3232
 1613SOL    HW216299   4.301   4.331   5.866  2.3138 -0.6025 -0.9549
 1614SOL     OW16300   0.900   3.890   5.776  0.1668  0.0319  0.3857
 1614SOL    HW116301   0.918   3.964   5.719 -0.0665 -0.4382 -0.2896
 1614SOL    HW216302   0.979   3.896   5.831  1.0831  2.2899 -1.1809
 1615SOL     OW16303   1.773   4.214  11.570 -0.3041  0.6012  0.7784
 1615SOL    HW116304   1.843   4.166  11.612  0.3808  1.1806  0.3077
 1615SOL    HW216305   1.805   4.217  11.480  1.3375 -0.1097  1.3374
 1616SOL     OW16306   0.273   1.317   0.879  0.2893  0.2876  0.8141
 1616SOL    HW116307   0.274   1.371   0.958  0.1844  0.0490  0.9782
 1616SOL    HW216308   0.299   1.232   0.913  0.0671  0.3543  1.1495
 1617SOL     OW16309   3.693   3.223   7.394  0.3657  0.8200 -0.1715
 1617SOL    HW116310   3.733   3.246   7.478  0.7707 -0.1934 -0.0845
 1617SOL    HW216311   3.658   3.307   7.366 -3.9406 -0.2700  1.9558
 1618SOL     OW16312   4.544   1.847  15.773  0.2713  0.2513 -0.1580
 1618SOL    HW116313   4.613   1.810  15.830 -2.3164  1.2445  3.6177
 1618SOL    HW216314   4.535   1.932  15.815  0.8129  1.2617 -2.0903
 1619SOL     OW16315   3.569   1.078  14.939  0.3679  0.0088 -0.3642
 1619SOL    HW116316   3.570   1.060  14.845 -2.3531 -0.7414 -0.2577
 1619SOL    HW216317   3.481   1.057  14.971  0.1448  0.1497 -0.8733
 1620SOL     OW16318   0.201   2.631  13.322  0.1732 -0.0421  0.3115
 1620SOL    HW116319   0.145   2.631  13.400  0.4535 -1.1538  0.5240
 1620SOL    HW216320   0.171   2.696  13.260 -0.3137  0.1247  0.7205
 1621SOL     OW16321   4.708   4.658   6.388 -0.1683  0.4817  0.3216
 1621SOL    HW116322   4.673   4.643   6.476  0.3040  2.1551  0.7912
 1621SOL    HW216323   0.077   4.639   6.394  0.1382  1.1194 -2.3711
 1622SOL     OW16324   4.542   2.856   2.024  0.7849 -0.1953 -0.0612
 1622SOL    HW116325   4.599   2.868   2.101 -1.0073 -0.2849  1.2678
 1622SOL    HW216326   4.551   2.762   2.012  0.3540 -0.1991 -0.3347
 1623SOL     OW16327   1.201   1.972  10.633 -0.2713 -0.4293 -0.5942
 1623SOL    HW116328   1.170   1.949  10.545 -1.6323 -0.4392 -0.1175
 1623SOL    HW216329   1.126   2.019  10.670 -0.8510 -1.8115 -0.0207
 1624SOL     OW16330   3.208   4.352   3.260 -0.0447  0.2712 -0.4961
 1624SOL    HW116331   3.180   4.268   3.296 -2.0156  0.9684 -0.3721
 1624SOL    HW216332   3.125   4.382   3.221 -0.2349 -1.2277 -1.2350
 1625SOL     OW16333   2.385   3.155   7.006 -0.3228  0.1012 -0.5913
 1625SOL    HW116334   2.383   3.129   6.914 -0.2989 -0.3616 -0.4577
 1625SOL    HW216335   2.463   3.104   7.027 -0.1895  0.0899 -1.0942
 1626SOL     OW16336   3.430   1.835  11.511 -0.0853 -0.4126 -0.0458
 1626SOL    HW116337   3.403   1.847  11.420 -2.8319  1.2121  0.9929
 1626SOL    HW216338   3.422   1.927  11.534 -0.3428 -0.4120 -0.1381
 1627SOL     OW16339   0.164   0.107   8.429  0.0683  0.4212 -0.6902
 1627SOL    HW116340   0.178   0.088   8.337  0.6574  0.3143 -0.5782
 1627SOL    HW216341   0.251   0.080   8.459  0.0333  1.9746  0.8378
 1628SOL     OW16342   1.674   4.301   8.323 -0.0338 -0.3923  0.1203
 1628SOL    HW116343   1.645   4.210   8.325  1.7054 -0.9547 -1.2097
 1628SOL    HW216344   1.661   4.332   8.413 -0.0487  0.6704 -0.2420
 1629SOL     OW16345   1.508   1.300  13.102  0.3123  0.3882 -0.2701
 1629SOL    HW116346   1.543   1.377  13.147 -0.6454 -1.1626  3.1043
 1629SOL    HW216347   1.586   1.276  13.052 -0.1935 -1.9218  0.0281
 1630SOL     OW16348   2.867   3.356   5.313 -0.1383  0.5472 -0.2981
 1630SOL    HW116349   2.947   3.380   5.267 -1.5424  1.2428 -2.3559
 1630SOL    HW216350   2.801   3.417   5.279 -1.0388  0.7963  1.8715
 1631SOL     OW16351   4.364   1.592   8.170 -0.0483  0.3825  0.2825
 1631SOL    HW116352   4.405   1.654   8.110  0.7263 -0.7311 -0.3433
 1631SOL    HW216353   4.276   1.575   8.135  0.8755 -0.9476 -1.3756
 1632SOL     OW16354   3.905   2.900  15.686 -0.3386 -0.4906 -0.1918
 1632SOL    HW116355   3.816   2.932  15.692 -0.8022 -1.6481 -0.8144
 1632SOL    HW216356   3.882   2.809  15.708  2.0758 -0.8324  1.0055
 1633SOL     OW16357   3.705   1.940   8.098  0.3184 -0.6392 -0.4031
 1633SOL    HW116358   3.699   1.977   8.186 -2.1947  2.4825 -1.8480
 1633SOL    HW216359   3.798   1.919   8.104 -0.1819 -2.5519  0.8404
 1634SOL     OW16360   3.888   2.870   7.638  0.0477  0.3636 -0.2475
 1634SOL    HW116361   3.938   2.869   7.557  1.5073  0.1993  0.6554
 1634SOL    HW216362   3.798   2.860   7.609 -0.2669 -0.5050  1.0050
 1635SOL     OW16363   0.497   4.292   6.387  0.7405 -0.2759  0.0271
 1635SOL    HW116364   0.464   4.203   6.389  1.1153 -0.3365  2.7029
 1635SOL    HW216365   0.579   4.287   6.337  1.4800 -1.0717  1.3336
 1636SOL     OW16366   3.116   0.109   7.723 -0.8315  0.3842 -0.7338
 1636SOL    HW116367   3.156   0.105   7.637 -0.6516  1.2419 -0.6873
 1636SOL    HW216368   3.141   0.197   7.752  0.8958 -1.0979  2.2656
 1637SOL     OW16369   0.398   4.279   2.310 -0.3023 -0.5026  0.0787
 1637SOL    HW116370   0.326   4.220   2.335  0.5157 -0.6965  1.9416
 1637SOL    HW216371   0.420   4.233   2.229 -0.7315 -0.5394 -0.0176
 1638SOL     OW16372   4.302   3.972   1.870 -0.5890 -0.1015  0.0000
 1638SOL    HW116373   4.333   4.055   1.834  2.3592 -0.3863  1.9332
 1638SOL    HW216374   4.355   3.911   1.819  1.4063  1.2718  0.4419
 1639SOL     OW16375   1.105   4.682   1.795  0.2635  0.0490 -0.0700
 1639SOL    HW116376   1.121   0.024   1.861 -1.5329  0.7508 -0.3723
 1639SOL    HW216377   1.034   4.722   1.745 -1.2146 -0.5227  1.6056
 1640SOL     OW16378   2.473   1.581   2.577 -0.5905 -0.1407 -0.0926
 1640SOL    HW116379   2.566   1.584   2.598 -1.3109  0.5800  2.8905
 1640SOL    HW216380   2.467   1.665   2.530  0.2174 -0.4378 -0.7311
 1641SOL     OW16381   3.086   2.914  16.784  0.8336 -0.2051 -0.3988
 1641SOL    HW116382   3.077   2.904  16.879 -1.0644  1.3549 -0.4054
 1641SOL    HW216383   3.090   2.823  16.756 -1.2265  0.3794 -2.5891
 1642SOL     OW16384   1.449   4.203   6.270 -0.1238  0.1674 -0.3536
 1642SOL    HW116385   1.358   4.176   6.259 -0.1861 -0.2772  1.2717
 1642SOL    HW216386   1.488   4.128   6.316  1.6723  0.2512 -1.6997
 1643SOL     OW16387   1.045   3.792  13.109  0.3190  0.6534  0.1099
 1643SOL    HW116388   1.108   3.724  13.134  0.9222  1.4300  0.6985
 1643SOL    HW216389   1.096   3.857  13.061  0.5043  0.5634  0.1804
 1644SOL     OW16390   0.469   0.598   6.487  0.2422 -0.0147  0.3533
 1644SOL    HW116391   0.438   0.621   6.574 -1.5198 -0.9398 -0.0173
 1644SOL    HW216392   0.562   0.619   6.488  0.2693 -0.2144  1.5361
 1645SOL     OW16393   0.755   4.196   1.355  0.8789 -0.0903  0.0367
 1645SOL    HW116394   0.660   4.186   1.345  0.6549  0.3042  1.6972
 1645SOL    HW216395   0.770   4.125   1.418 -1.4434  0.0763  0.7838
 1646SOL     OW16396   3.846   0.211   7.230  0.0707 -0.7401  0.3742
 1646SOL    HW116397   3.815   0.121   7.242 -1.4200 -0.5066 -1.9124
 1646SOL    HW216398   3.939   0.194   7.216 -0.5345 -1.6400 -2.4675
 1647SOL     OW16399   3.297   1.237   4.725  0.9893 -0.5781  0.0847
 1647SOL    HW116400   3.284   1.172   4.795  2.2468 -0.6898  0.2075
 1647SOL    HW216401   3.322   1.307   4.784 -2.7806  0.1689  0.8064
 1648SOL     OW16402   2.915   0.874   5.435 -0.1366 -0.0113  0.1496
 1648SOL    HW116403   2.940   0.782   5.425 -0.7002  0.0878 -2.3297
 1648SOL    HW216404   2.926   0.884   5.529 -2.7813  0.4202  0.4190
 1649SOL     OW16405   3.701   0.307   5.345  0.5829  0.1949 -0.4039
 1649SOL    HW116406   3.745   0.386   5.379  1.4024 -0.2815 -0.3466
 1649SOL    HW216407   3.739   0.302   5.258  0.4091 -0.5001 -0.4332
 1650SOL     OW16408   3.510   3.627   5.065 -0.1503  0.2730  1.0242
 1650SOL    HW116409   3.447   3.648   4.996  0.6535 -1.3998 -0.1970
 1650SOL    HW216410   3.527   3.534   5.051  1.0115  0.8473 -1.2283
 1651SOL     OW16411   0.848   3.601   7.956 -0.3799 -0.0452 -0.1545
 1651SOL    HW116412   0.939   3.589   7.983 -0.2650 -1.4242 -1.1866
 1651SOL    HW216413   0.852   3.687   7.912 -0.2570  0.5714  1.0559
 1652SOL     OW16414   3.587   1.189   5.623 -0.9294  0.0496  0.2324
 1652SOL    HW116415   3.649   1.258   5.645  0.9374 -1.7751  0.6717
 1652SOL    HW216416   3.502   1.231   5.639  0.9324  3.6688  0.7099
 1653SOL     OW16417   2.069   3.724  12.096  0.0935  0.4921 -0.1931
 1653SOL    HW116418   2.035   3.702  12.010 -3.3888 -2.0158  1.8174
 1653SOL    HW216419   2.160   3.713  12.067  0.4173  1.0563  0.6031
 1654SOL     OW16420   2.658   2.610   5.988  0.4468  0.4815  0.2658
 1654SOL    HW116421   2.718   2.680   6.012  0.5697  0.2668  0.5853
 1654SOL    HW216422   2.614   2.636   5.907 -0.0557 -0.2303  0.3062
 1655SOL     OW16423   0.561   1.056   7.872 -0.0269 -0.0348  0.1930
 1655SOL    HW116424   0.616   1.075   7.948 -0.9490 -0.8247  1.0497
 1655SOL    HW216425   0.522   1.142   7.855  0.2956 -0.0779 -0.7794
 1656SOL     OW16426   3.511   0.094   5.957  0.4804  0.2028 -0.4094
 1656SOL    HW116427   3.516   0.033   6.031 -0.2870  1.8117  0.9692
 1656SOL    HW216428   3.476   0.173   5.998 -2.4734  0.6674 -3.8200
 1657SOL     OW16429   3.392   2.660   2.600  0.0329  0.1436 -0.3803
 1657SOL    HW116430   3.422   2.636   2.688  0.2495  0.3547 -0.3945
 1657SOL    HW216431   3.436   2.744   2.589 -0.2625  0.3926  0.3667
 1658SOL     OW16432   1.448   2.422  10.790  0.6055  0.0509 -0.6187
 1658SOL    HW116433   1.387   2.481  10.745 -0.6065 -0.3003  0.5511
 1658SOL    HW216434   1.495   2.382  10.717  2.3045 -1.3565  1.2407
 1659SOL     OW16435   2.452   4.124   6.525  0.4284  0.1072 -0.1539
 1659SOL    HW116436   2.486   4.203   6.484  1.8285  0.7312  2.1978
 1659SOL    HW216437   2.480   4.047   6.476  0.8251 -0.4817  0.9994
 1660SOL     OW16438   0.901   3.129   6.774 -0.0707 -0.4766 -0.7287
 1660SOL    HW116439   0.856   3.176   6.844  0.5974  0.3605 -0.8619
 1660SOL    HW216440   0.861   3.043   6.787 -2.4237  0.9206  1.3445
 1661SOL     OW16441   0.729   3.866   0.495 -0.4388  0.6372  0.4229
 1661SOL    HW116442   0.662   3.872   0.427  0.0486 -0.0996 -0.1178
 1661SOL    HW216443   0.722   3.775   0.524 -0.9385  0.2772 -0.8067
 1662SOL     OW16444   2.607   2.309  10.222  0.2199 -0.6136  0.3138
 1662SOL    HW116445   2.628   2.243  10.156  2.0313 -0.7701  1.0578
 1662SOL    HW216446   2.647   2.273  10.301  1.8766  2.7768  1.0221
 1663SOL     OW16447   3.386   0.571   2.925 -0.3803  0.1959  0.1819
 1663SOL    HW116448   3.395   0.597   2.834 -0.6075  1.0641  0.3991
 1663SOL    HW216449   3.296   0.540   2.928 -0.8791  1.4004 -2.4991
 1664SOL     OW16450   0.129   1.317   3.771 -0.4239 -0.6211  0.3000
 1664SOL    HW116451   0.120   1.384   3.702 -0.8588 -0.5525  0.4232
 1664SOL    HW216452   0.161   1.373   3.841  0.0129 -0.3218 -0.1387
 1665SOL     OW16453   0.340   0.174   6.419 -0.6723  0.6021  0.0744
 1665SOL    HW116454   0.291   0.244   6.375  0.5251  0.3535 -1.6661
 1665SOL    HW216455   0.386   0.229   6.484 -0.5067  0.7466 -0.1640
 1666SOL     OW16456   1.477   4.550   8.140 -0.4112  0.3459 -0.2548
 1666SOL    HW116457   1.405   4.520   8.196 -0.7371  0.2938 -0.7067
 1666SOL    HW216458   1.556   4.557   8.194 -0.7658  0.9261  0.2021
 1667SOL     OW16459   4.501   1.889  16.606  0.1691 -0.3118 -0.8117
 1667SOL    HW116460   4.540   1.833  16.673  0.0822  0.6059  0.0128
 1667SOL    HW216461   4.492   1.967  16.662 -0.9325  0.9002 -2.6828
 1668SOL     OW16462   2.833   3.399   3.289 -0.0577  0.6840 -0.2470
 1668SOL    HW116463   2.782   3.326   3.326  0.1150  0.3758 -0.6140
 1668SOL    HW216464   2.871   3.436   3.369 -1.6287  1.3803  0.1890
 1669SOL     OW16465   1.940   0.364   3.078 -0.7421  0.0390  0.0515
 1669SOL    HW116466   1.854   0.330   3.102 -1.1288  0.2782 -0.9910
 1669SOL    HW216467   1.918   0.442   3.027  0.7753  0.6149  0.2691
 1670SOL     OW16468   0.070   1.310   7.721 -0.4829  0.4889 -0.6028
 1670SOL    HW116469   4.715   1.272   7.684  1.2874 -1.6685 -2.2098
 1670SOL    HW216470   0.035   1.355   7.798  0.7907  0.6981 -0.1365
 1671SOL     OW16471   3.983   2.188  10.506 -0.1205 -0.8144  0.0409
 1671SOL    HW116472   4.040   2.253  10.466  1.2010 -0.9388  1.6882
 1671SOL    HW216473   3.924   2.167  10.434 -1.9225 -0.8752  1.5434
 1672SOL     OW16474   1.768   3.349   4.587  0.0369  0.3154  0.2773
 1672SOL    HW116475   1.711   3.355   4.510  0.3109 -0.5030  0.0062
 1672SOL    HW216476   1.802   3.434   4.614 -0.0464  0.1498  0.8985
 1673SOL     OW16477   0.042   2.994   3.519  0.1543 -0.4913  0.3175
 1673SOL    HW116478   4.675   3.021   3.527  0.6765  0.8501  1.6824
 1673SOL    HW216479   0.047   2.901   3.541  0.5649 -0.3726  0.7091
 1674SOL     OW16480   0.089   4.283   5.414 -0.2394 -0.2855  0.0198
 1674SOL    HW116481   0.072   4.361   5.467 -1.6586 -0.6055  0.0383
 1674SOL    HW216482   0.133   4.230   5.481  3.3968  0.9391 -1.4063
 1675SOL     OW16483   3.082   1.798  15.221 -0.3350 -0.0148  0.0028
 1675SOL    HW116484   3.126   1.722  15.258  0.9565  0.9570  0.4737
 1675SOL    HW216485   3.029   1.758  15.153  0.5947 -0.5177 -0.4253
 1676SOL     OW16486   2.216   0.069   9.603  0.1520 -0.7826  0.5044
 1676SOL    HW116487   2.148   0.005   9.583 -0.0802 -0.2048 -0.5398
 1676SOL    HW216488   2.183   0.132   9.667  0.4344 -0.6898  0.5612
 1677SOL     OW16489   3.484   1.014  16.400  0.2692  0.2365 -0.0616
 1677SOL    HW116490   3.395   1.047  16.393  0.3634  0.8975  1.7358
 1677SOL    HW216491   3.512   1.089  16.452  1.2492  0.9444 -1.6034
 1678SOL     OW16492   1.394   4.463   6.171 -0.1827  0.4739  0.1522
 1678SOL    HW116493   1.412   4.378   6.210  0.5126  0.5814  0.0546
 1678SOL    HW216494   1.306   4.445   6.138  0.5109 -2.2290 -0.2472
 1679SOL     OW16495   3.325   1.400   4.167 -0.5255 -0.1958 -0.3384
 1679SOL    HW116496   3.401   1.447   4.201 -1.1540  0.2083  0.5024
 1679SOL    HW216497   3.338   1.318   4.214  1.7379  0.5143  0.2455
 1680SOL     OW16498   2.489   3.935   8.083 -0.0478 -0.3451  0.4505
 1680SOL    HW116499   2.467   3.892   8.166  1.1184  1.5718  1.7709
 1680SOL    HW216500   2.535   3.867   8.033  0.5810 -0.4886  1.2185
 1681SOL     OW16501   1.165   3.168   3.115  0.5556  0.1369  0.2002
 1681SOL    HW116502   1.123   3.212   3.042 -2.1316 -1.4780  0.7647
 1681SOL    HW216503   1.142   3.234   3.180 -2.2468 -1.3592  0.7073
 1682SOL     OW16504   3.965   0.549   9.753 -0.5288 -0.4329  0.8525
 1682SOL    HW116505   3.912   0.527   9.830  1.4416  0.6618  2.5352
 1682SOL    HW216506   3.938   0.641   9.741 -1.2684 -0.9307 -1.2672
 1683SOL     OW16507   3.151   3.866   4.242  0.1966  0.3711 -0.3760
 1683SOL    HW116508   3.139   3.822   4.326 -1.4641  0.6104 -0.4756
 1683SOL    HW216509   3.196   3.792   4.202 -2.6306 -3.0641  2.7580
 1684SOL     OW16510   3.136   2.699   5.400 -0.7593  0.9183 -0.3536
 1684SOL    HW116511   3.189   2.769   5.439  0.7558 -0.0794 -0.6118
 1684SOL    HW216512   3.191   2.688   5.322 -0.4179  1.2521 -0.1600
 1685SOL     OW16513   0.045   3.267   6.324 -0.2254 -0.2001 -0.7827
 1685SOL    HW116514   4.709   3.216   6.271 -0.5110 -1.5551  0.8550
 1685SOL    HW216515   4.703   3.321   6.367 -0.1404 -1.5053  1.0011
 1686SOL     OW16516   4.499   0.849   7.155  0.3493  0.5486 -0.4715
 1686SOL    HW116517   4.588   0.875   7.130  1.1351 -2.1202 -0.4747
 1686SOL    HW216518   4.499   0.754   7.170  2.7854  0.6363  0.1154
 1687SOL     OW16519   2.250   1.586   7.669 -0.4084 -0.0180 -0.3999
 1687SOL    HW116520   2.248   1.617   7.578  1.0449 -1.5141 -0.9558
 1687SOL    HW216521   2.162   1.551   7.681  0.0534 -1.2133 -0.4512
 1688SOL     OW16522   3.690   4.098  12.968 -0.6934 -0.0702 -0.1871
 1688SOL    HW116523   3.700   4.155  13.044  0.8580  0.1522 -0.5724
 1688SOL    HW216524   3.663   4.015  13.009  3.8298 -1.6387 -0.4077
 1689SOL     OW16525   0.510   4.309   4.558  0.1287  0.4141 -0.4308
 1689SOL    HW116526   0.592   4.269   4.587  0.1312 -0.2355 -1.3473
 1689SOL    HW216527   0.498   4.257   4.479 -0.7388  0.1055 -0.0909
 1690SOL     OW16528   4.362   2.752   6.895 -0.0779 -0.9042  0.0761
 1690SOL    HW116529   4.357   2.843   6.866  1.2348 -1.4252 -1.7980
 1690SOL    HW216530   4.457   2.741   6.897  0.1171  0.6025 -0.9432
 1691SOL     OW16531   4.711   1.970   4.397  0.2213 -0.0746  0.1370
 1691SOL    HW116532   0.050   1.954   4.467  0.1690 -3.8793 -0.6859
 1691SOL    HW216533   0.002   2.061   4.369 -1.2410  0.0590 -0.2419
 1692SOL     OW16534   0.104   3.096   5.261 -0.3858 -0.0986  1.0552
 1692SOL    HW116535   0.157   3.122   5.336 -0.1652 -0.5140  1.0411
 1692SOL    HW216536   0.051   3.027   5.300 -0.8909  0.0789  0.6802
 1693SOL     OW16537   0.962   3.213  15.027 -0.2502  0.3571  0.4201
 1693SOL    HW116538   0.963   3.306  15.051 -2.3973  0.3030  0.6980
 1693SOL    HW216539   0.985   3.223  14.935 -1.0415 -0.2792  0.1577
 1694SOL     OW16540   4.366   3.289  10.373 -0.4813 -0.5394 -0.5595
 1694SOL    HW116541   4.334   3.221  10.313 -1.5636 -1.4530  1.0417
 1694SOL    HW216542   4.338   3.262  10.460  3.6565 -2.8710  0.0833
 1695SOL     OW16543   0.784   2.459   4.089  0.2618  0.2917  0.3094
 1695SOL    HW116544   0.865   2.504   4.066 -0.6345  2.9368  2.3902
 1695SOL    HW216545   0.722   2.493   4.025 -0.2782 -0.6281  0.3428
 1696SOL     OW16546   1.870   2.447   4.386  0.1752  0.0683  0.3173
 1696SOL    HW116547   1.948   2.432   4.439  1.0947  0.0718 -1.0258
 1696SOL    HW216548   1.796   2.422   4.441 -1.2501 -1.7617 -2.4517
 1697SOL     OW16549   3.070   2.217   2.838 -0.1614 -0.0267  0.6661
 1697SOL    HW116550   3.104   2.195   2.751 -0.9890 -0.2811  0.4058
 1697SOL    HW216551   3.139   2.274   2.873  0.4615 -1.0392  1.0904
 1698SOL     OW16552   1.178   3.961   1.512  0.9971 -0.5690  0.0084
 1698SOL    HW116553   1.162   4.005   1.596  0.7327  0.3837 -0.5397
 1698SOL    HW216554   1.135   4.020   1.450 -2.4405 -0.9999  1.9504
 1699SOL     OW16555   0.370   2.471   4.097  0.2878  0.6151  0.8207
 1699SOL    HW116556   0.290   2.453   4.146 -0.2125  1.1609  0.1931
 1699SOL    HW216557   0.410   2.384   4.097 -1.8780 -0.3788  1.4306
 1700SOL     OW16558   2.508   1.223   4.432 -0.3439  0.7316  0.2846
 1700SOL    HW116559   2.484   1.180   4.514  1.1918  1.0494  0.9034
 1700SOL    HW216560   2.568   1.290   4.466  2.2828 -0.4424 -1.9948
 1701SOL     OW16561   3.885   2.922   4.437  0.3963  0.0933 -0.2468
 1701SOL    HW116562   3.809   2.889   4.484 -0.2771 -1.0647 -2.1156
 1701SOL    HW216563   3.858   3.006   4.400 -1.7282 -0.3299  0.3631
 1702SOL     OW16564   0.911   1.851   5.682 -0.6184  0.2632 -0.2615
 1702SOL    HW116565   0.942   1.839   5.592  0.2949 -1.9651  0.3433
 1702SOL    HW216566   0.950   1.770   5.715  0.0040  0.7111  0.0965
 1703SOL     OW16567   2.876   0.770   5.927 -0.5998 -0.8031 -0.4167
 1703SOL    HW116568   2.796   0.819   5.950  0.1522  0.4530 -0.4626
 1703SOL    HW216569   2.894   0.718   6.005  2.4227  1.3230  0.3132
 1704SOL     OW16570   0.764   0.416   1.680  0.3574 -0.1239 -0.4055
 1704SOL    HW116571   0.721   0.498   1.701 -0.6217 -0.1639 -2.3071
 1704SOL    HW216572   0.755   0.417   1.585 -2.4127  2.0518 -0.1164
 1705SOL     OW16573   0.545   2.965   7.352 -0.0693 -0.1577  0.2631
 1705SOL    HW116574   0.452   2.981   7.335  0.3782  2.5283  0.2986
 1705SOL    HW216575   0.574   2.906   7.282 -1.7577 -0.7334  0.0451
 1706SOL     OW16576   0.347   1.135   8.681 -0.0748  0.5422  0.1187
 1706SOL    HW116577   0.288   1.107   8.611 -0.1720  1.4491 -0.1720
 1706SOL    HW216578   0.434   1.100   8.661 -1.6232 -2.1450 -1.8573
 1707SOL     OW16579   1.580   4.663   8.800  0.2560  0.1561 -0.3204
 1707SOL    HW116580   1.605   4.571   8.793 -0.7862 -0.2412  1.0870
 1707SOL    HW216581   1.485   4.653   8.804  0.1965  1.0300  0.5137
 1708SOL     OW16582   1.969   1.129   1.104 -0.2131  0.4566  0.1322
 1708SOL    HW116583   1.955   1.040   1.072  0.1391  0.5021 -0.1474
 1708SOL    HW216584   1.962   1.116   1.199  2.8491  2.7176  0.6514
 1709SOL     OW16585   3.740   1.945   2.878  0.0661  0.1329  0.3906
 1709SOL    HW116586   3.818   1.975   2.831 -0.5717  1.3238  0.0956
 1709SOL    HW216587   3.774   1.860   2.907  0.6397 -0.0018 -0.6538
 1710SOL     OW16588   0.289   0.754   2.403 -0.3927 -0.7590  0.4134
 1710SOL    HW116589   0.274   0.784   2.314 -3.4629  0.7443  1.4326
 1710SOL    HW216590   0.279   0.660   2.392 -0.4168 -0.5183 -1.5909
 1711SOL     OW16591   1.344   0.523   7.956 -0.0213  0.4877 -0.2189
 1711SOL    HW116592   1.252   0.508   7.937  0.1998 -1.1113 -0.0163
 1711SOL    HW216593   1.351   0.619   7.953  0.4570  0.5078  1.6923
 1712SOL     OW16594   3.212   1.954  15.396  0.1863  0.2438  0.0590
 1712SOL    HW116595   3.198   1.966  15.490  0.9271  1.1977  0.0448
 1712SOL    HW216596   3.300   1.988  15.381  0.4544  0.1255  1.3475
 1713SOL     OW16597   0.639   0.348   2.435 -0.1110 -0.5080 -0.5479
 1713SOL    HW116598   0.576   0.351   2.364  1.2600  0.1715 -1.7476
 1713SOL    HW216599   0.659   0.255   2.436  0.1135 -0.4514  0.5673
 1714SOL     OW16600   3.959   1.548   8.760 -0.1179 -0.0469  0.7871
 1714SOL    HW116601   3.889   1.601   8.721  0.5367  1.5331  1.7897
 1714SOL    HW216602   3.972   1.602   8.837  1.4360 -1.3839  1.4696
 1715SOL     OW16603   3.451   1.216   6.776  0.5043 -0.4356 -0.5598
 1715SOL    HW116604   3.478   1.301   6.809  1.9702 -1.0723 -0.0781
 1715SOL    HW216605   3.466   1.244   6.685  1.5690 -0.6103 -0.4456
 1716SOL     OW16606   0.935   2.106   3.438  0.0171 -0.3765  0.3467
 1716SOL    HW116607   1.010   2.163   3.453  0.6657 -1.4584  1.1819
 1716SOL    HW216608   0.973   2.043   3.377 -0.9193 -0.9199  0.3376
 1717SOL     OW16609   3.027   1.354  10.653  0.3451 -0.7220 -0.3068
 1717SOL    HW116610   2.952   1.370  10.596  2.4418 -0.8578 -3.0488
 1717SOL    HW216611   3.017   1.260  10.663 -0.0482 -0.8292 -1.8013
 1718SOL     OW16612   3.945   2.540  14.958  0.4203  0.3377 -0.1448
 1718SOL    HW116613   3.869   2.556  15.014  3.0840  2.0025  2.9938
 1718SOL    HW216614   4.009   2.582  15.016 -0.3035  1.8915 -0.4811
 1719SOL     OW16615   0.023   4.016   2.856  0.5213  0.2274 -0.6201
 1719SOL    HW116616   4.675   4.044   2.801 -0.6941 -0.2068  0.7722
 1719SOL    HW216617   0.019   3.923   2.834  0.2525  0.0105  0.3447
 1720SOL     OW16618   4.147   0.545   7.339 -0.2623  0.3915 -0.3877
 1720SOL    HW116619   4.181   0.459   7.313 -4.0311 -0.8893 -1.0465
 1720SOL    HW216620   4.227   0.574   7.384 -0.1994 -0.5358  0.1188
 1721SOL     OW16621   0.050   2.871   2.634 -0.1103 -0.1066  0.6548
 1721SOL    HW116622   0.013   2.808   2.573  1.9427 -0.7591  0.1021
 1721SOL    HW216623   0.140   2.840   2.646  0.4913  1.1411 -0.6826
 1722SOL     OW16624   3.879   0.165   2.633  0.1027  0.4966 -0.0590
 1722SOL    HW116625   3.939   0.091   2.643 -0.4023  0.2788  1.3610
 1722SOL    HW216626   3.810   0.122   2.683 -0.5320 -0.5315 -1.7857
 1723SOL     OW16627   2.916   3.795   7.521 -0.1666 -0.4143 -0.2518
 1723SOL    HW116628   2.964   3.712   7.518 -2.5234 -1.8759  2.4904
 1723SOL    HW216629   2.852   3.772   7.589 -0.5705 -0.4855 -0.6576
 1724SOL     OW16630   2.061   4.558   2.742 -0.2232 -0.0175  0.0220
 1724SOL    HW116631   2.077   4.467   2.768 -2.1468 -0.1100  0.8959
 1724SOL    HW216632   2.150   4.592   2.735 -0.6442  1.1228  0.2048
 1725SOL     OW16633   2.379   2.225   6.383 -0.1298 -0.1162 -0.5094
 1725SOL    HW116634   2.328   2.285   6.330  2.6887  0.2501 -2.8410
 1725SOL    HW216635   2.448   2.286   6.409 -0.2541 -0.2876  0.2332
 1726SOL     OW16636   0.113   3.654  15.812 -0.4066  0.0685  0.1458
 1726SOL    HW116637   0.115   3.727  15.750  0.8856  0.5368  0.7433
 1726SOL    HW216638   0.024   3.640  15.846 -1.0941  0.6961 -1.3748
 1727SOL     OW16639   4.347   3.323   2.246  0.3693 -0.1008  0.3652
 1727SOL    HW116640   4.362   3.262   2.173 -2.0343 -0.8205  0.4734
 1727SOL    HW216641   4.388   3.274   2.317  1.2767 -3.3440 -2.3767
 1728SOL     OW16642   3.642   3.185   5.157  0.1227 -0.1506  0.3713
 1728SOL    HW116643   3.657   3.131   5.080  1.9048  0.5091  0.2332
 1728SOL    HW216644   3.626   3.273   5.123  1.3772  0.1264  0.4890
 1729SOL     OW16645   3.252   1.721   2.504  0.3714  0.2014  0.6243
 1729SOL    HW116646   3.268   1.808   2.467 -1.5523  0.4376  0.3392
 1729SOL    HW216647   3.169   1.735   2.549  1.5982 -0.9655  3.2685
 1730SOL     OW16648   0.093   0.281   6.721 -0.3992  0.4247 -0.3551
 1730SOL    HW116649   0.073   0.193   6.751  0.7495  1.2278  2.8152
 1730SOL    HW216650   0.011   0.298   6.675 -0.1688 -0.6760 -1.1758
 1731SOL     OW16651   2.333   1.293   2.937 -0.0162  0.3884 -0.1455
 1731SOL    HW116652   2.261   1.297   2.875  1.2217 -0.9677 -1.6711
 1731SOL    HW216653   2.311   1.368   2.993 -1.3771  0.1998 -0.4283
 1732SOL     OW16654   0.702   4.260   6.196  0.2486  0.2006  0.0630
 1732SOL    HW116655   0.748   4.277   6.113 -1.0387 -1.0520 -0.9110
 1732SOL    HW216656   0.683   4.167   6.184  0.0815  0.4105 -1.3124
 1733SOL     OW16657   4.351   3.838   7.347  0.4074  0.6774 -0.1140
 1733SOL    HW116658   4.277   3.875   7.299 -0.2046 -0.7417 -0.2599
 1733SOL    HW216659   4.350   3.896   7.424  0.0796  0.8369 -0.2372
 1734SOL     OW16660   3.422   2.191   8.092 -0.1842  0.4156 -0.1998
 1734SOL    HW116661   3.347   2.249   8.087 -0.3568  0.2449  0.4060
 1734SOL    HW216662   3.475   2.226   8.164  1.6432 -0.0737 -1.2902
 1735SOL     OW16663   1.729   1.506   0.586  0.1208  0.2770 -0.7440
 1735SOL    HW116664   1.728   1.469   0.674  1.2457 -3.3536 -2.2722
 1735SOL    HW216665   1.745   1.422   0.543 -1.2621  0.0805 -0.8902
 1736SOL     OW16666   3.069   2.238   5.703  0.4241 -0.0107 -0.3252
 1736SOL    HW116667   3.029   2.175   5.644 -0.0153 -1.1222  1.1447
 1736SOL    HW216668   3.075   2.321   5.656  0.5826  0.6045  0.7722
 1737SOL     OW16669   3.443   0.480  12.614  0.0907 -0.8385 -0.3254
 1737SOL    HW116670   3.472   0.437  12.695 -3.4841  0.4728  1.6593
 1737SOL    HW216671   3.423   0.565  12.652  0.3058 -0.7068 -0.5085
 1738SOL     OW16672   4.194   3.971  14.244 -0.2416  0.0666 -0.1835
 1738SOL    HW116673   4.183   4.061  14.215  0.0055 -0.5319 -2.1103
 1738SOL    HW216674   4.189   3.982  14.339 -1.1632  1.6717 -0.4245
 1739SOL     OW16675   2.873   0.433   7.824  0.5567  0.1412  0.2482
 1739SOL    HW116676   2.869   0.469   7.735 -1.7631 -0.7229 -0.0174
 1739SOL    HW216677   2.933   0.360   7.808 -0.6866 -1.2405  1.9319
 1740SOL     OW16678   1.425   3.830   2.142  0.2106 -0.3388  0.5321
 1740SOL    HW116679   1.414   3.855   2.233 -1.6436  1.1421 -0.0973
 1740SOL    HW216680   1.442   3.736   2.150  0.5447 -0.3419 -0.2007
 1741SOL     OW16681   0.841   1.291   2.593 -0.0279  0.2704 -0.1009
 1741SOL    HW116682   0.838   1.239   2.673 -0.2383 -1.5695 -1.2815
 1741SOL    HW216683   0.934   1.315   2.590  0.4464 -1.4968  0.3248
 1742SOL     OW16684   0.593   2.117   1.312 -0.1303  0.3218  0.1176
 1742SOL    HW116685   0.579   2.204   1.349  0.8810 -0.1882  1.6933
 1742SOL    HW216686   0.612   2.069   1.392  1.5626  2.0318  0.7516
 1743SOL     OW16687   3.731   1.157   4.550  0.3055  0.5595 -0.2936
 1743SOL    HW116688   3.808   1.179   4.602  2.2364  0.4114 -3.0783
 1743SOL    HW216689   3.663   1.142   4.616 -0.6151  1.3819 -1.0635
 1744SOL     OW16690   0.018   3.925   5.220  0.4774  0.2738 -0.0868
 1744SOL    HW116691   0.041   4.001   5.168  1.4728 -1.4485 -2.1811
 1744SOL    HW216692   4.686   3.961   5.288  0.7206  1.0113 -0.2735
 1745SOL     OW16693   1.192   3.196   4.487  0.4642  0.6031  0.2143
 1745SOL    HW116694   1.245   3.238   4.420 -1.3008  2.6830  0.1046
 1745SOL    HW216695   1.258   3.154   4.541  1.8148  1.0587 -1.0932
 1746SOL     OW16696   2.592   4.094   3.680  0.0762 -0.4741  0.1093
 1746SOL    HW116697   2.602   4.046   3.763 -0.5609 -1.1038 -0.1814
 1746SOL    HW216698   2.502   4.080   3.653 -0.3722  1.2424  0.6852
 1747SOL     OW16699   0.534   3.872  13.906  0.3515  0.5766 -0.2254
 1747SOL    HW116700   0.600   3.882  13.836  1.3377  2.1197  0.9215
 1747SOL    HW216701   0.452   3.875  13.858  1.1198 -1.6252 -1.6669
 1748SOL     OW16702   2.014   0.893   3.482 -0.3701 -0.2191  0.1243
 1748SOL    HW116703   1.953   0.871   3.412  0.6627  0.0878 -0.8742
 1748SOL    HW216704   2.095   0.907   3.432  0.4744 -1.4797  1.1248
 1749SOL     OW16705   2.143   1.147   3.300 -0.0614 -0.3368 -0.0649
 1749SOL    HW116706   2.127   1.190   3.216 -0.8985  0.3431  0.4352
 1749SOL    HW216707   2.091   1.199   3.362  0.1525  0.1726 -0.3107
 1750SOL     OW16708   2.821   4.266   8.084  0.8646 -0.1036  0.2892
 1750SOL    HW116709   2.804   4.226   7.998 -0.8282  0.9521  0.1393
 1750SOL    HW216710   2.760   4.339   8.070 -0.6588 -0.8923  2.8672
 1751SOL     OW16711   3.598   1.286   4.822  0.5120 -0.4550  0.3244
 1751SOL    HW116712   3.549   1.359   4.858  1.0797 -0.1113  0.3972
 1751SOL    HW216713   3.641   1.335   4.752  0.4638 -1.2016 -0.2296
 1752SOL     OW16714   3.024   0.990  13.117  0.1656  0.4015  0.3485
 1752SOL    HW116715   2.943   1.041  13.124  0.7470  1.5042 -1.0782
 1752SOL    HW216716   3.091   1.036  13.168 -0.5019 -1.5437  2.9759
 1753SOL     OW16717   4.652   0.164   1.803 -0.0880  0.0551 -0.6066
 1753SOL    HW116718   4.592   0.089   1.803 -0.8436  0.6511  0.2306
 1753SOL    HW216719   0.001   0.121   1.847 -0.3032 -1.2067 -1.4792
 1754SOL     OW16720   3.584   1.125   1.080  0.2653  0.5359 -0.7620
 1754SOL    HW116721   3.671   1.153   1.110 -0.8540  3.3774 -0.0678
 1754SOL    HW216722   3.588   1.030   1.087 -0.4449  0.5874  0.3774
 1755SOL     OW16723   4.085   3.082   5.748 -0.0524  0.1553 -0.5378
 1755SOL    HW116724   4.145   3.154   5.767  1.8862 -1.3269 -1.0592
 1755SOL    HW216725   4.116   3.018   5.813  2.5629  1.4021 -0.5548
 1756SOL     OW16726   4.178   2.343  13.890  0.2975  0.2461  0.0743
 1756SOL    HW116727   4.270   2.338  13.864 -0.0817  0.6752 -1.3517
 1756SOL    HW216728   4.181   2.333  13.985  1.2287 -1.7847 -0.1531
 1757SOL     OW16729   4.143   1.433   8.934  0.9596 -0.4754 -0.3124
 1757SOL    HW116730   4.130   1.471   8.847 -1.0398  1.4762  0.8729
 1757SOL    HW216731   4.073   1.368   8.939  0.7366 -0.1218  1.0187
 1758SOL     OW16732   3.355   1.082   0.614 -0.0187 -0.4304 -0.6507
 1758SOL    HW116733   3.317   1.170   0.611  1.1573  0.0753 -0.5707
 1758SOL    HW216734   3.349   1.068   0.709  1.1814  0.5904 -0.4263
 1759SOL     OW16735   3.683   4.228   2.265 -0.4916  0.1846  0.3791
 1759SOL    HW116736   3.735   4.295   2.309  2.1014  0.5737 -3.2329
 1759SOL    HW216737   3.707   4.239   2.173 -0.0378  1.0148  0.5949
 1760SOL     OW16738   4.066   3.093  10.121 -0.1480  0.4993  0.0916
 1760SOL    HW116739   4.081   3.134  10.036  0.0282 -0.6510 -0.4376
 1760SOL    HW216740   3.971   3.094  10.120 -0.1367  1.3972 -0.3182
 1761SOL     OW16741   0.348   0.885   7.805  0.2340  0.1052 -0.3364
 1761SOL    HW116742   0.443   0.895   7.807  0.3320 -0.9448  0.0613
 1761SOL    HW216743   0.320   0.907   7.716  0.6010 -0.2437 -0.5379
 1762SOL     OW16744   3.481   2.885   3.443  0.1181  0.0815 -0.5927
 1762SOL    HW116745   3.469   2.843   3.528  0.0133  0.3171 -0.4918
 1762SOL    HW216746   3.395   2.870   3.403 -0.0609 -1.0585  0.2247
 1763SOL     OW16747   1.475   3.435   7.603  0.5013 -0.0401  0.8111
 1763SOL    HW116748   1.491   3.357   7.656 -0.8574 -1.6480 -1.1699
 1763SOL    HW216749   1.465   3.492   7.679  0.3134 -0.5413  1.1605
 1764SOL     OW16750   4.698   0.123   5.911  0.7951 -0.2562 -0.2188
 1764SOL    HW116751   4.724   0.042   5.954  0.8088 -0.8894 -1.4098
 1764SOL    HW216752   4.622   0.146   5.964  1.2224 -0.6270  0.5500
 1765SOL     OW16753   1.248   0.794   2.242 -0.1960  0.3763 -0.3441
 1765SOL    HW116754   1.258   0.836   2.327  0.9377 -0.4358 -0.0637
 1765SOL    HW216755   1.191   0.720   2.264  0.7866  0.2379  1.6929
 1766SOL     OW16756   0.737   4.512  12.854 -0.7836 -0.1066  0.2542
 1766SOL    HW116757   0.821   4.555  12.870 -0.7566 -1.0054  2.4879
 1766SOL    HW216758   0.744   4.479  12.764 -0.9334 -2.6004  1.1413
 1767SOL     OW16759   1.018   1.591   7.246  0.5926  0.5214  0.4548
 1767SOL    HW116760   0.952   1.563   7.309 -0.7005  0.1079 -1.1014
 1767SOL    HW216761   1.081   1.519   7.252 -0.7271 -0.5229  1.7789
 1768SOL     OW16762   3.677   1.651   9.889 -0.5365 -0.4704 -0.9617
 1768SOL    HW116763   3.746   1.716   9.898 -0.6556 -0.7547  2.0162
 1768SOL    HW216764   3.656   1.660   9.796 -0.1596  4.0582 -0.6236
 1769SOL     OW16765   0.400   4.435   0.705  0.1948  0.1347 -0.6998
 1769SOL    HW116766   0.347   4.359   0.726 -0.1528  1.2547  2.4844
 1769SOL    HW216767   0.421   4.465   0.793  1.5209  0.1172 -1.0111
 1770SOL     OW16768   1.290   3.825  17.304  0.7210 -0.0203 -0.1730
 1770SOL    HW116769   1.268   3.829  17.211 -1.5497 -0.2424  0.3765
 1770SOL    HW216770   1.232   3.890  17.344  0.5142 -1.8012  2.3810
 1771SOL     OW16771   2.677   0.223  15.158 -0.2016  0.3556  0.4255
 1771SOL    HW116772   2.685   0.152  15.222 -0.2445 -1.3938 -1.4819
 1771SOL    HW216773   2.617   0.187  15.092 -0.8636  1.9859  0.1479
 1772SOL     OW16774   0.862   3.649  15.047 -1.0253 -0.3477  0.2307
 1772SOL    HW116775   0.942   3.596  15.045 -0.6185  0.2344  1.1886
 1772SOL    HW216776   0.806   3.595  15.103 -2.8128  3.0283  1.6985
 1773SOL     OW16777   4.461   0.743   0.797  0.3553 -0.3319  0.6130
 1773SOL    HW116778   4.491   0.748   0.706 -0.7187 -3.4223  0.1146
 1773SOL    HW216779   4.428   0.832   0.809  0.3807 -0.1611 -0.5390
 1774SOL     OW16780   3.943   1.600   0.112 -0.0755 -0.0852 -0.0372
 1774SOL    HW116781   3.932   1.563   0.199 -1.8341  0.5722  0.0236
 1774SOL    HW216782   4.008   1.545   0.069 -0.0424  0.1164 -0.2448
 1775SOL     OW16783   2.342   0.694   4.161  0.0448 -0.4892  0.6335
 1775SOL    HW116784   2.369   0.771   4.210  0.7011 -0.3137 -0.0140
 1775SOL    HW216785   2.310   0.716   4.074  1.6101  0.5162  0.3223
 1776SOL     OW16786   1.454   2.883  15.634 -0.6752 -0.5221 -0.5259
 1776SOL    HW116787   1.541   2.920  15.629 -0.7757 -0.3634 -1.1574
 1776SOL    HW216788   1.424   2.936  15.708  2.2993  1.4726 -0.8045
 1777SOL     OW16789   1.243   0.920   7.376 -0.1527 -0.2966 -0.1833
 1777SOL    HW116790   1.165   0.888   7.330  0.1217 -2.1974  0.6750
 1777SOL    HW216791   1.239   0.865   7.454  0.9912  0.4899  0.4205
 1778SOL     OW16792   3.483   4.674   6.185 -0.1314  0.1656 -0.1808
 1778SOL    HW116793   3.468   0.022   6.245 -0.4794 -0.2784  0.2755
 1778SOL    HW216794   3.522   4.609   6.244 -1.1030  0.0891  0.3787
 1779SOL     OW16795   4.280   3.227   5.865  0.1455 -0.5657 -0.6033
 1779SOL    HW116796   4.343   3.273   5.921 -0.8408  1.4975 -1.1955
 1779SOL    HW216797   4.205   3.283   5.882 -0.0932 -1.3430  0.8766
 1780SOL     OW16798   3.662   3.774  16.119  0.4835 -0.0801 -0.0940
 1780SOL    HW116799   3.674   3.731  16.204  0.4456 -0.0154 -0.0561
 1780SOL    HW216800   3.752   3.783  16.089 -0.5038  2.3488 -2.2370
 1781SOL     OW16801   0.638   4.168  13.552  0.2869  0.3906  0.0643
 1781SOL    HW116802   0.654   4.221  13.473  0.2892  0.3850  0.0610
 1781SOL    HW216803   0.568   4.217  13.595 -0.1147  0.6068 -0.8273
 1782SOL     OW16804   4.186   3.996   2.401  0.0294  0.0736 -0.0976
 1782SOL    HW116805   4.121   4.055   2.363  0.4702  0.3718 -0.3848
 1782SOL    HW216806   4.232   3.970   2.322 -1.8742 -0.4203 -1.0183
 1783SOL     OW16807   0.151   1.775   1.996  0.2498 -0.1299 -0.2037
 1783SOL    HW116808   0.148   1.861   1.953 -0.2414  0.3977  0.8770
 1783SOL    HW216809   0.245   1.777   2.009 -0.2439  1.9472  3.0521
 1784SOL     OW16810   0.680   0.214  15.149 -0.0748 -0.5840  0.2614
 1784SOL    HW116811   0.725   0.134  15.124  1.0246 -0.4826  1.8949
 1784SOL    HW216812   0.604   0.204  15.091  0.3639  0.4102 -0.4858
 1785SOL     OW16813   4.310   0.981  16.733 -0.1690  0.5193 -0.7122
 1785SOL    HW116814   4.237   1.040  16.719  0.2804  0.3607 -3.8451
 1785SOL    HW216815   4.271   0.907  16.781 -0.8200  1.2781 -0.0800
 1786SOL     OW16816   2.108   2.781   2.766 -0.1066  0.0582  0.2235
 1786SOL    HW116817   2.183   2.839   2.771 -2.3298  3.0058 -0.2973
 1786SOL    HW216818   2.077   2.813   2.851  1.7744 -0.3892  1.0744
 1787SOL     OW16819   4.326   1.174  14.294 -0.2664  0.2435  0.2936
 1787SOL    HW116820   4.388   1.115  14.338  2.4569  1.6198 -1.6457
 1787SOL    HW216821   4.348   1.156  14.202 -0.7384 -0.4477  0.3133
 1788SOL     OW16822   1.323   3.329   4.297  0.0490  0.4093 -0.3201
 1788SOL    HW116823   1.237   3.307   4.261 -1.2786  3.4285  0.9741
 1788SOL    HW216824   1.375   3.274   4.239  0.4593  0.8653 -0.3815
 1789SOL     OW16825   1.740   0.304   3.675  0.3957  0.3480 -0.5651
 1789SOL    HW116826   1.833   0.307   3.654  0.3601 -0.7908 -0.8923
 1789SOL    HW216827   1.719   0.217   3.641 -2.3119  0.0586  1.8249
 1790SOL     OW16828   3.344   3.224  16.392  0.3067 -0.2815 -0.0511
 1790SOL    HW116829   3.328   3.258  16.304 -2.2176 -0.0490  0.5015
 1790SOL    HW216830   3.263   3.195  16.433 -0.5439  1.8640 -0.1967
 1791SOL     OW16831   0.091   0.447  11.180 -0.6958  0.6758 -0.5579
 1791SOL    HW116832   0.086   0.515  11.113 -1.2972 -0.2368 -1.4277
 1791SOL    HW216833   0.013   0.394  11.162 -0.3944 -0.1122  0.4451
 1792SOL     OW16834   0.524   0.239   8.381 -0.2794  0.0934 -0.6840
 1792SOL    HW116835   0.601   0.286   8.411 -1.3996 -0.1445  2.5902
 1792SOL    HW216836   0.465   0.248   8.456  0.2562  0.7308 -0.3508
 1793SOL     OW16837   1.631   3.895  14.573  0.0817  0.0541 -0.0726
 1793SOL    HW116838   1.713   3.866  14.535 -0.4046 -1.0674 -0.2649
 1793SOL    HW216839   1.591   3.817  14.610 -1.5053  1.9866  2.3078
 1794SOL     OW16840   3.182   1.955   4.483 -0.3463  0.3819  0.0735
 1794SOL    HW116841   3.263   1.903   4.487  0.1443  1.2717  1.4760
 1794SOL    HW216842   3.183   1.972   4.389 -1.4613  1.7226  0.3141
 1795SOL     OW16843   1.843   1.401   6.194  0.5301 -0.1497 -0.2737
 1795SOL    HW116844   1.846   1.306   6.188 -2.1408 -0.2368 -0.5345
 1795SOL    HW216845   1.934   1.426   6.208  1.3332 -1.5070 -3.2729
 1796SOL     OW16846   3.406   3.042   6.814 -0.0842  0.1406 -0.5287
 1796SOL    HW116847   3.445   3.049   6.727 -0.5327 -1.7013 -0.8712
 1796SOL    HW216848   3.336   2.978   6.809  0.5019 -0.5886  0.8002
 1797SOL     OW16849   1.362   1.804  15.539 -0.1823 -0.3566 -0.1252
 1797SOL    HW116850   1.290   1.863  15.517  1.3864  2.1280  1.3469
 1797SOL    HW216851   1.412   1.820  15.459 -0.6427  2.3037  0.1095
 1798SOL     OW16852   1.759   0.083   7.746 -0.2945  0.2813  0.5976
 1798SOL    HW116853   1.766   4.714   7.731 -0.8718  0.0265  2.0019
 1798SOL    HW216854   1.813   0.085   7.825  0.9399 -1.5981 -0.1918
 1799SOL     OW16855   3.779   2.642  13.596 -0.0572  0.4026 -1.0864
 1799SOL    HW116856   3.727   2.678  13.668  0.4297  1.5004 -1.2875
 1799SOL    HW216857   3.709   2.602  13.545  0.3366  0.4956 -1.7012
 1800SOL     OW16858   4.357   1.233  10.638 -0.2322  0.4343 -0.3701
 1800SOL    HW116859   4.377   1.326  10.631 -0.7836  0.5135 -0.9208
 1800SOL    HW216860   4.347   1.205  10.547  3.6608  0.7606 -0.8842
 1801SOL     OW16861   1.022   3.325  10.562  0.4238 -0.3536 -0.0041
 1801SOL    HW116862   1.017   3.244  10.612  0.5745 -0.3087  0.0829
 1801SOL    HW216863   1.063   3.289  10.483 -1.8014 -2.8850 -0.0017
 1802SOL     OW16864   3.671   2.575  15.976  0.3345 -0.0693  0.6270
 1802SOL    HW116865   3.712   2.527  16.049 -0.4797  1.3537  2.0310
 1802SOL    HW216866   3.586   2.539  15.951  1.8879 -1.7873 -2.1667
 1803SOL     OW16867   3.213   2.665   3.462  0.0927  0.2616 -0.0176
 1803SOL    HW116868   3.151   2.721   3.417 -0.8978 -2.3824 -1.9165
 1803SOL    HW216869   3.241   2.721   3.535 -1.3758 -3.4522  3.4466
 1804SOL     OW16870   3.397   1.077   1.971  0.3334 -0.7074  0.2200
 1804SOL    HW116871   3.383   1.120   1.887  1.9124  0.6322  0.6462
 1804SOL    HW216872   3.385   1.144   2.039 -0.7111  0.7840 -1.4217
 1805SOL     OW16873   2.701   2.789   4.279  0.4362  0.9665  0.4671
 1805SOL    HW116874   2.652   2.736   4.216 -1.5196  0.9688  1.9596
 1805SOL    HW216875   2.633   2.850   4.307  2.0745  1.4869  3.3793
 1806SOL     OW16876   2.021   2.389   0.921  0.3401 -0.3599 -0.6327
 1806SOL    HW116877   2.073   2.315   0.892  1.0081 -0.2058  0.1756
 1806SOL    HW216878   2.058   2.400   1.008 -2.0327  0.0278  0.3459
 1807SOL     OW16879   1.104   4.398   7.357 -0.2383 -0.2579 -0.1787
 1807SOL    HW116880   1.047   4.330   7.322  0.6612  0.3694 -2.8303
 1807SOL    HW216881   1.177   4.347   7.392  1.6777  0.5835 -2.9442
 1808SOL     OW16882   1.428   1.594   7.399 -0.1936 -0.1724 -0.3824
 1808SOL    HW116883   1.515   1.632   7.412  0.3151 -1.1207 -0.9473
 1808SOL    HW216884   1.391   1.657   7.337  3.0659  0.5126 -1.6646
 1809SOL     OW16885   3.578   1.511  14.151  0.0607 -0.0269 -0.0759
 1809SOL    HW116886   3.509   1.532  14.215  0.0493  2.9405 -1.0398
 1809SOL    HW216887   3.548   1.430  14.110  1.1338 -1.6990  2.4561
 1810SOL     OW16888   1.397   0.387   0.937 -0.2121  0.2370  0.6578
 1810SOL    HW116889   1.453   0.455   0.974  0.5200 -0.1022  0.1783
 1810SOL    HW216890   1.314   0.432   0.954  0.2869  0.5164  2.3747
 1811SOL     OW16891   1.870   4.347   2.297 -0.4400  0.2324  0.4854
 1811SOL    HW116892   1.809   4.371   2.227 -0.4356 -1.7716 -0.2093
 1811SOL    HW216893   1.831   4.267   2.332 -1.5763  0.0590 -1.1809
 1812SOL     OW16894   4.081   3.440   0.631 -0.4803 -0.3470 -0.1413
 1812SOL    HW116895   4.171   3.414   0.649 -0.3321  0.1309 -0.1859
 1812SOL    HW216896   4.067   3.378   0.560  0.2580  0.8398 -1.3289
 1813SOL     OW16897   0.985   3.648   2.759 -0.1750  0.6460  0.5871
 1813SOL    HW116898   0.942   3.688   2.835 -1.8245  0.3734 -0.2191
 1813SOL    HW216899   1.001   3.558   2.787 -0.8742  0.2964 -0.1472
 1814SOL     OW16900   4.223   2.968   8.138 -0.1724 -0.5657  0.1317
 1814SOL    HW116901   4.251   3.054   8.108  2.3015 -1.2781  0.4400
 1814SOL    HW216902   4.267   2.920   8.069 -0.3636 -0.4883 -0.0450
 1815SOL     OW16903   3.004   0.253   6.742  0.5397 -0.4577  0.5400
 1815SOL    HW116904   3.021   0.313   6.815 -1.0856  0.7164 -0.0501
 1815SOL    HW216905   2.983   0.317   6.674  2.3135 -0.1364  0.2840
 1816SOL     OW16906   1.579   2.334  11.907 -0.3410  0.2717  0.4996
 1816SOL    HW116907   1.645   2.361  11.971 -0.7750  2.4671 -0.0138
 1816SOL    HW216908   1.516   2.285  11.959 -0.1164 -1.9507 -1.3100
 1817SOL     OW16909   1.245   4.252   0.771  0.4259  0.2786 -0.1861
 1817SOL    HW116910   1.231   4.194   0.696  0.7508 -0.1470  0.0839
 1817SOL    HW216911   1.302   4.320   0.735 -0.3277  0.3145 -1.3276
 1818SOL     OW16912   0.071   1.266   4.654  0.4045  0.2510 -0.3443
 1818SOL    HW116913   0.106   1.313   4.730  0.9937 -0.7053 -0.0248
 1818SOL    HW216914   0.052   1.182   4.694 -0.0964  1.6458  2.3309
 1819SOL     OW16915   2.647   2.670   3.354 -0.3434  0.1720  0.0394
 1819SOL    HW116916   2.648   2.706   3.443  2.6687  0.2721 -0.0251
 1819SOL    HW216917   2.596   2.737   3.310 -0.1812  1.6654  2.0952
 1820SOL     OW16918   2.440   1.208   7.478 -0.3646 -0.2851 -0.3003
 1820SOL    HW116919   2.390   1.243   7.404 -3.2055 -2.0693  0.7850
 1820SOL    HW216920   2.374   1.152   7.518 -0.6868 -0.8101 -1.5642
 1821SOL     OW16921   3.955   2.299  16.927 -0.3098 -0.0981 -0.0741
 1821SOL    HW116922   4.038   2.271  16.890 -0.0818  0.5725 -0.0704
 1821SOL    HW216923   3.903   2.282  16.848  2.3768 -0.7587 -1.6828
 1822SOL     OW16924   3.620   4.312  17.037 -0.3204  0.2168  0.1283
 1822SOL    HW116925   3.673   4.234  17.048 -1.5948 -0.9115 -1.5232
 1822SOL    HW216926   3.674   4.348  16.967  1.1954 -0.2313  1.0928
 1823SOL     OW16927   2.661   3.254   7.959 -0.0185 -0.1937  0.3435
 1823SOL    HW116928   2.641   3.187   8.025 -2.0962 -0.5303 -0.6373
 1823SOL    HW216929   2.722   3.303   8.016 -1.7111  1.0657  1.0620
 1824SOL     OW16930   3.317   4.437   8.526 -0.3905  0.3815 -0.2600
 1824SOL    HW116931   3.393   4.469   8.477 -0.1682 -0.8363 -0.7167
 1824SOL    HW216932   3.312   4.346   8.497 -0.5430  0.9666 -2.1125
 1825SOL     OW16933   2.171   2.847   8.202  0.4729  0.0478  0.2221
 1825SOL    HW116934   2.128   2.830   8.119  0.7144  0.3752  0.0308
 1825SOL    HW216935   2.140   2.934   8.228 -0.5349  0.0732 -1.1058
 1826SOL     OW16936   2.374   3.896   7.717  0.0284  0.2688  0.4553
 1826SOL    HW116937   2.439   3.960   7.690 -0.8340 -0.2630 -2.7948
 1826SOL    HW216938   2.398   3.818   7.667 -0.3076  0.3689  0.1419
 1827SOL     OW16939   4.410   1.187   4.585  0.5939  0.1660 -0.2685
 1827SOL    HW116940   4.443   1.112   4.536  1.0031  1.0436 -1.3409
 1827SOL    HW216941   4.477   1.255   4.571  0.7684  0.5086  2.2037
 1828SOL     OW16942   4.012   4.153   5.894  0.1460 -0.5474  0.1207
 1828SOL    HW116943   3.970   4.200   5.967 -0.9590 -2.2005  0.5640
 1828SOL    HW216944   3.973   4.066   5.907  0.4220 -0.6326  0.3876
 1829SOL     OW16945   0.632   3.931   3.233 -0.0647  0.2092  0.0491
 1829SOL    HW116946   0.688   3.966   3.165  0.7665  1.2766  1.2770
 1829SOL    HW216947   0.680   3.867   3.286  0.2419  0.4403  0.0514
 1830SOL     OW16948   3.450   2.999   1.195  0.0992 -0.3083 -1.0546
 1830SOL    HW116949   3.453   3.021   1.102  0.2621  1.0551 -0.7213
 1830SOL    HW216950   3.376   3.052   1.224  0.4738  0.8115 -2.1430
 1831SOL     OW16951   4.063   4.133  14.053 -0.6252  0.5073  0.3141
 1831SOL    HW116952   3.983   4.181  14.069 -1.2308 -0.3729 -0.0584
 1831SOL    HW216953   4.026   4.044  14.049  0.0168  0.3695 -2.3182
 1832SOL     OW16954   3.121   0.570  12.837 -0.3467 -0.4852 -0.2228
 1832SOL    HW116955   3.125   0.602  12.927  2.8624  0.7051 -0.7660
 1832SOL    HW216956   3.195   0.510  12.844 -0.3337 -0.4977 -0.4557
 1833SOL     OW16957   1.511   3.670  14.680  0.3166 -0.3181 -0.5474
 1833SOL    HW116958   1.422   3.701  14.667 -0.3823 -2.1555 -0.1433
 1833SOL    HW216959   1.498   3.581  14.711 -0.3477  0.2584  0.8101
 1834SOL     OW16960   1.065   0.351   7.934 -0.3236 -0.2478 -0.4158
 1834SOL    HW116961   1.019   0.339   8.016  2.0655 -2.4257  0.6009
 1834SOL    HW216962   1.146   0.308   7.961 -1.5885 -1.9739  0.5672
 1835SOL     OW16963   2.373   4.261   3.946 -0.2370 -0.7245  0.2066
 1835SOL    HW116964   2.452   4.208   3.935 -0.8717 -1.0334 -2.8839
 1835SOL    HW216965   2.375   4.269   4.041  0.0923  3.2555 -0.1142
 1836SOL     OW16966   1.760   1.794   2.551  0.4301  0.0620 -0.2125
 1836SOL    HW116967   1.830   1.854   2.575  0.5735 -0.5788  0.9334
 1836SOL    HW216968   1.763   1.789   2.455 -0.1529 -1.1873 -0.1690
 1837SOL     OW16969   3.473   3.950  16.116 -0.0250 -0.1732  0.3339
 1837SOL    HW116970   3.540   3.884  16.135 -0.6453 -1.1121 -0.7280
 1837SOL    HW216971   3.464   3.996  16.199 -0.4469  0.3474  0.0002
 1838SOL     OW16972   2.063   2.911   5.666 -0.3276 -0.6588 -0.5072
 1838SOL    HW116973   1.992   2.869   5.617 -0.9930 -1.4625  1.1618
 1838SOL    HW216974   2.015   2.932   5.745  2.3286  1.2199  0.5942
 1839SOL     OW16975   4.680   0.317  13.918 -0.1569  0.2606 -0.2236
 1839SOL    HW116976   0.003   0.395  13.944 -1.1148  1.0880 -0.9663
 1839SOL    HW216977   4.621   0.348  13.849 -1.1295  0.7456  0.8242
 1840SOL     OW16978   4.163   0.516  15.230 -0.4487 -0.1010 -0.4519
 1840SOL    HW116979   4.085   0.522  15.285 -0.6958 -1.5719 -0.6512
 1840SOL    HW216980   4.228   0.517  15.300  0.4496 -1.7856 -1.2605
 1841SOL     OW16981   1.546   0.718   7.498 -0.5386  0.3997  0.1165
 1841SOL    HW116982   1.598   0.648   7.458  0.2063  1.6952 -1.1838
 1841SOL    HW216983   1.585   0.799   7.465  0.9134  0.1051  1.1293
 1842SOL     OW16984   1.511   2.476   9.726  0.6187  0.1504  0.3594
 1842SOL    HW116985   1.431   2.458   9.678  1.4609 -0.3297 -0.8717
 1842SOL    HW216986   1.534   2.386   9.751  0.1853  0.0616  0.4260
 1843SOL     OW16987   3.737   3.210  12.957  0.5519 -0.4603 -0.2211
 1843SOL    HW116988   3.780   3.158  13.025 -1.1652 -0.0773  1.1330
 1843SOL    HW216989   3.664   3.151  12.935  0.0270  0.5473 -1.1633
 1844SOL     OW16990   4.396   3.756   1.306 -0.3980  0.2280  0.0835
 1844SOL    HW116991   4.454   3.831   1.304 -1.0521  0.7801  1.9103
 1844SOL    HW216992   4.463   3.689   1.319 -1.3985 -0.2270  2.8206
 1845SOL     OW16993   4.639   2.260   5.419 -0.1158  0.3983  0.6965
 1845SOL    HW116994   4.554   2.259   5.463 -0.2558  3.5434  0.5367
 1845SOL    HW216995   4.693   2.196   5.465 -0.3429  1.3951  2.3602
 1846SOL     OW16996   1.124   0.628   8.541 -0.6575 -0.5649 -0.1249
 1846SOL    HW116997   1.182   0.703   8.526 -2.0327  0.1941 -1.5876
 1846SOL    HW216998   1.046   0.652   8.493 -0.2781  0.1473 -0.3834
 1847SOL     OW16999   3.707   2.197   9.747 -0.1909 -0.1175 -0.4974
 1847SOL    HW117000   3.725   2.285   9.713  3.3057 -0.1168  1.3574
 1847SOL    HW217001   3.673   2.155   9.668  1.0634 -0.0548 -1.0725
 1848SOL     OW17002   2.743   4.394   7.588 -0.8059 -0.1326 -0.7701
 1848SOL    HW117003   2.759   4.306   7.555  0.6187 -0.2518  0.2367
 1848SOL    HW217004   2.830   4.415   7.619 -1.3484 -2.1557  2.0772
 1849SOL     OW17005   3.238   1.690   0.176 -0.6594 -0.8058  0.2748
 1849SOL    HW117006   3.291   1.628   0.126  0.5337  2.8784 -3.0261
 1849SOL    HW217007   3.200   1.732   0.098  4.0150 -0.4272 -1.8043
 1850SOL     OW17008   3.201   0.229   5.274 -0.1559 -0.1004 -0.6072
 1850SOL    HW117009   3.183   0.200   5.363 -0.1940 -1.1778 -0.9563
 1850SOL    HW217010   3.117   0.212   5.231 -0.6924  3.4906 -0.9486
 1851SOL     OW17011   1.882   2.566   6.725  0.2959  0.4545 -0.5260
 1851SOL    HW117012   1.911   2.475   6.733 -0.5102  0.3433  0.9795
 1851SOL    HW217013   1.797   2.555   6.767  0.1018  1.7482 -0.5957
 1852SOL     OW17014   1.080   3.843   7.395 -0.0389 -0.2355 -0.6817
 1852SOL    HW117015   1.124   3.928   7.393  1.2091 -0.7936  2.5238
 1852SOL    HW217016   1.015   3.853   7.464  1.3036  2.0319  0.2460
 1853SOL     OW17017   1.597   1.630  12.088  0.4544 -0.1691  0.2593
 1853SOL    HW117018   1.614   1.698  12.153 -1.9365  0.1016  0.6307
 1853SOL    HW217019   1.505   1.620  12.115 -0.4121  1.6235 -2.0550
 1854SOL     OW17020   1.955   1.988   6.226  0.3562 -0.1600 -0.3484
 1854SOL    HW117021   1.910   1.908   6.253 -0.8046  1.1445  1.5960
 1854SOL    HW217022   1.980   1.976   6.134 -0.8669  0.0271 -0.7012
 1855SOL     OW17023   1.262   0.223   5.260 -0.1528  0.0475 -0.3884
 1855SOL    HW117024   1.299   0.257   5.179 -1.3672  0.0603 -0.9326
 1855SOL    HW217025   1.208   0.148   5.235 -2.1077  1.5341 -0.6030
 1856SOL     OW17026   2.611   1.369   1.492 -0.1553 -0.0478 -0.3187
 1856SOL    HW117027   2.579   1.281   1.513 -2.6372  1.2728  1.3768
 1856SOL    HW217028   2.536   1.419   1.461 -0.7767 -0.8224 -0.0561
 1857SOL     OW17029   3.794   1.870   3.433 -0.2259 -0.2196  0.1343
 1857SOL    HW117030   3.699   1.881   3.442 -0.0385  2.3104 -0.9495
 1857SOL    HW217031   3.824   1.958   3.454 -1.3374  0.4446 -1.0336
 1858SOL     OW17032   1.013   0.671  16.092  0.0170  0.0754  0.3805
 1858SOL    HW117033   1.073   0.679  16.166 -0.2802  1.3990  0.4836
 1858SOL    HW217034   0.932   0.647  16.136  0.2827  0.5669  1.1409
 1859SOL     OW17035   2.183   1.725  11.031 -0.1099  0.6034 -0.3142
 1859SOL    HW117036   2.124   1.800  11.036  1.2218  1.6207  0.2684
 1859SOL    HW217037   2.119   1.657  11.010 -1.9870  1.3637  2.8770
 1860SOL     OW17038   1.276   2.493   3.245 -0.4629  0.3456 -0.0189
 1860SOL    HW117039   1.267   2.449   3.160 -1.2292  0.8564 -0.2023
 1860SOL    HW217040   1.275   2.584   3.214  1.3159 -0.0044 -1.1129
 1861SOL     OW17041   0.040   3.660   1.578 -0.0034  0.3319  0.4199
 1861SOL    HW117042   0.100   3.722   1.619 -2.7595  2.2672  1.5327
 1861SOL    HW217043   0.101   3.586   1.570 -1.3638 -0.6675 -0.7043
 1862SOL     OW17044   0.766   4.011  11.300  0.2802  0.1184  0.1534
 1862SOL    HW117045   0.813   4.086  11.263  0.4279  0.1019  0.3106
 1862SOL    HW217046   0.689   4.005  11.243  0.0427  0.6516  0.4151
 1863SOL     OW17047   3.889   0.318   2.410 -0.5208  0.1824  0.4494
 1863SOL    HW117048   3.888   0.239   2.464  0.9987 -1.3670 -1.8116
 1863SOL    HW217049   3.973   0.313   2.364 -0.7085 -2.7862  0.4127
 1864SOL     OW17050   2.070   3.429   4.462  0.5085  0.0221  0.1038
 1864SOL    HW117051   1.993   3.376   4.484  1.7729 -1.7448  0.2697
 1864SOL    HW217052   2.087   3.468   4.548  0.7180  2.9576 -1.2779
 1865SOL     OW17053   2.457   2.008   1.364 -0.1885 -0.9642 -0.3876
 1865SOL    HW117054   2.551   2.023   1.374 -0.6421  0.8678  1.1455
 1865SOL    HW217055   2.454   1.956   1.284 -2.8897  0.5105 -1.2396
 1866SOL     OW17056   4.687   2.093  12.499 -0.2830  0.1858  0.2310
 1866SOL    HW117057   4.636   2.014  12.484  0.9141 -0.0641 -2.6555
 1866SOL    HW217058   0.036   2.077  12.441 -0.5414 -0.6226  0.1290
 1867SOL     OW17059   3.709   1.230   2.289 -0.2109  0.1177 -0.3565
 1867SOL    HW117060   3.624   1.273   2.280 -0.2659  0.0037 -0.3733
 1867SOL    HW217061   3.752   1.307   2.328 -1.0434 -0.3516  1.4914
 1868SOL     OW17062   2.251   2.957   3.324  0.8066  1.0817 -0.4120
 1868SOL    HW117063   2.252   3.026   3.257  0.7963 -0.3848 -1.9302
 1868SOL    HW217064   2.338   2.916   3.324  0.2749 -0.0192  0.0803
 1869SOL     OW17065   1.882   3.222   5.678 -0.1378 -0.0208  0.4379
 1869SOL    HW117066   1.898   3.172   5.598  0.0115  1.6129 -0.5514
 1869SOL    HW217067   1.893   3.153   5.743  0.5989 -1.2185 -0.9670
 1870SOL     OW17068   1.300   0.541   5.636  0.0163  0.0027  0.3208
 1870SOL    HW117069   1.274   0.516   5.725  2.0518 -1.0146  0.6233
 1870SOL    HW217070   1.219   0.521   5.588  2.3086  0.9106 -3.8961
 1871SOL     OW17071   4.543   3.828   7.753 -0.3737  0.2138  0.2649
 1871SOL    HW117072   4.563   3.841   7.660 -1.3490 -3.0809 -0.3848
 1871SOL    HW217073   4.560   3.916   7.788 -0.9407  1.1239 -1.7245
 1872SOL     OW17074   3.160   4.391   0.399 -0.2181 -0.6619  0.2220
 1872SOL    HW117075   3.164   4.485   0.418  1.4328 -0.6392 -0.1581
 1872SOL    HW217076   3.094   4.388   0.329  0.8887  1.5210 -0.9376
 1873SOL     OW17077   1.012   0.196   2.447 -0.0965  0.2678 -0.0516
 1873SOL    HW117078   0.958   0.117   2.443 -0.0450  0.2371 -0.1380
 1873SOL    HW217079   0.981   0.234   2.365 -1.8072  1.7232  1.2857
 1874SOL     OW17080   0.318   0.631   7.182 -0.5076  0.4688 -0.0362
 1874SOL    HW117081   0.307   0.536   7.177 -0.5369  0.5531 -1.5566
 1874SOL    HW217082   0.397   0.640   7.129  1.2255 -0.9685  2.3046
 1875SOL     OW17083   4.445   4.568   6.333 -0.3546  0.2983 -0.3175
 1875SOL    HW117084   4.472   4.501   6.270  1.3575  0.0037  0.7070
 1875SOL    HW217085   4.533   4.599   6.354 -0.0656 -0.6334 -0.1416
 1876SOL     OW17086   4.636   0.886   7.431 -0.3271 -0.4174 -0.1383
 1876SOL    HW117087   4.555   0.850   7.468 -1.2627 -0.4143 -2.2105
 1876SOL    HW217088   4.686   0.808   7.405  1.1884  0.3297  0.5493
 1877SOL     OW17089   2.140   3.565   8.365 -0.8673 -0.0513  0.8857
 1877SOL    HW117090   2.215   3.573   8.305 -1.2662  1.1339  0.5537
 1877SOL    HW217091   2.095   3.649   8.357  1.5356  1.1450 -0.1098
 1878SOL     OW17092   3.100   0.726  16.925 -0.7824 -0.0410  0.7744
 1878SOL    HW117093   3.110   0.673  16.846  1.0775  2.6239 -0.7566
 1878SOL    HW217094   3.182   0.775  16.930 -0.4476 -0.6109  0.9177
 1879SOL     OW17095   2.564   2.092  10.017  0.1926  0.0560 -0.1806
 1879SOL    HW117096   2.528   2.120   9.932 -0.9691 -1.2860 -0.1291
 1879SOL    HW217097   2.582   2.003   9.985 -0.6637  0.5465 -2.0621
 1880SOL     OW17098   2.549   1.867   0.337  0.0226  0.2120  0.7099
 1880SOL    HW117099   2.465   1.905   0.363  0.0997  0.8256  0.0753
 1880SOL    HW217100   2.519   1.847   0.248  2.4705  1.3244 -0.3528
 1881SOL     OW17101   3.265   3.476   0.035  0.6172  0.3435 -0.4921
 1881SOL    HW117102   3.238   3.558   0.076  0.3069  0.0354 -0.0681
 1881SOL    HW217103   3.273   3.426   0.116  4.3610  0.3495 -0.8814
 1882SOL     OW17104   0.737   3.231   3.923 -0.0552  0.0070 -0.1764
 1882SOL    HW117105   0.737   3.274   4.008  0.1938 -0.2807 -0.0306
 1882SOL    HW217106   0.651   3.253   3.889 -0.6416 -0.1961  1.1941
 1883SOL     OW17107   1.755   3.389   8.132 -0.3118  0.5989 -0.6614
 1883SOL    HW117108   1.696   3.404   8.206 -2.3549  1.2591 -2.4364
 1883SOL    HW217109   1.833   3.403   8.186  0.8570 -0.3506 -2.0853
 1884SOL     OW17110   4.440   3.528  17.638  0.3035 -0.2615  0.1956
 1884SOL    HW117111   4.427   3.446  17.685  1.2161 -1.0549 -0.9439
 1884SOL    HW217112   4.530   3.539  17.666  0.3171 -0.5930  0.2809
 1885SOL     OW17113   1.797   0.015   2.542 -0.5465  0.4204 -0.4029
 1885SOL    HW117114   1.831   0.061   2.465 -1.2662 -0.6604 -1.3725
 1885SOL    HW217115   1.826   0.080   2.607 -1.2545  0.0553  0.2751
 1886SOL     OW17116   1.809   2.772   1.745  0.5657  0.2157  0.2075
 1886SOL    HW117117   1.833   2.750   1.655  2.7495  0.7022  0.6823
 1886SOL    HW217118   1.893   2.794   1.785  1.1056  0.0376 -0.8497
 1887SOL     OW17119   0.516   3.301   4.290  0.4529  0.2304  0.0142
 1887SOL    HW117120   0.443   3.344   4.335  0.7123 -0.6177  1.2409
 1887SOL    HW217121   0.480   3.222   4.251  0.1107  0.5403 -0.2950
 1888SOL     OW17122   2.786   1.354  10.534  0.2310 -0.0741  0.8671
 1888SOL    HW117123   2.778   1.401  10.451  0.6311  0.2338  1.0027
 1888SOL    HW217124   2.721   1.398  10.589 -0.7865 -0.0886 -0.3257
 1889SOL     OW17125   4.527   0.282   4.053  0.1068 -0.5402  0.8517
 1889SOL    HW117126   4.523   0.189   4.031 -1.1630  0.0070 -1.2362
 1889SOL    HW217127   4.578   0.269   4.133  0.6470  1.0885  0.7645
 1890SOL     OW17128   1.681   3.006   5.701 -0.0498  0.0079 -0.3357
 1890SOL    HW117129   1.623   3.054   5.643  2.2068  0.9696 -1.7941
 1890SOL    HW217130   1.622   3.001   5.776 -0.0741 -1.1123 -0.4265
 1891SOL     OW17131   2.976   0.516   2.632 -0.0128 -0.8342 -0.8198
 1891SOL    HW117132   2.929   0.495   2.712  0.3557  1.0377 -0.1165
 1891SOL    HW217133   2.961   0.610   2.620  0.9156 -0.4384  1.0808
 1892SOL     OW17134   3.693   3.702   3.264 -0.1505  0.4199  0.7843
 1892SOL    HW117135   3.743   3.713   3.184 -2.3716 -1.5094 -0.8621
 1892SOL    HW217136   3.604   3.692   3.229  0.0845  2.2102 -0.3471
 1893SOL     OW17137   0.616   0.327   3.933 -0.0146 -0.1284 -0.1185
 1893SOL    HW117138   0.613   0.359   3.843  0.5454  0.6628  0.1461
 1893SOL    HW217139   0.619   0.410   3.980 -2.1719  0.8117 -1.6486
 1894SOL     OW17140   4.136   1.952  15.368  0.2694  0.1945 -0.0517
 1894SOL    HW117141   4.113   1.866  15.404 -1.1054  0.8893  0.7321
 1894SOL    HW217142   4.231   1.944  15.371  0.4818  2.2443 -1.1370
 1895SOL     OW17143   0.794   2.886  11.450  0.3885 -0.1333  0.1656
 1895SOL    HW117144   0.714   2.921  11.411  1.4236 -0.2571 -2.0849
 1895SOL    HW217145   0.763   2.852  11.534 -0.4639  0.3287  0.0319
 1896SOL     OW17146   3.209   3.868   2.283  0.0479 -0.0089  0.5425
 1896SOL    HW117147   3.182   3.788   2.238  0.6680  1.1456 -1.8846
 1896SOL    HW217148   3.303   3.856   2.267 -0.3184 -2.0663  0.0175
 1897SOL     OW17149   2.197   1.937  12.633 -1.0805 -0.0779 -0.1439
 1897SOL    HW117150   2.271   1.993  12.615 -1.5283  0.6340  0.2352
 1897SOL    HW217151   2.190   1.880  12.556  0.7612 -0.4169 -0.0471
 1898SOL     OW17152   1.339   4.136  11.142  0.1218 -0.6243 -0.2428
 1898SOL    HW117153   1.424   4.163  11.107  0.4489 -0.9725  0.2884
 1898SOL    HW217154   1.288   4.217  11.148 -0.0842 -0.9025  1.8800
 1899SOL     OW17155   1.572   2.217   9.816 -0.1121  0.1970 -0.1169
 1899SOL    HW117156   1.657   2.247   9.849 -0.6310  1.6763 -0.1356
 1899SOL    HW217157   1.586   2.130   9.779 -0.3489  0.1743 -0.1558
 1900SOL     OW17158   2.947   4.470  13.763 -0.3342  0.2176  0.2608
 1900SOL    HW117159   2.929   4.445  13.672  4.2708  0.2525 -0.6547
 1900SOL    HW217160   2.880   4.414  13.803 -0.0069 -0.4016 -0.0566
 1901SOL     OW17161   2.860   0.920   4.796 -0.2632 -0.0607  0.5164
 1901SOL    HW117162   2.956   0.924   4.798 -0.2801  0.3889  0.5514
 1901SOL    HW217163   2.833   0.900   4.885 -1.5482  1.5201  0.4800
 1902SOL     OW17164   2.501   2.260  15.189 -0.4838  0.3547 -0.3706
 1902SOL    HW117165   2.511   2.169  15.162  0.1538  1.0883 -2.6006
 1902SOL    HW217166   2.453   2.258  15.272  1.5911  1.0973  0.8705
 1903SOL     OW17167   2.733   2.340   1.271 -0.0639  0.2732 -0.3150
 1903SOL    HW117168   2.713   2.387   1.190 -0.6654 -0.0728 -0.3655
 1903SOL    HW217169   2.734   2.425   1.315 -4.2765 -0.4527  1.1567
 1904SOL     OW17170   1.010   1.938  10.093  0.4995 -0.0954 -0.8957
 1904SOL    HW117171   1.082   1.893  10.138 -0.8479  1.6986  2.9906
 1904SOL    HW217172   1.036   1.948  10.001  1.3629  1.2868 -0.5086
 1905SOL     OW17173   2.390   4.613  10.609 -0.2332  0.3958  0.2269
 1905SOL    HW117174   2.469   4.655  10.576 -0.2585  0.2996  0.0425
 1905SOL    HW217175   2.358   4.565  10.533 -0.5922  1.5592 -0.3673
 1906SOL     OW17176   1.473   1.225   1.249 -0.3948 -0.6387 -0.5250
 1906SOL    HW117177   1.414   1.299   1.249 -0.2139 -0.4954 -0.4937
 1906SOL    HW217178   1.558   1.269   1.246 -1.6441  1.7182 -0.9116
 1907SOL     OW17179   3.968   0.020  12.432 -0.1232  0.1244  0.1507
 1907SOL    HW117180   3.918   0.101  12.438  1.3789  1.0011  0.7516
 1907SOL    HW217181   3.932   4.693  12.504 -2.0389 -0.9297 -1.5734
 1908SOL     OW17182   1.749   1.350   8.303  0.6164 -0.0075 -0.4296
 1908SOL    HW117183   1.800   1.340   8.383 -0.4447  0.8048  0.3523
 1908SOL    HW217184   1.786   1.285   8.243  0.3998  1.3784 -2.0744
 1909SOL     OW17185   3.488   2.150   4.407 -0.3074  0.1855 -0.2398
 1909SOL    HW117186   3.437   2.181   4.482  0.7318 -0.5187  0.7570
 1909SOL    HW217187   3.426   2.089   4.366 -0.3226  1.2001 -1.7088
 1910SOL     OW17188   4.537   3.979   8.718  0.5506  0.2114 -0.1796
 1910SOL    HW117189   4.518   3.945   8.805  0.7073 -0.1935 -0.2998
 1910SOL    HW217190   4.467   4.043   8.705  0.6047  0.2987 -0.0395
 1911SOL     OW17191   0.056   4.395   4.603  0.0066 -0.3932  0.1550
 1911SOL    HW117192   0.032   4.408   4.511  0.3075  1.9044  0.3974
 1911SOL    HW217193   0.130   4.457   4.607 -0.4703  0.1420  0.6388
 1912SOL     OW17194   0.850   0.404  17.164  0.0577 -0.1323 -0.1104
 1912SOL    HW117195   0.781   0.470  17.160  0.2361  0.1356  1.1895
 1912SOL    HW217196   0.848   0.395  17.260 -0.6730  1.1656 -0.0040
 1913SOL     OW17197   2.875   2.850   6.055 -0.0113 -0.3125  0.1313
 1913SOL    HW117198   2.869   2.943   6.034 -0.5574 -0.4897 -0.4840
 1913SOL    HW217199   2.923   2.810   5.984  0.9267 -1.3529  1.3524
 1914SOL     OW17200   1.284   2.397  10.294  0.0704 -1.1089  0.0308
 1914SOL    HW117201   1.330   2.352  10.223  0.6658 -1.6253  0.7397
 1914SOL    HW217202   1.221   2.335  10.332  3.1394 -3.0802  1.9325
 1915SOL     OW17203   0.955   3.214   7.838  0.8844 -0.0596  0.0940
 1915SOL    HW117204   0.892   3.270   7.793  1.3581 -1.3512 -2.2207
 1915SOL    HW217205   1.035   3.265   7.824  0.8589 -0.1158 -0.2799
 1916SOL     OW17206   0.712   1.521   9.354  0.0824 -0.4803 -0.1234
 1916SOL    HW117207   0.785   1.583   9.355 -0.3345  0.0142 -0.9613
 1916SOL    HW217208   0.712   1.496   9.447  0.9555  0.2316  0.0662
 1917SOL     OW17209   1.912   0.429   5.474  0.0898 -0.2345  0.4936
 1917SOL    HW117210   1.910   0.471   5.560  0.6370 -2.5443  1.6294
 1917SOL    HW217211   1.818   0.430   5.457 -0.3280  0.7704  2.7925
 1918SOL     OW17212   1.200   0.940  10.664 -0.5296  0.6834 -0.1503
 1918SOL    HW117213   1.187   1.030  10.633 -0.4487  0.7674  0.0603
 1918SOL    HW217214   1.130   0.940  10.730 -1.1401 -3.0688 -0.8056
 1919SOL     OW17215   0.342   4.541   2.057  0.6311  0.4343 -0.7328
 1919SOL    HW117216   0.286   4.470   2.027  0.2184  0.2407  0.4952
 1919SOL    HW217217   0.329   4.618   2.003  2.1677  0.3931 -1.1790
 1920SOL     OW17218   0.335   2.095  11.847  0.0668  0.0624  0.0457
 1920SOL    HW117219   0.388   2.016  11.853 -0.4457 -0.3977 -1.6593
 1920SOL    HW217220   0.246   2.059  11.840  0.3642 -0.2597 -1.9846
 1921SOL     OW17221   0.773   0.437   3.047  0.5497  0.5729 -0.4092
 1921SOL    HW117222   0.793   0.462   2.957 -0.9954  1.4455 -0.5123
 1921SOL    HW217223   0.827   0.358   3.053 -0.7078 -0.2676 -0.2005
 1922SOL     OW17224   1.773   2.262   6.253 -0.2756 -0.2224  0.3152
 1922SOL    HW117225   1.749   2.235   6.341 -3.3869 -1.0206 -0.7606
 1922SOL    HW217226   1.817   2.180   6.230  1.7711  0.9764 -0.0512
 1923SOL     OW17227   0.990   3.267   8.765  0.7616  0.5567 -0.0216
 1923SOL    HW117228   1.013   3.177   8.742 -2.3652  0.0161 -1.1566
 1923SOL    HW217229   1.026   3.267   8.854 -1.3461 -2.1820  0.8426
 1924SOL     OW17230   0.924   3.928   4.060  0.1235  0.1209 -0.0188
 1924SOL    HW117231   0.909   3.853   4.003  2.2825  0.6910 -1.3466
 1924SOL    HW217232   0.955   3.884   4.138 -0.8012 -1.7987 -0.7325
 1925SOL     OW17233   3.433   1.632  11.735  0.0577 -0.7409 -0.3042
 1925SOL    HW117234   3.416   1.684  11.814 -2.6723  0.4786 -1.6988
 1925SOL    HW217235   3.448   1.686  11.658  0.8251 -1.5141 -0.6957
 1926SOL     OW17236   1.874   1.552   5.008 -0.0951 -0.8805  0.1167
 1926SOL    HW117237   1.880   1.460   4.984  3.4635 -0.5045 -0.4256
 1926SOL    HW217238   1.896   1.599   4.927 -0.8143  1.6650  1.3857
 1927SOL     OW17239   0.575   3.645  16.410  0.1083 -0.8091  0.3549
 1927SOL    HW117240   0.612   3.635  16.322  2.2038  0.6844  1.0714
 1927SOL    HW217241   0.615   3.721  16.452 -0.0280 -0.2917 -0.4419
 1928SOL     OW17242   0.858   2.159   6.945  0.1521  0.8552  0.1474
 1928SOL    HW117243   0.766   2.147   6.968 -0.0491 -0.7209 -1.4635
 1928SOL    HW217244   0.899   2.153   7.031  0.9259  0.0573 -0.2751
 1929SOL     OW17245   2.051   3.107   0.116  0.0354  0.0905 -0.1363
 1929SOL    HW117246   2.065   3.194   0.154 -1.1099  0.9146 -1.5959
 1929SOL    HW217247   2.117   3.059   0.166 -1.8689 -0.3626  1.9511
 1930SOL     OW17248   1.667   2.233  17.663  0.0216  0.4045  0.3626
 1930SOL    HW117249   1.605   2.191   0.022  2.2648 -4.1397 -0.4630
 1930SOL    HW217250   1.708   2.157  17.621 -1.0329 -0.1373  0.3117
 1931SOL     OW17251   0.578   0.313   6.544  0.3931 -0.0613 -0.2175
 1931SOL    HW117252   0.520   0.298   6.619  0.0597  1.0820 -0.2389
 1931SOL    HW217253   0.568   0.406   6.524  0.9073  0.0412 -0.0110
 1932SOL     OW17254   1.138   3.046  11.201 -0.2335 -0.2511  0.4963
 1932SOL    HW117255   1.101   3.134  11.203  1.8824  0.6617 -0.0229
 1932SOL    HW217256   1.109   3.012  11.285 -2.5387 -1.2326 -0.6846
 1933SOL     OW17257   1.742   0.926  13.729  0.2677 -0.3153 -0.8373
 1933SOL    HW117258   1.767   1.015  13.702  0.0492 -0.4117 -1.3591
 1933SOL    HW217259   1.758   0.940  13.823  0.3811 -0.3806 -0.8466
 1934SOL     OW17260   0.742   4.513   4.247 -0.0373  0.2070  0.1917
 1934SOL    HW117261   0.776   4.423   4.251 -0.8592 -0.2000 -2.0366
 1934SOL    HW217262   0.743   4.537   4.154 -0.2566  1.3070  0.4748
 1935SOL     OW17263   2.461   0.397   8.371 -0.1729 -0.5461 -0.3338
 1935SOL    HW117264   2.527   0.459   8.339  1.4972 -1.2978  1.6656
 1935SOL    HW217265   2.485   0.310   8.340  2.0486  0.2828 -0.9693
 1936SOL     OW17266   4.698   3.351  17.514 -0.6574  0.2538 -0.7275
 1936SOL    HW117267   0.044   3.343  17.578  2.9499 -0.4983 -4.8362
 1936SOL    HW217268   4.707   3.267  17.469  0.0999 -0.9164  1.6378
 1937SOL     OW17269   2.994   0.793   1.929  0.3442 -0.4469 -0.6618
 1937SOL    HW117270   2.978   0.885   1.950 -1.3839 -0.8692 -0.0770
 1937SOL    HW217271   2.943   0.755   2.001  1.3181 -0.1548  0.1725
 1938SOL     OW17272   4.499   0.259   3.762  0.4990 -0.5133  0.1186
 1938SOL    HW117273   4.408   0.273   3.787  0.3128 -3.0198  0.8256
 1938SOL    HW217274   4.538   0.290   3.844  0.0020  0.2679  0.0554
 1939SOL     OW17275   0.467   0.336   5.393 -0.1451  0.1763  0.2899
 1939SOL    HW117276   0.373   0.323   5.404  0.3247 -3.6484 -0.1758
 1939SOL    HW217277   0.483   0.330   5.487  0.6002 -2.3994  0.0032
 1940SOL     OW17278   3.675   3.292   5.693 -0.0484  0.5533 -0.0015
 1940SOL    HW117279   3.770   3.298   5.690 -0.0409 -0.0140 -1.2484
 1940SOL    HW217280   3.662   3.384   5.671 -0.7005  0.0003 -2.0191
 1941SOL     OW17281   2.132   2.619   4.681 -0.2226 -0.3017 -0.7295
 1941SOL    HW117282   2.207   2.596   4.627  0.6158  2.3947 -0.6896
 1941SOL    HW217283   2.174   2.629   4.766  1.7944  0.8725 -1.8824
 1942SOL     OW17284   4.255   0.979   9.126 -0.0553  0.2177 -0.0179
 1942SOL    HW117285   4.182   0.956   9.184 -1.7745  1.6106 -1.6307
 1942SOL    HW217286   4.332   0.992   9.181 -0.7510  0.7157  0.8313
 1943SOL     OW17287   1.702   0.343  15.425  0.5671 -0.1437  0.1493
 1943SOL    HW117288   1.630   0.284  15.400  0.6113 -0.0541 -0.1899
 1943SOL    HW217289   1.765   0.285  15.469  0.0984  0.1455  1.2070
 1944SOL     OW17290   2.427   2.611  16.954  0.2992 -0.1849  0.2342
 1944SOL    HW117291   2.342   2.585  16.917  0.9868 -1.3035 -0.5732
 1944SOL    HW217292   2.464   2.644  16.872  0.2550 -1.0451 -0.1357
 1945SOL     OW17293   3.315   1.405   2.058 -0.2710  0.7724 -0.0833
 1945SOL    HW117294   3.269   1.344   2.001  0.9537 -2.2363  2.1281
 1945SOL    HW217295   3.368   1.446   1.990  1.3374 -0.9511  0.1533
 1946SOL     OW17296   2.632   1.652   3.119  0.2654 -0.2936  0.6481
 1946SOL    HW117297   2.604   1.648   3.210 -0.4584  0.2681  0.4510
 1946SOL    HW217298   2.722   1.621   3.124  0.1183 -0.7960  0.2589
 1947SOL     OW17299   2.716   4.537   2.812  0.0352  0.1189 -0.1768
 1947SOL    HW117300   2.741   4.467   2.873 -3.2662 -1.1250 -0.2142
 1947SOL    HW217301   2.683   4.598   2.878 -0.7995 -0.7912  0.2467
 1948SOL     OW17302   3.368   1.855  17.569 -0.3887 -0.2548  0.5918
 1948SOL    HW117303   3.416   1.918  17.623  1.4059 -1.2540  0.1511
 1948SOL    HW217304   3.440   1.793  17.574  0.4371  0.7237  0.7933
 1949SOL     OW17305   4.355   3.185  14.467  0.0750 -0.2205  1.2657
 1949SOL    HW117306   4.430   3.150  14.420 -1.2483 -1.2803 -0.0424
 1949SOL    HW217307   4.301   3.106  14.474 -0.7225  0.3905  2.0325
 1950SOL     OW17308   3.956   0.817   8.235 -0.5728 -0.1263 -0.1339
 1950SOL    HW117309   3.955   0.748   8.301  2.5627  0.3519  0.3889
 1950SOL    HW217310   3.901   0.782   8.164 -1.2002 -0.2276  0.4078
 1951SOL     OW17311   3.273   3.489   8.303 -0.0379 -0.3251  0.0840
 1951SOL    HW117312   3.312   3.491   8.216 -0.3786  0.7108 -0.0544
 1951SOL    HW217313   3.234   3.402   8.298 -2.1396  0.7308 -1.7312
 1952SOL     OW17314   2.861   2.810   3.086  0.2574  0.3719  0.4398
 1952SOL    HW117315   2.884   2.856   3.005 -1.2946 -1.7838 -1.2103
 1952SOL    HW217316   2.884   2.724   3.053 -2.2115  0.0242 -0.3326
 1953SOL     OW17317   3.784   0.053   6.179  0.5076  0.3502  0.3891
 1953SOL    HW117318   3.781   0.119   6.248  1.2181  1.6783 -0.8687
 1953SOL    HW217319   3.713   4.722   6.210 -0.8829  1.2630 -1.1452
 1954SOL     OW17320   4.275   1.510   9.346 -0.4253 -0.8534 -0.5568
 1954SOL    HW117321   4.349   1.521   9.406 -1.4853  0.3222  0.5367
 1954SOL    HW217322   4.248   1.420   9.364 -4.0456  0.8035  2.3298
 1955SOL     OW17323   3.126   0.910  11.259 -0.0526 -0.1513  0.3393
 1955SOL    HW117324   3.152   0.843  11.322  1.5192  0.8753  0.7746
 1955SOL    HW217325   3.151   0.994  11.297 -1.5238  0.2259  0.4693
 1956SOL     OW17326   2.185   0.481  16.680 -0.1861  0.6417  0.5005
 1956SOL    HW117327   2.271   0.493  16.641 -0.7173  3.7992  0.3276
 1956SOL    HW217328   2.208   0.416  16.746  1.4428  2.8277  2.0789
 1957SOL     OW17329   2.556   0.450   7.032  0.0856  0.2289  0.0429
 1957SOL    HW117330   2.553   0.401   7.114  0.4343  3.0568  1.7429
 1957SOL    HW217331   2.607   0.389   6.979 -0.2296 -0.1533  0.1772
 1958SOL     OW17332   1.098   3.302   7.091 -0.2108  0.1286  0.0984
 1958SOL    HW117333   1.056   3.339   7.014  1.1361 -0.4958 -0.9593
 1958SOL    HW217334   1.048   3.334   7.165 -1.5684  0.3644 -0.9221
 1959SOL     OW17335   2.117   1.440   6.486 -0.0315  0.3110 -0.1164
 1959SOL    HW117336   2.117   1.502   6.413 -3.0995 -0.2069 -0.5267
 1959SOL    HW217337   2.140   1.363   6.434 -0.4452  1.0234 -1.3528
 1960SOL     OW17338   0.717   3.017   4.311  0.0998 -0.2890  0.5728
 1960SOL    HW117339   0.704   2.937   4.260 -0.8495  0.2839 -0.0656
 1960SOL    HW217340   0.649   3.068   4.268 -0.8687 -1.6186  0.5351
 1961SOL     OW17341   3.372   2.646   2.891 -0.5964  0.3208 -0.1408
 1961SOL    HW117342   3.438   2.657   2.960 -0.0869 -0.4485 -0.5001
 1961SOL    HW217343   3.322   2.723   2.867  0.4465  0.9307 -0.3311
 1962SOL     OW17344   0.963   4.046   4.856  0.5449 -0.4074 -0.5254
 1962SOL    HW117345   0.953   3.973   4.796  1.9609 -0.6231 -0.4870
 1962SOL    HW217346   0.913   4.016   4.932 -0.8119  2.5355 -0.2112
 1963SOL     OW17347   3.478   1.553   4.814 -0.0356  0.2319  0.0031
 1963SOL    HW117348   3.413   1.573   4.881 -0.7036 -1.1634 -0.2439
 1963SOL    HW217349   3.527   1.635   4.824  2.1426 -0.8484 -1.7505
 1964SOL     OW17350   1.851   0.161   9.183  0.7898  0.0240 -0.2946
 1964SOL    HW117351   1.782   0.188   9.244  0.5781  0.6891 -0.8208
 1964SOL    HW217352   1.799   0.156   9.102  0.1004 -0.5530  0.1727
 1965SOL     OW17353   0.547   2.248   0.062  0.3639 -0.0255 -0.2972
 1965SOL    HW117354   0.622   2.258   0.003 -0.0848 -1.9669 -1.2022
 1965SOL    HW217355   0.557   2.158   0.092 -0.7461 -0.4575 -1.2208
 1966SOL     OW17356   1.738   3.730  11.784  0.0399 -0.3496 -0.0764
 1966SOL    HW117357   1.800   3.712  11.713 -1.1568 -1.1459 -0.9075
 1966SOL    HW217358   1.778   3.814  11.809  0.6418 -0.3257 -1.1276
 1967SOL     OW17359   0.816   2.949  10.211 -0.2222  0.4406  0.1936
 1967SOL    HW117360   0.882   2.910  10.154 -1.8080 -1.5459 -0.3046
 1967SOL    HW217361   0.868   3.003  10.270 -1.4430  0.2520  1.4498
 1968SOL     OW17362   1.854   0.521  11.451 -1.0272  0.6719 -0.3867
 1968SOL    HW117363   1.823   0.455  11.389  2.1497  0.0296 -1.3317
 1968SOL    HW217364   1.865   0.465  11.527 -0.9931 -0.0138 -0.8930
 1969SOL     OW17365   0.837   0.914   6.212 -0.4708 -0.4809  0.3772
 1969SOL    HW117366   0.868   0.945   6.297  1.3216  1.1410 -0.8633
 1969SOL    HW217367   0.809   0.997   6.173 -0.2054 -1.0240 -0.9842
 1970SOL     OW17368   2.216   2.829   2.371  0.0593  0.3056  0.2502
 1970SOL    HW117369   2.291   2.797   2.321 -0.0495  0.5436 -0.0643
 1970SOL    HW217370   2.249   2.912   2.405 -0.6981  0.5355  0.4042
 1971SOL     OW17371   3.853   4.230   6.259 -0.1751 -0.2485  0.4378
 1971SOL    HW117372   3.867   4.210   6.352  1.0052  1.0661  0.5446
 1971SOL    HW217373   3.940   4.226   6.221 -0.0159  0.0184  0.7679
 1972SOL     OW17374   1.677   0.401   1.985  0.2439  0.1083  0.7374
 1972SOL    HW117375   1.721   0.340   1.926 -1.2423  0.3032 -0.5648
 1972SOL    HW217376   1.582   0.394   1.979  0.0734  1.2640  2.0896
 1973SOL     OW17377   2.239   1.137  11.259 -0.0697 -0.2188  0.1198
 1973SOL    HW117378   2.306   1.155  11.194  0.7572  0.6523  1.2188
 1973SOL    HW217379   2.164   1.151  11.200 -1.0818  1.1147  1.7343
 1974SOL     OW17380   2.652   4.564   1.783  0.2512 -0.1812 -0.1105
 1974SOL    HW117381   2.607   4.554   1.699 -0.2021 -0.0420  0.1144
 1974SOL    HW217382   2.724   4.502   1.776  2.5005  2.4364 -0.0558
 1975SOL     OW17383   1.616   0.882  10.315 -0.3001  0.3194 -0.0127
 1975SOL    HW117384   1.668   0.851  10.241  0.6157  0.9145  0.3804
 1975SOL    HW217385   1.659   0.961  10.349  1.1583 -0.6268  0.3458
 1976SOL     OW17386   3.783   4.619   9.433  0.1974 -0.2960  0.1135
 1976SOL    HW117387   3.765   4.628   9.339 -0.3974 -3.5453 -0.0646
 1976SOL    HW217388   3.823   4.532   9.425  1.2762  0.2019  0.0469
 1977SOL     OW17389   1.841   4.251   9.276 -0.0162  0.5541  0.1840
 1977SOL    HW117390   1.752   4.248   9.313  0.6399 -1.4621  1.5647
 1977SOL    HW217391   1.881   4.198   9.345  0.8025 -0.1672 -0.8604
 1978SOL     OW17392   0.609   4.257   5.312 -0.2325 -0.9815 -0.4872
 1978SOL    HW117393   0.617   4.189   5.379 -2.4425 -0.4058  0.3767
 1978SOL    HW217394   0.515   4.254   5.329 -0.0545  1.2313  0.9304
 1979SOL     OW17395   2.299   0.710  15.976  0.3047 -0.1812 -0.0508
 1979SOL    HW117396   2.382   0.665  15.989  0.6332  0.4451 -0.0184
 1979SOL    HW217397   2.244   0.636  16.003 -1.0731  0.5053 -0.9742
 1980SOL     OW17398   3.914   3.328   4.699  0.3364 -0.1565  0.2459
 1980SOL    HW117399   3.934   3.420   4.715  1.5294 -0.2940 -0.4565
 1980SOL    HW217400   3.925   3.290   4.786 -0.7471 -1.8822 -0.3639
 1981SOL     OW17401   1.152   2.189  14.536 -0.1632  0.0338 -0.0291
 1981SOL    HW117402   1.244   2.211  14.523 -0.5090  1.8190  0.5357
 1981SOL    HW217403   1.139   2.198  14.630 -2.0202 -1.6981 -0.1097
 1982SOL     OW17404   1.774   3.369  10.188 -0.1176 -0.1015  0.0666
 1982SOL    HW117405   1.806   3.279  10.193  3.2580  1.1523  0.9258
 1982SOL    HW217406   1.761   3.399  10.277 -0.5408 -2.4768  0.8119
 1983SOL     OW17407   3.895   1.612  14.747  0.2029 -0.0811  0.3232
 1983SOL    HW117408   3.879   1.707  14.747  0.4342 -0.0409  1.3669
 1983SOL    HW217409   3.972   1.594  14.693  0.4895  1.5578  0.1577
 1984SOL     OW17410   3.174   1.497  10.924 -0.2894  0.4730  0.4468
 1984SOL    HW117411   3.080   1.479  10.930 -0.0483 -1.5628 -2.2544
 1984SOL    HW217412   3.202   1.534  11.008  0.2999 -0.7886  0.8044
 1985SOL     OW17413   4.080   0.689   5.053  0.0545 -0.0163  0.2075
 1985SOL    HW117414   4.131   0.718   4.977 -0.4317  2.0017  0.6469
 1985SOL    HW217415   4.096   0.753   5.122  2.4723  0.4957 -0.8331
 1986SOL     OW17416   1.849   3.948  16.036 -0.3479 -0.2296 -0.8751
 1986SOL    HW117417   1.776   3.972  15.978  0.0074 -0.4747 -1.4301
 1986SOL    HW217418   1.901   4.029  16.038  0.5779 -0.8785  0.5842
 1987SOL     OW17419   3.566   2.094  17.186 -0.2544 -0.3126  0.0571
 1987SOL    HW117420   3.492   2.133  17.139 -1.5035  0.6534  2.8142
 1987SOL    HW217421   3.629   2.163  17.168 -2.1714  0.3720 -4.0946
 1988SOL     OW17422   4.692   3.629   4.521 -0.1180  0.7826 -0.0777
 1988SOL    HW117423   4.715   3.705   4.467 -0.8685  3.2173  2.9928
 1988SOL    HW217424   4.627   3.668   4.580 -0.4558 -2.1602  1.4810
 1989SOL     OW17425   3.465   4.666   2.915  0.3110 -0.0777  0.6030
 1989SOL    HW117426   3.445   0.005   2.983  0.2011  1.9042 -1.2929
 1989SOL    HW217427   3.459   4.581   2.959  1.8561  1.1646  3.2335
 1990SOL     OW17428   1.283   1.959   3.540 -0.0011  0.5554  0.5100
 1990SOL    HW117429   1.368   1.954   3.584 -0.0527 -1.3215  0.4052
 1990SOL    HW217430   1.273   1.864   3.539 -2.8147  0.8745 -1.7101
 1991SOL     OW17431   2.864   1.895  16.267 -0.4902 -0.3935  0.2246
 1991SOL    HW117432   2.923   1.833  16.310  0.6400  0.1559 -0.5150
 1991SOL    HW217433   2.927   1.967  16.271  0.5874 -1.3333  0.3222
 1992SOL     OW17434   3.218   4.455  16.505  0.2846 -0.4477  0.0808
 1992SOL    HW117435   3.140   4.410  16.474  0.1827  0.1524 -0.5404
 1992SOL    HW217436   3.263   4.391  16.561 -1.9763 -0.4324  1.9156
 1993SOL     OW17437   3.205   2.535   5.792 -0.0935  0.2659  0.4864
 1993SOL    HW117438   3.287   2.574   5.764 -1.8493  3.1391 -0.7244
 1993SOL    HW217439   3.214   2.440   5.797  1.4924  0.3450 -0.8509
 1994SOL     OW17440   0.312   2.715   7.608 -0.0725  0.2828  0.6619
 1994SOL    HW117441   0.298   2.696   7.515 -1.5724 -0.7987  1.0945
 1994SOL    HW217442   0.229   2.684   7.646 -0.6646  0.5160 -0.4441
 1995SOL     OW17443   2.238   3.661   7.860  0.7192  0.1698  0.4891
 1995SOL    HW117444   2.308   3.716   7.823 -0.1336  0.9450  0.0105
 1995SOL    HW217445   2.160   3.687   7.811  1.3831  1.3543  0.0395
 1996SOL     OW17446   1.309   2.186   5.954 -0.2179  0.2124  0.1568
 1996SOL    HW117447   1.303   2.167   6.047 -0.8871 -0.6669 -0.0648
 1996SOL    HW217448   1.275   2.275   5.947  0.4916  0.6919  2.9247
 1997SOL     OW17449   1.227   4.116   2.382  0.4145 -0.0136  0.3982
 1997SOL    HW117450   1.171   4.064   2.440 -2.5488  4.6153  1.6649
 1997SOL    HW217451   1.301   4.056   2.374  1.0342  0.8358 -0.1407
 1998SOL     OW17452   0.111   2.961   6.811 -0.6257  0.5167  0.0839
 1998SOL    HW117453   0.163   3.014   6.871  1.3790 -1.3447 -0.0156
 1998SOL    HW217454   0.025   2.942   6.849 -0.3482  0.2715  0.5799
 1999SOL     OW17455   0.049   4.377   7.896  0.0500 -0.1118 -0.0316
 1999SOL    HW117456   0.013   4.333   7.973  1.7286 -2.4415 -0.5786
 1999SOL    HW217457   0.057   4.464   7.934  1.1562 -0.1431 -0.1938
 2000SOL     OW17458   2.967   2.427   3.814 -0.2204 -0.6060 -0.1574
 2000SOL    HW117459   3.050   2.433   3.863  0.1744 -0.6731 -0.8134
 2000SOL    HW217460   3.006   2.448   3.729 -0.7199 -0.9470 -0.4724
 2001SOL     OW17461   1.957   3.393   8.299  0.1753  0.2827 -0.7196
 2001SOL    HW117462   1.899   3.429   8.366 -0.0894  0.3799 -1.0001
 2001SOL    HW217463   2.035   3.446   8.320 -0.1394  0.8607 -1.0166
 2002SOL     OW17464   0.164   2.397   7.348  0.0557 -0.4506  0.2740
 2002SOL    HW117465   0.124   2.374   7.264 -1.5120 -0.7253  1.1023
 2002SOL    HW217466   0.140   2.489   7.345  1.1776 -0.1821 -0.5969
 2003SOL     OW17467   0.343   0.679   4.694  0.0092 -0.0461  0.1230
 2003SOL    HW117468   0.329   0.771   4.673  0.1534 -0.0755 -0.1065
 2003SOL    HW217469   0.269   0.631   4.656  0.3610  0.1579 -0.8215
 2004SOL     OW17470   3.540   2.894  17.044  0.0808 -0.8635 -0.0060
 2004SOL    HW117471   3.632   2.877  17.024  0.3369 -0.1733  0.5671
 2004SOL    HW217472   3.554   2.968  17.103 -0.7173 -0.4312 -0.3628
 2005SOL     OW17473   1.151   1.666   4.491 -0.9109  0.3310 -0.4906
 2005SOL    HW117474   1.146   1.735   4.424  1.4515 -0.5090 -1.5476
 2005SOL    HW217475   1.242   1.641   4.479 -0.8283 -0.6390  2.2106
 2006SOL     OW17476   2.660   2.927  16.286  0.1817  0.2099  0.0430
 2006SOL    HW117477   2.639   3.020  16.295  0.9802  0.4747 -0.8108
 2006SOL    HW217478   2.611   2.903  16.207  0.7182  1.1312 -0.5692
 2007SOL     OW17479   0.240   4.384  15.140 -0.1215  0.0560  0.2275
 2007SOL    HW117480   0.149   4.415  15.139  0.2462  1.1497  0.4663
 2007SOL    HW217481   0.247   4.314  15.074 -0.1301 -1.8422  2.2621
 2008SOL     OW17482   4.218   2.282   6.206 -0.5901 -0.2000  0.2476
 2008SOL    HW117483   4.189   2.253   6.119  1.2297 -0.6405 -0.2049
 2008SOL    HW217484   4.165   2.231   6.267 -0.3159 -0.3842  0.3319
 2009SOL     OW17485   3.280   4.525   1.331  0.1866  0.9768  0.3709
 2009SOL    HW117486   3.364   4.478   1.333 -0.0270  0.5931  0.4380
 2009SOL    HW217487   3.304   4.616   1.313 -1.5364  1.5360  0.9150
 2010SOL     OW17488   3.996   1.877   9.153  0.8538 -0.1545 -0.3714
 2010SOL    HW117489   4.054   1.839   9.220 -0.0411  1.4918  1.3175
 2010SOL    HW217490   4.039   1.960   9.133 -1.1894  1.1196  0.6152
 2011SOL     OW17491   1.932   0.969  13.257 -0.4197  0.8311 -1.0881
 2011SOL    HW117492   1.974   0.898  13.209  0.0513  0.5049 -0.1830
 2011SOL    HW217493   2.005   1.030  13.268  0.8578 -0.9480  0.4138
 2012SOL     OW17494   0.054   3.936   7.987  0.4426  0.2195 -0.3070
 2012SOL    HW117495   4.697   3.963   8.029  0.3695 -1.0705  0.3618
 2012SOL    HW217496   0.107   3.917   8.064 -0.4827 -1.4305 -0.0843
 2013SOL     OW17497   1.951   4.037   3.994  0.5677 -0.0319 -0.0034
 2013SOL    HW117498   1.857   4.050   3.998  0.6558  0.2479  1.0311
 2013SOL    HW217499   1.957   3.943   4.010  2.6418  0.0097 -0.4938
 2014SOL     OW17500   1.207   0.887  14.073 -0.2625 -0.6831  0.1440
 2014SOL    HW117501   1.274   0.955  14.066 -0.5568 -0.3221  0.8629
 2014SOL    HW217502   1.182   0.900  14.164 -0.3742 -1.4615  0.2240
 2015SOL     OW17503   3.680   0.553   4.633  0.4880  0.2223 -0.5227
 2015SOL    HW117504   3.653   0.642   4.610 -2.3657 -0.1748  1.3084
 2015SOL    HW217505   3.755   0.559   4.692  0.1204 -1.0944  0.0938
 2016SOL     OW17506   3.721   4.334   8.105 -0.8500  0.0651  0.5244
 2016SOL    HW117507   3.785   4.403   8.092 -0.2478 -0.1903  2.1464
 2016SOL    HW217508   3.753   4.303   8.190  0.1220  1.8235  0.7883
 2017SOL     OW17509   2.525   1.547   2.893  1.0167  0.0063  0.8612
 2017SOL    HW117510   2.558   1.594   2.969 -1.1260  0.0912  1.7451
 2017SOL    HW217511   2.467   1.478   2.926  0.0586  0.2108 -0.3709
 2018SOL     OW17512   3.542   2.620   8.477 -0.6438  0.3115  0.0049
 2018SOL    HW117513   3.463   2.568   8.461 -0.9376  0.2853  1.5811
 2018SOL    HW217514   3.597   2.548   8.507  1.2479  1.2290 -1.2719
 2019SOL     OW17515   1.052   4.633   6.932 -0.0798  0.1611  0.0545
 2019SOL    HW117516   0.989   4.664   6.998  0.8391  1.9398  0.1125
 2019SOL    HW217517   1.099   4.565   6.980  0.3301  1.5749  1.6643
 2020SOL     OW17518   1.855   4.060   2.075 -0.2180  0.0823 -0.0741
 2020SOL    HW117519   1.839   4.134   2.016 -0.8084 -0.6032 -0.7660
 2020SOL    HW217520   1.950   4.049   2.071 -0.2576  0.0765 -1.0571
 2021SOL     OW17521   1.269   4.620   5.436  0.2410 -0.1468 -0.2301
 2021SOL    HW117522   1.273   4.568   5.516  0.0359  1.7762  1.0372
 2021SOL    HW217523   1.210   4.688   5.467  0.4135  0.0016 -0.2253
 2022SOL     OW17524   1.488   1.651   8.536 -0.3254  0.4189 -0.0613
 2022SOL    HW117525   1.571   1.697   8.535  0.5851 -1.1709  2.1385
 2022SOL    HW217526   1.417   1.710   8.561 -0.8238 -1.3372  2.7532
 2023SOL     OW17527   2.224   1.246  16.911  0.1054  0.0645  0.0005
 2023SOL    HW117528   2.228   1.338  16.938 -0.8866  0.0448  0.2362
 2023SOL    HW217529   2.251   1.192  16.985 -0.2458 -1.9103 -1.3104
 2024SOL     OW17530   4.290   2.091   7.776 -0.2751 -0.3350  0.7717
 2024SOL    HW117531   4.249   2.175   7.794 -0.0398  0.2253 -1.3154
 2024SOL    HW217532   4.269   2.043   7.856  0.7470 -0.2961  1.0656
 2025SOL     OW17533   4.451   1.351  11.790  0.1186 -0.3435  0.6520
 2025SOL    HW117534   4.379   1.328  11.731  1.3300 -0.6987 -0.6856
 2025SOL    HW217535   4.445   1.446  11.803  1.8556 -0.5468  2.9212
 2026SOL     OW17536   1.884   3.844  16.304 -0.1703 -0.3189  0.8516
 2026SOL    HW117537   1.861   3.856  16.211  0.0650 -0.6964  0.7448
 2026SOL    HW217538   1.821   3.773  16.322 -2.2662  1.0460 -1.0312
 2027SOL     OW17539   3.748   3.317   6.347 -0.1967 -0.2220 -0.1081
 2027SOL    HW117540   3.771   3.367   6.268  1.1189 -1.0684 -0.2556
 2027SOL    HW217541   3.805   3.241   6.336  0.6084  0.3305  0.1679
 2028SOL     OW17542   3.115   4.300  14.214 -0.1286  0.1773  0.8965
 2028SOL    HW117543   3.163   4.377  14.244 -0.0288  0.7415 -0.7176
 2028SOL    HW217544   3.115   4.311  14.119 -0.8515 -0.1682  0.8588
 2029SOL     OW17545   4.200   3.396   9.427  0.0262  0.6542 -0.0175
 2029SOL    HW117546   4.234   3.356   9.347 -0.4905 -1.5698  0.8899
 2029SOL    HW217547   4.258   3.374   9.500  1.0946  2.7538 -0.2344
 2030SOL     OW17548   2.890   3.794   4.283  0.2941 -0.4714 -0.6706
 2030SOL    HW117549   2.982   3.806   4.260  0.5853 -2.3310 -0.4745
 2030SOL    HW217550   2.896   3.761   4.372 -0.2864  0.2020 -0.3817
 2031SOL     OW17551   0.533   3.352  13.185  0.5870 -0.0826 -0.4206
 2031SOL    HW117552   0.498   3.315  13.267 -1.0613  1.0868 -0.5975
 2031SOL    HW217553   0.543   3.272  13.133 -2.5508 -0.3107 -0.7109
 2032SOL     OW17554   0.085   2.509   2.679 -0.4705  0.2289  0.4148
 2032SOL    HW117555   0.106   2.437   2.620  0.4123  0.6391  0.2288
 2032SOL    HW217556   0.047   2.575   2.621 -0.8956  0.0493  0.4891
 2033SOL     OW17557   3.436   2.049   2.717 -1.2968  0.4811 -0.3393
 2033SOL    HW117558   3.343   2.039   2.696 -0.9326 -1.5289 -1.0874
 2033SOL    HW217559   3.438   2.064   2.811  0.1946  2.7947 -0.7378
 2034SOL     OW17560   0.871   2.368  13.613 -0.3947 -0.5548  0.5519
 2034SOL    HW117561   0.916   2.419  13.680 -0.0701  1.0746 -0.9050
 2034SOL    HW217562   0.862   2.280  13.648 -3.1498  0.8193  3.2870
 2035SOL     OW17563   4.492   3.668   3.227 -0.1696  0.1704  0.0410
 2035SOL    HW117564   4.439   3.636   3.300 -1.5136  1.1132 -0.5155
 2035SOL    HW217565   4.535   3.746   3.263 -1.4954  0.3743  1.2040
 2036SOL     OW17566   1.507   3.670   4.432 -0.4691  0.1764  0.1721
 2036SOL    HW117567   1.589   3.707   4.465 -1.2410  1.7379  0.3320
 2036SOL    HW217568   1.545   3.583   4.415  0.4218  0.7911 -0.9872
 2037SOL     OW17569   1.419   1.262  15.257  0.4655 -0.0259 -0.1747
 2037SOL    HW117570   1.447   1.248  15.348  1.3412  1.3786 -0.2321
 2037SOL    HW217571   1.427   1.177  15.213  1.0031 -0.2213  0.2984
 2038SOL     OW17572   2.560   3.339   9.260 -0.1018  0.3511 -0.1197
 2038SOL    HW117573   2.590   3.359   9.349 -0.0887  1.3100 -0.3416
 2038SOL    HW217574   2.640   3.306   9.219 -0.8821  0.2276 -1.5309
 2039SOL     OW17575   3.211   1.206  17.336  0.4018  0.3658 -0.0545
 2039SOL    HW117576   3.283   1.154  17.302  1.0395  1.7502 -0.8370
 2039SOL    HW217577   3.256   1.285  17.367  2.5357 -1.0800  0.5450
 2040SOL     OW17578   0.772   4.523   0.775  0.5356 -0.2061 -0.4040
 2040SOL    HW117579   0.838   4.462   0.740  0.3458 -0.0899 -0.9725
 2040SOL    HW217580   0.688   4.480   0.762  0.3598 -0.7524  2.6073
 2041SOL     OW17581   0.945   3.643  12.142  0.1751  0.5988 -0.0521
 2041SOL    HW117582   0.887   3.593  12.199 -0.0000 -0.9095 -1.5383
 2041SOL    HW217583   1.023   3.597  12.175 -0.6544  0.6127  1.9168
 2042SOL     OW17584   0.901   2.703  11.879 -0.3314  0.3291  0.0491
 2042SOL    HW117585   0.863   2.667  11.959 -1.5228  1.6595  0.0768
 2042SOL    HW217586   0.871   2.793  11.884 -2.0855 -0.2553 -0.0676
 2043SOL     OW17587   1.543   0.930   9.214  0.1537 -0.2668  0.1896
 2043SOL    HW117588   1.530   0.979   9.133  0.7060  1.0700  0.9029
 2043SOL    HW217589   1.464   0.947   9.266 -0.2577 -0.2754 -0.4421
 2044SOL     OW17590   0.781   2.647   7.478 -0.1658  0.5739 -0.7910
 2044SOL    HW117591   0.777   2.589   7.402 -2.2731  0.1607 -0.3502
 2044SOL    HW217592   0.814   2.727   7.437  1.6900 -0.1542 -0.7461
 2045SOL     OW17593   1.614   4.605   4.212  0.0904  0.4501  0.4972
 2045SOL    HW117594   1.555   4.574   4.281 -1.8381  0.0494 -1.3526
 2045SOL    HW217595   1.570   4.564   4.138 -1.8992  1.9391  0.8686
 2046SOL     OW17596   1.938   4.019   3.492  0.4896  0.4031 -0.4293
 2046SOL    HW117597   1.883   3.955   3.538  0.7005  1.7872  1.7352
 2046SOL    HW217598   2.014   4.025   3.551  0.8459 -0.9149 -0.7330
 2047SOL     OW17599   3.973   2.333  15.604 -0.4905  0.0241 -0.9898
 2047SOL    HW117600   3.909   2.272  15.565  0.4793 -1.9771  0.5459
 2047SOL    HW217601   4.053   2.321  15.553 -0.1098 -1.8084  0.0438
 2048SOL     OW17602   0.832   3.277   5.360  0.0871 -0.2431  0.3924
 2048SOL    HW117603   0.859   3.333   5.288 -5.9033  0.0927 -1.5445
 2048SOL    HW217604   0.841   3.195   5.312  0.4847  0.1728 -0.2341
 2049SOL     OW17605   2.957   0.353   4.115 -0.2933 -0.3490 -0.1740
 2049SOL    HW117606   3.031   0.321   4.165  0.8925 -1.6346 -2.7693
 2049SOL    HW217607   2.939   0.285   4.050 -0.1777  1.3787 -1.9984
 2050SOL     OW17608   1.925   2.866  11.052 -0.1635  0.4918  0.1858
 2050SOL    HW117609   1.861   2.810  11.096  0.5584  1.0554  1.9581
 2050SOL    HW217610   1.876   2.946  11.030  0.6823  1.3846  1.5781
 2051SOL     OW17611   3.483   3.976   4.247 -0.3258  0.0941 -0.4233
 2051SOL    HW117612   3.544   3.981   4.320  0.3963  1.1271 -1.0976
 2051SOL    HW217613   3.400   3.946   4.284 -0.0796  0.1068  0.1403
 2052SOL     OW17614   2.433   2.681  13.900  0.1884  0.2431 -0.1846
 2052SOL    HW117615   2.418   2.611  13.963 -0.1832 -0.6106 -1.2204
 2052SOL    HW217616   2.458   2.750  13.961 -0.7007 -1.3358  1.9341
 2053SOL     OW17617   2.758   1.573   1.617  0.2480 -0.7394  0.4784
 2053SOL    HW117618   2.714   1.514   1.556  0.1381  0.7079 -0.8584
 2053SOL    HW217619   2.802   1.509   1.673 -0.6725 -0.5676  1.4062
 2054SOL     OW17620   3.186   4.245   6.788  0.0868  0.4879 -0.2231
 2054SOL    HW117621   3.260   4.204   6.833 -0.7632 -0.2724  0.4743
 2054SOL    HW217622   3.187   4.332   6.827 -2.2311 -0.8753  2.8526
 2055SOL     OW17623   2.572   1.302   5.186  0.2610 -0.2781 -0.3485
 2055SOL    HW117624   2.571   1.221   5.134 -0.0610  0.5299 -1.6104
 2055SOL    HW217625   2.500   1.291   5.249 -0.2194  0.9555 -0.6730
 2056SOL     OW17626   2.141   2.383  14.810  0.0294 -0.5136  0.0296
 2056SOL    HW117627   2.159   2.293  14.839  0.3532 -0.0867  1.1731
 2056SOL    HW217628   2.219   2.399  14.756  0.1064 -0.9338  0.0136
 2057SOL     OW17629   1.079   0.511   1.699  0.6638 -0.2010 -0.0729
 2057SOL    HW117630   1.156   0.540   1.650  2.1188  0.3739  2.5595
 2057SOL    HW217631   1.083   0.427   1.653 -0.9042 -0.5315  0.3968
 2058SOL     OW17632   0.819   3.319   0.431  0.5605  0.1784 -0.4639
 2058SOL    HW117633   0.851   3.229   0.424 -0.6111 -0.2322 -0.5062
 2058SOL    HW217634   0.743   3.324   0.373  1.1115  0.0437 -1.2149
 2059SOL     OW17635   2.221   1.318   9.814 -0.1371  0.1101 -0.4007
 2059SOL    HW117636   2.135   1.317   9.773 -0.5271 -1.2146  0.4834
 2059SOL    HW217637   2.205   1.382   9.884 -0.4614 -1.2071  0.7356
 2060SOL     OW17638   2.935   2.650   4.102  0.0750  0.0949 -0.2685
 2060SOL    HW117639   2.846   2.685   4.100  0.6066  1.2289 -3.9495
 2060SOL    HW217640   2.937   2.631   4.196 -3.1849  0.5736 -0.1102
 2061SOL     OW17641   4.581   2.221   6.091 -0.2187 -0.3284  0.3049
 2061SOL    HW117642   4.584   2.149   6.028  1.5075  0.6759 -0.7652
 2061SOL    HW217643   4.551   2.169   6.165 -2.0760 -0.8939 -0.8436
 2062SOL     OW17644   2.045   4.533   5.827 -0.4767 -0.0049 -0.1173
 2062SOL    HW117645   2.130   4.555   5.788  0.2229 -0.6940  1.0006
 2062SOL    HW217646   1.985   4.556   5.757 -0.7168 -0.9218 -0.2156
 2063SOL     OW17647   4.245   3.943   2.140 -0.1824  0.0163 -0.3621
 2063SOL    HW117648   4.260   3.943   2.046  0.4668  2.7412 -0.2438
 2063SOL    HW217649   4.152   3.966   2.136  0.1682  1.7479  1.3701
 2064SOL     OW17650   3.977   4.546   8.820 -0.4415 -0.3734 -0.3491
 2064SOL    HW117651   4.061   4.581   8.848  0.7111 -0.5794 -3.5667
 2064SOL    HW217652   3.924   4.592   8.885  2.2220 -0.5342  1.9376
 2065SOL     OW17653   0.631   1.718   0.603  0.0924  0.0476  0.2519
 2065SOL    HW117654   0.538   1.696   0.613  0.2864 -1.6496 -1.6625
 2065SOL    HW217655   0.652   1.801   0.646 -0.5391 -0.2501  1.1385
 2066SOL     OW17656   4.629   0.656   6.248 -0.2478 -0.3323  0.0505
 2066SOL    HW117657   4.607   0.737   6.293  1.5051  0.6552 -0.9047
 2066SOL    HW217658   4.684   0.613   6.313 -0.0451  1.3465  0.9644
 2067SOL     OW17659   3.121   4.082   3.843  0.3982  0.4791 -0.3252
 2067SOL    HW117660   3.101   3.988   3.848  0.8866  0.2882 -1.7974
 2067SOL    HW217661   3.047   4.119   3.891  1.2627  0.6905  0.8307
 2068SOL     OW17662   4.447   0.993  13.355  0.3313 -0.4874  0.2996
 2068SOL    HW117663   4.355   0.966  13.360  0.6575 -1.9793 -2.2784
 2068SOL    HW217664   4.454   1.005  13.261 -0.6446 -1.3579  0.1249
 2069SOL     OW17665   2.340   4.119   7.338  0.4916  0.1630  0.5558
 2069SOL    HW117666   2.260   4.165   7.362  0.1424 -0.6606  0.9681
 2069SOL    HW217667   2.311   4.034   7.304 -2.6685  1.2282  0.6048
 2070SOL     OW17668   1.642   3.831   4.629 -0.4278  0.5493 -0.0665
 2070SOL    HW117669   1.613   3.909   4.582  1.9994  0.8685 -1.0280
 2070SOL    HW217670   1.594   3.844   4.711 -1.0195 -0.0080 -0.3303
 2071SOL     OW17671   3.665   0.007   5.720 -0.5057 -0.3471 -0.5795
 2071SOL    HW117672   3.598   0.023   5.653  0.8920 -1.7724 -2.3072
 2071SOL    HW217673   3.633   0.066   5.789 -1.9977 -0.9096 -0.7978
 2072SOL     OW17674   0.162   0.821   4.069  0.1241  0.5296  0.6039
 2072SOL    HW117675   0.164   0.767   3.990  1.4234  1.4593 -0.0053
 2072SOL    HW217676   0.163   0.906   4.025  0.9038 -0.3121 -0.9861
 2073SOL     OW17677   3.129   3.527  16.259  0.7543  0.5784  0.2704
 2073SOL    HW117678   3.078   3.508  16.181 -0.1162 -0.8706  1.1930
 2073SOL    HW217679   3.210   3.483  16.232  1.3236  2.4196 -1.0343
 2074SOL     OW17680   1.512   0.361  17.325 -0.1660 -0.4796  0.5421
 2074SOL    HW117681   1.577   0.424  17.359 -0.0409 -0.8464  0.9803
 2074SOL    HW217682   1.432   0.410  17.310 -0.1770 -0.7077 -0.1344
 2075SOL     OW17683   2.900   3.198   5.784  0.5321  0.1016 -0.6132
 2075SOL    HW117684   2.990   3.165   5.780 -0.3661 -2.6020  1.7231
 2075SOL    HW217685   2.904   3.238   5.697  0.0928 -2.2391 -1.7153
 2076SOL     OW17686   4.407   3.517   5.110 -0.3169  0.0816  0.3257
 2076SOL    HW117687   4.467   3.530   5.183 -0.1746  0.6603  0.1092
 2076SOL    HW217688   4.357   3.599   5.106  0.8643  0.8643  1.5366
 2077SOL     OW17689   1.056   1.621   5.730 -0.5211  0.1437  0.2641
 2077SOL    HW117690   1.142   1.609   5.768  0.2281  0.1641 -1.4235
 2077SOL    HW217691   1.082   1.569   5.654 -0.2223  0.1745  0.3457
 2078SOL     OW17692   1.705   1.366   3.625 -0.3862 -0.4855 -0.5513
 2078SOL    HW117693   1.707   1.343   3.718  1.0560  0.4127 -0.3605
 2078SOL    HW217694   1.788   1.411   3.611  0.0440 -1.2689 -0.4990
 2079SOL     OW17695   1.021   0.271   6.128 -0.1715  0.5502  0.0243
 2079SOL    HW117696   0.949   0.326   6.156  0.4537  0.4427  1.8749
 2079SOL    HW217697   1.102   0.321   6.140 -0.3195  0.6287  0.6860
 2080SOL     OW17698   2.187   4.523   2.131  0.4057  0.2125 -0.2002
 2080SOL    HW117699   2.258   4.476   2.176 -0.8165  0.1800  1.6884
 2080SOL    HW217700   2.116   4.527   2.194 -0.5767  0.0880 -1.3021
 2081SOL     OW17701   1.876   2.180  17.398  0.4928 -0.2393  0.3230
 2081SOL    HW117702   1.842   2.118  17.462 -0.3523 -1.2653 -1.1121
 2081SOL    HW217703   1.961   2.203  17.437  0.2214  1.2020  0.0539
 2082SOL     OW17704   2.901   2.919   5.378 -0.1974  0.1714  0.5302
 2082SOL    HW117705   2.871   2.983   5.313 -0.1725  0.1712  0.5187
 2082SOL    HW217706   2.972   2.881   5.327  0.5373  1.5775  0.5124
 2083SOL     OW17707   4.707   1.082  10.932  0.0550  0.0839 -0.0537
 2083SOL    HW117708   0.027   1.157  10.895  1.6799 -1.3941 -1.0588
 2083SOL    HW217709   4.645   1.067  10.860 -0.1694  0.2878  0.0958
 2084SOL     OW17710   0.359   2.859  17.570  0.3683  0.8010  0.0132
 2084SOL    HW117711   0.324   2.774  17.542  1.2624  1.1196 -2.0710
 2084SOL    HW217712   0.306   2.924  17.526  0.5649  1.8162  1.2907
 2085SOL     OW17713   0.993   1.982   1.493 -0.1554  0.2864  0.2268
 2085SOL    HW117714   1.054   2.031   1.438  0.3057 -1.5908 -0.9132
 2085SOL    HW217715   1.013   1.893   1.465 -1.6881 -0.3209  1.0822
 2086SOL     OW17716   2.069   3.997   6.430 -0.3852 -0.5851  0.2608
 2086SOL    HW117717   2.073   4.088   6.403 -0.6957 -0.9180 -0.8800
 2086SOL    HW217718   2.131   3.985   6.502 -0.3906 -1.1226  0.1790
 2087SOL     OW17719   4.243   0.654   4.505 -0.1250  0.2020 -0.8354
 2087SOL    HW117720   4.184   0.658   4.581  2.3941 -2.2746  1.2547
 2087SOL    HW217721   4.299   0.729   4.525  0.3479  0.2706 -2.4340
 2088SOL     OW17722   2.941   2.532   5.133  0.3287 -0.5340 -0.1859
 2088SOL    HW117723   2.950   2.611   5.185 -1.9566 -0.4781  0.1485
 2088SOL    HW217724   3.024   2.485   5.138 -0.6842 -2.0680  2.2617
 2089SOL     OW17725   4.722   0.952   7.680 -0.4352  0.2708 -0.0716
 2089SOL    HW117726   4.653   0.905   7.727 -2.4762  2.3383 -1.0102
 2089SOL    HW217727   4.677   0.950   7.595 -0.7521  0.7966  0.0875
 2090SOL     OW17728   3.165   2.675   4.842  0.1302 -0.5257 -0.0780
 2090SOL    HW117729   3.195   2.686   4.932  1.2600 -2.8009 -0.1881
 2090SOL    HW217730   3.161   2.762   4.802  1.7413 -0.1156  0.6567
 2091SOL     OW17731   2.351   3.677  12.014  0.0750 -0.1107  0.1155
 2091SOL    HW117732   2.389   3.590  12.006 -0.0335 -0.3415  2.1219
 2091SOL    HW217733   2.422   3.725  11.972 -1.4933  0.0506 -2.3239
 2092SOL     OW17734   1.763   3.272   3.576 -0.1904  0.1391 -0.2172
 2092SOL    HW117735   1.764   3.215   3.500 -1.0690 -0.0618 -0.0765
 2092SOL    HW217736   1.701   3.217   3.625 -0.7079 -0.3981 -1.4903
 2093SOL     OW17737   1.671   2.077   2.321 -0.3503 -0.2503 -0.2268
 2093SOL    HW117738   1.707   2.010   2.264  2.6728  2.4372 -1.5004
 2093SOL    HW217739   1.749   2.107   2.369 -0.8393 -0.5767  0.7727
 2094SOL     OW17740   1.793   2.108  14.524  0.0079  0.2645 -0.6736
 2094SOL    HW117741   1.766   2.017  14.518  0.9293 -0.1103  0.8891
 2094SOL    HW217742   1.889   2.101  14.531  0.1763  0.6401 -2.4926
 2095SOL     OW17743   4.665   1.354   0.912 -0.7088 -0.0636  0.2794
 2095SOL    HW117744   4.713   1.386   0.835 -1.1280  1.8627  0.8106
 2095SOL    HW217745   0.018   1.340   0.967 -1.3813 -0.0465  1.2340
 2096SOL     OW17746   0.342   0.623   9.295  0.2798 -0.6982  0.4030
 2096SOL    HW117747   0.393   0.544   9.310 -0.2087 -1.5290 -2.1966
 2096SOL    HW217748   0.351   0.625   9.199  0.8884 -1.4426  0.4469
 2097SOL     OW17749   2.352   3.090   3.864 -0.0964 -0.6035 -0.2370
 2097SOL    HW117750   2.275   3.034   3.858 -0.6071  0.0617  0.1203
 2097SOL    HW217751   2.338   3.111   3.956  2.9601 -1.1225  0.3570
 2098SOL     OW17752   3.435   3.967   5.979  0.0446  0.0661 -0.1751
 2098SOL    HW117753   3.503   4.005   6.035 -1.1233  0.5155  0.9505
 2098SOL    HW217754   3.459   4.004   5.894 -0.2942 -2.1987 -1.2447
 2099SOL     OW17755   1.605   0.870   2.550  0.8478  0.0979  0.0296
 2099SOL    HW117756   1.554   0.861   2.470  1.9272 -0.0798 -0.6411
 2099SOL    HW217757   1.692   0.859   2.511  0.2651  2.6058 -1.9422
 2100SOL     OW17758   0.023   4.299   4.937 -0.2802 -0.9850  0.2829
 2100SOL    HW117759   0.072   4.381   4.932 -2.8189  0.6082  1.3584
 2100SOL    HW217760   4.707   4.298   4.850  3.5587  0.5932 -1.5559
 2101SOL     OW17761   1.665   4.374   6.936  0.3424 -0.0316 -0.2844
 2101SOL    HW117762   1.705   4.451   6.896  0.4195  0.6200  1.0600
 2101SOL    HW217763   1.740   4.315   6.928  0.7433  0.4447 -0.0366
 2102SOL     OW17764   4.450   1.229  11.388  0.0146  0.0600 -0.0921
 2102SOL    HW117765   4.493   1.176  11.321  1.5242  0.8622  0.2564
 2102SOL    HW217766   4.424   1.299  11.329 -1.5837 -0.1895  0.3037
 2103SOL     OW17767   0.836   3.220   0.999 -0.3984  0.7886 -0.5746
 2103SOL    HW117768   0.854   3.184   1.085 -0.5327  0.1827 -0.7995
 2103SOL    HW217769   0.845   3.313   1.020  2.1410  0.6457 -1.0176
 2104SOL     OW17770   2.640   3.085  14.428 -0.2999  0.0517  0.0905
 2104SOL    HW117771   2.630   3.116  14.338  2.3213  0.5702 -0.0009
 2104SOL    HW217772   2.555   3.112  14.463 -0.0375 -0.5759  1.1975
 2105SOL     OW17773   0.411   2.435  11.531  0.2121  0.1866  0.4530
 2105SOL    HW117774   0.383   2.418  11.441  0.2221  0.3569  0.4172
 2105SOL    HW217775   0.446   2.523  11.514  0.2119 -0.0460 -0.7907
 2106SOL     OW17776   4.671   3.072   1.674 -0.3135  0.0518  0.7710
 2106SOL    HW117777   4.648   3.131   1.746  2.3104 -0.9152  2.4175
 2106SOL    HW217778   4.709   3.141   1.620  0.1133 -1.1967 -0.4990
 2107SOL     OW17779   4.031   3.741   7.091  0.2343 -0.1960  1.0529
 2107SOL    HW117780   4.091   3.700   7.029  0.1157 -0.1509  0.9082
 2107SOL    HW217781   4.076   3.821   7.117 -0.1517  0.9004 -1.6822
 2108SOL     OW17782   0.483   4.103   3.394  0.2670  0.1453 -0.3215
 2108SOL    HW117783   0.530   4.048   3.331 -1.1929  1.0268 -2.1494
 2108SOL    HW217784   0.426   4.040   3.438  0.5225  0.3343  0.2839
 2109SOL     OW17785   3.622   3.700   7.987  0.8030  0.2130 -0.5672
 2109SOL    HW117786   3.588   3.768   8.044 -1.3865 -0.5597 -0.9370
 2109SOL    HW217787   3.611   3.626   8.047 -0.8941  0.6796 -0.2894
 2110SOL     OW17788   0.794   0.489   7.432  0.2524 -0.4166  0.0749
 2110SOL    HW117789   0.812   0.563   7.374  0.8187 -0.3307  0.3604
 2110SOL    HW217790   0.864   0.505   7.495 -1.1387 -2.4812  2.1632
 2111SOL     OW17791   0.553   4.062   3.744 -0.3353  0.5506  0.3702
 2111SOL    HW117792   0.608   4.044   3.667 -0.1115  0.3909  0.5683
 2111SOL    HW217793   0.555   3.972   3.778  0.0325  0.1001 -0.8479
 2112SOL     OW17794   2.111   4.035   8.579  0.5868 -0.0444 -0.0669
 2112SOL    HW117795   2.033   4.006   8.533 -0.6077  2.9965  0.0081
 2112SOL    HW217796   2.070   4.093   8.644 -2.0826 -0.0585 -1.7315
 2113SOL     OW17797   2.765   2.070  10.550  0.4650 -0.6058  0.1439
 2113SOL    HW117798   2.826   2.139  10.577  0.5108 -0.8520  0.6571
 2113SOL    HW217799   2.707   2.074  10.626 -0.7626 -2.1777 -0.7245
 2114SOL     OW17800   0.246   0.543   0.011 -0.2626 -0.3927 -0.1792
 2114SOL    HW117801   0.314   0.610   0.007 -0.7174  0.0334 -0.7694
 2114SOL    HW217802   0.217   0.554   0.101 -1.3980 -1.4781 -0.4104
 2115SOL     OW17803   3.072   1.351   8.656  0.0995 -0.5212 -0.1354
 2115SOL    HW117804   3.007   1.421   8.645  2.5033  1.3973 -2.0497
 2115SOL    HW217805   3.041   1.296   8.728 -0.5639 -1.0258 -0.8109
 2116SOL     OW17806   0.162   3.218  11.647  0.4889 -0.0511 -0.3272
 2116SOL    HW117807   0.155   3.123  11.656  0.0738  0.2187  2.1984
 2116SOL    HW217808   0.102   3.232  11.574 -0.2938  0.4117  0.3919
 2117SOL     OW17809   4.268   3.474   5.596  0.0380  0.5022  0.1123
 2117SOL    HW117810   4.199   3.535   5.622  0.6505  1.0013  0.5580
 2117SOL    HW217811   4.326   3.485   5.671 -2.0269 -1.1245  1.9492
 2118SOL     OW17812   1.482   0.570   8.528 -0.1315 -0.4094 -0.3647
 2118SOL    HW117813   1.547   0.612   8.472  1.0888  1.4264  2.4299
 2118SOL    HW217814   1.448   0.649   8.569  0.9137 -0.3338  0.3719
 2119SOL     OW17815   0.614   1.450   3.585 -0.2283 -0.3204 -0.5425
 2119SOL    HW117816   0.520   1.460   3.597 -0.4005 -0.4257 -1.8121
 2119SOL    HW217817   0.635   1.539   3.615 -0.1175 -0.0153 -1.5192
 2120SOL     OW17818   2.159   1.285  16.637 -0.1737  0.6519 -0.0906
 2120SOL    HW117819   2.176   1.287  16.731  1.6442  0.9722 -0.4210
 2120SOL    HW217820   2.119   1.370  16.621  2.3751  1.8456 -0.1923
 2121SOL     OW17821   0.592   0.402   3.682 -0.3190 -0.2470  0.2585
 2121SOL    HW117822   0.551   0.465   3.622 -1.1813 -0.1548  0.9416
 2121SOL    HW217823   0.595   0.320   3.633  0.4110 -0.9786  1.5380
 2122SOL     OW17824   1.279   2.155   7.057  0.3050  0.1833 -0.2429
 2122SOL    HW117825   1.273   2.203   6.974 -0.4005  1.9263  0.8037
 2122SOL    HW217826   1.214   2.087   7.037  0.4299 -0.8442  2.8916
 2123SOL     OW17827   1.556   2.782   1.994  0.4850  0.2192 -0.5014
 2123SOL    HW117828   1.643   2.744   1.986  0.3769 -0.2884  0.6626
 2123SOL    HW217829   1.516   2.701   2.027 -1.6487  0.7281 -1.8779
 2124SOL     OW17830   2.815   1.095   9.161 -0.3088 -0.4197 -0.2080
 2124SOL    HW117831   2.751   1.122   9.096  0.4788 -0.5044 -1.0194
 2124SOL    HW217832   2.808   0.999   9.156 -0.6056 -0.5241  2.4249
 2125SOL     OW17833   2.943   0.456   6.569  0.6357 -0.1421 -0.1010
 2125SOL    HW117834   2.867   0.501   6.532 -0.7270 -0.8006  1.9262
 2125SOL    HW217835   2.976   0.428   6.483  0.7630  2.3706 -0.8508
 2126SOL     OW17836   0.425   0.541  10.867  0.2920 -1.0941  0.0220
 2126SOL    HW117837   0.466   0.468  10.821 -2.1185 -2.1458 -0.4779
 2126SOL    HW217838   0.421   0.594  10.787 -1.2901 -0.4073  0.5559
 2127SOL     OW17839   2.001   1.251  13.902 -0.0545 -0.2724  0.1037
 2127SOL    HW117840   2.073   1.285  13.957 -0.4167  2.5483 -1.1719
 2127SOL    HW217841   2.025   1.306  13.828 -2.4930  1.0663  0.3162
 2128SOL     OW17842   3.732   2.279   4.436  0.3307  0.4853 -0.4561
 2128SOL    HW117843   3.643   2.250   4.416 -0.7678  1.3326  3.2209
 2128SOL    HW217844   3.783   2.199   4.424 -0.1202  0.1231  0.0427
 2129SOL     OW17845   1.430   2.398   2.441  0.1388 -0.0890  0.1140
 2129SOL    HW117846   1.508   2.361   2.401  0.3703  1.6136 -1.0289
 2129SOL    HW217847   1.437   2.491   2.419 -0.1037  0.0747  0.7200
 2130SOL     OW17848   2.924   3.577  10.222 -0.0399 -0.2961 -0.2492
 2130SOL    HW117849   2.926   3.494  10.176 -1.3896  0.2548 -1.2916
 2130SOL    HW217850   2.840   3.608  10.187  0.4920 -2.6344 -3.5014
 2131SOL     OW17851   0.433   2.840   4.528 -0.1606 -0.1711 -0.1068
 2131SOL    HW117852   0.405   2.772   4.466 -0.5443 -0.1992  0.1021
 2131SOL    HW217853   0.426   2.920   4.477 -1.0617  1.1221  2.0650
 2132SOL     OW17854   4.541   4.320   1.864  0.3034 -0.0419 -0.1439
 2132SOL    HW117855   4.539   4.350   1.773 -2.2841 -2.2719 -0.8201
 2132SOL    HW217856   4.448   4.308   1.882  0.3193 -1.8567 -1.3750
 2133SOL     OW17857   1.979   1.130   5.592  0.1818  0.1381  0.0898
 2133SOL    HW117858   1.953   1.110   5.683  1.0222 -0.1894  0.2618
 2133SOL    HW217859   1.922   1.202   5.567 -1.3140 -1.1047 -0.0816
 2134SOL     OW17860   3.474   1.535  10.048  0.2196  0.6058 -0.1661
 2134SOL    HW117861   3.538   1.577   9.991  0.2948 -1.2775 -1.4700
 2134SOL    HW217862   3.414   1.503   9.980  0.4461  2.5333 -1.2622
 2135SOL     OW17863   2.778   0.440   3.802  0.2612  0.1776 -0.0901
 2135SOL    HW117864   2.686   0.432   3.777  0.1401  0.1036  0.3754
 2135SOL    HW217865   2.767   0.496   3.878  3.5091  0.0999  0.4723
 2136SOL     OW17866   3.516   0.705   8.720 -0.3042  1.0003 -0.6681
 2136SOL    HW117867   3.530   0.737   8.630 -0.9981 -0.3528 -1.2649
 2136SOL    HW217868   3.444   0.760   8.752 -1.2898 -0.2587 -0.7099
 2137SOL     OW17869   2.528   0.321   5.992  0.2823 -0.2138 -0.1074
 2137SOL    HW117870   2.523   0.357   6.080  0.7443 -1.5436  0.4647
 2137SOL    HW217871   2.450   0.265   5.997 -0.9206  1.5232  0.5956
 2138SOL     OW17872   3.126   4.347   8.963 -0.6205 -0.0505  0.0913
 2138SOL    HW117873   3.066   4.322   9.033 -2.0547  0.8873 -0.8058
 2138SOL    HW217874   3.162   4.423   9.009  0.9503  0.3668 -1.8430
 2139SOL     OW17875   1.345   1.055   4.621  0.5980  0.9579 -0.0451
 2139SOL    HW117876   1.372   1.145   4.640 -1.7940  1.9387 -1.2753
 2139SOL    HW217877   1.416   1.009   4.577  0.5731 -0.5915  1.5469
 2140SOL     OW17878   2.709   0.996   2.186  0.1874 -0.2151  0.0415
 2140SOL    HW117879   2.648   1.062   2.156 -1.0454 -0.7217  1.4275
 2140SOL    HW217880   2.715   1.018   2.279 -1.0280  0.5479 -0.0711
 2141SOL     OW17881   1.698   2.926   4.256 -0.4569 -0.0319  0.1251
 2141SOL    HW117882   1.681   2.841   4.297 -0.1032 -0.2395 -0.1576
 2141SOL    HW217883   1.692   2.892   4.166 -1.4687  2.6742 -0.8310
 2142SOL     OW17884   1.785   1.719   7.011 -0.1172  0.4236 -0.0351
 2142SOL    HW117885   1.818   1.805   6.984 -1.7586  1.5734  1.6892
 2142SOL    HW217886   1.731   1.734   7.088 -0.0042  0.7185 -0.0121
 2143SOL     OW17887   3.585   1.162  17.476 -0.0101 -0.6533  0.0804
 2143SOL    HW117888   3.658   1.115  17.517 -0.1544 -0.6659  0.3199
 2143SOL    HW217889   3.622   1.217  17.407 -0.3725 -2.3183 -1.4217
 2144SOL     OW17890   1.266   4.495   2.904  0.5045 -0.3289 -0.1921
 2144SOL    HW117891   1.356   4.467   2.889  1.8911  3.2116  1.5333
 2144SOL    HW217892   1.238   4.463   2.990 -3.1645  1.7613 -0.6125
 2145SOL     OW17893   2.612   3.236   6.253  0.1301 -0.2994  0.2658
 2145SOL    HW117894   2.635   3.222   6.161  0.5310 -0.8248  0.4483
 2145SOL    HW217895   2.676   3.299   6.286 -0.0999 -0.1878  0.4948
 2146SOL     OW17896   2.465   4.690   8.057  0.3190 -0.2878 -0.0206
 2146SOL    HW117897   2.430   0.034   8.113  0.1082 -0.4313  0.0242
 2146SOL    HW217898   2.439   4.612   8.105 -0.1497  0.5149  1.0452
 2147SOL     OW17899   1.985   3.312   6.886  0.6645 -0.0910 -0.2869
 2147SOL    HW117900   2.037   3.339   6.811 -0.8557  2.1668 -0.5359
 2147SOL    HW217901   2.044   3.333   6.959  1.1925 -0.3528 -0.6415
 2148SOL     OW17902   1.356   1.745   7.163 -0.3176  0.0467  0.6059
 2148SOL    HW117903   1.294   1.806   7.203 -0.7931 -0.3831  0.5162
 2148SOL    HW217904   1.382   1.805   7.093  0.3046 -0.0839  0.7195
 2149SOL     OW17905   2.359   2.581   3.389  0.4802 -0.7817 -0.1014
 2149SOL    HW117906   2.265   2.595   3.403  0.8243 -1.8063  3.1258
 2149SOL    HW217907   2.363   2.613   3.298  1.4968 -1.2003 -0.2031
 2150SOL     OW17908   3.085   3.348   7.345 -0.1196  0.1097  0.5304
 2150SOL    HW117909   3.142   3.301   7.407 -2.2165 -0.7188  1.8556
 2150SOL    HW217910   3.090   3.299   7.263  0.0795 -0.2383  0.7463
 2151SOL     OW17911   0.977   2.766   0.731  0.7854  0.0008  0.5026
 2151SOL    HW117912   1.070   2.746   0.723  0.9165  0.3383  1.2166
 2151SOL    HW217913   0.970   2.861   0.736 -0.5028  0.0062 -1.2615
 2152SOL     OW17914   3.864   3.958   1.886  0.0484  0.1302  0.3850
 2152SOL    HW117915   3.882   4.047   1.857  1.5957 -0.2143  0.3361
 2152SOL    HW217916   3.793   3.929   1.828  1.2107 -1.4571 -0.2421
 2153SOL     OW17917   1.143   1.247  15.118  0.7694  0.3686 -0.1551
 2153SOL    HW117918   1.152   1.342  15.128  1.7537  0.2399  0.1969
 2153SOL    HW217919   1.237   1.232  15.116  0.8704  1.3041 -1.7340
 2154SOL     OW17920   0.299   2.789   2.758  0.2898  0.3990  0.1168
 2154SOL    HW117921   0.374   2.827   2.804  1.0096  1.0612 -1.6126
 2154SOL    HW217922   0.268   2.717   2.812  5.0906 -0.8115  1.2524
 2155SOL     OW17923   0.452   1.607  12.763  0.1465 -0.4367  0.4692
 2155SOL    HW117924   0.391   1.632  12.833  0.1497 -1.8355  0.9751
 2155SOL    HW217925   0.396   1.590  12.687 -0.1010  1.5931  0.1997
 2156SOL     OW17926   3.739   2.209   4.091 -0.3071 -0.5703 -0.1532
 2156SOL    HW117927   3.686   2.260   4.152 -0.2315 -2.3542  1.3706
 2156SOL    HW217928   3.823   2.234   4.129 -1.5670  2.9909  0.3529
 2157SOL     OW17929   4.696   2.438   4.388  0.0815  0.0844  0.2476
 2157SOL    HW117930   4.710   2.357   4.338  2.0347  0.1225  0.7315
 2157SOL    HW217931   4.714   2.410   4.478  0.8741  0.6964  0.2783
 2158SOL     OW17932   2.448   0.110   7.817  0.0497 -0.1810  0.2490
 2158SOL    HW117933   2.443   0.023   7.857  0.1913  1.0127  2.8831
 2158SOL    HW217934   2.506   0.153   7.879  2.3102  1.0194 -2.6775
 2159SOL     OW17935   3.129   3.392   2.713  0.3603 -0.4298 -0.1055
 2159SOL    HW117936   3.075   3.367   2.637 -0.1963  0.9587 -0.1506
 2159SOL    HW217937   3.069   3.390   2.787 -1.1035  0.8766 -1.2636
 2160SOL     OW17938   1.220   3.643  11.560 -0.0478 -0.2585 -0.5689
 2160SOL    HW117939   1.207   3.642  11.654 -0.4997 -1.7800 -0.6567
 2160SOL    HW217940   1.307   3.603  11.558  1.2652  2.4964  2.9172
 2161SOL     OW17941   3.100   2.332   8.779 -0.2916 -0.4833  0.4079
 2161SOL    HW117942   3.134   2.264   8.721  1.6846 -1.1951  2.3882
 2161SOL    HW217943   3.006   2.313   8.779 -0.7771  1.8367  1.1644
 2162SOL     OW17944   3.197   4.460   2.771  0.3161 -0.8064  0.4103
 2162SOL    HW117945   3.179   4.412   2.852  1.7939 -0.0166  1.2156
 2162SOL    HW217946   3.112   4.444   2.730  1.0837 -1.6061 -0.9048
 2163SOL     OW17947   1.648   4.587   7.534 -0.7696 -0.0328 -0.6600
 2163SOL    HW117948   1.648   4.568   7.440 -0.3703 -0.4669 -0.5732
 2163SOL    HW217949   1.684   4.510   7.577 -2.2239 -0.1651  0.3266
 2164SOL     OW17950   3.527   4.672  14.906 -0.2874 -0.3148  0.3424
 2164SOL    HW117951   3.542   4.579  14.925 -1.3490 -0.4176  0.6726
 2164SOL    HW217952   3.591   4.722  14.957  0.2495 -1.5048  0.8467
 2165SOL     OW17953   3.772   0.794  16.242  0.1541 -0.2683  0.1907
 2165SOL    HW117954   3.741   0.806  16.331  1.1441 -1.3363  0.6877
 2165SOL    HW217955   3.858   0.752  16.247 -0.2129 -1.0945 -0.3481
 2166SOL     OW17956   2.162   0.969   2.752 -0.1802 -0.3728  0.0301
 2166SOL    HW117957   2.126   1.052   2.721 -0.1390  0.1930  1.5372
 2166SOL    HW217958   2.242   1.001   2.794 -0.3546  0.5514 -0.3426
 2167SOL     OW17959   3.110   1.600   1.085 -0.0649  0.1334 -0.3567
 2167SOL    HW117960   3.043   1.637   1.142 -2.1775  0.6404 -3.1874
 2167SOL    HW217961   3.092   1.648   1.004 -0.2774 -1.9523 -1.5513
 2168SOL     OW17962   4.409   2.715   5.148  0.3586 -0.1454 -0.1073
 2168SOL    HW117963   4.412   2.788   5.210 -1.2307  0.4549 -0.7082
 2168SOL    HW217964   4.465   2.658   5.199  0.5489 -0.1703 -0.3450
 2169SOL     OW17965   3.865   0.579   7.652  0.7516 -0.5627 -0.6020
 2169SOL    HW117966   3.897   0.516   7.716 -0.6269  1.7681  2.4687
 2169SOL    HW217967   3.939   0.639   7.642  0.6713 -0.1226  1.2877
 2170SOL     OW17968   4.218   0.003   6.032 -0.7181  0.2000 -0.4416
 2170SOL    HW117969   4.226   4.643   5.987  0.0378  0.5449 -0.9473
 2170SOL    HW217970   4.125   0.026   6.020 -0.2938  0.3470 -3.4761
 2171SOL     OW17971   2.179   0.819   4.717 -0.7287 -0.0201  0.3456
 2171SOL    HW117972   2.264   0.856   4.692 -0.8444  0.8841  1.3000
 2171SOL    HW217973   2.116   0.873   4.670  2.4045  0.2529 -3.5751
 2172SOL     OW17974   4.131   1.279   6.192  0.0125  0.0767 -0.1968
 2172SOL    HW117975   4.183   1.273   6.271 -0.6253 -1.3301  0.1133
 2172SOL    HW217976   4.191   1.317   6.127  1.5341 -2.8835 -0.5454
 2173SOL     OW17977   1.982   4.655   9.541  0.0473  0.2525  0.4185
 2173SOL    HW117978   1.951   4.566   9.522  1.4877  0.0344 -0.9530
 2173SOL    HW217979   1.928   4.693   9.610 -0.2775 -0.0020  0.3088
 2174SOL     OW17980   1.030   4.708   0.830 -0.4806 -0.8221  0.0088
 2174SOL    HW117981   1.104   0.043   0.825 -0.2737 -1.0386  0.5276
 2174SOL    HW217982   1.045   4.645   0.760  0.3015  0.3160 -0.8484
 2175SOL     OW17983   2.579   4.397   7.326 -0.2893  0.0254 -0.7024
 2175SOL    HW117984   2.559   4.401   7.420 -0.9330  0.0999 -0.8449
 2175SOL    HW217985   2.654   4.456   7.320 -0.7202  0.7407  0.7152
 2176SOL     OW17986   4.643   3.152   9.722  0.1843  0.1289 -0.3396
 2176SOL    HW117987   4.647   3.238   9.765 -2.5107 -0.2484  0.7125
 2176SOL    HW217988   0.009   3.127   9.739  0.5887  2.0496  0.4200
 2177SOL     OW17989   3.365   1.385  11.651  0.2553 -0.1666 -0.0855
 2177SOL    HW117990   3.372   1.473  11.687  1.8470 -0.4452  0.3145
 2177SOL    HW217991   3.389   1.325  11.722  1.0515 -1.7799 -1.7195
 2178SOL     OW17992   1.473   0.705  16.873  0.5387  0.5018  0.3389
 2178SOL    HW117993   1.543   0.748  16.823  0.9862  0.8482  1.2700
 2178SOL    HW217994   1.524   0.690  16.952  2.1688 -3.0339 -1.3845
 2179SOL     OW17995   1.257   2.034   1.345  0.1353 -0.1205  0.3543
 2179SOL    HW117996   1.306   2.099   1.295 -1.5115  1.2442  0.5095
 2179SOL    HW217997   1.302   2.023   1.429  2.2163 -1.5289 -0.9495
 2180SOL     OW17998   4.346   3.806   5.363  0.1878 -0.6437  0.2371
 2180SOL    HW117999   4.429   3.763   5.380  0.3150 -1.6100 -2.9066
 2180SOL    HW218000   4.353   3.798   5.268 -3.5745  1.4774 -0.2336
 2181SOL     OW18001   0.004   3.183  12.437 -0.3595 -0.5016 -0.8369
 2181SOL    HW118002   4.653   3.241  12.442  0.0349 -0.0689  0.2957
 2181SOL    HW218003   0.013   3.163  12.530  1.2345  0.3237 -0.8162
 2182SOL     OW18004   2.674   2.283  15.458 -0.1602 -0.4124  0.6578
 2182SOL    HW118005   2.644   2.275  15.368  0.4888  1.2264  0.2866
 2182SOL    HW218006   2.768   2.273  15.442 -0.2802 -0.3445 -0.0643
 2183SOL     OW18007   1.288   0.696   4.887  0.2323  0.3955  0.0212
 2183SOL    HW118008   1.363   0.729   4.837  1.7941  0.8798  2.6780
 2183SOL    HW218009   1.213   0.754   4.871  0.2510  0.5146  0.3680
 2184SOL     OW18010   0.899   1.112  10.238 -0.1132  0.4477  0.9331
 2184SOL    HW118011   0.853   1.119  10.155  1.0354 -2.2606  0.0491
 2184SOL    HW218012   0.988   1.142  10.222  0.0031 -0.5600 -0.3485
 2185SOL     OW18013   4.191   1.485  14.069  0.4833 -0.2556 -0.1689
 2185SOL    HW118014   4.120   1.431  14.103 -0.8834  0.3452 -2.0923
 2185SOL    HW218015   4.160   1.563  14.115 -0.4663 -0.7050 -0.0480
 2186SOL     OW18016   1.410   0.608   9.053 -0.2859 -0.3287 -0.3463
 2186SOL    HW118017   1.342   0.665   9.088 -0.1061  0.7297 -1.7060
 2186SOL    HW218018   1.375   0.602   8.964  2.8346  1.1499 -1.6583
 2187SOL     OW18019   3.458   3.611  15.981  0.0930 -0.2232  0.2184
 2187SOL    HW118020   3.507   3.667  16.042 -0.7937  2.9158 -1.9715
 2187SOL    HW218021   3.375   3.658  15.983 -0.2285 -0.7790 -0.5133
 2188SOL     OW18022   1.591   0.855  12.353 -0.0107  0.2743  0.6985
 2188SOL    HW118023   1.566   0.870  12.444 -1.8071  0.2012  0.2161
 2188SOL    HW218024   1.504   0.858  12.315 -0.3431  2.1690  1.5825
 2189SOL     OW18025   3.194   0.725  10.774 -0.2323 -0.0946 -0.4530
 2189SOL    HW118026   3.190   0.737  10.869 -1.3223  1.0289 -0.6481
 2189SOL    HW218027   3.116   0.768  10.740  0.8731 -0.4406 -3.4721
 2190SOL     OW18028   2.187   1.754  10.129 -0.2748 -0.2373  0.8416
 2190SOL    HW118029   2.166   1.846  10.116 -0.3008 -0.1015  1.8457
 2190SOL    HW218030   2.173   1.746  10.224 -0.3896  0.9200  0.9139
 2191SOL     OW18031   2.334   3.201   8.498 -0.0049 -0.4950 -0.0550
 2191SOL    HW118032   2.274   3.253   8.551  2.6676  1.8357  0.7001
 2191SOL    HW218033   2.363   3.130   8.555  0.4330  0.4140  0.8478
 2192SOL     OW18034   3.185   4.491   4.705 -0.1796 -0.3756 -0.2438
 2192SOL    HW118035   3.252   4.559   4.713 -0.7487  0.2655 -0.9767
 2192SOL    HW218036   3.126   4.516   4.634 -0.9196 -0.9429  0.1731
 2193SOL     OW18037   1.205   1.745   1.199 -0.3735 -0.7717  0.2916
 2193SOL    HW118038   1.293   1.720   1.227  0.1143 -0.8637 -1.3251
 2193SOL    HW218039   1.149   1.697   1.260  0.4071 -2.2548 -0.1375
 2194SOL     OW18040   3.024   1.200   3.459 -0.6526  0.0032  0.0921
 2194SOL    HW118041   3.109   1.243   3.447 -1.2320  1.5148  1.2608
 2194SOL    HW218042   3.048   1.114   3.493  1.1399 -1.0548 -3.8387
 2195SOL     OW18043   1.310   1.982   4.050  0.9366  0.3243 -0.3394
 2195SOL    HW118044   1.350   2.025   3.975  0.9413  0.9268  0.0010
 2195SOL    HW218045   1.362   1.902   4.051 -1.8270 -1.4342  1.4358
 2196SOL     OW18046   0.352   3.676   8.219 -0.2287 -0.1453 -0.3490
 2196SOL    HW118047   0.339   3.586   8.251  2.5257 -0.5084 -0.2490
 2196SOL    HW218048   0.374   3.660   8.128  1.3050 -4.1609  0.6908
 2197SOL     OW18049   2.186   3.530   2.052 -0.4328 -0.0328  0.4189
 2197SOL    HW118050   2.240   3.455   2.077 -1.5879 -1.2192 -0.6391
 2197SOL    HW218051   2.171   3.505   1.961 -1.7578  0.4442  0.5182
 2198SOL     OW18052   3.568   1.445   7.829  0.5202 -0.7002  0.4517
 2198SOL    HW118053   3.570   1.349   7.823  0.9227 -0.6018 -0.9495
 2198SOL    HW218054   3.504   1.458   7.759 -1.7659 -1.7289  2.3529
 2199SOL     OW18055   4.038   3.817   2.614  0.3650  0.4181  0.1608
 2199SOL    HW118056   3.951   3.859   2.610  0.1565  0.0167  0.5088
 2199SOL    HW218057   4.096   3.860   2.552  1.3311 -1.7204 -0.3697
 2200SOL     OW18058   2.294   1.433  11.279 -0.2289  0.3372  0.4463
 2200SOL    HW118059   2.336   1.490  11.215 -0.7592 -0.7019 -0.8249
 2200SOL    HW218060   2.207   1.436  11.241  0.1455  3.0644 -0.1418
 2201SOL     OW18061   1.636   0.794   8.390  0.1924  0.0719 -0.5379
 2201SOL    HW118062   1.690   0.843   8.452 -1.5127  0.6755  0.4611
 2201SOL    HW218063   1.551   0.813   8.429  0.4401  0.4761 -0.1969
 2202SOL     OW18064   3.450   3.110   5.614  0.1432  0.3163 -0.5295
 2202SOL    HW118065   3.530   3.156   5.639 -1.4071  2.3183  0.8208
 2202SOL    HW218066   3.384   3.160   5.662 -0.0030 -1.8525  1.5600
 2203SOL     OW18067   0.726   1.210   3.611  0.2700 -0.0374  0.5627
 2203SOL    HW118068   0.664   1.173   3.675 -1.2027 -1.2168 -1.5378
 2203SOL    HW218069   0.686   1.297   3.612  0.6715  0.1550 -0.0003
 2204SOL     OW18070   1.914   4.245   6.013 -0.2553 -0.4176  0.0855
 2204SOL    HW118071   1.834   4.251   6.066 -0.5513 -2.4178 -0.1589
 2204SOL    HW218072   1.879   4.204   5.934  0.2525  0.1697 -0.4560
 2205SOL     OW18073   1.115   3.686   6.056 -0.3703  0.2251  0.4295
 2205SOL    HW118074   1.144   3.732   6.135  3.1307 -0.2161 -0.6417
 2205SOL    HW218075   1.034   3.645   6.088 -0.6168  1.5501  1.5379
 2206SOL     OW18076   4.335   0.430   1.807  0.1595  0.0467  0.0325
 2206SOL    HW118077   4.414   0.432   1.754 -0.5658  0.0564 -1.0553
 2206SOL    HW218078   4.277   0.479   1.747  1.1130 -0.8322 -1.6122
 2207SOL     OW18079   0.822   0.300   7.777 -0.4322 -0.3600  0.3554
 2207SOL    HW118080   0.789   0.387   7.753 -0.8537  0.1002  2.5715
 2207SOL    HW218081   0.885   0.316   7.847  0.7266 -0.0489 -0.7479
 2208SOL     OW18082   3.178   1.826   6.643  0.0881 -0.2391  0.3124
 2208SOL    HW118083   3.138   1.860   6.723 -2.0604  1.7359 -1.5980
 2208SOL    HW218084   3.250   1.887   6.625  1.0695 -1.6632 -0.5315
 2209SOL     OW18085   3.292   1.954   2.372 -0.0167  0.4507 -0.3807
 2209SOL    HW118086   3.230   1.995   2.311 -0.5085 -1.1016 -0.9317
 2209SOL    HW218087   3.366   1.945   2.311 -1.6248 -0.2892 -2.2528
 2210SOL     OW18088   1.928   1.534   3.641  0.3699 -0.1985 -0.0271
 2210SOL    HW118089   1.973   1.529   3.726 -0.1201 -2.3318  0.1082
 2210SOL    HW218090   2.005   1.527   3.585  0.2384 -0.9573 -0.1202
 2211SOL     OW18091   1.449   2.663   2.365  0.0041  0.5339 -0.2266
 2211SOL    HW118092   1.534   2.707   2.354  1.0035 -0.9215  1.6175
 2211SOL    HW218093   1.398   2.731   2.322  0.3428  0.2855 -1.0046
 2212SOL     OW18094   3.826   3.595   7.173 -0.5819 -0.5117 -0.5023
 2212SOL    HW118095   3.808   3.655   7.245 -2.6401 -1.7018 -0.0285
 2212SOL    HW218096   3.906   3.634   7.135 -0.3388 -1.3789 -0.8817
 2213SOL     OW18097   2.098   4.119   7.616  0.1226  0.3043 -0.5275
 2213SOL    HW118098   2.075   4.040   7.665 -0.4198  0.5735 -0.3423
 2213SOL    HW218099   2.142   4.169   7.685 -1.8469  1.1041  0.1609
 2214SOL     OW18100   4.297   4.695   2.633 -0.6505  0.1811 -0.0398
 2214SOL    HW118101   4.307   4.700   2.538 -2.6393  1.8282 -0.1609
 2214SOL    HW218102   4.316   0.061   2.657 -1.1813  0.3602 -0.2887
 2215SOL     OW18103   0.612   3.827  15.705 -0.7082 -0.0428 -0.0780
 2215SOL    HW118104   0.569   3.742  15.705 -0.6279 -0.0707 -2.0252
 2215SOL    HW218105   0.542   3.875  15.750 -0.6637  0.8089 -0.9229
 2216SOL     OW18106   0.527   3.091   0.849 -0.0452  0.7849 -0.1766
 2216SOL    HW118107   0.441   3.082   0.809  0.0341 -1.2147  0.0812
 2216SOL    HW218108   0.588   3.093   0.775  3.1513 -1.9306  2.3361
 2217SOL     OW18109   3.520   1.905   7.431 -0.2783 -0.1506 -0.0171
 2217SOL    HW118110   3.530   1.876   7.522 -0.8474 -0.1912  0.0320
 2217SOL    HW218111   3.577   1.981   7.429  0.4065 -0.6684 -0.1803
 2218SOL     OW18112   3.748   3.134   4.273  0.3195  0.2500 -0.3360
 2218SOL    HW118113   3.774   3.198   4.207 -2.3475 -0.8347 -2.4688
 2218SOL    HW218114   3.729   3.057   4.220 -1.0370  0.7790 -0.6176
 2219SOL     OW18115   2.107   2.721  10.390  0.2614 -0.6081  0.3591
 2219SOL    HW118116   2.026   2.725  10.441 -0.2832  0.0806 -0.5828
 2219SOL    HW218117   2.157   2.783  10.443  0.0407  0.4678 -0.7212
 2220SOL     OW18118   4.084   2.582  15.983 -0.0103  0.3042 -0.6689
 2220SOL    HW118119   3.992   2.585  15.956 -0.0076 -1.0374 -0.8156
 2220SOL    HW218120   4.136   2.569  15.903 -0.2275 -3.1937 -0.2212
 2221SOL     OW18121   1.037   4.191   5.989  0.2237  0.1063  0.6417
 2221SOL    HW118122   1.055   4.280   6.019 -0.0475 -0.3890  2.2570
 2221SOL    HW218123   0.946   4.209   5.967  0.2389 -1.4120 -0.7128
 2222SOL     OW18124   4.072   3.185   3.195  0.9907 -1.1677  0.3851
 2222SOL    HW118125   4.021   3.107   3.217 -0.4790 -0.6703 -1.3074
 2222SOL    HW218126   4.058   3.248   3.266  0.4990 -0.2787 -0.5158
 2223SOL     OW18127   2.916   1.478   7.083  0.3581  0.3339  0.0810
 2223SOL    HW118128   2.944   1.486   6.992  0.0361 -2.2351 -0.2591
 2223SOL    HW218129   2.917   1.383   7.100 -1.3923  0.1910 -0.7130
 2224SOL     OW18130   0.097   3.680   7.128  0.1694 -0.4671  0.3006
 2224SOL    HW118131   0.162   3.610   7.129 -0.7444 -1.2837  2.3617
 2224SOL    HW218132   0.126   3.751   7.186  1.2753 -0.3645 -0.3811
 2225SOL     OW18133   2.605   0.583   2.686  0.1216 -0.2245  0.0947
 2225SOL    HW118134   2.661   0.513   2.653 -1.0553 -2.9797  3.9869
 2225SOL    HW218135   2.670   0.622   2.745 -0.1081 -0.4366  0.4874
 2226SOL     OW18136   2.419   1.033  13.049  0.0752 -0.1937  0.4146
 2226SOL    HW118137   2.356   0.962  13.056  0.5701 -0.5746  1.0708
 2226SOL    HW218138   2.494   0.997  13.097 -0.9623 -0.2934  1.9597
 2227SOL     OW18139   4.723   1.097   4.187 -0.0899  0.0594  0.6613
 2227SOL    HW118140   4.664   1.139   4.125  2.1809  1.1535 -0.7103
 2227SOL    HW218141   0.022   1.032   4.121 -3.0828 -2.1006  1.6530
 2228SOL     OW18142   4.174   2.823  12.253 -0.6027 -0.4044  0.5063
 2228SOL    HW118143   4.227   2.785  12.183 -3.7603 -0.5156 -1.8130
 2228SOL    HW218144   4.092   2.845  12.210 -0.4498 -2.2328 -0.6778
 2229SOL     OW18145   1.719   4.348  10.185 -0.2198  0.6173 -0.0099
 2229SOL    HW118146   1.779   4.422  10.194 -0.8149  1.3214 -1.8098
 2229SOL    HW218147   1.779   4.274  10.191 -1.2461 -0.3135 -1.1987
 2230SOL     OW18148   1.630   4.311   5.677  0.5242  0.4815  0.1278
 2230SOL    HW118149   1.649   4.238   5.736  1.0290 -1.4140 -2.3481
 2230SOL    HW218150   1.569   4.363   5.728  0.4202 -0.8670  1.3922
 2231SOL     OW18151   0.644   0.047   6.765 -0.3217 -0.2230 -0.4103
 2231SOL    HW118152   0.667   4.688   6.725  1.7424  1.2959 -2.3259
 2231SOL    HW218153   0.563   0.019   6.808 -1.3365 -0.4807 -2.4727
 2232SOL     OW18154   0.570   3.312   2.527  0.4479  0.1089  0.2722
 2232SOL    HW118155   0.514   3.379   2.566  0.0641 -0.9186  1.5025
 2232SOL    HW218156   0.624   3.288   2.603  1.1527 -0.4060 -0.3884
 2233SOL     OW18157   1.558   3.013  11.400 -0.0316 -0.0516 -0.8586
 2233SOL    HW118158   1.534   2.926  11.368  0.3787 -0.5887  0.2673
 2233SOL    HW218159   1.508   3.066  11.338 -1.0196 -0.3940 -0.3546
 2234SOL     OW18160   2.030   3.032  17.569 -0.1281 -0.2519 -0.3071
 2234SOL    HW118161   2.032   3.066  17.658  1.1632 -1.8130  0.2475
 2234SOL    HW218162   1.973   2.956  17.584 -1.3295  1.0239  1.6105
 2235SOL     OW18163   1.458   2.033  16.656  0.0300  0.6413 -0.4039
 2235SOL    HW118164   1.514   2.022  16.733  0.3650 -0.2693 -0.7711
 2235SOL    HW218165   1.416   2.118  16.669  1.6631  1.4985 -0.7814
 2236SOL     OW18166   2.304   3.574   6.298 -0.1604 -0.4890  0.5941
 2236SOL    HW118167   2.238   3.611   6.357  0.7695  3.1851 -0.6345
 2236SOL    HW218168   2.251   3.503   6.263 -0.1817 -0.4091  0.4653
 2237SOL     OW18169   2.626   2.037   5.610  0.1082 -0.2384  0.6383
 2237SOL    HW118170   2.638   2.124   5.648  0.8437 -0.1386  0.1778
 2237SOL    HW218171   2.586   1.990   5.684  1.5988 -0.5300  1.2757
 2238SOL     OW18172   4.148   3.633  11.708  0.0245  0.0092 -0.1480
 2238SOL    HW118173   4.211   3.602  11.773  2.1909  1.9673 -1.3179
 2238SOL    HW218174   4.205   3.663  11.637 -1.0644 -0.1937 -1.1177
 2239SOL     OW18175   1.137   4.231   4.766 -0.1880 -0.1513  0.2323
 2239SOL    HW118176   1.091   4.154   4.801  2.0004 -1.3234  0.6174
 2239SOL    HW218177   1.113   4.224   4.674  0.1615  0.5279  0.0944
 2240SOL     OW18178   0.578   1.631  15.892 -0.2186 -0.0121 -0.0784
 2240SOL    HW118179   0.528   1.692  15.947  0.3851  0.1870  0.2461
 2240SOL    HW218180   0.505   1.579  15.859  1.2396 -0.5055 -2.4858
 2241SOL     OW18181   0.601   3.937  16.054 -0.7138  0.1524  0.3539
 2241SOL    HW118182   0.687   3.961  16.089  0.6907 -2.0866 -1.6181
 2241SOL    HW218183   0.592   3.843  16.067 -0.0462  0.1375  0.6981
 2242SOL     OW18184   3.237   4.234   2.942  0.1773 -0.6627  0.1859
 2242SOL    HW118185   3.326   4.229   2.907 -0.6767 -0.6843 -1.9919
 2242SOL    HW218186   3.249   4.188   3.025 -1.1157  0.6370  1.1015
 2243SOL     OW18187   1.626   0.814   6.236  0.1478 -0.1244  0.8678
 2243SOL    HW118188   1.593   0.743   6.291 -0.8450 -0.7736 -0.5599
 2243SOL    HW218189   1.610   0.896   6.282 -1.5245  0.7183 -1.2151
 2244SOL     OW18190   2.958   0.949   7.943  0.9521  0.3282  0.2343
 2244SOL    HW118191   2.945   1.012   7.873  1.0788  1.3756  1.1526
 2244SOL    HW218192   2.974   1.013   8.012  1.6327  0.4110  0.0011
 2245SOL     OW18193   3.429   3.541  17.180 -0.4442 -0.6815  0.0756
 2245SOL    HW118194   3.359   3.605  17.191  2.8016  2.7345  0.6031
 2245SOL    HW218195   3.458   3.544  17.271  1.3859  0.6546 -0.5693
 2246SOL     OW18196   1.741   1.228   7.349 -0.5030 -0.0712  0.2768
 2246SOL    HW118197   1.778   1.294   7.408 -0.3706 -1.7967  2.1353
 2246SOL    HW218198   1.683   1.189   7.414 -2.1219  1.0701 -0.4963
 2247SOL     OW18199   0.967   0.453  13.886 -0.1312 -0.1628 -0.8425
 2247SOL    HW118200   0.878   0.489  13.887  0.9915  2.6046 -0.2219
 2247SOL    HW218201   1.018   0.533  13.877  1.3306 -1.1620 -1.3144
 2248SOL     OW18202   2.221   1.008   2.382 -0.1500 -0.1551 -0.1905
 2248SOL    HW118203   2.217   0.997   2.287  1.5631  1.4405 -0.4396
 2248SOL    HW218204   2.144   1.065   2.381 -0.3911 -0.4355  2.2794
 2249SOL     OW18205   2.284   0.544  17.601  0.1478 -0.3824  0.1322
 2249SOL    HW118206   2.361   0.601  17.599 -1.0718  1.3156  0.9963
 2249SOL    HW218207   2.245   0.583  17.680  0.3039  0.2284 -0.0979
 2250SOL     OW18208   3.083   0.463   9.562 -1.1998 -0.1267  0.0475
 2250SOL    HW118209   2.990   0.462   9.588 -0.7873  1.7877  1.5993
 2250SOL    HW218210   3.090   0.555   9.534 -0.8695 -0.3357 -0.5542
 2251SOL     OW18211   2.332   1.647  12.807 -0.2340  0.3873 -0.2639
 2251SOL    HW118212   2.269   1.602  12.751  0.1810 -0.0131 -0.4140
 2251SOL    HW218213   2.408   1.592  12.790 -2.1191 -2.1204 -0.5526
 2252SOL     OW18214   3.073   3.681   2.991 -0.5039  0.3759 -0.1191
 2252SOL    HW118215   3.132   3.659   2.919  1.2265 -1.1584  1.7766
 2252SOL    HW218216   3.098   3.618   3.058 -1.4843 -1.2109 -1.2302
 2253SOL     OW18217   1.251   0.196   7.701 -0.1560  0.1287 -0.0017
 2253SOL    HW118218   1.342   0.213   7.727 -0.2765 -0.4021  0.7729
 2253SOL    HW218219   1.218   0.161   7.784  0.2311  2.4121  1.1090
 2254SOL     OW18220   0.040   0.160   3.853  0.2689  0.4187 -0.3429
 2254SOL    HW118221   0.095   0.081   3.853 -0.8748 -0.3686 -2.3998
 2254SOL    HW218222   4.686   0.131   3.807  1.6917 -3.0005 -0.6599
 2255SOL     OW18223   3.353   1.323   5.649  0.2276 -0.4481 -0.1730
 2255SOL    HW118224   3.268   1.330   5.606  0.8366 -0.1466 -1.3258
 2255SOL    HW218225   3.378   1.415   5.660 -0.2448 -0.4163  0.6621
 2256SOL     OW18226   0.793   1.136   6.044 -0.5203 -0.1793  0.4721
 2256SOL    HW118227   0.880   1.139   6.006 -0.6137  1.8123  0.4141
 2256SOL    HW218228   0.765   1.226   6.031  0.2290 -0.1363 -0.8069
 2257SOL     OW18229   3.469   2.580   4.718 -0.5031 -0.2327  0.1988
 2257SOL    HW118230   3.390   2.558   4.669  0.3313 -0.2371 -1.1416
 2257SOL    HW218231   3.530   2.511   4.693  1.3460  0.9892  1.3163
 2258SOL     OW18232   3.581   2.297   8.326 -0.2194  0.8423 -0.0376
 2258SOL    HW118233   3.655   2.311   8.385 -0.0796 -1.0909  0.2353
 2258SOL    HW218234   3.509   2.348   8.364 -2.2470  0.1657 -3.0138
 2259SOL     OW18235   3.742   4.676   5.238 -0.1929  0.3598 -0.3761
 2259SOL    HW118236   3.648   4.686   5.220 -0.1527  1.3996  0.0443
 2259SOL    HW218237   3.744   4.681   5.333 -0.5377  3.0676 -0.5128
 2260SOL     OW18238   3.775   3.662  11.138  0.1312 -0.5173 -0.2103
 2260SOL    HW118239   3.797   3.738  11.084  1.7831 -0.6603  0.2675
 2260SOL    HW218240   3.682   3.674  11.156  0.3200 -0.1709  0.5073
 2261SOL     OW18241   1.090   3.459  15.354  0.1478 -1.2440  0.1559
 2261SOL    HW118242   1.108   3.405  15.431  0.0431 -1.3466  0.1092
 2261SOL    HW218243   1.053   3.540  15.390  0.4071 -2.1314  2.3781
 2262SOL     OW18244   4.064   0.830   0.123  0.0022 -0.1105  0.2066
 2262SOL    HW118245   4.137   0.863   0.174 -0.2398  0.1538  0.3859
 2262SOL    HW218246   4.000   0.901   0.132  0.9305  0.7469  0.0800
 2263SOL     OW18247   0.564   2.973   6.159  0.0431  0.0806 -0.1609
 2263SOL    HW118248   0.527   2.965   6.247 -1.4178 -0.1611 -0.8071
 2263SOL    HW218249   0.601   2.886   6.143 -0.2980 -0.3850  1.5991
 2264SOL     OW18250   1.529   0.217   7.779 -0.3559  0.0384 -0.5372
 2264SOL    HW118251   1.504   0.166   7.856  0.2375  0.3537 -0.1338
 2264SOL    HW218252   1.612   0.174   7.758 -0.3863 -1.5553  2.6539
 2265SOL     OW18253   3.906   2.231   9.041  0.0438 -0.1672 -0.0843
 2265SOL    HW118254   3.937   2.174   9.111 -0.4298  0.5052  0.6778
 2265SOL    HW218255   3.943   2.180   8.969  0.0192 -0.6534  0.2482
 2266SOL     OW18256   0.069   2.438  12.770  0.9987 -0.3655 -0.1967
 2266SOL    HW118257   0.045   2.466  12.682 -0.5441 -0.6828  0.1202
 2266SOL    HW218258   0.101   2.521  12.805 -0.4748 -0.4434  1.2939
 2267SOL     OW18259   3.465   2.933   2.615  0.0176  0.6756  0.2373
 2267SOL    HW118260   3.413   3.009   2.590 -0.1175 -0.2961 -2.3877
 2267SOL    HW218261   3.459   2.937   2.711 -1.5540  3.2656  0.0297
 2268SOL     OW18262   3.510   1.944   3.459 -0.1177 -0.1855 -0.2237
 2268SOL    HW118263   3.421   1.911   3.470  0.2552 -1.5476 -1.4012
 2268SOL    HW218264   3.509   2.011   3.528  1.8347  0.7914 -1.1298
 2269SOL     OW18265   1.478   2.148  13.315 -0.1616 -0.5234 -0.1968
 2269SOL    HW118266   1.516   2.202  13.245  0.5747 -0.7715  0.0120
 2269SOL    HW218267   1.554   2.091  13.317  0.1712 -0.0954 -0.5268
 2270SOL     OW18268   1.401   2.107   3.078  0.2721  0.4348 -0.2694
 2270SOL    HW118269   1.326   2.166   3.088  0.7562  1.0791 -0.5098
 2270SOL    HW218270   1.436   2.095   3.166  1.5958  1.2664 -0.6934
 2271SOL     OW18271   1.840   3.490   6.211  0.0611  0.2465 -0.0021
 2271SOL    HW118272   1.922   3.528   6.180  0.4806  1.2065  2.3517
 2271SOL    HW218273   1.792   3.573   6.209 -0.2906  0.1394  3.9824
 2272SOL     OW18274   0.848   4.650   0.226 -0.3617 -0.2894 -0.8582
 2272SOL    HW118275   0.874   4.691   0.143 -2.5551  3.3341  0.2633
 2272SOL    HW218276   0.755   4.659   0.206 -0.4115  2.6513  0.8135
 2273SOL     OW18277   4.365   0.062   8.742  0.1820  0.2811  0.6378
 2273SOL    HW118278   4.452   0.052   8.781  0.7114 -0.2656 -0.7015
 2273SOL    HW218279   4.376   0.132   8.677  4.1105 -1.9782 -1.1012
 2274SOL     OW18280   3.169   4.653   8.651  0.1312 -0.2153 -0.1211
 2274SOL    HW118281   3.217   4.576   8.622 -1.1310 -0.8892 -0.3963
 2274SOL    HW218282   3.088   4.613   8.680 -0.4710  0.5049 -0.8131
 2275SOL     OW18283   2.611   0.108   2.731 -0.5681  0.0718 -0.9490
 2275SOL    HW118284   2.680   0.154   2.780 -0.2398  1.6423 -2.8982
 2275SOL    HW218285   2.654   0.044   2.674  2.0144  0.5440  0.4389
 2276SOL     OW18286   3.854   3.268   8.204  0.1013 -0.5812 -0.0995
 2276SOL    HW118287   3.791   3.214   8.253 -0.7821  0.0168 -0.5648
 2276SOL    HW218288   3.939   3.266   8.247 -0.3011  0.5620  0.7383
 2277SOL     OW18289   3.362   4.312  16.673  0.2068 -0.5467  0.0533
 2277SOL    HW118290   3.332   4.321  16.764 -1.3455  0.1442 -0.5358
 2277SOL    HW218291   3.453   4.340  16.682 -0.2273  0.8309  0.1124
 2278SOL     OW18292   0.399   0.043   5.693  0.1867  0.1450 -0.5951
 2278SOL    HW118293   0.337   0.036   5.620 -0.6919 -0.4987  0.2093
 2278SOL    HW218294   0.351   0.111   5.740 -2.1029 -2.3965  0.7252
 2279SOL     OW18295   1.387   1.007   5.859  0.3361 -0.4747 -0.0450
 2279SOL    HW118296   1.318   0.978   5.799  1.3349  0.7493 -1.7684
 2279SOL    HW218297   1.413   0.919   5.886  0.3623  0.0945  1.8185
 2280SOL     OW18298   3.788   1.665   7.791  0.0216 -0.2798  0.0962
 2280SOL    HW118299   3.770   1.758   7.804 -1.8526 -0.7052  0.5403
 2280SOL    HW218300   3.704   1.621   7.780 -0.2387  0.0281  0.8997
 2281SOL     OW18301   1.863   1.534   2.462  0.1995  0.4321  0.3409
 2281SOL    HW118302   1.829   1.464   2.406 -0.7484 -0.6801  2.3207
 2281SOL    HW218303   1.856   1.600   2.393  0.8215  0.3245  0.1696
 2282SOL     OW18304   1.150   4.094  15.473 -0.2551 -0.3899 -0.3842
 2282SOL    HW118305   1.057   4.069  15.477 -0.1011 -0.5839  1.8926
 2282SOL    HW218306   1.162   4.151  15.397 -1.0446  1.1066  0.6120
 2283SOL     OW18307   2.582   0.332  16.213 -0.1035  0.2863  0.5694
 2283SOL    HW118308   2.549   0.411  16.254  1.1870  0.2921  1.6070
 2283SOL    HW218309   2.516   0.278  16.256 -0.2194 -2.3278 -2.8291
 2284SOL     OW18310   0.040   0.414   3.573 -0.0237  0.3006 -0.1601
 2284SOL    HW118311   0.083   0.497   3.553 -1.4591  0.7459 -1.3579
 2284SOL    HW218312   0.043   0.415   3.669  1.5035  1.1729 -0.2317
 2285SOL     OW18313   1.425   4.123   4.828  1.0442  0.0067 -0.5338
 2285SOL    HW118314   1.402   4.206   4.785  2.4937  0.5251 -0.3147
 2285SOL    HW218315   1.368   4.069   4.773 -0.0586  1.3856 -0.7542
 2286SOL     OW18316   3.448   1.135   1.632 -0.0288  0.0761  0.3304
 2286SOL    HW118317   3.439   1.223   1.594 -0.6331 -0.4894 -0.8539
 2286SOL    HW218318   3.496   1.096   1.560 -0.8997 -0.7444  0.1908
 2287SOL     OW18319   3.076   4.653   0.495 -0.7555  0.4208  0.5886
 2287SOL    HW118320   3.108   0.013   0.466 -1.0259 -0.7581 -3.1923
 2287SOL    HW218321   3.028   4.689   0.570 -1.7563 -0.0876  0.2013
 2288SOL     OW18322   1.517   2.996   3.951 -0.1723 -0.9126 -0.2125
 2288SOL    HW118323   1.467   2.953   4.021  1.1558 -0.7119  0.8680
 2288SOL    HW218324   1.604   2.966   3.978 -1.3429 -2.3205  2.0552
 2289SOL     OW18325   1.632   1.891   3.348  0.3781  0.0812 -0.6209
 2289SOL    HW118326   1.631   1.844   3.265 -1.1431  0.8571 -1.0412
 2289SOL    HW218327   1.561   1.955   3.348  1.0571  0.8232  1.5849
 2290SOL     OW18328   4.013   3.333   6.828  0.3335  0.8180  0.5350
 2290SOL    HW118329   3.927   3.342   6.786 -0.5677 -0.8987  2.0185
 2290SOL    HW218330   4.008   3.238   6.825 -0.2919  0.8698 -0.1704
 2291SOL     OW18331   4.162   3.457   0.065 -0.1140  0.1474 -0.2685
 2291SOL    HW118332   4.236   3.397   0.059  0.2064  0.1635  3.8381
 2291SOL    HW218333   4.181   3.491   0.152  0.7089  1.3011 -0.9026
 2292SOL     OW18334   3.826   0.958   5.156  0.4326 -0.7388 -0.1561
 2292SOL    HW118335   3.807   1.045   5.120  0.5041  0.5184  2.8905
 2292SOL    HW218336   3.919   0.965   5.178  0.7047  1.1866 -1.9373
 2293SOL     OW18337   1.917   4.026   6.670 -0.3128 -0.3257 -0.0261
 2293SOL    HW118338   1.909   3.940   6.711  0.6303 -0.5112 -0.2511
 2293SOL    HW218339   1.968   4.000   6.594 -2.3950 -0.8454 -1.2343
 2294SOL     OW18340   4.093   1.547   8.468  0.0168  0.5583  0.3902
 2294SOL    HW118341   4.054   1.620   8.517 -0.9286  0.2041  0.1512
 2294SOL    HW218342   4.166   1.522   8.524  0.3319  0.9724  0.1698
 2295SOL     OW18343   4.384   1.648   6.836  0.1667  0.0375  0.9081
 2295SOL    HW118344   4.452   1.614   6.777 -0.7832  0.6526 -0.5509
 2295SOL    HW218345   4.389   1.744   6.834  0.6102 -0.0238 -1.1250
 2296SOL     OW18346   2.032   2.020   7.989  0.3259  1.0089  0.0452
 2296SOL    HW118347   1.998   1.945   8.037 -0.2146 -0.2253 -2.2647
 2296SOL    HW218348   1.987   2.094   8.029 -0.4527  0.8300 -0.4988
 2297SOL     OW18349   0.327   2.111   5.016 -0.0076 -0.1779 -0.4926
 2297SOL    HW118350   0.347   2.204   5.017 -1.9068  0.2180 -0.7524
 2297SOL    HW218351   0.233   2.117   4.998 -0.5147  0.1878  2.4039
 2298SOL     OW18352   1.244   1.236  14.341 -0.0250  0.2547 -0.0264
 2298SOL    HW118353   1.195   1.318  14.328  3.5611  2.8264  2.7980
 2298SOL    HW218354   1.305   1.231  14.267  0.6475  2.6582  0.3545
 2299SOL     OW18355   0.183   2.013   3.708  0.1773  0.4760  0.1261
 2299SOL    HW118356   0.088   2.026   3.721 -0.1883 -1.6008 -0.6240
 2299SOL    HW218357   0.187   2.022   3.613  1.8405  1.6165  0.3036
 2300SOL     OW18358   1.024   4.654   1.441 -0.0724  0.2243 -0.2615
 2300SOL    HW118359   1.107   4.633   1.397 -0.6534 -2.1451 -0.2308
 2300SOL    HW218360   0.964   4.587   1.407  0.1944 -0.9816  1.6346
 2301SOL     OW18361   4.257   4.685   1.751 -0.0190  0.1281  0.2305
 2301SOL    HW118362   4.213   0.030   1.703 -0.5284 -0.0103  0.4852
 2301SOL    HW218363   4.214   4.607   1.715  0.5723 -0.1569  0.1552
 2302SOL     OW18364   4.290   0.615   0.461  0.1093  0.4308 -0.5933
 2302SOL    HW118365   4.243   0.694   0.490  1.0935  0.4598  0.9075
 2302SOL    HW218366   4.255   0.550   0.521 -0.5071  0.6600 -0.6989
 2303SOL     OW18367   0.457   3.630   3.406 -0.4577 -0.4792  0.2621
 2303SOL    HW118368   0.415   3.713   3.426 -1.5067 -0.8941 -0.2409
 2303SOL    HW218369   0.544   3.658   3.435  0.3263 -1.3290 -1.2285
 2304SOL     OW18370   1.342   2.820   5.991 -0.3914  0.7977  0.2235
 2304SOL    HW118371   1.313   2.775   6.070 -0.9427  2.6331  1.0620
 2304SOL    HW218372   1.351   2.746   5.930 -0.4524  0.0171  1.1537
 2305SOL     OW18373   2.645   3.461   5.974 -0.4890  0.3763  0.3440
 2305SOL    HW118374   2.592   3.403   5.920  2.3747 -0.0150 -2.0963
 2305SOL    HW218375   2.584   3.525   6.009 -0.7369  0.0321  0.5411
 2306SOL     OW18376   0.156   2.641   5.449 -0.0819  0.6861  0.0184
 2306SOL    HW118377   0.134   2.566   5.505 -1.9501  2.1935  1.3133
 2306SOL    HW218378   0.225   2.676   5.506  1.1273  0.7592 -1.4861
 2307SOL     OW18379   4.547   0.657  11.143 -0.2790  0.2215  0.0753
 2307SOL    HW118380   4.636   0.678  11.170  0.5647 -0.7085 -2.0253
 2307SOL    HW218381   4.535   0.562  11.143 -0.8495  0.2941  0.6466
 2308SOL     OW18382   2.446   3.100  11.966  0.3027 -0.5661  0.4233
 2308SOL    HW118383   2.395   3.133  12.040 -1.2152  1.9554 -1.7925
 2308SOL    HW218384   2.399   3.141  11.894 -0.0349  0.5027  1.2475
 2309SOL     OW18385   3.597   3.462  12.943 -0.4238  0.0872  0.0914
 2309SOL    HW118386   3.583   3.483  13.036  0.6089 -1.1463  0.5232
 2309SOL    HW218387   3.630   3.372  12.953 -0.0676 -0.0365 -2.3108
 2310SOL     OW18388   0.474   3.069  16.693  0.5154 -0.1099  0.1064
 2310SOL    HW118389   0.505   3.133  16.757 -1.6676  0.0929  0.9576
 2310SOL    HW218390   0.447   2.990  16.740 -0.3807  0.3142  0.3157
 2311SOL     OW18391   0.996   1.395   2.919 -0.5034 -0.0632  0.1803
 2311SOL    HW118392   0.905   1.412   2.895 -0.0266  1.0959 -0.8378
 2311SOL    HW218393   1.035   1.482   2.928  0.3936 -0.6325  1.7138
 2312SOL     OW18394   3.025   1.755   3.420  0.3301 -0.3867  0.0152
 2312SOL    HW118395   3.005   1.715   3.505  2.6790 -2.0782 -0.2271
 2312SOL    HW218396   3.071   1.684   3.376 -0.6993 -0.2930 -1.1909
 2313SOL     OW18397   4.271   2.208  14.855 -0.0034  0.0607  0.0435
 2313SOL    HW118398   4.315   2.169  14.779 -0.4997 -0.9217  0.2528
 2313SOL    HW218399   4.238   2.292  14.823  2.1339  0.2201 -1.7581
 2314SOL     OW18400   1.028   3.642  15.541 -0.5381  0.5976  0.1601
 2314SOL    HW118401   1.091   3.679  15.603 -0.9403 -0.1188  0.9933
 2314SOL    HW218402   0.959   3.707  15.549 -1.1497  0.0652 -0.8420
 2315SOL     OW18403   3.493   2.996  11.933 -0.1364  0.0267 -0.4825
 2315SOL    HW118404   3.472   2.993  11.840 -0.5739  1.9625 -0.4441
 2315SOL    HW218405   3.455   2.918  11.972  0.5631 -0.2772 -0.4072
 2316SOL     OW18406   0.883   1.059  15.996 -0.3972 -0.3611  0.1594
 2316SOL    HW118407   0.969   1.082  15.962 -0.4772 -0.7147 -0.2916
 2316SOL    HW218408   0.868   0.968  15.969  2.5645 -0.7668 -0.1509
 2317SOL     OW18409   2.926   4.196   4.020  0.5885  0.4667  0.4842
 2317SOL    HW118410   2.985   4.142   4.073  0.6030  0.8048  0.8142
 2317SOL    HW218411   2.929   4.286   4.053  2.3832  0.6109 -0.1092
 2318SOL     OW18412   3.084   3.560   7.533 -0.2788 -0.5028  0.3526
 2318SOL    HW118413   3.080   3.504   7.455  0.3312 -0.3007  0.1788
 2318SOL    HW218414   3.057   3.506   7.607  0.8337 -1.1712  0.2744
 2319SOL     OW18415   1.267   0.038   2.430  0.1357  0.5720  0.3404
 2319SOL    HW118416   1.221   4.682   2.407 -0.0870  0.5910  0.7151
 2319SOL    HW218417   1.201   0.105   2.415 -0.6654 -0.2263  0.2798
 2320SOL     OW18418   1.762   1.373   9.843 -0.2245 -0.3738  0.1705
 2320SOL    HW118419   1.700   1.329   9.901  1.1631  0.3058  2.1641
 2320SOL    HW218420   1.733   1.350   9.755  0.1444 -0.5059  0.0842
 2321SOL     OW18421   2.516   2.239  15.708 -0.0487 -0.0754  0.1118
 2321SOL    HW118422   2.555   2.152  15.716  1.8410  0.7660 -0.0562
 2321SOL    HW218423   2.523   2.265  15.617 -0.0281  1.0409  0.4265
 2322SOL     OW18424   4.675   3.296   2.824  0.5681 -0.0943 -0.0083
 2322SOL    HW118425   4.640   3.295   2.913 -1.6899  0.9907 -0.8734
 2322SOL    HW218426   4.593   3.302   2.775  0.0330  1.4717  1.0686
 2323SOL     OW18427   0.916   2.281   4.916 -0.4187  0.1599 -0.6854
 2323SOL    HW118428   0.979   2.341   4.877  1.8229 -0.1116  2.5313
 2323SOL    HW218429   0.897   2.228   4.839 -1.6773  0.1006 -0.3442
 2324SOL     OW18430   3.760   1.380  16.564 -0.2872  0.3467 -0.3849
 2324SOL    HW118431   3.803   1.358  16.481  0.4808  1.6414 -0.3287
 2324SOL    HW218432   3.704   1.451  16.532 -0.8996 -0.4819 -1.1404
 2325SOL     OW18433   2.129   0.024  14.810  0.5783  0.1842 -0.4484
 2325SOL    HW118434   2.122   4.656  14.829 -1.2132  0.3739 -0.1941
 2325SOL    HW218435   2.125   0.022  14.714 -0.6078 -2.5232 -0.3528
 2326SOL     OW18436   0.858   0.288   5.427  0.3232  0.1814 -0.4765
 2326SOL    HW118437   0.841   0.238   5.347  3.2553 -0.7691 -0.5148
 2326SOL    HW218438   0.791   0.355   5.415  0.5159  0.3174 -0.8100
 2327SOL     OW18439   1.196   2.747   9.545 -0.4077  0.3259  0.3531
 2327SOL    HW118440   1.153   2.677   9.497  2.2127 -1.5156  0.6992
 2327SOL    HW218441   1.289   2.725   9.538 -0.2661  1.5886 -1.9473
 2328SOL     OW18442   4.009   1.418   2.683 -0.3799 -0.0349  0.0271
 2328SOL    HW118443   3.914   1.421   2.672 -0.2481 -1.7477 -1.6572
 2328SOL    HW218444   4.019   1.437   2.776  0.0484 -0.3299  0.0408
 2329SOL     OW18445   4.277   0.201   9.561  0.1558 -0.3923 -0.5437
 2329SOL    HW118446   4.191   0.240   9.571  0.1333 -1.1048  2.1349
 2329SOL    HW218447   4.326   0.259   9.502  0.8221 -0.5777 -0.1781
 2330SOL     OW18448   4.722   3.872  11.190 -0.5771 -0.2665  0.2954
 2330SOL    HW118449   4.696   3.954  11.149  1.8602  1.4115  2.0918
 2330SOL    HW218450   4.637   3.862  11.233 -1.6058  2.8605 -1.0607
 2331SOL     OW18451   0.385   0.271  17.657  0.0759  0.5078  0.3790
 2331SOL    HW118452   0.319   0.319  17.607  0.2069  1.5892  1.2193
 2331SOL    HW218453   0.400   0.191  17.607 -0.2943 -1.2149  3.0297
 2332SOL     OW18454   4.319   3.396  14.280 -0.3320  0.1940 -0.4699
 2332SOL    HW118455   4.351   3.335  14.213  2.0024  1.0890 -0.1674
 2332SOL    HW218456   4.302   3.335  14.352  0.8430  1.0455  0.5312
 2333SOL     OW18457   1.825   0.372   2.670  0.1984 -0.5464 -0.2586
 2333SOL    HW118458   1.819   0.405   2.580  1.2590 -0.8922 -0.4546
 2333SOL    HW218459   1.754   0.308   2.665 -0.7806  0.5225  0.0450
 2334SOL     OW18460   2.722   2.554   2.660 -0.1998 -0.1773 -0.0544
 2334SOL    HW118461   2.776   2.566   2.583  0.5726 -3.5787 -0.0230
 2334SOL    HW218462   2.743   2.470   2.699  0.5466  0.2659  0.5071
 2335SOL     OW18463   0.766   4.495   4.548  0.1820 -0.6695  0.2791
 2335SOL    HW118464   0.755   4.525   4.457 -0.0876  0.3007  0.6308
 2335SOL    HW218465   0.695   4.531   4.601 -1.6632 -0.2595 -2.4448
 2336SOL     OW18466   2.667   0.850   5.266  0.0398  0.1072  0.4052
 2336SOL    HW118467   2.632   0.928   5.309 -0.0575  0.6709 -0.7103
 2336SOL    HW218468   2.761   0.856   5.280  0.4701 -0.2593 -2.4496
 2337SOL     OW18469   2.743   4.371  17.475 -0.2142 -0.2678 -0.2052
 2337SOL    HW118470   2.838   4.363  17.467 -0.4354 -0.0206 -2.8870
 2337SOL    HW218471   2.733   4.365  17.570 -0.0190 -2.0607 -0.2795
 2338SOL     OW18472   1.110   4.666   8.613 -0.1798 -0.3261 -0.3498
 2338SOL    HW118473   1.082   4.718   8.537  1.1519 -0.3493 -0.8679
 2338SOL    HW218474   1.032   4.676   8.666 -0.7316  1.1974 -1.4426
 2339SOL     OW18475   3.184   1.697  11.893 -0.1804  0.7037 -0.0632
 2339SOL    HW118476   3.201   1.626  11.955 -2.1952 -0.7552 -1.1860
 2339SOL    HW218477   3.182   1.654  11.807  2.6375  0.4900 -0.0140
 2340SOL     OW18478   4.682   3.528   0.060  0.3538 -0.5774 -0.0966
 2340SOL    HW118479   4.632   3.497   0.136  2.1409  1.9306  2.1190
 2340SOL    HW218480   0.038   3.480   0.075 -0.6428 -1.9148  1.0065
 2341SOL     OW18481   4.602   3.113  15.766  0.3402  0.2733  0.2440
 2341SOL    HW118482   4.640   3.201  15.769 -0.1890  0.4729  1.1505
 2341SOL    HW218483   4.577   3.101  15.674 -2.4715  0.6204  0.9389
 2342SOL     OW18484   3.111   0.871   4.558 -0.3982  0.3841  0.0013
 2342SOL    HW118485   3.205   0.863   4.576 -0.1834  1.4358 -0.6373
 2342SOL    HW218486   3.090   0.881   4.651  0.5692  1.1241  0.1462
 2343SOL     OW18487   3.258   2.502   2.410 -0.1613 -0.1182  0.1402
 2343SOL    HW118488   3.209   2.453   2.476 -0.5546  0.2965  0.1551
 2343SOL    HW218489   3.318   2.545   2.470 -0.6991 -0.3420  0.8355
 2344SOL     OW18490   3.039   4.228  16.737  0.4143  0.3530  0.2140
 2344SOL    HW118491   3.062   4.321  16.742  2.1446 -0.0417 -0.3958
 2344SOL    HW218492   2.947   4.231  16.760  0.0100  4.1446 -1.8159
 2345SOL     OW18493   2.789   1.845   3.334  0.0026 -0.0526  0.2062
 2345SOL    HW118494   2.780   1.896   3.254  1.0222 -3.5828 -2.1705
 2345SOL    HW218495   2.882   1.826   3.328 -0.0936 -0.6613  0.6175
 2346SOL     OW18496   3.950   0.122   4.999  0.3279  0.1374  0.1930
 2346SOL    HW118497   3.885   0.079   5.054  0.7777  0.1087  0.6975
 2346SOL    HW218498   4.011   0.052   4.975  0.1526  0.2623 -0.6331
 2347SOL     OW18499   0.635   1.664  10.488 -0.6727 -0.3958 -0.7828
 2347SOL    HW118500   0.592   1.708  10.561 -0.8424  1.8913 -2.2329
 2347SOL    HW218501   0.710   1.623  10.530 -1.2881 -1.6134 -0.8790
 2348SOL     OW18502   0.178   0.552   8.222 -0.1371  0.4622 -0.2037
 2348SOL    HW118503   0.182   0.603   8.141 -0.9673  1.7586  0.5686
 2348SOL    HW218504   0.252   0.586   8.272  0.4886 -0.4591 -0.5165
 2349SOL     OW18505   3.769   3.667  13.143  0.3301  0.3626  0.1103
 2349SOL    HW118506   3.802   3.683  13.055 -0.2889 -0.5877 -0.3016
 2349SOL    HW218507   3.849   3.645  13.191  0.8280  2.0413  0.0328
 2350SOL     OW18508   1.623   3.363   3.303 -0.0844 -0.1796  0.0687
 2350SOL    HW118509   1.672   3.284   3.325  0.6342  0.8732  2.1792
 2350SOL    HW218510   1.581   3.336   3.221 -0.0023 -1.7893  0.5485
 2351SOL     OW18511   1.718   4.197   6.206 -0.2646 -0.1791  0.1709
 2351SOL    HW118512   1.632   4.237   6.212  0.8607  2.2226  0.4380
 2351SOL    HW218513   1.758   4.232   6.286 -3.6167  1.7676  0.9987
 2352SOL     OW18514   2.544   3.756   9.655  0.5620  0.1589 -0.2565
 2352SOL    HW118515   2.454   3.730   9.637  0.5929 -0.4795  0.4861
 2352SOL    HW218516   2.575   3.785   9.569 -0.7347 -0.4164 -0.9064
 2353SOL     OW18517   1.856   4.663   2.094  0.2083 -0.9301 -0.2785
 2353SOL    HW118518   1.811   0.011   2.136  1.9224 -0.8563  1.4551
 2353SOL    HW218519   1.898   4.716   2.026 -0.2733 -2.7452 -1.9801
 2354SOL     OW18520   1.882   1.296   4.915 -0.3381 -1.3942  0.1413
 2354SOL    HW118521   1.896   1.217   4.968 -0.9795 -1.0260  0.8797
 2354SOL    HW218522   1.788   1.312   4.926 -0.1726  0.3440 -0.9656
 2355SOL     OW18523   4.299   3.160  12.669 -0.0205  0.3712  0.3900
 2355SOL    HW118524   4.321   3.090  12.607  1.8870  0.8659  0.4954
 2355SOL    HW218525   4.208   3.181  12.648  0.1782 -1.1093 -1.9573
 2356SOL     OW18526   4.423   2.148   3.147  0.5459  0.0516 -0.5553
 2356SOL    HW118527   4.452   2.191   3.067  1.9046 -1.8055 -1.0458
 2356SOL    HW218528   4.357   2.215   3.165  2.1844  2.0269 -1.9042
 2357SOL     OW18529   1.862   3.343   7.374 -0.0050  0.3017 -0.0637
 2357SOL    HW118530   1.922   3.415   7.353 -2.0054  2.0781  0.2597
 2357SOL    HW218531   1.912   3.278   7.422 -0.1414 -0.0838 -0.4486
 2358SOL     OW18532   0.966   2.807   8.001 -0.0789  0.2723  0.0812
 2358SOL    HW118533   0.947   2.860   7.924 -0.0094 -1.9341 -1.4382
 2358SOL    HW218534   0.932   2.871   8.063 -3.0328 -2.0877  0.8913
 2359SOL     OW18535   1.978   4.184   8.282 -0.2182  0.3430 -0.0433
 2359SOL    HW118536   2.000   4.228   8.364 -0.1829 -0.5705  0.4420
 2359SOL    HW218537   1.883   4.187   8.279 -0.1995 -0.8354 -2.2157
 2360SOL     OW18538   2.775   0.440   2.026 -0.8199 -0.1023 -0.4921
 2360SOL    HW118539   2.738   0.525   2.047 -0.3162 -0.3553  1.4333
 2360SOL    HW218540   2.850   0.432   2.085  0.5182 -3.3859 -2.6247
 2361SOL     OW18541   1.904   3.061   2.946  0.3889  0.0385  0.4372
 2361SOL    HW118542   1.837   3.011   2.898 -0.9994 -0.1536  2.5846
 2361SOL    HW218543   1.904   3.149   2.908  0.2005 -1.3522 -2.8406
 2362SOL     OW18544   0.791   1.495   8.170 -0.1702 -0.3560  0.1286
 2362SOL    HW118545   0.815   1.413   8.213 -0.7394  0.0106  1.1252
 2362SOL    HW218546   0.878   1.536   8.171  0.1039 -0.9868  2.0421
 2363SOL     OW18547   2.671   0.014   6.719  1.0202  0.9255  0.6913
 2363SOL    HW118548   2.581   4.709   6.706  1.1230  0.4867  0.9670
 2363SOL    HW218549   2.686   0.037   6.628 -0.5436 -2.7119 -0.4492
 2364SOL     OW18550   2.016   2.839   6.014 -0.1086 -0.3912 -0.4547
 2364SOL    HW118551   1.959   2.840   6.091 -1.6830  2.7658 -1.6552
 2364SOL    HW218552   1.955   2.832   5.940  0.4874  3.1442 -1.2698
 2365SOL     OW18553   2.411   1.447   9.061 -0.5376  0.1396  0.3238
 2365SOL    HW118554   2.370   1.415   9.141  0.5979 -2.4241 -0.1159
 2365SOL    HW218555   2.499   1.408   9.060 -0.2811  0.7867 -1.0316
 2366SOL     OW18556   0.255   2.744   6.328  0.5976 -0.1362 -0.1131
 2366SOL    HW118557   0.284   2.678   6.266 -1.5225  0.0042 -1.2775
 2366SOL    HW218558   0.335   2.794   6.344  1.6028 -1.0250 -2.4168
 2367SOL     OW18559   2.579   1.257   5.573  0.1453 -0.0421  0.1353
 2367SOL    HW118560   2.485   1.260   5.590  0.1442 -2.2523  0.5224
 2367SOL    HW218561   2.595   1.335   5.626  1.2820  0.1995 -0.5651
 2368SOL     OW18562   4.081   4.010   3.338 -0.2786 -0.2565  0.1509
 2368SOL    HW118563   4.089   3.916   3.356 -1.9715 -0.8100 -2.0202
 2368SOL    HW218564   4.156   4.023   3.280  0.6472 -0.5300  1.2783
 2369SOL     OW18565   1.866   0.327   2.168  0.4136 -0.3190 -0.2577
 2369SOL    HW118566   1.778   0.335   2.130 -0.6646 -0.5088  2.1900
 2369SOL    HW218567   1.919   0.357   2.094  0.4795 -0.3860 -0.2377
 2370SOL     OW18568   1.320   2.577   6.957 -0.8692 -0.4170 -0.2511
 2370SOL    HW118569   1.285   2.571   6.869  1.8198  0.0676 -1.3680
 2370SOL    HW218570   1.367   2.493   6.956 -0.2566 -0.0816  0.6244
 2371SOL     OW18571   1.325   3.897   0.704 -0.4133 -0.3051 -0.0411
 2371SOL    HW118572   1.400   3.867   0.755  0.5700  1.7273 -0.2543
 2371SOL    HW218573   1.258   3.872   0.766 -0.2864  1.6461  0.8833
 2372SOL     OW18574   3.371   4.711   0.229  0.4502  0.2278 -0.0111
 2372SOL    HW118575   3.367   0.058   0.165  0.8129  0.8883  0.7051
 2372SOL    HW218576   3.329   4.642   0.178 -1.4734 -0.4932  2.5851
 2373SOL     OW18577   1.586   2.956   4.766  0.2824 -0.2716 -0.1212
 2373SOL    HW118578   1.644   3.001   4.705 -1.3019 -0.7391 -1.9889
 2373SOL    HW218579   1.651   2.908   4.817  0.2264  0.3544  0.5447
 2374SOL     OW18580   3.687   2.085  16.545  0.2321  0.5729  0.0603
 2374SOL    HW118581   3.668   2.010  16.488  1.3250 -0.1194  0.6207
 2374SOL    HW218582   3.735   2.037  16.612  0.9003  1.4893  0.2424
 2375SOL     OW18583   4.699   0.605   6.698  0.1755  0.7101 -0.1908
 2375SOL    HW118584   4.705   0.599   6.794  1.2621  1.0998 -0.2393
 2375SOL    HW218585   4.642   0.530   6.679  3.4642 -1.8161 -0.1743
 2376SOL     OW18586   4.289   1.894  11.937 -0.2934 -0.0580  0.4718
 2376SOL    HW118587   4.336   1.824  11.891 -0.8321 -0.9514  1.2827
 2376SOL    HW218588   4.227   1.928  11.873  0.8592  2.3512  0.6251
 2377SOL     OW18589   2.754   3.059   4.014  0.5005  0.6799 -0.3094
 2377SOL    HW118590   2.722   3.071   3.924 -2.2843 -2.1902  0.3149
 2377SOL    HW218591   2.827   3.002   3.988  0.2983  1.1289 -1.9117
 2378SOL     OW18592   4.633   2.370   3.339 -0.1701  0.1289 -0.5366
 2378SOL    HW118593   4.692   2.358   3.264  0.7847 -0.4551  0.3049
 2378SOL    HW218594   4.622   2.281   3.373  0.2053 -0.1983 -1.2747
 2379SOL     OW18595   3.615   3.238   2.648  0.3142 -0.2811  0.5205
 2379SOL    HW118596   3.643   3.217   2.559 -0.2505 -0.6978  0.4400
 2379SOL    HW218597   3.656   3.325   2.645 -0.3027  0.0016  0.1873
 2380SOL     OW18598   2.465   0.160   7.052  0.2578  0.0808 -0.0134
 2380SOL    HW118599   2.428   0.071   7.054  2.8251 -0.9935  0.0250
 2380SOL    HW218600   2.402   0.203   6.994 -0.2948 -1.2240 -0.3884
 2381SOL     OW18601   2.469   1.549   6.559 -0.1038 -0.2601  0.2293
 2381SOL    HW118602   2.470   1.602   6.638  0.4518 -0.5565  0.4189
 2381SOL    HW218603   2.546   1.494   6.571 -0.1077 -0.3189 -0.0033
 2382SOL     OW18604   3.651   2.734   7.455  0.3445  0.3784  0.9631
 2382SOL    HW118605   3.623   2.784   7.379  1.3007  2.0102  1.6699
 2382SOL    HW218606   3.705   2.665   7.416 -0.2042 -0.6368  2.0146
 2383SOL     OW18607   0.155   1.034  17.637 -0.2442 -0.7003  0.1065
 2383SOL    HW118608   0.121   1.035   0.025  2.6886  1.2590  1.2060
 2383SOL    HW218609   0.086   1.076  17.585 -1.3143 -2.1956  0.3091
 2384SOL     OW18610   0.740   3.378   9.427 -0.5564 -0.2060  0.0389
 2384SOL    HW118611   0.806   3.310   9.431  0.0053  0.3732  0.5443
 2384SOL    HW218612   0.752   3.426   9.509  2.2259  0.0576 -0.5258
 2385SOL     OW18613   1.655   1.045   5.537  0.0771  0.4141  0.0798
 2385SOL    HW118614   1.629   1.085   5.620 -1.0541  2.1262 -1.0868
 2385SOL    HW218615   1.706   1.114   5.494  0.5119 -0.0597 -0.1784
 2386SOL     OW18616   1.006   0.047   7.739  0.2114 -0.4076 -0.1350
 2386SOL    HW118617   0.924   0.069   7.695  1.5123  1.8070 -1.4995
 2386SOL    HW218618   1.069   0.111   7.705 -0.6444  0.1818 -0.6282
 2387SOL     OW18619   1.761   0.530  14.347 -0.0503 -0.1754 -0.0443
 2387SOL    HW118620   1.815   0.467  14.395  3.3361 -0.7489 -4.5671
 2387SOL    HW218621   1.793   0.514  14.258  0.5724  0.9409 -0.0154
 2388SOL     OW18622   2.434   1.145   3.234  0.0167 -0.8037 -0.1206
 2388SOL    HW118623   2.343   1.135   3.262 -0.4040 -0.2178 -1.2901
 2388SOL    HW218624   2.466   1.150   3.324  0.6919  2.9064 -0.5560
 2389SOL     OW18625   3.061   3.115   3.887  0.3164  0.2445  0.1784
 2389SOL    HW118626   3.060   3.039   3.946 -1.9936  0.3300  0.2226
 2389SOL    HW218627   3.155   3.126   3.870  0.4302 -0.5275  0.3103
 2390SOL     OW18628   3.332   3.167   8.065 -0.5300 -0.4143 -0.5041
 2390SOL    HW118629   3.426   3.159   8.047 -0.3809 -1.5267  0.8198
 2390SOL    HW218630   3.309   3.074   8.057 -0.7210 -0.2589 -1.8392
 2391SOL     OW18631   3.049   2.781   7.325 -0.6395  0.7403  0.2441
 2391SOL    HW118632   3.044   2.693   7.364 -1.7100  0.6805 -0.0297
 2391SOL    HW218633   3.141   2.800   7.340 -0.0118 -0.2234 -2.4633
 2392SOL     OW18634   1.128   3.306   2.262 -0.2815 -0.0552 -0.2115
 2392SOL    HW118635   1.223   3.292   2.261 -0.7691 -3.4277  0.9831
 2392SOL    HW218636   1.110   3.322   2.170  1.7897  0.8473 -0.4597
 2393SOL     OW18637   1.144   1.468   6.819 -0.1981 -0.0588 -0.2723
 2393SOL    HW118638   1.163   1.531   6.750 -0.6153  0.6622  0.2700
 2393SOL    HW218639   1.211   1.483   6.885  0.5938  0.8894 -1.3162
 2394SOL     OW18640   4.718   3.014   7.562 -0.1255 -0.8309  0.2342
 2394SOL    HW118641   4.697   2.956   7.634  0.1150  0.0062  0.9803
 2394SOL    HW218642   4.642   3.072   7.553  1.1922  0.7455 -0.7449
 2395SOL     OW18643   0.959   3.411  11.945 -0.3111 -0.2715 -0.5017
 2395SOL    HW118644   0.884   3.407  12.004  2.1796 -1.6826  2.5679
 2395SOL    HW218645   1.024   3.436  12.011 -1.2988 -0.0607  0.3907
 2396SOL     OW18646   3.748   4.117   7.919 -0.2527  0.3016  0.0372
 2396SOL    HW118647   3.668   4.065   7.924 -0.2423  0.3285  0.4233
 2396SOL    HW218648   3.730   4.195   7.972  0.0625  0.3086  0.1320
 2397SOL     OW18649   2.047   1.674  10.743  0.2666  0.2128  0.0113
 2397SOL    HW118650   2.092   1.759  10.731 -1.5922  1.0703 -0.8525
 2397SOL    HW218651   1.963   1.696  10.781 -0.3743  1.3441 -2.0387
 2398SOL     OW18652   3.519   3.358   7.747  0.0377  0.1159 -0.0565
 2398SOL    HW118653   3.470   3.419   7.692 -0.7160 -0.1135  0.3573
 2398SOL    HW218654   3.599   3.410   7.756 -0.2010  0.4779 -0.0442
 2399SOL     OW18655   1.510   0.041  14.214 -0.3413  0.1739 -0.0407
 2399SOL    HW118656   1.593   0.076  14.246  0.8427 -0.5182 -2.4001
 2399SOL    HW218657   1.481   4.709  14.286 -2.6159  2.3068  0.7294
 2400SOL     OW18658   0.312   4.571  13.671  0.2342  0.6693 -0.5763
 2400SOL    HW118659   0.230   4.556  13.624 -0.9911  3.0635  0.7908
 2400SOL    HW218660   0.340   4.479  13.670  0.0936  0.6330 -1.2497
 2401SOL     OW18661   1.530   0.494   4.663 -0.4224  0.3399  0.1668
 2401SOL    HW118662   1.595   0.555   4.699  0.0449 -0.4113  0.5967
 2401SOL    HW218663   1.572   0.419   4.706 -1.4563  0.0803  0.7399
 2402SOL     OW18664   2.388   1.732   7.886 -0.2115 -0.3196 -0.8288
 2402SOL    HW118665   2.455   1.668   7.908  0.4720  0.2090 -1.3676
 2402SOL    HW218666   2.331   1.690   7.822 -2.5276  2.6641 -0.7554
 2403SOL     OW18667   4.628   4.195   8.105  0.1571  0.1968 -0.0020
 2403SOL    HW118668   4.650   4.194   8.198 -0.7481  0.6417  0.2183
 2403SOL    HW218669   4.537   4.169   8.121  0.1044  0.0217 -0.5928
 2404SOL     OW18670   1.620   0.795   8.770  0.3919  0.1151 -0.6724
 2404SOL    HW118671   1.576   0.812   8.853 -1.2214 -3.3196 -0.8184
 2404SOL    HW218672   1.550   0.806   8.706 -0.8411 -3.3870  0.0563
 2405SOL     OW18673   2.071   2.115  14.604 -0.2134  0.3052  0.8367
 2405SOL    HW118674   2.115   2.034  14.581 -0.3925  0.5934 -0.4899
 2405SOL    HW218675   2.105   2.133  14.692 -0.1279 -2.8662  1.4528
 2406SOL     OW18676   0.776   4.320   2.059 -0.1326 -0.3872 -0.6167
 2406SOL    HW118677   0.803   4.302   2.149  0.5048 -1.1772 -0.9576
 2406SOL    HW218678   0.854   4.360   2.021 -1.2986  2.8896  0.4796
 2407SOL     OW18679   2.307   2.655   4.274 -0.6524  0.0303  0.1443
 2407SOL    HW118680   2.213   2.633   4.270 -1.2550  2.7453 -0.5308
 2407SOL    HW218681   2.318   2.689   4.185  0.5405 -0.2937  0.1747
 2408SOL     OW18682   2.015   0.414   8.166  0.3052  0.1782  0.4098
 2408SOL    HW118683   2.078   0.479   8.134  1.0845 -0.6532  0.2455
 2408SOL    HW218684   2.048   0.385   8.251 -2.0746 -0.1742  1.2143
 2409SOL     OW18685   4.681   2.241   3.708 -0.0653  0.7061  0.0410
 2409SOL    HW118686   0.033   2.260   3.654  0.1857 -0.8533 -0.1440
 2409SOL    HW218687   4.699   2.286   3.791 -3.2837 -2.5292  2.4623
 2410SOL     OW18688   2.846   2.294   7.523  0.1645  0.4379  0.7418
 2410SOL    HW118689   2.905   2.343   7.580  1.3190 -0.1149  0.0293
 2410SOL    HW218690   2.808   2.234   7.587  0.4793 -1.3843 -0.7480
 2411SOL     OW18691   4.278   1.847   5.592  0.2768 -0.0643 -0.1273
 2411SOL    HW118692   4.213   1.908   5.627  0.4302  0.8175 -1.3865
 2411SOL    HW218693   4.288   1.883   5.504 -1.1265  2.5678  0.8094
 2412SOL     OW18694   3.190   2.099   3.244  0.2022  0.3291  0.3993
 2412SOL    HW118695   3.243   2.167   3.286 -0.3514  1.1345 -0.2198
 2412SOL    HW218696   3.255   2.058   3.186  0.4238  0.6363  0.4325
 2413SOL     OW18697   0.025   0.326   8.144 -0.5790 -0.1685  0.0617
 2413SOL    HW118698   4.670   0.363   8.108 -0.3791 -1.4684 -1.6980
 2413SOL    HW218699   0.073   0.406   8.165 -0.3274 -0.5933  1.1659
 2414SOL     OW18700   1.341   0.491   4.258 -0.0981  0.6179 -0.1274
 2414SOL    HW118701   1.434   0.496   4.279 -0.1619  1.7006 -0.1029
 2414SOL    HW218702   1.299   0.503   4.343 -0.6083  0.0871 -0.3022
 2415SOL     OW18703   2.351   0.758   8.969 -0.0301  0.7506 -0.1569
 2415SOL    HW118704   2.391   0.838   9.005  1.7540  0.0616 -0.5853
 2415SOL    HW218705   2.269   0.754   9.018 -0.4740  1.2477 -0.8681
 2416SOL     OW18706   3.628   3.891   2.447  0.3135  0.0274  0.2479
 2416SOL    HW118707   3.581   3.810   2.464 -0.4979  0.5393  0.4087
 2416SOL    HW218708   3.570   3.925   2.379  0.4672  0.5040  0.3564
 2417SOL     OW18709   4.582   0.375  17.473  0.2387  0.3744 -0.3660
 2417SOL    HW118710   4.598   0.359  17.566  0.8255  0.7644 -0.4020
 2417SOL    HW218711   4.605   0.468  17.471  1.0145  0.1751 -0.5874
 2418SOL     OW18712   1.629   3.196   5.345 -0.1157 -0.5028  0.4608
 2418SOL    HW118713   1.621   3.176   5.252 -1.9707  2.4466 -0.0214
 2418SOL    HW218714   1.545   3.236   5.371  0.3486  0.8039 -0.0362
 2419SOL     OW18715   0.178   0.021   3.151  0.8727 -0.0733  0.2779
 2419SOL    HW118716   0.209   0.055   3.234  0.6724  3.0229 -0.9295
 2419SOL    HW218717   0.163   0.105   3.108  0.0884 -0.0174  0.6592
 2420SOL     OW18718   4.219   4.392   2.982  0.6498  0.1789 -0.3106
 2420SOL    HW118719   4.286   4.446   2.938  0.8133  0.2375  0.0109
 2420SOL    HW218720   4.257   4.305   2.979 -0.3217 -0.2514 -0.0749
 2421SOL     OW18721   2.244   2.059   2.408  0.5294  0.5571  0.0339
 2421SOL    HW118722   2.268   2.012   2.328 -0.2322 -2.2540  1.4590
 2421SOL    HW218723   2.243   1.989   2.473  0.4929  0.8955  0.4018
 2422SOL     OW18724   0.537   3.374   8.218  0.0912  0.1832 -0.4472
 2422SOL    HW118725   0.468   3.379   8.283  0.2686 -1.3662 -0.1338
 2422SOL    HW218726   0.495   3.388   8.133 -1.5113 -2.6070 -0.0833
 2423SOL     OW18727   1.774   4.206   4.180  0.5202  0.7926  0.3383
 2423SOL    HW118728   1.736   4.119   4.194  1.5014  0.2724 -0.1980
 2423SOL    HW218729   1.746   4.249   4.261  0.3794 -0.0972  0.7681
 2424SOL     OW18730   1.910   2.379   2.697 -0.7072 -0.0915 -0.7394
 2424SOL    HW118731   1.983   2.415   2.749 -0.5443 -2.1915  0.4538
 2424SOL    HW218732   1.873   2.317   2.759 -0.4879 -0.2846 -0.8025
 2425SOL     OW18733   1.237   3.597  17.462  0.4149 -0.0986 -0.4018
 2425SOL    HW118734   1.301   3.582  17.531  0.7689  2.1844 -0.2451
 2425SOL    HW218735   1.273   3.677  17.425 -0.7288  0.4530 -0.3403
 2426SOL     OW18736   1.408   1.187   6.425  0.0348  0.2492 -0.5538
 2426SOL    HW118737   1.479   1.133   6.390 -0.3938 -0.1226 -0.8384
 2426SOL    HW218738   1.444   1.276   6.416 -1.2886  0.5343 -2.8369
 2427SOL     OW18739   0.686   3.972  16.762  0.4277 -0.1996 -0.0907
 2427SOL    HW118740   0.695   4.057  16.804 -0.1209  0.5969 -1.5971
 2427SOL    HW218741   0.621   3.931  16.820 -0.2666 -0.0537 -0.7691
 2428SOL     OW18742   3.564   3.879   7.775 -0.3112  0.1881 -0.6279
 2428SOL    HW118743   3.600   3.825   7.845 -0.6839 -1.3745 -1.6257
 2428SOL    HW218744   3.503   3.935   7.823  0.5054  1.5953 -1.2412
 2429SOL     OW18745   3.661   4.175   1.753 -0.5079  0.5082  0.3974
 2429SOL    HW118746   3.608   4.115   1.702 -1.0370  1.2833  0.0370
 2429SOL    HW218747   3.727   4.194   1.686  0.9951 -0.0864  1.6911
 2430SOL     OW18748   1.515   4.432   2.841  0.0502  0.7022  0.1189
 2430SOL    HW118749   1.562   4.361   2.885  2.9892  2.1785 -0.6886
 2430SOL    HW218750   1.586   4.494   2.825  2.0060 -1.5292  0.0836
 2431SOL     OW18751   1.676   2.649   4.294  0.0098  0.6643 -0.2085
 2431SOL    HW118752   1.640   2.605   4.217  1.5002 -0.9392  0.0110
 2431SOL    HW218753   1.733   2.581   4.329  0.9576  1.3037 -0.5013
 2432SOL     OW18754   1.138   1.276   4.118 -0.4462  0.1069 -0.2396
 2432SOL    HW118755   1.129   1.351   4.059 -0.6740  0.6259  0.4606
 2432SOL    HW218756   1.171   1.217   4.050 -1.4427 -0.2940 -0.3856
 2433SOL     OW18757   0.365   0.658   6.746  0.7167 -0.0300 -0.0516
 2433SOL    HW118758   0.306   0.666   6.822  1.1279 -1.0299  0.3815
 2433SOL    HW218759   0.408   0.741   6.762  2.5826 -0.7378 -1.4723
 2434SOL     OW18760   2.207   2.363   6.832  0.2731  0.0480 -0.3220
 2434SOL    HW118761   2.176   2.446   6.797 -0.4526 -0.5249 -1.0577
 2434SOL    HW218762   2.155   2.361   6.912 -0.0135  0.2086 -0.5021
 2435SOL     OW18763   4.191   4.657   4.728 -0.0090  0.0333  0.5414
 2435SOL    HW118764   4.244   4.624   4.655 -0.2339  1.4525 -0.2804
 2435SOL    HW218765   4.168   0.014   4.684  1.0436  1.0631  1.9205
 2436SOL     OW18766   0.756   1.936  14.498  0.3531 -0.2291 -0.2931
 2436SOL    HW118767   0.842   1.895  14.491  0.9735  1.1519 -0.5435
 2436SOL    HW218768   0.783   1.996  14.429 -0.2207 -0.0637 -0.3803
 2437SOL     OW18769   3.301   1.315  16.134 -0.4729  0.1661  1.4408
 2437SOL    HW118770   3.289   1.385  16.199 -1.0400 -0.2610  1.7999
 2437SOL    HW218771   3.263   1.247  16.190  0.3102 -1.3259  0.1347
 2438SOL     OW18772   3.919   3.205   5.560 -0.4494 -0.9213  0.1424
 2438SOL    HW118773   3.974   3.151   5.617  1.2136  0.1568 -0.4260
 2438SOL    HW218774   3.945   3.293   5.588  0.5368 -0.8546 -0.9885
 2439SOL     OW18775   1.922   2.901   2.576  0.0570 -0.2863 -0.1591
 2439SOL    HW118776   1.974   2.979   2.556 -0.5858 -0.1255 -1.1804
 2439SOL    HW218777   1.995   2.848   2.608 -1.0589 -1.2802  0.7471
 2440SOL     OW18778   3.320   1.362  11.396 -0.4492  0.3172  0.0303
 2440SOL    HW118779   3.305   1.383  11.488 -1.4754 -0.8575  0.1405
 2440SOL    HW218780   3.306   1.269  11.381  1.0113  0.2104 -0.6581
 2441SOL     OW18781   1.251   4.427   6.636  0.1394  0.0150  0.3529
 2441SOL    HW118782   1.205   4.364   6.579 -0.1484 -0.1758  0.7987
 2441SOL    HW218783   1.310   4.369   6.683  0.1564  0.0429  0.3653
 2442SOL     OW18784   1.416   3.272   6.990 -0.4060 -0.9884 -0.4589
 2442SOL    HW118785   1.352   3.324   7.038 -0.7518 -1.9213  0.0639
 2442SOL    HW218786   1.405   3.313   6.904  1.9494 -2.2175 -1.3512
 2443SOL     OW18787   3.621   3.945   5.504 -0.0005  0.2292 -1.0982
 2443SOL    HW118788   3.654   3.994   5.430  1.3445  1.3569  0.2629
 2443SOL    HW218789   3.580   3.870   5.459  2.5779 -0.4330 -2.3565
 2444SOL     OW18790   2.374   0.509   2.087  0.1444  0.2358 -0.3660
 2444SOL    HW118791   2.448   0.569   2.077  0.6805  0.2535  3.6414
 2444SOL    HW218792   2.366   0.479   1.996  1.1058  1.6827 -0.9236
 2445SOL     OW18793   0.332   3.875   3.031 -0.0285  0.0913  0.0784
 2445SOL    HW118794   0.276   3.848   2.958 -1.4860 -1.9833  1.9224
 2445SOL    HW218795   0.345   3.793   3.079 -0.1842 -0.4582 -0.8125
 2446SOL     OW18796   0.724   0.316   5.881  0.3081 -0.3871  0.4115
 2446SOL    HW118797   0.666   0.382   5.919  0.3053  0.3277 -0.8207
 2446SOL    HW218798   0.801   0.368   5.862  0.1500 -0.8938 -1.6035
 2447SOL     OW18799   0.711   1.996  14.020  0.3572 -0.1978  0.5204
 2447SOL    HW118800   0.642   1.932  14.003 -1.0429  0.4183  3.8307
 2447SOL    HW218801   0.692   2.021  14.110 -0.5600  0.8884  0.0421
 2448SOL     OW18802   0.082   4.184   1.554  0.2494 -0.5576  0.0666
 2448SOL    HW118803   0.044   4.264   1.518 -0.4262 -0.8880  0.0410
 2448SOL    HW218804   0.019   4.116   1.529  0.5857 -1.5146  1.8087
 2449SOL     OW18805   1.731   2.300   5.803  0.5624 -0.2886  0.5529
 2449SOL    HW118806   1.717   2.342   5.889 -2.2883  0.1281 -0.1072
 2449SOL    HW218807   1.826   2.286   5.807  0.9547  2.4375  0.6681
 2450SOL     OW18808   2.757   2.686   5.390  0.1269  0.3408  0.2412
 2450SOL    HW118809   2.725   2.754   5.332 -1.5288 -0.8765 -0.2491
 2450SOL    HW218810   2.839   2.727   5.418  0.4592 -0.9272  1.1495
 2451SOL     OW18811   1.752   0.411   1.014 -0.2577  0.0558 -0.1697
 2451SOL    HW118812   1.736   0.393   0.921  1.1144  0.9263 -0.5768
 2451SOL    HW218813   1.707   0.495   1.021 -0.6769 -0.3512  1.8227
 2452SOL     OW18814   0.095   1.416   1.691  0.3668  0.5402 -0.0822
 2452SOL    HW118815   0.002   1.415   1.709  0.3159 -0.7566 -0.4072
 2452SOL    HW218816   0.108   1.334   1.642 -2.1178 -0.3174  0.7348
 2453SOL     OW18817   3.386   2.069   7.622  0.1348 -0.6156 -0.3994
 2453SOL    HW118818   3.323   2.001   7.599  0.7466 -1.0382 -0.8148
 2453SOL    HW218819   3.438   2.084   7.543  0.7746 -0.4620  0.0523
 2454SOL     OW18820   0.552   3.731   0.316 -0.4098 -0.1351 -0.2587
 2454SOL    HW118821   0.619   3.712   0.251 -0.6228  0.3876 -0.6196
 2454SOL    HW218822   0.481   3.725   0.253  0.2227  1.3544 -1.1181
 2455SOL     OW18823   0.869   0.422   4.477  0.1576  0.2156 -0.5814
 2455SOL    HW118824   0.839   0.498   4.427 -1.9250 -0.5965 -0.5319
 2455SOL    HW218825   0.886   0.453   4.566 -1.3534 -0.9101  0.1102
 2456SOL     OW18826   0.695   0.075  14.103  0.2580 -0.1041 -0.3370
 2456SOL    HW118827   0.631   0.020  14.059  0.7377 -1.0821  0.1761
 2456SOL    HW218828   0.674   0.159  14.063 -2.8694 -0.9202 -0.3596
 2457SOL     OW18829   2.272   3.047   9.935 -0.1375 -0.4678  0.0631
 2457SOL    HW118830   2.234   2.962   9.914  0.9661 -0.5696 -1.5388
 2457SOL    HW218831   2.256   3.086   9.848 -0.5557 -1.2190 -0.1947
 2458SOL     OW18832   4.662   2.663   2.479  0.4153  0.2368 -0.2407
 2458SOL    HW118833   4.589   2.628   2.529  1.6780 -3.3313 -0.9089
 2458SOL    HW218834   4.623   2.701   2.401 -1.1059  2.0551  1.4101
 2459SOL     OW18835   3.052   2.188  11.902  0.0905 -0.3783  0.3652
 2459SOL    HW118836   2.958   2.198  11.887 -0.2099 -2.3598  0.8910
 2459SOL    HW218837   3.055   2.118  11.967 -1.0921  0.1993  1.0303
 2460SOL     OW18838   3.454   0.567  13.650 -0.0770  0.5201  0.1128
 2460SOL    HW118839   3.511   0.490  13.657  0.6016  0.9286 -0.9652
 2460SOL    HW218840   3.427   0.567  13.558 -1.3860  2.3606  0.5176
 2461SOL     OW18841   1.414   3.337   5.389  0.3294 -0.3000 -0.7486
 2461SOL    HW118842   1.328   3.299   5.405 -0.0370  0.7655 -0.2058
 2461SOL    HW218843   1.401   3.398   5.316 -1.6222 -1.1609 -1.1036
 2462SOL     OW18844   2.893   2.001   5.518 -0.1361  0.2068 -0.2161
 2462SOL    HW118845   2.883   1.931   5.454 -1.1781 -0.5835  0.8062
 2462SOL    HW218846   2.802   2.007   5.548 -0.1233  1.3763 -0.4335
 2463SOL     OW18847   3.997   1.588  16.417 -0.2042 -0.2095  0.3499
 2463SOL    HW118848   4.079   1.630  16.391  0.4742 -1.9319 -0.3085
 2463SOL    HW218849   3.971   1.627  16.500  1.8818  0.8310  0.4930
 2464SOL     OW18850   0.232   0.277  16.404  0.1999  0.5216 -0.5723
 2464SOL    HW118851   0.164   0.318  16.350 -1.7673 -0.4980  1.1269
 2464SOL    HW218852   0.277   0.236  16.330  0.5187 -0.1875  0.0044
 2465SOL     OW18853   0.950   4.196   1.050 -0.6219  0.0143  0.4229
 2465SOL    HW118854   0.889   4.123   1.063 -1.3067  0.9159  2.1879
 2465SOL    HW218855   1.025   4.140   1.031  0.2333  0.5891  2.1124
 2466SOL     OW18856   4.349   1.414   6.585  0.7115  0.2004  0.2811
 2466SOL    HW118857   4.331   1.460   6.503 -0.1122 -0.8149 -0.1116
 2466SOL    HW218858   4.439   1.383   6.581  1.0955  1.2840  0.5044
 2467SOL     OW18859   1.350   2.712   7.206 -0.3046  0.4875  0.3225
 2467SOL    HW118860   1.340   2.659   7.127 -0.4326 -1.3763  1.5733
 2467SOL    HW218861   1.267   2.685   7.245  0.0028  0.6548  1.0866
 2468SOL     OW18862   2.144   4.433   9.414 -0.0879 -0.5912  0.2175
 2468SOL    HW118863   2.058   4.401   9.439 -0.1566  0.2374  1.0513
 2468SOL    HW218864   2.200   4.404   9.487 -0.0167  1.0421  0.8282
 2469SOL     OW18865   2.348   4.514   3.092  0.2750  0.3453  0.0515
 2469SOL    HW118866   2.414   4.450   3.119 -1.0783 -0.8251  0.6227
 2469SOL    HW218867   2.397   4.566   3.029  2.5086 -1.1680  0.5589
 2470SOL     OW18868   1.267   0.020  14.016 -0.1862 -0.0334 -0.7963
 2470SOL    HW118869   1.337   0.027  14.082 -1.8317  3.1156  0.6334
 2470SOL    HW218870   1.201   0.071  14.064  0.1535  0.4418 -0.8265
 2471SOL     OW18871   1.692   3.081   6.131 -0.6494  0.1459 -0.0574
 2471SOL    HW118872   1.749   3.154   6.105 -1.2664  0.7049  0.1819
 2471SOL    HW218873   1.644   3.118   6.204 -2.1434 -1.2497 -0.3299
 2472SOL     OW18874   0.347   0.376   6.682  0.2324 -0.4811 -0.4411
 2472SOL    HW118875   0.328   0.465   6.712 -1.3348 -0.5807 -1.1208
 2472SOL    HW218876   0.264   0.331   6.697  0.0484  0.2176  0.6432
 2473SOL     OW18877   2.486   1.898  12.787 -0.1679 -0.8746  0.0814
 2473SOL    HW118878   2.519   1.881  12.699  0.9649 -0.0895  0.3496
 2473SOL    HW218879   2.404   1.850  12.784  0.3322 -1.8129  1.3847
 2474SOL     OW18880   3.437   3.524   3.969 -0.1265 -0.4682  0.4442
 2474SOL    HW118881   3.507   3.588   3.974 -1.9357  1.4454  1.1805
 2474SOL    HW218882   3.422   3.507   3.876  0.4984 -0.2775  0.3133
 2475SOL     OW18883   2.908   2.841   4.522  0.4285  0.7607  0.5303
 2475SOL    HW118884   2.882   2.899   4.450 -1.2589  1.1997  1.4955
 2475SOL    HW218885   2.938   2.764   4.472  1.4810  1.4187  0.1663
 2476SOL     OW18886   3.762   3.313  12.372  0.0311 -0.3374  0.2553
 2476SOL    HW118887   3.739   3.348  12.286  2.1799 -0.4715 -0.3695
 2476SOL    HW218888   3.676   3.290  12.406  0.6561 -0.4740  1.7447
 2477SOL     OW18889   0.623   1.828   2.172  0.2219 -0.2515  0.1162
 2477SOL    HW118890   0.638   1.916   2.137 -0.1238  1.0867  3.3596
 2477SOL    HW218891   0.541   1.796   2.134  1.2144 -1.9534 -0.6315
 2478SOL     OW18892   3.920   1.951   2.384  0.4904 -0.6440 -0.2184
 2478SOL    HW118893   3.923   1.911   2.471  0.4578  0.8604  0.4760
 2478SOL    HW218894   3.886   2.039   2.400 -1.3622 -1.1391 -1.3853
 2479SOL     OW18895   1.121   4.695   8.149 -0.5035 -0.1138 -0.6031
 2479SOL    HW118896   1.146   4.612   8.189 -0.4305 -0.2779 -0.9920
 2479SOL    HW218897   1.028   4.679   8.132 -0.1835 -1.6822 -0.8428
 2480SOL     OW18898   4.219   2.442   1.488  0.2114  0.4956  0.2862
 2480SOL    HW118899   4.138   2.481   1.521  0.8595  1.3382  0.8544
 2480SOL    HW218900   4.256   2.519   1.447 -1.3555  0.2503 -1.5932
 2481SOL     OW18901   3.300   1.980   0.930  0.7009 -0.0768 -0.0059
 2481SOL    HW118902   3.315   1.956   1.021  2.2309  0.0430 -0.2317
 2481SOL    HW218903   3.207   2.001   0.936  0.3911 -1.9201  1.4981
 2482SOL     OW18904   1.989   0.024   3.321 -0.0019  0.3735 -0.4888
 2482SOL    HW118905   2.076   0.029   3.360 -0.3990  0.6217  0.3665
 2482SOL    HW218906   1.931   0.011   3.397  0.7631 -1.3182 -0.1916
 2483SOL     OW18907   2.455   0.620   6.863  0.7632 -0.3280  0.3052
 2483SOL    HW118908   2.390   0.676   6.906  1.7351 -1.0998  2.7706
 2483SOL    HW218909   2.482   0.565   6.936  0.2831 -0.0352  0.7028
 2484SOL     OW18910   2.825   3.741  16.286  0.4959  0.1328 -0.1335
 2484SOL    HW118911   2.802   3.662  16.335  0.9306 -0.3626 -0.7449
 2484SOL    HW218912   2.754   3.801  16.307  0.5054  0.1237 -0.0753
 2485SOL     OW18913   4.548   1.241   6.121 -0.5824  0.3457  0.0664
 2485SOL    HW118914   4.545   1.189   6.041 -0.1396 -0.6991  0.7335
 2485SOL    HW218915   4.627   1.218   6.169 -0.9635  0.0863  0.5709
 2486SOL     OW18916   1.695   2.246   8.532  0.1511  0.8705  0.0284
 2486SOL    HW118917   1.601   2.258   8.548 -0.2326  0.1668 -1.6881
 2486SOL    HW218918   1.695   2.178   8.464 -1.1604  0.8524  0.0356
 2487SOL     OW18919   4.000   1.928   2.650  0.4645 -0.0409 -0.5109
 2487SOL    HW118920   4.090   1.926   2.619  1.1265 -0.3835  1.3953
 2487SOL    HW218921   4.002   1.863   2.721  0.7311 -3.2718 -3.4542
 2488SOL     OW18922   3.092   2.171   5.969 -0.1225  0.4207  0.0527
 2488SOL    HW118923   3.001   2.144   5.955 -0.0587 -0.1884  0.8261
 2488SOL    HW218924   3.102   2.218   5.886  0.7735  1.2546  0.6500
 2489SOL     OW18925   1.202   4.474   4.444  0.0905 -0.0496  0.1193
 2489SOL    HW118926   1.141   4.533   4.489 -0.2783  0.6800 -1.3467
 2489SOL    HW218927   1.165   4.489   4.357  0.6204  4.0600  0.6238
 2490SOL     OW18928   4.065   3.891   7.500 -0.1948  0.0425  0.5125
 2490SOL    HW118929   4.073   3.831   7.574 -1.5671  0.6082  1.1120
 2490SOL    HW218930   4.021   3.838   7.433  2.2237  0.5912 -1.5117
 2491SOL     OW18931   0.567   1.969  11.992  0.8833 -0.0592 -0.3983
 2491SOL    HW118932   0.615   1.917  12.056 -0.0689 -1.1349 -0.5687
 2491SOL    HW218933   0.627   1.957  11.919  1.6078 -2.2941  0.5799
 2492SOL     OW18934   2.067   3.640   3.611 -0.5293  0.6787  0.3228
 2492SOL    HW118935   2.046   3.547   3.598  1.9742  0.0867  0.5639
 2492SOL    HW218936   2.096   3.662   3.523 -1.4456 -0.4042 -0.2490
 2493SOL     OW18937   3.806   1.723  17.419  0.2944  0.5716  0.2306
 2493SOL    HW118938   3.836   1.798  17.368  0.2727 -0.0696 -0.7060
 2493SOL    HW218939   3.830   1.752  17.507 -1.9599  1.2860  0.6164
 2494SOL     OW18940   2.913   0.382   7.300 -0.0982  0.2494  0.2220
 2494SOL    HW118941   2.829   0.340   7.284 -0.2575  1.3705 -1.8838
 2494SOL    HW218942   2.884   0.473   7.296 -1.2728 -0.2006 -1.3882
 2495SOL     OW18943   1.751   3.411  10.479 -0.2596 -0.1889 -0.6348
 2495SOL    HW118944   1.817   3.416  10.548  0.2691 -0.8421 -1.1068
 2495SOL    HW218945   1.735   3.505  10.476 -2.5533 -0.5272  0.4831
 2496SOL     OW18946   2.479   0.509   2.949  0.6197 -0.7453  0.3901
 2496SOL    HW118947   2.419   0.459   3.005 -0.6851 -0.7152 -0.9786
 2496SOL    HW218948   2.515   0.573   3.012  1.2588 -0.7661  0.0417
 2497SOL     OW18949   1.865   1.023  11.009 -0.5759 -0.0598 -0.2622
 2497SOL    HW118950   1.948   1.069  11.021 -0.1264 -0.9934  0.1191
 2497SOL    HW218951   1.815   1.042  11.088 -0.6488 -0.7928 -0.1378
 2498SOL     OW18952   2.163   1.968  11.977  0.0173 -0.0249 -0.0344
 2498SOL    HW118953   2.212   1.912  11.917  1.1573  0.4143  0.4928
 2498SOL    HW218954   2.074   1.955  11.945 -0.6302  0.1945  1.6346
 2499SOL     OW18955   1.729   3.275  14.570 -0.1795 -0.2238 -0.4160
 2499SOL    HW118956   1.759   3.227  14.492 -0.1224 -1.4357  0.3597
 2499SOL    HW218957   1.729   3.208  14.638  0.5182  0.8074  0.6041
 2500SOL     OW18958   4.452   4.290  11.074 -0.2747  0.1968 -0.2065
 2500SOL    HW118959   4.396   4.306  11.151  0.6036  0.1913  0.4364
 2500SOL    HW218960   4.437   4.372  11.026  1.4536  0.5688 -0.1121
 2501SOL     OW18961   1.470   3.559  12.780  0.2502  0.2646 -0.1966
 2501SOL    HW118962   1.465   3.623  12.851 -1.4374 -2.8607  2.5508
 2501SOL    HW218963   1.402   3.583  12.718  0.7876 -2.5365 -1.8598
 2502SOL     OW18964   1.578   3.049   6.636  0.4219  0.4960  0.4177
 2502SOL    HW118965   1.666   3.084   6.648  1.5093 -2.9191  2.2771
 2502SOL    HW218966   1.572   2.965   6.681  0.4065  0.6055  0.6206
 2503SOL     OW18967   4.147   3.249   7.824  0.2760  0.1524  0.2919
 2503SOL    HW118968   4.220   3.235   7.885  0.9059 -0.4046 -0.5842
 2503SOL    HW218969   4.135   3.172   7.768  0.1547  1.2705 -1.2214
 2504SOL     OW18970   2.786   3.686   2.965  0.1729  0.4116 -0.3361
 2504SOL    HW118971   2.771   3.701   2.872  0.4621 -1.1890 -0.6513
 2504SOL    HW218972   2.877   3.715   2.977 -0.1255  0.6897  1.1869
 2505SOL     OW18973   4.352   0.869   6.897 -0.5985 -0.0734  0.2470
 2505SOL    HW118974   4.367   0.963   6.889  0.8703 -0.5002 -1.8790
 2505SOL    HW218975   4.392   0.843   6.980 -1.0858 -0.7228  0.2749
 2506SOL     OW18976   1.179   2.484   2.244 -0.0868  0.0986  0.1356
 2506SOL    HW118977   1.235   2.449   2.314  1.3369  0.1785 -0.9424
 2506SOL    HW218978   1.123   2.407   2.237 -1.7064  1.0390  2.8441
 2507SOL     OW18979   3.714   3.517   7.784 -0.0322 -0.3201  0.3167
 2507SOL    HW118980   3.692   3.576   7.857 -2.4312  0.4116 -0.9866
 2507SOL    HW218981   3.773   3.452   7.820  1.3974  0.2250 -1.0219
 2508SOL     OW18982   2.348   2.463   5.866  0.7401  0.5330  0.4635
 2508SOL    HW118983   2.304   2.543   5.893 -1.3063 -0.7244  0.8554
 2508SOL    HW218984   2.423   2.506   5.825  1.1921  0.7659  1.5414
 2509SOL     OW18985   3.709   1.249  16.983 -0.1662  0.2061  0.6602
 2509SOL    HW118986   3.762   1.176  16.952 -1.0691 -0.4497  0.6769
 2509SOL    HW218987   3.738   1.318  16.923  0.5195 -1.1871 -0.6122
 2510SOL     OW18988   0.618   3.987   6.249  0.1754  0.5596  0.1701
 2510SOL    HW118989   0.577   3.913   6.295 -0.1232  0.7865  0.2682
 2510SOL    HW218990   0.709   3.986   6.280  0.4602  0.0256 -0.6750
 2511SOL     OW18991   2.645   2.988   8.019  0.9286 -0.2397 -0.8112
 2511SOL    HW118992   2.642   2.912   7.961  1.7510  0.7504 -2.1813
 2511SOL    HW218993   2.582   2.963   8.086  1.3431  0.3472 -0.2009
 2512SOL     OW18994   1.575   1.634   5.841  0.1649 -0.0465  0.2500
 2512SOL    HW118995   1.646   1.654   5.903  0.9145 -2.3013  0.1110
 2512SOL    HW218996   1.559   1.544   5.868 -2.8185 -0.3505 -2.5543
 2513SOL     OW18997   3.512   3.279   6.512 -0.1429  0.0483 -0.1210
 2513SOL    HW118998   3.574   3.311   6.447  0.9246 -1.0343  0.3728
 2513SOL    HW218999   3.511   3.347   6.580 -0.2673 -0.6926  0.6275
 2514SOL     OW19000   1.838   0.470   4.242  0.3428  0.4741  0.5962
 2514SOL    HW119001   1.931   0.453   4.229  0.3176  0.8779 -0.1517
 2514SOL    HW219002   1.814   0.499   4.154  0.1493  0.0838  0.5195
 2515SOL     OW19003   2.246   1.710   7.184 -0.3984  0.2046  0.5758
 2515SOL    HW119004   2.182   1.769   7.223 -0.1162 -0.7705  2.5234
 2515SOL    HW219005   2.189   1.671   7.118 -2.2138  1.6978  1.2643
 2516SOL     OW19006   2.364   1.963   1.731  0.3242  0.2194 -0.1911
 2516SOL    HW119007   2.393   1.943   1.642 -0.3372  0.8082 -0.5386
 2516SOL    HW219008   2.295   2.025   1.708  0.3173  0.2037 -0.2125
 2517SOL     OW19009   2.965   3.086   8.439 -0.1941 -0.2542 -0.6625
 2517SOL    HW119010   2.989   3.177   8.455 -0.7065 -0.5855  1.9692
 2517SOL    HW219011   2.873   3.095   8.416  0.0188  0.4986 -1.2064
 2518SOL     OW19012   0.031   0.757   4.963  0.2376  0.1245 -0.0700
 2518SOL    HW119013   0.048   0.712   4.881 -2.5232  0.9244 -1.0765
 2518SOL    HW219014   0.113   0.744   5.011 -0.5287  1.7130  1.6718
 2519SOL     OW19015   0.647   1.259   5.291  0.1236 -0.0125 -0.0232
 2519SOL    HW119016   0.702   1.216   5.357  0.2272  1.1943  0.6767
 2519SOL    HW219017   0.561   1.264   5.332 -0.2973 -1.4314 -0.7378
 2520SOL     OW19018   2.261   3.030   2.129 -0.0812 -0.0688 -0.1375
 2520SOL    HW119019   2.262   2.936   2.149 -1.4756  0.2412  1.4852
 2520SOL    HW219020   2.231   3.023   2.039  0.7141 -1.2519 -0.3023
 2521SOL     OW19021   2.907   0.692   8.192 -0.3279 -0.1377 -0.3876
 2521SOL    HW119022   2.955   0.732   8.119  0.2378 -0.7634 -0.3607
 2521SOL    HW219023   2.930   0.600   8.178 -2.4376 -0.9521  1.5351
 2522SOL     OW19024   4.564   0.050   7.870 -0.1335 -0.3301 -0.4954
 2522SOL    HW119025   4.656   0.053   7.844 -0.4490  0.5778 -1.5080
 2522SOL    HW219026   4.532   0.128   7.823  1.6275  0.3160 -0.6386
 2523SOL     OW19027   1.970   1.222   2.333  0.1703  0.1176 -0.1445
 2523SOL    HW119028   1.926   1.137   2.342  4.8163 -2.1380  1.1494
 2523SOL    HW219029   1.897   1.285   2.333 -2.1004 -2.4796 -0.0931
 2524SOL     OW19030   1.462   3.439   7.998  0.5914  0.4332  0.2935
 2524SOL    HW119031   1.436   3.349   8.019  0.3638  0.1220 -1.2567
 2524SOL    HW219032   1.501   3.467   8.080 -0.5509  0.0644  0.9537
 2525SOL     OW19033   3.718   3.749   4.925 -0.3366 -0.0890  0.2353
 2525SOL    HW119034   3.765   3.813   4.978 -1.1934  0.1209  0.7427
 2525SOL    HW219035   3.652   3.720   4.988 -1.5563 -0.1942 -1.0855
 2526SOL     OW19036   4.020   0.436   3.091  0.4170  0.6316 -0.1165
 2526SOL    HW119037   4.099   0.383   3.102 -0.5148 -0.9182 -0.9508
 2526SOL    HW219038   4.001   0.419   2.999  0.6003 -2.8256  0.4859
 2527SOL     OW19039   1.304   1.420   1.157 -0.1093  0.2020 -0.1781
 2527SOL    HW119040   1.248   1.410   1.234  0.4504 -2.8929 -0.1914
 2527SOL    HW219041   1.250   1.381   1.088 -0.3994  0.8594 -0.3225
 2528SOL     OW19042   4.290   0.887  17.509  0.0273 -0.1112 -0.1324
 2528SOL    HW119043   4.317   0.870  17.418  0.0760 -0.3249 -0.0759
 2528SOL    HW219044   4.208   0.838  17.517  0.2752 -0.3091  1.1662
 2529SOL     OW19045   0.516   0.571   3.484 -0.1900  0.6012  0.3030
 2529SOL    HW119046   0.485   0.661   3.492 -0.8160  0.3356  0.8521
 2529SOL    HW219047   0.469   0.540   3.406  2.4121  1.2976 -1.5395
 2530SOL     OW19048   0.039   0.682   7.313 -0.1792  0.0388  0.4220
 2530SOL    HW119049   0.112   0.699   7.255 -0.7865 -0.4750 -0.4924
 2530SOL    HW219050   0.028   0.587   7.309  3.0776 -0.3048  0.1668
 2531SOL     OW19051   2.497   3.952   7.122 -0.1881  0.6427 -0.1407
 2531SOL    HW119052   2.565   3.997   7.172  0.3836  0.1281 -0.4596
 2531SOL    HW219053   2.426   3.932   7.183  0.6085 -0.8907  0.2922
 2532SOL     OW19054   1.110   1.724   3.276  0.1876 -0.2481  0.1203
 2532SOL    HW119055   1.161   1.686   3.205  0.9893 -0.8137  1.0092
 2532SOL    HW219056   1.160   1.705   3.355 -0.1962  1.8457  0.8828
 2533SOL     OW19057   3.698   1.896   8.882 -0.0622 -0.5345 -0.8802
 2533SOL    HW119058   3.656   1.918   8.966  1.7154 -1.6346  0.3018
 2533SOL    HW219059   3.652   1.813   8.866  0.4670 -1.0141  0.0579
 2534SOL     OW19060   0.939   1.901   5.337  0.4493 -0.3435  0.0382
 2534SOL    HW119061   0.899   1.958   5.270  0.3360 -1.9928 -1.3078
 2534SOL    HW219062   0.997   1.849   5.282 -0.6194  0.4474 -1.8756
 2535SOL     OW19063   3.913   3.920   5.931  0.0934 -0.8191 -0.0271
 2535SOL    HW119064   3.843   3.872   5.887 -1.5851 -0.3771  2.1516
 2535SOL    HW219065   3.946   3.855   5.993 -0.7206 -0.5851  0.6592
 2536SOL     OW19066   3.198   3.404   7.791  0.2022 -0.2169 -0.0943
 2536SOL    HW119067   3.106   3.381   7.781  0.2324 -0.5708  0.4271
 2536SOL    HW219068   3.241   3.359   7.718 -0.8208  0.6057 -1.1965
 2537SOL     OW19069   3.706   3.932   6.727 -0.1076  0.3081  0.2074
 2537SOL    HW119070   3.739   3.944   6.638 -4.6253  0.5667 -1.4430
 2537SOL    HW219071   3.785   3.935   6.782 -0.8914 -0.7423  1.4078
 2538SOL     OW19072   3.122   0.340   1.804  0.7140  0.1267 -0.0999
 2538SOL    HW119073   3.122   0.300   1.891  0.5383 -0.0591 -0.1836
 2538SOL    HW219074   3.083   0.271   1.751  1.3523 -0.0099 -0.3844
 2539SOL     OW19075   2.187   3.194  11.407  0.2350 -0.3811 -0.1761
 2539SOL    HW119076   2.185   3.281  11.368 -0.0875 -1.2761 -2.2170
 2539SOL    HW219077   2.148   3.143  11.336  1.1077 -1.4468  0.1100
 2540SOL     OW19078   4.661   2.561   6.723  0.5351 -0.4113 -0.0748
 2540SOL    HW119079   0.003   2.611   6.676  0.4257 -1.9031 -1.7920
 2540SOL    HW219080   4.679   2.469   6.706 -0.7652 -0.2473 -2.4049
 2541SOL     OW19081   1.752   2.072   7.709 -0.1634 -0.2645  0.1310
 2541SOL    HW119082   1.672   2.116   7.680 -0.9791 -2.2976 -0.6636
 2541SOL    HW219083   1.784   2.137   7.773  0.4914 -0.3430 -0.1151
 2542SOL     OW19084   4.677   4.056  10.170  0.4096 -0.0572  0.4094
 2542SOL    HW119085   0.022   4.119  10.154 -1.1187  0.8567 -2.6276
 2542SOL    HW219086   4.614   4.094  10.109 -0.0043 -1.9509 -0.3378
 2543SOL     OW19087   3.643   2.912   1.373  0.2667  0.2569 -0.2942
 2543SOL    HW119088   3.578   2.933   1.306 -1.8476 -1.9970  1.0428
 2543SOL    HW219089   3.674   2.828   1.339  2.7337  1.6848 -1.4717
 2544SOL     OW19090   4.387   3.314   9.979  0.3118  0.0621 -0.2707
 2544SOL    HW119091   4.302   3.277   9.955  0.2154  0.0186  0.1528
 2544SOL    HW219092   4.371   3.407   9.991  0.9011 -0.0097  1.0683
 2545SOL     OW19093   1.775   1.513   3.069  0.0255  0.0654  0.2639
 2545SOL    HW119094   1.849   1.552   3.024 -1.1369 -1.4387 -2.9712
 2545SOL    HW219095   1.729   1.593   3.097 -0.5380 -0.1774  0.0327
 2546SOL     OW19096   3.026   1.130  17.123  0.1497 -0.4999 -0.2960
 2546SOL    HW119097   2.961   1.097  17.186  1.2308 -1.2844  0.4040
 2546SOL    HW219098   3.092   1.172  17.178  2.4827 -3.9309 -0.4965
 2547SOL     OW19099   3.943   2.933   8.126 -0.0734  0.0617  0.0313
 2547SOL    HW119100   4.027   2.966   8.095  0.9448 -0.4911  2.1881
 2547SOL    HW219101   3.893   2.959   8.049 -0.8045 -0.2444  0.4048
 2548SOL     OW19102   2.266   1.013   4.444  0.1742 -0.2914  0.4057
 2548SOL    HW119103   2.323   0.963   4.386  0.2048 -0.9688  1.0195
 2548SOL    HW219104   2.310   1.029   4.528 -0.4094  0.3876  0.5821
 2549SOL     OW19105   1.052   4.551  17.629  0.6051 -0.3087  0.1704
 2549SOL    HW119106   0.999   4.494  17.573 -0.1097  0.1498  0.3839
 2549SOL    HW219107   0.985   4.615  17.653 -0.2822 -1.1769  0.0436
 2550SOL     OW19108   2.839   3.377   6.633  0.0330 -0.0224 -0.2373
 2550SOL    HW119109   2.928   3.401   6.609  0.4072  0.6662  1.8215
 2550SOL    HW219110   2.828   3.411   6.722  1.2854  2.1469 -0.9115
 2551SOL     OW19111   1.879   4.656   5.653  0.5472  0.4856 -0.2193
 2551SOL    HW119112   1.958   4.686   5.608 -0.0843  0.3130 -1.4712
 2551SOL    HW219113   1.811   4.680   5.589  2.5961 -1.4291 -3.1253
 2552SOL     OW19114   4.114   1.541  10.531  0.5298  0.0369 -0.4633
 2552SOL    HW119115   4.185   1.481  10.508  2.6628  2.3691  0.0214
 2552SOL    HW219116   4.054   1.533  10.456  0.3349  2.3190 -0.5498
 2553SOL     OW19117   1.961   1.139   2.619 -0.3811  0.3373 -0.5763
 2553SOL    HW119118   1.938   1.046   2.623 -0.8758  0.4964  0.3295
 2553SOL    HW219119   1.884   1.181   2.581 -1.0352 -0.2513  0.0944
 2554SOL     OW19120   3.795   2.940   3.870  0.2766 -0.4419 -0.0299
 2554SOL    HW119121   3.849   2.892   3.807  2.4471 -0.0518  1.5033
 2554SOL    HW219122   3.850   3.015   3.896 -2.1105  0.5348  2.2187
 2555SOL     OW19123   0.341   1.593  16.058  0.4519  0.6567  0.1165
 2555SOL    HW119124   0.331   1.687  16.070  0.5616  1.0059 -2.5723
 2555SOL    HW219125   0.391   1.562  16.133  2.0021 -1.4163 -1.7926
 2556SOL     OW19126   3.421   2.449  12.306  0.0252 -0.5660 -0.4441
 2556SOL    HW119127   3.340   2.397  12.301  0.6437 -1.6755  0.9632
 2556SOL    HW219128   3.458   2.437  12.219 -0.8069  1.6766 -1.1021
 2557SOL     OW19129   4.184   1.959   2.930  0.0067 -0.6323  0.4029
 2557SOL    HW119130   4.247   1.893   2.957 -1.2950 -2.0812 -0.1433
 2557SOL    HW219131   4.221   1.995   2.849 -0.0311  0.9632  1.0891
 2558SOL     OW19132   4.446   3.594   2.722  0.5614 -0.0628  0.1952
 2558SOL    HW119133   4.445   3.621   2.814  1.0539  1.3336 -0.1937
 2558SOL    HW219134   4.420   3.503   2.730  1.2617 -0.3875 -1.2314
 2559SOL     OW19135   4.662   4.243   0.374 -0.2000 -0.4054 -0.5877
 2559SOL    HW119136   4.613   4.292   0.440 -0.5463 -0.8362 -0.5256
 2559SOL    HW219137   0.020   4.290   0.364 -0.0923 -0.5053 -0.1460
 2560SOL     OW19138   3.260   0.603   8.318  0.1025 -0.2928 -0.6156
 2560SOL    HW119139   3.181   0.657   8.326 -0.7908 -1.5515 -0.8383
 2560SOL    HW219140   3.280   0.590   8.410  1.7565 -0.9215 -1.0697
 2561SOL     OW19141   2.148   2.434   2.862 -0.9104 -0.2062  0.4079
 2561SOL    HW119142   2.206   2.358   2.856 -0.2498  0.3679 -0.5579
 2561SOL    HW219143   2.209   2.508   2.850 -1.0701 -0.4562 -2.0031
 2562SOL     OW19144   3.399   4.540   7.228 -0.3922 -0.3723 -0.3353
 2562SOL    HW119145   3.390   4.484   7.305 -0.5517 -0.8708 -0.7176
 2562SOL    HW219146   3.353   4.481   7.168 -1.2243 -1.1019  1.0208
 2563SOL     OW19147   2.862   1.217   7.208 -0.1005 -0.8648 -0.7962
 2563SOL    HW119148   2.839   1.221   7.301 -0.3861 -0.1017 -0.9000
 2563SOL    HW219149   2.785   1.182   7.163 -0.1900  0.1782 -1.4440
 2564SOL     OW19150   0.455   2.097   6.755  0.7528 -0.4879 -0.5105
 2564SOL    HW119151   0.371   2.052   6.744  0.3907 -0.0479  0.4031
 2564SOL    HW219152   0.490   2.085   6.667 -0.3085 -0.8493 -0.8846
 2565SOL     OW19153   0.058   1.258   8.129  0.1581 -0.2948 -0.4376
 2565SOL    HW119154   0.043   1.180   8.076 -0.0558  0.1705 -1.0568
 2565SOL    HW219155   4.696   1.291   8.149 -0.8197 -1.0177 -3.5491
 2566SOL     OW19156   2.081   0.133   5.655  0.6996  0.0971  0.0162
 2566SOL    HW119157   2.081   0.221   5.691 -2.1406 -0.1292  0.6322
 2566SOL    HW219158   2.163   0.145   5.608 -0.0715 -0.0665 -1.3784
 2567SOL     OW19159   4.596   4.083   3.657  0.4883 -0.1532  0.6317
 2567SOL    HW119160   4.566   3.994   3.638 -0.2925  0.2507 -0.0291
 2567SOL    HW219161   4.529   4.132   3.609  0.0081 -3.3781 -2.0485
 2568SOL     OW19162   2.828   2.316   2.693  0.1578 -0.1374 -0.2772
 2568SOL    HW119163   2.874   2.274   2.621 -0.3681 -0.4255 -0.4472
 2568SOL    HW219164   2.857   2.268   2.771 -3.6968 -3.2695 -0.7963
 2569SOL     OW19165   1.337   2.357  11.754  0.2457 -0.5799 -0.8847
 2569SOL    HW119166   1.413   2.308  11.788  0.8366  0.3052 -0.9390
 2569SOL    HW219167   1.374   2.442  11.734 -1.0246 -0.5357 -2.9779
 2570SOL     OW19168   1.588   2.816   7.980 -0.1979  0.3122  0.3993
 2570SOL    HW119169   1.499   2.783   7.967 -0.5451  1.3777  0.0117
 2570SOL    HW219170   1.566   2.906   7.956 -0.0688  0.5135  1.0513
 2571SOL     OW19171   2.116   4.638   0.930 -0.6104  0.2237 -0.5546
 2571SOL    HW119172   2.112   0.009   0.931  0.4341  0.2811 -1.8959
 2571SOL    HW219173   2.073   4.618   1.013 -0.0920  1.3323 -0.0114
 2572SOL     OW19174   4.719   4.119   7.311  0.3164  0.0550  0.2058
 2572SOL    HW119175   0.010   4.203   7.355  0.6741  0.2671 -0.3254
 2572SOL    HW219176   4.643   4.133   7.254 -1.7006 -0.5729  2.7302
 2573SOL     OW19177   2.773   4.295   5.126  0.4905 -0.8298 -0.8933
 2573SOL    HW119178   2.757   4.337   5.211 -0.3628 -2.1805 -0.3849
 2573SOL    HW219179   2.804   4.208   5.151  2.1313 -0.3718 -1.3355
 2574SOL     OW19180   3.401   0.303   6.458 -0.1109  0.5789  0.1028
 2574SOL    HW119181   3.343   0.303   6.534  1.3811 -0.5727  1.2533
 2574SOL    HW219182   3.439   0.215   6.462  0.0804  0.5897 -1.4497
 2575SOL     OW19183   2.204   0.443   2.284 -0.2681 -0.6183 -0.2589
 2575SOL    HW119184   2.257   0.473   2.210 -0.8748  0.8067 -0.1122
 2575SOL    HW219185   2.228   0.350   2.279  1.7280  0.0287 -2.7207
 2576SOL     OW19186   2.599   2.853  10.231  0.6210 -0.1271 -0.0628
 2576SOL    HW119187   2.609   2.927  10.171  1.7672  0.9836  1.4955
 2576SOL    HW219188   2.512   2.826  10.200  1.0030 -1.8311  0.3260
 2577SOL     OW19189   3.328   4.238  16.202  0.7667  0.0649 -0.2308
 2577SOL    HW119190   3.244   4.269  16.169  0.6657  1.5254  1.4291
 2577SOL    HW219191   3.384   4.237  16.124  0.4028  2.0707 -0.5053
 2578SOL     OW19192   2.542   4.336  15.832  0.1146  0.2480 -0.4912
 2578SOL    HW119193   2.602   4.302  15.765 -0.2565  0.3657 -0.8880
 2578SOL    HW219194   2.455   4.323  15.794 -0.6385  0.9011  1.0053
 2579SOL     OW19195   0.709   3.688   3.042  0.4062 -0.4018  0.3756
 2579SOL    HW119196   0.802   3.703   3.027  0.3300 -0.6041 -0.3210
 2579SOL    HW219197   0.675   3.770   3.005 -2.1370 -0.7394  1.9398
 2580SOL     OW19198   4.646   0.520   3.825  0.4830 -0.2307  0.0587
 2580SOL    HW119199   4.681   0.430   3.831 -2.7893 -1.4542  0.5007
 2580SOL    HW219200   4.640   0.546   3.916  0.9257  0.2371 -0.0441
 2581SOL     OW19201   1.408   1.951  14.356  0.0843  0.3573  0.1133
 2581SOL    HW119202   1.502   1.933  14.351 -1.0066 -5.4597  1.1268
 2581SOL    HW219203   1.408   2.045  14.334  1.6673  0.0140 -1.3695
 2582SOL     OW19204   0.059   1.154   6.281 -0.2392 -0.0495  0.2234
 2582SOL    HW119205   0.073   1.226   6.342 -1.7619 -0.9272  1.5907
 2582SOL    HW219206   0.140   1.103   6.287 -0.5512 -0.6789 -0.8890
 2583SOL     OW19207   0.521   3.256   7.935 -0.3814 -0.3203 -0.1149
 2583SOL    HW119208   0.452   3.202   7.895 -0.0531 -0.5311 -0.3914
 2583SOL    HW219209   0.575   3.185   7.970 -1.9329 -1.3987  0.1325
 2584SOL     OW19210   3.043   4.433   5.738 -0.2326 -0.3411  0.4624
 2584SOL    HW119211   3.123   4.384   5.757  0.5868  1.4531  1.6670
 2584SOL    HW219212   3.038   4.476   5.823 -1.9218 -2.2028  1.3166
 2585SOL     OW19213   4.412   2.053   7.063 -0.0742 -0.1868 -0.3781
 2585SOL    HW119214   4.444   2.118   7.125  0.0094  0.5482 -1.1943
 2585SOL    HW219215   4.417   1.975   7.119 -1.3370  0.3253  0.4394
 2586SOL     OW19216   0.826   1.259   8.306  0.4446 -0.3309  0.0716
 2586SOL    HW119217   0.753   1.242   8.247 -0.9968 -0.6126  1.9392
 2586SOL    HW219218   0.788   1.263   8.394  1.4168  2.2745  0.4000
 2587SOL     OW19219   1.669   3.808   3.308  1.1141 -0.2972  0.2554
 2587SOL    HW119220   1.737   3.742   3.327  0.3591 -1.8884 -2.6296
 2587SOL    HW219221   1.710   3.845   3.230  1.2076 -0.8638  0.0340
 2588SOL     OW19222   3.983   3.493   9.302 -0.4819 -0.0141 -0.8808
 2588SOL    HW119223   3.918   3.438   9.347 -0.2949  1.3539  1.0304
 2588SOL    HW219224   4.066   3.462   9.337 -1.2926 -3.1724 -1.6928
 2589SOL     OW19225   1.482   0.309  12.428  0.2860  0.2302 -0.0983
 2589SOL    HW119226   1.544   0.305  12.501 -0.6323 -1.1043  0.6184
 2589SOL    HW219227   1.541   0.309  12.353 -0.0354  2.0295 -0.3533
 2590SOL     OW19228   0.402   2.888   2.073 -0.1047 -0.2199  0.3887
 2590SOL    HW119229   0.354   2.819   2.118 -0.8800 -0.0012 -0.1253
 2590SOL    HW219230   0.355   2.897   1.991  0.8134 -3.3635 -0.4564
 2591SOL     OW19231   0.069   2.316   3.957  0.0426 -0.1355  0.1940
 2591SOL    HW119232   0.069   2.390   4.017 -2.9859  1.1123 -1.3351
 2591SOL    HW219233   0.137   2.347   3.897  0.7433 -0.0125  1.0525
 2592SOL     OW19234   1.223   1.669   3.514  0.2310 -0.0084 -0.5083
 2592SOL    HW119235   1.184   1.615   3.583  0.2355  0.4277 -0.1605
 2592SOL    HW219236   1.313   1.654   3.544 -0.1211  1.7235  1.4526
 2593SOL     OW19237   2.458   3.914  14.523  0.0877 -0.3908  0.5394
 2593SOL    HW119238   2.416   3.898  14.438 -0.3184 -0.3606  0.7350
 2593SOL    HW219239   2.408   3.853  14.577 -2.8895  0.4101 -1.2650
 2594SOL     OW19240   0.312   2.935  10.677  0.1992 -0.1193 -0.5937
 2594SOL    HW119241   0.228   2.943  10.632 -0.2696  0.1991  0.3400
 2594SOL    HW219242   0.339   2.846  10.656  0.2775  0.6207 -3.6503
 2595SOL     OW19243   3.060   2.450  12.061  0.0553 -0.3507 -0.0884
 2595SOL    HW119244   2.969   2.478  12.068 -0.0506 -0.4699 -1.0296
 2595SOL    HW219245   3.048   2.397  11.983 -1.1581  0.6849 -0.5987
 2596SOL     OW19246   1.587   4.230   9.300  0.0115  0.0924  0.1784
 2596SOL    HW119247   1.531   4.275   9.363 -0.4084  1.4215 -1.1299
 2596SOL    HW219248   1.534   4.224   9.220 -0.0278  0.9763  0.1319
 2597SOL     OW19249   4.652   4.688   2.541  0.4204  0.2745  0.3345
 2597SOL    HW119250   4.719   4.692   2.472 -0.8886  0.2771 -0.9229
 2597SOL    HW219251   4.577   4.642   2.504  0.7371 -1.3201  1.6648
 2598SOL     OW19252   0.004   0.320   6.986  0.1058 -0.1666 -0.7302
 2598SOL    HW119253   4.645   0.351   6.952 -1.2927 -0.9317  1.9628
 2598SOL    HW219254   0.056   0.333   6.907 -2.2486  0.0208 -2.2289
 2599SOL     OW19255   2.010   3.423  17.560  0.9133 -0.1602 -0.1469
 2599SOL    HW119256   1.987   3.499  17.506  0.1376 -0.7827 -0.6904
 2599SOL    HW219257   2.032   3.367  17.486 -0.4038  1.1878 -1.5800
 2600SOL     OW19258   0.738   3.396  12.103 -0.0915 -0.0695 -0.3552
 2600SOL    HW119259   0.662   3.349  12.136  1.0871 -0.6793  1.4985
 2600SOL    HW219260   0.711   3.484  12.131  0.9132  0.1824 -0.1652
 2601SOL     OW19261   1.068   3.414   2.025  0.0701 -0.4614 -0.0352
 2601SOL    HW119262   1.079   3.509   2.014  0.0446 -0.0945  3.0799
 2601SOL    HW219263   1.104   3.387   1.941  0.3196  3.9052 -1.3626
 2602SOL     OW19264   2.834   0.016   4.072 -0.4673  0.1343 -0.0742
 2602SOL    HW119265   2.741   0.010   4.050 -0.9884  0.4514  1.9865
 2602SOL    HW219266   2.868   0.067   3.999 -0.4225  0.2984  0.0594
 2603SOL     OW19267   3.738   1.858   9.251 -0.5388 -0.1793 -0.2932
 2603SOL    HW119268   3.832   1.875   9.243  0.0430 -2.3887  1.8403
 2603SOL    HW219269   3.716   1.790   9.188  1.1329 -2.1763  1.2828
 2604SOL     OW19270   1.903   3.633   5.617 -0.3497  0.2061  0.3135
 2604SOL    HW119271   1.915   3.690   5.542 -0.5296 -0.3962 -0.1803
 2604SOL    HW219272   1.871   3.561   5.562  0.1597 -0.7431  1.2554
 2605SOL     OW19273   1.040   2.253   2.207  0.2316 -0.6830  0.3150
 2605SOL    HW119274   0.969   2.281   2.150  1.6981 -2.8493 -2.5963
 2605SOL    HW219275   1.030   2.157   2.205  0.2458 -0.6452 -1.7120
 2606SOL     OW19276   0.788   1.715  15.687 -0.3682  0.3371 -0.4661
 2606SOL    HW119277   0.816   1.693  15.598  2.5374  2.4528 -0.0771
 2606SOL    HW219278   0.791   1.811  15.683  2.4984  0.2699 -0.4071
 2607SOL     OW19279   2.560   2.094   8.432 -0.5026 -0.0006 -0.2225
 2607SOL    HW119280   2.610   2.039   8.492 -1.8303  0.0042  0.8979
 2607SOL    HW219281   2.471   2.076   8.463 -0.3451  2.4070  1.6127
 2608SOL     OW19282   0.913   1.336  10.017 -0.4641  0.3367 -0.4205
 2608SOL    HW119283   0.995   1.334   9.967 -0.6223  0.5375 -0.6922
 2608SOL    HW219284   0.900   1.427  10.046 -1.5689  0.6398 -1.8799
 2609SOL     OW19285   0.021   1.782   0.230  0.4954 -0.0678 -0.3830
 2609SOL    HW119286   0.028   1.733   0.311  1.9207 -0.1620 -0.5725
 2609SOL    HW219287   0.113   1.789   0.207 -0.0918  1.3832 -2.2828
 2610SOL     OW19288   0.211   0.408   0.499 -0.0474 -0.1058 -0.4140
 2610SOL    HW119289   0.289   0.416   0.554 -0.3360  0.0300 -0.0220
 2610SOL    HW219290   0.242   0.361   0.422  1.4348  2.0845 -1.1487
 2611SOL     OW19291   0.576   3.670   7.448  0.4272  0.4865  0.2346
 2611SOL    HW119292   0.607   3.685   7.538  0.4758  1.7036  0.0180
 2611SOL    HW219293   0.520   3.748   7.446  0.4578  0.4979 -0.2457
 2612SOL     OW19294   3.128   0.338   4.969  0.0401 -0.0324  0.1937
 2612SOL    HW119295   3.118   0.277   5.042 -2.0032  1.3303  1.0260
 2612SOL    HW219296   3.218   0.323   4.939 -0.1873 -3.6565  1.3497
 2613SOL     OW19297   3.376   2.638  10.509 -0.2573 -0.2447  0.1671
 2613SOL    HW119298   3.303   2.579  10.524 -1.2666  1.0886  0.4958
 2613SOL    HW219299   3.417   2.613  10.592  1.4653  2.0059 -0.0034
 2614SOL     OW19300   4.120   1.960   8.295 -0.1558  0.7167  0.3438
 2614SOL    HW119301   4.210   1.957   8.329  0.5850  0.5773 -1.6086
 2614SOL    HW219302   4.067   1.920   8.364 -2.1365  0.0240 -1.6024
 2615SOL     OW19303   0.476   2.816   7.792  0.6900  0.1914 -0.2619
 2615SOL    HW119304   0.548   2.838   7.732  0.8543  1.0526  0.2545
 2615SOL    HW219305   0.421   2.774   7.726  3.0229 -3.3533  0.0649
 2616SOL     OW19306   4.363   4.355   2.183  0.1912  0.2556 -0.5373
 2616SOL    HW119307   4.338   4.368   2.092 -1.7892 -0.7412 -0.1285
 2616SOL    HW219308   4.285   4.313   2.220  1.2771 -0.6057  0.8112
 2617SOL     OW19309   4.089   4.382   4.231  0.6345 -0.0134 -0.4627
 2617SOL    HW119310   4.006   4.378   4.279  0.2245  2.5310 -0.9387
 2617SOL    HW219311   4.096   4.478   4.232  1.5836 -0.1038  1.0072
 2618SOL     OW19312   1.466   3.341  16.227 -0.4680  0.4850 -0.0469
 2618SOL    HW119313   1.372   3.332  16.210  0.2689 -1.2018 -3.1506
 2618SOL    HW219314   1.481   3.419  16.281 -1.2927 -0.1164  1.0512
 2619SOL     OW19315   4.489   0.391   6.863 -0.3503 -0.0427 -0.3069
 2619SOL    HW119316   4.431   0.398   6.788 -0.3196 -0.9552 -0.4101
 2619SOL    HW219317   4.424   0.410   6.931 -0.6842 -0.7091 -0.4399
 2620SOL     OW19318   4.306   3.213   8.049 -0.3134  0.0758  0.6674
 2620SOL    HW119319   4.278   3.276   8.117 -0.0754  0.2902  0.5682
 2620SOL    HW219320   4.401   3.219   8.041 -0.2744  0.8844  1.6338
 2621SOL     OW19321   3.743   2.792   2.925 -0.2337 -0.1995  0.6124
 2621SOL    HW119322   3.669   2.769   2.981 -1.3945  1.0126 -0.4259
 2621SOL    HW219323   3.727   2.886   2.915 -0.0996 -0.0071  2.0804
 2622SOL     OW19324   4.355   0.304   6.397  0.5110 -0.1743  0.2101
 2622SOL    HW119325   4.343   0.362   6.321 -0.9937  0.5956  1.0463
 2622SOL    HW219326   4.312   0.222   6.373  0.5663  0.0129 -0.5541
 2623SOL     OW19327   4.190   1.487   4.508  0.4709 -0.0779  0.1800
 2623SOL    HW119328   4.247   1.550   4.554  0.2250  0.0476  0.3145
 2623SOL    HW219329   4.127   1.466   4.577  1.8564 -3.0761  0.5387
 2624SOL     OW19330   2.544   1.315   8.686 -0.0538  0.5618  0.2533
 2624SOL    HW119331   2.569   1.405   8.665  0.7156  0.5461  1.0702
 2624SOL    HW219332   2.624   1.289   8.732 -0.1215 -0.7950 -0.3943
 2625SOL     OW19333   1.329   4.187   8.862  0.2170  0.1784 -0.0549
 2625SOL    HW119334   1.345   4.266   8.913 -2.2653  0.0139  0.9908
 2625SOL    HW219335   1.234   4.182   8.853  0.4599  0.4913 -2.6759
 2626SOL     OW19336   4.518   3.807   6.720  0.1807 -0.6709 -0.1754
 2626SOL    HW119337   4.491   3.716   6.708 -0.9646 -0.2318 -0.8578
 2626SOL    HW219338   4.610   3.797   6.747 -0.4247 -0.7425  1.8710
 2627SOL     OW19339   1.892   1.394   6.654  0.5848 -0.1527 -0.3007
 2627SOL    HW119340   1.921   1.325   6.713  0.1816 -1.4031 -1.5525
 2627SOL    HW219341   1.932   1.351   6.579  0.6806 -0.3422 -0.1400
 2628SOL     OW19342   3.757   0.625   2.047  0.1970  0.1699  0.2896
 2628SOL    HW119343   3.764   0.550   1.988 -0.0043 -0.0737  0.5768
 2628SOL    HW219344   3.812   0.689   2.002  1.4637 -0.5016  0.8925
 2629SOL     OW19345   1.820   0.322   7.257 -0.0347 -0.1848  0.4028
 2629SOL    HW119346   1.792   0.281   7.339  2.2363 -0.9803  0.7866
 2629SOL    HW219347   1.892   0.379   7.285 -2.2358  0.0692  5.5630
 2630SOL     OW19348   0.938   4.721   8.801 -0.4569 -0.4365  0.2775
 2630SOL    HW119349   0.853   0.039   8.796 -0.7509 -1.2059 -1.2784
 2630SOL    HW219350   0.994   0.047   8.859  1.2708 -0.1640 -1.6197
 2631SOL     OW19351   4.361   3.337   7.272 -0.8317 -0.9130 -0.0612
 2631SOL    HW119352   4.375   3.431   7.268  1.4815 -1.2440  0.1446
 2631SOL    HW219353   4.267   3.336   7.286 -0.7393  0.2232  0.6402
 2632SOL     OW19354   0.926   4.617   2.703 -0.1146  0.7334  0.5999
 2632SOL    HW119355   1.009   4.578   2.676 -0.9700 -0.4239 -0.3557
 2632SOL    HW219356   0.949   4.641   2.793  0.6999 -1.0156  0.8623
 2633SOL     OW19357   3.894   3.252   8.799 -0.2998 -0.4140  0.4670
 2633SOL    HW119358   3.861   3.178   8.747  0.0628 -0.2408 -0.0015
 2633SOL    HW219359   3.816   3.307   8.787 -2.0179 -2.9772 -0.1028
 2634SOL     OW19360   2.343   4.019   8.378 -0.1385  0.3295  0.0003
 2634SOL    HW119361   2.269   4.002   8.437 -0.3517  1.1374 -0.0202
 2634SOL    HW219362   2.355   4.114   8.383 -0.2774  0.3991 -0.9842
 2635SOL     OW19363   2.696   1.062   5.086  0.2210  0.4460  0.5339
 2635SOL    HW119364   2.779   1.088   5.125  0.0961 -2.5078  2.7350
 2635SOL    HW219365   2.685   0.977   5.128  0.9035 -0.7483 -1.7204
 2636SOL     OW19366   0.413   3.263  17.350  0.0141  0.2599 -0.3424
 2636SOL    HW119367   0.447   3.192  17.296 -0.4635 -1.6190  1.8453
 2636SOL    HW219368   0.480   3.324  17.319 -0.9304  0.0033 -2.9296
 2637SOL     OW19369   0.636   1.882   4.382  0.2875 -0.1161 -0.3465
 2637SOL    HW119370   0.604   1.915   4.466 -2.4368 -1.7202 -0.7505
 2637SOL    HW219371   0.576   1.811   4.358  0.8838 -1.2943  1.6001
 2638SOL     OW19372   1.010   2.865  17.316 -0.4016  0.1426  0.0228
 2638SOL    HW119373   1.060   2.800  17.366  0.6067  0.8927 -0.0074
 2638SOL    HW219374   1.024   2.835  17.226 -0.4909 -3.2403  1.1277
 2639SOL     OW19375   1.414   0.294   1.658  0.2166  0.2894 -0.0670
 2639SOL    HW119376   1.381   0.354   1.591  1.8990  0.7759 -0.4543
 2639SOL    HW219377   1.488   0.343   1.692 -0.0406  1.1181 -0.7037
 2640SOL     OW19378   2.132   4.559   0.215 -0.5522 -0.5884 -0.1408
 2640SOL    HW119379   2.077   4.637   0.204 -1.1090 -1.2900 -2.2214
 2640SOL    HW219380   2.213   4.608   0.224 -1.2291  0.5001  0.0573
 2641SOL     OW19381   3.402   2.910   5.809  0.3556  0.3304 -0.2182
 2641SOL    HW119382   3.424   2.965   5.734  1.6076 -1.4562 -1.1514
 2641SOL    HW219383   3.424   2.820   5.786 -0.8304 -0.1039  0.3442
 2642SOL     OW19384   3.866   2.785   8.599  0.6836  0.7289  0.0887
 2642SOL    HW119385   3.787   2.833   8.625 -0.1492  0.2703 -1.5814
 2642SOL    HW219386   3.863   2.793   8.503 -0.2276  0.9540  0.1325
 2643SOL     OW19387   2.870   0.223  14.842  0.6079 -0.2341  0.3789
 2643SOL    HW119388   2.911   0.233  14.928  4.0790 -2.6658 -0.9725
 2643SOL    HW219389   2.838   0.312  14.826  0.4113 -0.5807 -1.1512
 2644SOL     OW19390   4.035   1.123   5.854  0.1009 -0.0029  0.3977
 2644SOL    HW119391   3.962   1.118   5.791 -0.9712 -0.7163  1.6969
 2644SOL    HW219392   4.080   1.040   5.837  1.1219  0.5950  0.1894
 2645SOL     OW19393   2.367   0.789   1.649  0.0891 -1.0199 -0.3765
 2645SOL    HW119394   2.297   0.775   1.714 -0.3981 -0.1146 -0.7049
 2645SOL    HW219395   2.442   0.776   1.706  0.2046 -1.4234 -0.6199
 2646SOL     OW19396   3.720   4.467   5.460  0.4715  0.7035 -0.0626
 2646SOL    HW119397   3.775   4.393   5.485  0.8155  1.2702  0.8817
 2646SOL    HW219398   3.790   4.532   5.452 -0.0896  1.3447  0.3056
 2647SOL     OW19399   0.150   1.396   0.645  0.1099  0.5635  0.5386
 2647SOL    HW119400   0.197   1.344   0.580 -1.3035  1.7451 -1.4362
 2647SOL    HW219401   0.194   1.365   0.724  1.2938 -1.4515 -0.9033
 2648SOL     OW19402   1.332   0.082   0.672 -0.3020 -0.1700  0.1018
 2648SOL    HW119403   1.404   0.076   0.735 -0.1069 -3.0227 -0.3799
 2648SOL    HW219404   1.349   0.165   0.627 -0.5123 -0.5049 -0.5986
 2649SOL     OW19405   0.172   3.501   8.920 -0.0547 -0.0022 -0.4036
 2649SOL    HW119406   0.193   3.475   9.010 -0.6415 -0.0168 -0.2712
 2649SOL    HW219407   0.149   3.594   8.920 -0.1212 -0.0074 -1.9382
 2650SOL     OW19408   4.322   1.888  17.598 -0.4135 -0.3717 -0.5237
 2650SOL    HW119409   4.313   1.853  17.510 -1.4299  0.4943 -0.7560
 2650SOL    HW219410   4.348   1.805  17.638 -1.9924 -1.3097 -1.4669
 2651SOL     OW19411   4.456   0.924  13.640  0.3053 -0.2334 -0.1661
 2651SOL    HW119412   4.528   0.983  13.661 -0.2645  0.5814 -0.5175
 2651SOL    HW219413   4.420   0.967  13.563 -1.2980 -1.3233 -0.0316
 2652SOL     OW19414   1.894   2.653   7.726  0.2948  0.1802  0.0237
 2652SOL    HW119415   1.847   2.734   7.706 -0.3520 -0.2474 -0.2005
 2652SOL    HW219416   1.973   2.693   7.762 -1.2343  1.4815  1.9312
 2653SOL     OW19417   3.357   3.381   6.125 -0.0816 -0.2014 -0.6485
 2653SOL    HW119418   3.409   3.302   6.141  1.8465  1.7328  2.4073
 2653SOL    HW219419   3.269   3.343   6.114  0.8959 -2.8568  0.7795
 2654SOL     OW19420   2.670   1.089  12.917 -0.6716 -0.0305 -0.0542
 2654SOL    HW119421   2.686   1.026  12.847  0.3964 -0.1084  0.2447
 2654SOL    HW219422   2.585   1.057  12.945 -0.8600 -0.0336 -0.6299
 2655SOL     OW19423   0.346   2.100   3.398  0.3480  0.4042 -0.5357
 2655SOL    HW119424   0.260   2.067   3.372  1.8349 -2.6013 -1.6238
 2655SOL    HW219425   0.369   2.161   3.327 -0.9267  2.9088  1.2064
 2656SOL     OW19426   4.126   1.150  11.329 -0.3138  0.3511  0.6068
 2656SOL    HW119427   4.195   1.158  11.394 -0.2246  0.2930  0.5181
 2656SOL    HW219428   4.132   1.067  11.282 -0.7796  0.4565  0.3531
 2657SOL     OW19429   2.039   1.799   3.718  0.2603  0.1016  0.5689
 2657SOL    HW119430   2.089   1.736   3.768  0.0440 -1.2012 -0.8460
 2657SOL    HW219431   1.955   1.806   3.763 -1.0720  1.0216 -2.0290
 2658SOL     OW19432   1.559   2.556  12.279  0.1602 -0.2974 -0.6048
 2658SOL    HW119433   1.611   2.605  12.215  1.2097  0.7684  1.0807
 2658SOL    HW219434   1.619   2.533  12.350 -0.4905 -1.0032 -0.2825
 2659SOL     OW19435   2.275   2.891   0.382  0.5804 -0.2420  0.4028
 2659SOL    HW119436   2.230   2.808   0.372 -0.1529  0.0894  0.9851
 2659SOL    HW219437   2.364   2.874   0.414 -0.1131 -5.0720 -0.2769
 2660SOL     OW19438   3.139   0.115   2.337  0.1122  0.0633  0.6917
 2660SOL    HW119439   3.111   0.027   2.362 -0.3836 -0.0157 -0.1405
 2660SOL    HW219440   3.196   0.154   2.404  0.5158 -0.3833  0.6101
 2661SOL     OW19441   4.404   3.552  12.679 -0.0421 -0.6591 -0.0683
 2661SOL    HW119442   4.357   3.599  12.610  0.9510 -2.4903 -1.9926
 2661SOL    HW219443   4.337   3.565  12.747 -0.5035  0.1196 -0.6851
 2662SOL     OW19444   3.230   4.181   1.190  0.4114  0.3426  0.1811
 2662SOL    HW119445   3.277   4.181   1.274  0.0855 -0.3836  0.3659
 2662SOL    HW219446   3.137   4.186   1.212 -0.2172 -2.2316 -1.9141
 2663SOL     OW19447   1.499   1.281   4.636  0.3099 -0.2902  0.6146
 2663SOL    HW119448   1.591   1.282   4.608 -0.4595  1.6356 -1.8170
 2663SOL    HW219449   1.519   1.309   4.725  2.2613  1.8852 -0.4836
 2664SOL     OW19450   2.490   0.242   2.202  0.5128  0.2321  0.3819
 2664SOL    HW119451   2.506   0.335   2.187  1.3925  0.3063  1.8230
 2664SOL    HW219452   2.486   0.207   2.113 -0.7579 -1.2818  1.0253
 2665SOL     OW19453   4.570   1.204   1.797  0.2178  0.0022  0.0914
 2665SOL    HW119454   4.567   1.297   1.772 -1.9609 -0.2132 -0.4375
 2665SOL    HW219455   4.648   1.173   1.750  0.6447  1.5781 -0.2474
 2666SOL     OW19456   0.678   0.957  15.784 -0.1503 -0.2879 -0.6553
 2666SOL    HW119457   0.582   0.956  15.789 -0.1932  0.3538 -1.2566
 2666SOL    HW219458   0.702   0.934  15.874 -0.3286  0.9120 -0.2861
 2667SOL     OW19459   3.219   4.227   4.739  0.0604  0.1451  0.0705
 2667SOL    HW119460   3.131   4.193   4.723  0.6195 -1.6419  0.8700
 2667SOL    HW219461   3.203   4.320   4.720 -3.4553 -0.4799 -0.0106
 2668SOL     OW19462   2.992   0.452  10.796 -0.0329  0.0704 -0.2200
 2668SOL    HW119463   3.057   0.447  10.727  1.0477  0.5233  0.7589
 2668SOL    HW219464   2.949   0.534  10.775 -0.1354 -0.0275 -0.3927
 2669SOL     OW19465   2.765   2.616   3.818  0.1939 -0.4103  0.5181
 2669SOL    HW119466   2.729   2.615   3.730  0.7685  1.3246  0.2786
 2669SOL    HW219467   2.842   2.559   3.816  0.6381  0.1688  1.1217
 2670SOL     OW19468   2.974   4.568   8.248 -0.1814  0.4653  0.3226
 2670SOL    HW119469   2.915   4.643   8.238  1.1094  1.3396 -0.6958
 2670SOL    HW219470   2.925   4.521   8.315 -3.1899  1.2517 -1.3091
 2671SOL     OW19471   2.561   1.240   9.944  0.3204  0.2253  0.2451
 2671SOL    HW119472   2.641   1.292   9.948  1.4378 -1.5331  0.7898
 2671SOL    HW219473   2.587   1.163   9.994  0.3399  0.4025  0.5095
 2672SOL     OW19474   4.714   2.749   7.402 -0.0445  0.0284  0.0167
 2672SOL    HW119475   0.078   2.719   7.388  0.2097  0.7509  0.0513
 2672SOL    HW219476   0.004   2.842   7.419  1.1777  0.0902 -1.3998
 2673SOL     OW19477   4.669   0.198   1.457 -0.0373  0.2708 -0.1546
 2673SOL    HW119478   0.007   0.131   1.482  0.4701  0.9654  0.4279
 2673SOL    HW219479   4.592   0.162   1.501  0.0845 -0.8708 -0.8631
 2674SOL     OW19480   0.629   0.313  13.956  0.8163  0.2526  0.0192
 2674SOL    HW119481   0.634   0.409  13.957  1.1301  0.2306  0.9001
 2674SOL    HW219482   0.586   0.284  13.877 -0.3882 -1.0899  1.1737
 2675SOL     OW19483   4.117   2.811  10.033  0.2157  0.0624 -0.3035
 2675SOL    HW119484   4.031   2.853  10.028  0.5483  1.1115  2.3392
 2675SOL    HW219485   4.131   2.766   9.950 -0.9837 -0.0889 -0.4233
 2676SOL     OW19486   2.490   1.680   8.336 -0.2475  0.0529  0.2185
 2676SOL    HW119487   2.423   1.645   8.277 -0.4598 -0.2787  0.6504
 2676SOL    HW219488   2.481   1.773   8.354  1.0301 -0.0148  1.2277
 2677SOL     OW19489   2.673   1.441   5.789  0.0903 -0.5718 -0.3443
 2677SOL    HW119490   2.658   1.404   5.876  0.9551  2.9452  1.2742
 2677SOL    HW219491   2.648   1.532   5.803  1.3938  0.0037 -1.8100
 2678SOL     OW19492   3.244   3.577  14.525  0.2003  0.2088 -0.4786
 2678SOL    HW119493   3.205   3.664  14.516 -2.0986 -0.6513  1.1580
 2678SOL    HW219494   3.284   3.588  14.611  1.4625 -0.9938 -0.9155
 2679SOL     OW19495   0.878   4.206  11.123 -0.0939 -0.0997  0.2093
 2679SOL    HW119496   0.862   4.298  11.099  0.9752 -0.0809 -0.4218
 2679SOL    HW219497   0.938   4.172  11.057 -0.9336  0.0088 -0.6020
 2680SOL     OW19498   1.862   2.920   7.629  0.2088  0.1160  0.0259
 2680SOL    HW119499   1.909   2.975   7.566  0.6668  2.9366  2.8310
 2680SOL    HW219500   1.773   2.919   7.595 -0.0600 -2.5563  0.8605
 2681SOL     OW19501   4.036   1.100   4.950  0.0884 -0.2033  0.2075
 2681SOL    HW119502   4.018   1.133   4.862 -0.3616  1.1042  0.7947
 2681SOL    HW219503   3.964   1.145   4.995 -1.4147 -2.0982 -0.2891
 2682SOL     OW19504   0.584   2.837   8.799 -0.1620  0.3001  0.1614
 2682SOL    HW119505   0.504   2.844   8.747  0.2481  0.5451 -0.4339
 2682SOL    HW219506   0.555   2.841   8.890 -2.6253  0.8556 -0.6454
 2683SOL     OW19507   2.331   3.581   8.106  0.3560  0.8192  0.4095
 2683SOL    HW119508   2.365   3.519   8.042  0.5811  0.1132  1.2052
 2683SOL    HW219509   2.263   3.621   8.051  0.2255 -0.4811 -0.3528
 2684SOL     OW19510   3.356   2.641   0.537  0.3440 -0.3184  0.3110
 2684SOL    HW119511   3.410   2.627   0.459 -0.9405 -0.3167 -0.5808
 2684SOL    HW219512   3.291   2.571   0.541  0.9110 -0.8518  0.1893
 2685SOL     OW19513   1.562   0.648  14.119  0.3012  0.0407  0.5140
 2685SOL    HW119514   1.487   0.607  14.075  2.5581 -2.5814 -0.8927
 2685SOL    HW219515   1.539   0.653  14.211  1.1109 -0.8151  0.7593
 2686SOL     OW19516   0.577   0.202   4.625  0.2236 -0.1576 -0.2318
 2686SOL    HW119517   0.548   0.293   4.636 -0.4734 -0.4836  0.5834
 2686SOL    HW219518   0.562   0.156   4.707 -0.0523 -1.3317 -0.9383
 2687SOL     OW19519   4.033   1.645  14.249 -0.3559 -0.6507 -0.3741
 2687SOL    HW119520   4.019   1.698  14.327  2.4125  0.7132 -0.7961
 2687SOL    HW219521   3.967   1.577  14.265  1.3735 -1.9497  1.1223
 2688SOL     OW19522   3.621   1.662   9.630  0.1225 -0.0816  0.0940
 2688SOL    HW119523   3.701   1.639   9.582 -0.0771  1.4402 -0.9755
 2688SOL    HW219524   3.551   1.636   9.570 -0.4151 -1.0008  1.1404
 2689SOL     OW19525   0.433   1.345   0.494 -0.3488  0.7393  0.2011
 2689SOL    HW119526   0.361   1.314   0.438 -0.2653  2.4660 -0.8757
 2689SOL    HW219527   0.468   1.258   0.513 -2.1087  0.0232  0.1749
 2690SOL     OW19528   1.975   0.849  10.187 -0.0672  0.1457  0.1042
 2690SOL    HW119529   1.946   0.797  10.112  0.0385  0.0244  0.1465
 2690SOL    HW219530   1.973   0.933  10.142 -1.2361  1.0873  1.9205
 2691SOL     OW19531   3.208   3.341   5.787  0.5145  0.3291 -0.3340
 2691SOL    HW119532   3.143   3.411   5.796  0.6922  0.7378 -2.3688
 2691SOL    HW219533   3.178   3.281   5.857  2.0235 -1.0497 -0.8764
 2692SOL     OW19534   2.970   0.126   2.735  0.5848 -0.5150 -0.4087
 2692SOL    HW119535   3.017   0.208   2.723 -1.8559  0.5581 -2.9155
 2692SOL    HW219536   2.983   0.079   2.652 -1.8954 -0.4506 -0.8569
 2693SOL     OW19537   3.438   0.427  17.581 -0.2056 -0.1594  0.2539
 2693SOL    HW119538   3.396   0.396  17.661 -0.0663  1.7969  1.0903
 2693SOL    HW219539   3.484   0.503  17.615  1.0262 -1.2541  1.0085
 2694SOL     OW19540   1.233   3.206   2.815 -0.0249 -0.3385  0.3653
 2694SOL    HW119541   1.200   3.144   2.750 -1.4184  0.3966  0.3596
 2694SOL    HW219542   1.326   3.187   2.821  0.3370  0.5409 -2.6041
 2695SOL     OW19543   1.713   2.798   2.396  0.0130  0.0286  0.4201
 2695SOL    HW119544   1.770   2.809   2.472  1.7028  0.6310 -0.9292
 2695SOL    HW219545   1.774   2.840   2.335  1.0961  0.7965  2.0376
 2696SOL     OW19546   2.888   2.028   1.476 -0.3532 -0.3232 -0.6938
 2696SOL    HW119547   2.795   2.030   1.499  0.2810  2.0037  1.6533
 2696SOL    HW219548   2.928   2.037   1.563 -1.7209 -1.8146  0.0745
 2697SOL     OW19549   4.111   1.515  17.171  0.1529 -0.4845  0.1727
 2697SOL    HW119550   4.149   1.444  17.223  0.8686 -0.0614  0.2311
 2697SOL    HW219551   4.182   1.579  17.171 -0.6153  0.3564  0.7083
 2698SOL     OW19552   3.856   3.142   8.508  0.2966 -0.1953 -0.2384
 2698SOL    HW119553   3.922   3.155   8.439  0.9157 -0.5115  0.2858
 2698SOL    HW219554   3.774   3.121   8.465  0.8516 -0.1208 -1.3376
 2699SOL     OW19555   4.453   4.327   7.733  0.1284 -0.2695 -0.1952
 2699SOL    HW119556   4.411   4.412   7.738  0.2940 -0.1748 -0.3821
 2699SOL    HW219557   4.537   4.353   7.770 -1.5542  1.4524  2.3363
 2700SOL     OW19558   0.048   4.085  11.637  0.2957 -0.0560  0.4961
 2700SOL    HW119559   0.089   4.149  11.579  1.2498  0.4086  1.6850
 2700SOL    HW219560   0.004   4.027  11.575 -1.1452  2.2586 -0.6605
 2701SOL     OW19561   3.914   0.563   5.330 -0.4545 -0.3627  0.4934
 2701SOL    HW119562   3.838   0.609   5.365 -0.1340  1.6164 -1.4166
 2701SOL    HW219563   3.941   0.619   5.258 -2.4253 -1.3306 -1.0022
 2702SOL     OW19564   3.895   4.549   5.891 -0.7801 -0.6561  0.2282
 2702SOL    HW119565   3.874   4.612   5.822  0.4855  0.7293  1.1232
 2702SOL    HW219566   3.814   4.499   5.885 -0.8884 -0.8224  3.3173
 2703SOL     OW19567   4.610   4.294   3.076 -0.2644 -0.5413 -0.0862
 2703SOL    HW119568   4.675   4.240   3.121 -1.9590 -1.7244  0.9798
 2703SOL    HW219569   4.606   4.362   3.144  0.3822 -0.5808 -0.0078
 2704SOL     OW19570   2.815   4.628   4.853 -0.6991  0.8191 -0.2405
 2704SOL    HW119571   2.787   4.644   4.762 -0.8527  1.5375 -0.0656
 2704SOL    HW219572   2.752   4.563   4.884  0.7469 -0.2996  0.3495
 2705SOL     OW19573   1.671   0.762  10.075 -0.6879  0.0619  0.0314
 2705SOL    HW119574   1.619   0.682  10.079 -1.8045  0.7303 -1.2848
 2705SOL    HW219575   1.728   0.742  10.001  2.2066  0.7521  2.0316
 2706SOL     OW19576   1.175   2.664   3.855  0.0360  0.5504  0.5263
 2706SOL    HW119577   1.222   2.737   3.814  0.9077  1.0780  2.4673
 2706SOL    HW219578   1.149   2.622   3.773 -1.6994 -0.1360  1.4385
 2707SOL     OW19579   2.007   2.335   3.215 -0.6249 -0.2598 -0.5347
 2707SOL    HW119580   1.947   2.262   3.202 -2.0436  0.7501  0.2354
 2707SOL    HW219581   2.078   2.271   3.214 -1.6477 -1.3976  0.1087
 2708SOL     OW19582   4.336   0.164   5.747 -0.5040 -0.0659 -0.0204
 2708SOL    HW119583   4.251   0.120   5.754 -0.4139  0.4589  4.4438
 2708SOL    HW219584   4.326   0.259   5.739  0.7070  0.1005  0.4572
 2709SOL     OW19585   0.012   0.562   4.377  0.0222 -0.6024  0.1191
 2709SOL    HW119586   4.667   0.504   4.405 -0.0222 -0.0413  1.1628
 2709SOL    HW219587   4.699   0.591   4.294 -0.8054 -3.2832 -0.4017
 2710SOL     OW19588   4.134   1.094  14.084  0.4283 -0.4496  0.7068
 2710SOL    HW119589   4.069   1.162  14.068  0.3146 -0.2530  1.9786
 2710SOL    HW219590   4.128   1.089  14.179  1.5363 -4.2334  0.5865
 2711SOL     OW19591   4.612   1.974   6.191  0.3364 -0.5248  0.3979
 2711SOL    HW119592   4.533   1.926   6.166  0.3260 -0.5860  0.5451
 2711SOL    HW219593   4.680   1.922   6.150  0.5450 -0.6963  0.9551
 2712SOL     OW19594   1.250   3.408   6.444 -0.1546 -0.0443  0.4177
 2712SOL    HW119595   1.275   3.346   6.512  1.3194  0.3358  0.2097
 2712SOL    HW219596   1.224   3.483   6.497 -2.8196 -1.6369  1.3494
 2713SOL     OW19597   1.236   0.699   3.432  0.0463 -0.4004  0.0052
 2713SOL    HW119598   1.293   0.642   3.380  0.2439 -0.3636  0.1843
 2713SOL    HW219599   1.234   0.781   3.382  0.1254 -0.0996  0.5012
 2714SOL     OW19600   2.249   2.646   0.948  0.3934 -0.0898  0.1427
 2714SOL    HW119601   2.289   2.602   1.023 -0.6994  0.8998  1.3101
 2714SOL    HW219602   2.328   2.667   0.899  0.3709  1.8400  0.9446
 2715SOL     OW19603   4.128   1.446   3.285 -0.1160  0.4703  0.3048
 2715SOL    HW119604   4.135   1.393   3.206 -1.7160 -1.7009  1.6177
 2715SOL    HW219605   4.152   1.532   3.251  1.7926 -0.5251 -0.8430
 2716SOL     OW19606   3.464   3.566   5.512  0.1278  0.0261  0.2377
 2716SOL    HW119607   3.455   3.637   5.575  0.7056 -1.7042  2.2794
 2716SOL    HW219608   3.469   3.610   5.428  0.8867  0.0189  0.2856
 2717SOL     OW19609   3.670   3.195  11.770  0.2672  0.0147  0.0422
 2717SOL    HW119610   3.689   3.242  11.689 -0.6733  0.1756 -0.0861
 2717SOL    HW219611   3.625   3.125  11.724 -3.4396  1.4817  1.3588
 2718SOL     OW19612   3.789   1.126  10.993 -0.4517 -0.0786 -0.2512
 2718SOL    HW119613   3.740   1.205  11.016  1.2643  0.8497  0.3044
 2718SOL    HW219614   3.729   1.059  11.026 -1.4736 -0.5925 -3.1916
 2719SOL     OW19615   3.019   1.367   7.582 -0.4029  0.0601 -0.3489
 2719SOL    HW119616   3.074   1.433   7.624  0.9736 -0.5451 -1.1919
 2719SOL    HW219617   2.976   1.409   7.507 -1.9522  1.1054  1.1254
 2720SOL     OW19618   2.821   0.128   2.436  0.4589 -0.0124  0.3758
 2720SOL    HW119619   2.781   0.055   2.484 -4.4670  2.6550  0.2531
 2720SOL    HW219620   2.910   0.093   2.433  1.7083  3.2228  0.4173
 2721SOL     OW19621   0.063   0.723   5.598 -0.2573 -0.3855 -0.7015
 2721SOL    HW119622   0.019   0.737   5.514 -0.5950  0.0507 -0.4509
 2721SOL    HW219623   4.711   0.716   5.655  0.4815 -0.2262  0.3095
 2722SOL     OW19624   3.952   0.492   1.560 -0.0802  0.0065  0.1725
 2722SOL    HW119625   3.994   0.462   1.479  0.7680  1.4272  0.0858
 2722SOL    HW219626   3.867   0.522   1.529 -0.3389 -0.6966  0.1933
 2723SOL     OW19627   0.943   4.237   7.225 -0.2459 -0.7852  1.0236
 2723SOL    HW119628   0.868   4.290   7.254  0.0609 -0.7395  1.7365
 2723SOL    HW219629   0.912   4.149   7.248 -0.8764 -1.1628 -1.2794
 2724SOL     OW19630   2.008   0.838  14.316 -0.1936  0.4380  0.0387
 2724SOL    HW119631   2.097   0.845  14.350 -0.0082 -1.7856  0.0026
 2724SOL    HW219632   1.975   0.754  14.348 -1.0584 -0.2314 -2.5468
 2725SOL     OW19633   0.268   1.670   5.130  0.4364  0.0151 -0.0925
 2725SOL    HW119634   0.254   1.583   5.169  0.1131  0.9879  1.9303
 2725SOL    HW219635   0.362   1.667   5.115  0.2338  1.8544 -1.7789
 2726SOL     OW19636   4.478   2.227   4.254  0.4099  0.6699  0.1899
 2726SOL    HW119637   4.523   2.219   4.338 -2.4669 -0.5878  1.6224
 2726SOL    HW219638   4.397   2.267   4.287  0.4942 -1.4258  2.9261
 2727SOL     OW19639   2.583   0.473   1.588  0.3649  0.1118  0.2541
 2727SOL    HW119640   2.585   0.383   1.555  1.6512  0.1086  0.3371
 2727SOL    HW219641   2.622   0.518   1.512  0.3067  0.1887  0.2698
 2728SOL     OW19642   1.748   4.026   7.610 -0.1346  0.6017  0.4091
 2728SOL    HW119643   1.762   4.029   7.515  0.0046 -3.6119  0.3179
 2728SOL    HW219644   1.820   3.969   7.635  1.5327  2.7103  0.4211
 2729SOL     OW19645   1.441   4.492  16.375  0.2086  0.0648 -0.5397
 2729SOL    HW119646   1.490   4.551  16.432 -1.1809  0.7450 -0.0547
 2729SOL    HW219647   1.492   4.411  16.380 -0.5853 -0.4910 -1.4138
 2730SOL     OW19648   4.161   1.128   3.724 -0.4674  0.7893 -0.2921
 2730SOL    HW119649   4.175   1.213   3.766 -1.2155 -0.5413  2.6250
 2730SOL    HW219650   4.209   1.144   3.643 -0.9132  1.7026 -0.3785
 2731SOL     OW19651   1.997   2.650   4.254  0.3033 -0.3966 -0.5051
 2731SOL    HW119652   1.950   2.585   4.305 -1.6556  0.2903 -1.4197
 2731SOL    HW219653   1.977   2.633   4.162  1.0126 -1.1921 -0.5142
 2732SOL     OW19654   2.772   4.333   6.579  0.0539  0.2835  0.6995
 2732SOL    HW119655   2.689   4.356   6.536  0.9290  4.2277  1.1016
 2732SOL    HW219656   2.754   4.335   6.673  1.7116 -0.3980  1.0206
 2733SOL     OW19657   4.331   2.042   8.915 -0.7604  0.3287  0.1245
 2733SOL    HW119658   4.395   2.029   8.845  1.5045 -0.9933  2.4312
 2733SOL    HW219659   4.343   1.953   8.949  0.0046  0.1438 -0.6309
 2734SOL     OW19660   1.360   2.898   4.522 -0.1132  0.4508 -0.2700
 2734SOL    HW119661   1.437   2.853   4.557 -1.9010 -2.1944  0.2908
 2734SOL    HW219662   1.348   2.972   4.581  0.6834  1.8913 -1.9359
 2735SOL     OW19663   4.204   0.428   0.621 -0.6863 -0.2458  0.0416
 2735SOL    HW119664   4.228   0.336   0.621 -2.0403 -0.6111 -1.6697
 2735SOL    HW219665   4.112   0.429   0.645 -0.8774 -1.4337 -0.6610
 2736SOL     OW19666   1.473   3.697  11.728 -0.1656 -0.1902  0.5412
 2736SOL    HW119667   1.450   3.783  11.693  1.6723  0.1723  0.2116
 2736SOL    HW219668   1.555   3.724  11.771  0.4349 -2.3375  0.7183
 2737SOL     OW19669   0.307   2.324   5.442  0.6222 -1.2490 -0.4936
 2737SOL    HW119670   0.357   2.374   5.378 -1.1252  1.3918  0.1837
 2737SOL    HW219671   0.236   2.289   5.387 -0.9279  0.8847  0.1075
 2738SOL     OW19672   3.720   0.590   1.445  0.3036 -0.1007  0.3790
 2738SOL    HW119673   3.691   0.518   1.389  1.1089 -1.8039  2.1577
 2738SOL    HW219674   3.802   0.613   1.400  0.1288 -3.1246 -1.4771
 2739SOL     OW19675   0.655   3.087   1.939 -0.3319 -0.3594 -0.0385
 2739SOL    HW119676   0.703   3.169   1.955  0.1594 -0.7622  0.5422
 2739SOL    HW219677   0.677   3.040   2.019  0.0287 -0.2712 -0.0851
 2740SOL     OW19678   0.276   2.117   6.048  0.1531  0.1626 -0.7330
 2740SOL    HW119679   0.259   2.028   6.018 -0.3352 -1.2623  3.8515
 2740SOL    HW219680   0.366   2.117   6.079  0.6477  2.4715 -2.0933
 2741SOL     OW19681   0.325   0.307   0.249 -0.1037  0.0260 -0.3926
 2741SOL    HW119682   0.237   0.268   0.254 -0.2378  0.3888  0.1253
 2741SOL    HW219683   0.340   0.312   0.155  1.3549 -0.2353 -0.1760
 2742SOL     OW19684   1.110   2.189   3.674  0.0121  0.2268  0.7830
 2742SOL    HW119685   1.089   2.129   3.746  0.7416  0.0843  0.8733
 2742SOL    HW219686   1.199   2.159   3.655 -1.6349 -3.0979 -1.7830
 2743SOL     OW19687   4.523   2.107  16.762 -0.0676  0.3243  0.0206
 2743SOL    HW119688   4.580   2.152  16.700  0.4785 -2.5145 -1.5129
 2743SOL    HW219689   4.502   2.177  16.824  0.1636  0.5833 -0.1940
 2744SOL     OW19690   3.167   1.397   2.887  0.2651  0.0237 -0.4120
 2744SOL    HW119691   3.115   1.386   2.966  0.2329 -1.3896 -0.6290
 2744SOL    HW219692   3.132   1.316   2.850  0.5118 -1.0294  1.6619
 2745SOL     OW19693   2.531   0.198   1.530 -0.1340  0.2372 -0.2280
 2745SOL    HW119694   2.482   0.145   1.467  1.6179 -0.0872 -1.3111
 2745SOL    HW219695   2.582   0.128   1.571  1.3175  1.3313 -0.1503
 2746SOL     OW19696   0.511   4.163   4.339 -0.0109 -0.0622  0.2092
 2746SOL    HW119697   0.585   4.119   4.298 -0.1749  3.4273 -3.7712
 2746SOL    HW219698   0.458   4.184   4.262  2.3155  1.6082 -0.9257
 2747SOL     OW19699   1.674   1.388   5.959 -0.1281 -0.1746 -0.0235
 2747SOL    HW119700   1.768   1.403   5.968 -0.0366  0.6361 -2.3770
 2747SOL    HW219701   1.675   1.300   5.920  0.6657  0.3481 -1.1805
 2748SOL     OW19702   2.101   1.991   2.892  0.1301 -0.4858 -0.2760
 2748SOL    HW119703   2.168   1.926   2.870  0.3248 -0.1757 -0.5927
 2748SOL    HW219704   2.146   2.072   2.868  0.9185 -0.2592  1.9811
 2749SOL     OW19705   4.045   0.930   7.389 -0.3550  0.2527  0.2977
 2749SOL    HW119706   4.123   0.929   7.334 -0.3164 -1.1786  0.3625
 2749SOL    HW219707   3.998   1.000   7.343 -0.8557  0.5256  1.2338
 2750SOL     OW19708   1.223   2.042   9.824  0.1833 -0.1562  0.2952
 2750SOL    HW119709   1.235   2.067   9.915 -2.9092 -0.8333  0.9170
 2750SOL    HW219710   1.295   1.980   9.811  1.7860  1.5969  0.8721
 2751SOL     OW19711   3.126   4.576   1.529 -0.0846 -0.0225  0.0206
 2751SOL    HW119712   3.148   4.554   1.439  0.7130 -1.9799  0.6944
 2751SOL    HW219713   3.210   4.563   1.575  0.2498  0.8488 -0.3468
 2752SOL     OW19714   3.756   0.845  11.410  0.5677  0.0397 -0.3152
 2752SOL    HW119715   3.694   0.795  11.463  0.7478 -0.5357 -0.6473
 2752SOL    HW219716   3.837   0.803  11.436 -0.1189 -2.2582 -1.8780
 2753SOL     OW19717   1.525   2.025   0.129 -0.9352  0.0575 -0.2580
 2753SOL    HW119718   1.594   2.053   0.189 -2.1565  3.2182 -0.3309
 2753SOL    HW219719   1.479   1.955   0.177  0.4234 -0.1823  0.6867
 2754SOL     OW19720   3.209   0.093  15.370  0.2246 -0.1494 -0.0082
 2754SOL    HW119721   3.278   0.036  15.405  1.2478  0.0885 -1.6102
 2754SOL    HW219722   3.203   0.064  15.278  1.4075  0.7377 -0.3657
 2755SOL     OW19723   0.291   3.655   4.454  0.2234 -0.0241 -0.5720
 2755SOL    HW119724   0.385   3.670   4.470  0.3722 -1.9885  0.2951
 2755SOL    HW219725   0.266   3.705   4.376 -0.4399  2.4032  1.1697
 2756SOL     OW19726   1.602   1.656   0.408  0.4972  0.3626 -0.1852
 2756SOL    HW119727   1.657   1.605   0.468 -1.6617  0.3420  1.7532
 2756SOL    HW219728   1.663   1.727   0.388  0.8057  0.2709  0.4212
 2757SOL     OW19729   3.787   4.652   9.725  0.5069 -0.0173 -0.0876
 2757SOL    HW119730   3.775   4.658   9.630  1.7852  0.5372 -0.2224
 2757SOL    HW219731   3.787   0.020   9.746 -1.3382 -0.5299  2.0980
 2758SOL     OW19732   2.825   2.075  15.051  1.0717 -0.6610 -0.0287
 2758SOL    HW119733   2.911   2.118  15.053  1.1698 -0.9751  2.1412
 2758SOL    HW219734   2.794   2.082  15.141  0.6430  1.4717 -0.3534
 2759SOL     OW19735   2.139   1.311   8.299 -0.6686  0.0070 -0.0606
 2759SOL    HW119736   2.171   1.374   8.362  2.6371 -3.8859  2.1495
 2759SOL    HW219737   2.220   1.262   8.285 -0.2591  0.7410 -0.2795
 2760SOL     OW19738   0.011   0.060  14.692 -0.1326 -0.4204 -0.8119
 2760SOL    HW119739   0.022   4.692  14.713  0.5396 -0.1526  0.0677
 2760SOL    HW219740   4.669   0.053  14.625 -0.9838  1.5452 -0.1529
 2761SOL     OW19741   3.022   2.446   4.816  0.0599  0.3486  0.3517
 2761SOL    HW119742   2.943   2.487   4.852  0.6197  3.8114 -2.3290
 2761SOL    HW219743   3.083   2.519   4.812  0.4980 -0.1070 -1.2038
 2762SOL     OW19744   2.051   3.653  13.477 -0.2894 -0.8800  0.2397
 2762SOL    HW119745   1.961   3.670  13.450 -0.8173 -3.1141  0.6160
 2762SOL    HW219746   2.060   3.560  13.459 -2.1260 -0.5440 -2.5107
 2763SOL     OW19747   1.043   2.394  11.953  0.1393 -0.3420  0.1318
 2763SOL    HW119748   1.073   2.303  11.957 -1.5780 -0.7576  3.5747
 2763SOL    HW219749   0.957   2.386  11.993 -0.5005 -0.6989 -1.3058
 2764SOL     OW19750   2.093   4.586   0.640  0.3110  0.0700  0.4527
 2764SOL    HW119751   1.998   4.585   0.645  0.2427 -1.1395 -0.9849
 2764SOL    HW219752   2.120   4.590   0.732 -0.3444 -1.7489  0.7361
 2765SOL     OW19753   2.427   2.794  10.715  0.1522 -0.7559 -0.2756
 2765SOL    HW119754   2.359   2.780  10.649  0.4995  0.4051 -0.8676
 2765SOL    HW219755   2.370   2.794  10.792  2.2580 -0.3681  1.2957
 2766SOL     OW19756   4.570   2.359   7.429  0.5389 -0.3160  0.3139
 2766SOL    HW119757   4.506   2.409   7.481  0.8261  0.2869  0.0854
 2766SOL    HW219758   4.654   2.375   7.473 -0.5584  1.4682  1.7934
 2767SOL     OW19759   2.559   1.527  17.605 -0.0252  0.1627  1.0275
 2767SOL    HW119760   2.562   1.608  17.657 -2.7027  0.4438  0.7412
 2767SOL    HW219761   2.649   1.494  17.611 -0.0377 -0.1490 -0.6973
 2768SOL     OW19762   0.590   3.852  12.703  0.0737 -0.4645 -0.2758
 2768SOL    HW119763   0.512   3.816  12.745 -0.0225  0.0592 -0.0026
 2768SOL    HW219764   0.656   3.833  12.770  0.5666 -0.9185 -0.8936
 2769SOL     OW19765   0.726   2.056   7.879 -0.1764 -0.3995 -0.2718
 2769SOL    HW119766   0.705   2.147   7.857 -1.6600 -0.9855 -1.2166
 2769SOL    HW219767   0.783   2.034   7.806 -1.6819 -6.0113  0.2747
 2770SOL     OW19768   0.404   4.114  16.141 -0.0477 -0.1171 -0.4529
 2770SOL    HW119769   0.478   4.054  16.130 -1.0869 -1.4933  0.1695
 2770SOL    HW219770   0.427   4.172  16.068 -0.5538  1.3929  0.5884
 2771SOL     OW19771   0.303   2.410  10.684  0.4058  0.2533 -0.4919
 2771SOL    HW119772   0.260   2.409  10.598  0.3741  0.9740 -0.4876
 2771SOL    HW219773   0.265   2.490  10.722 -1.5037 -0.9211  0.0747
 2772SOL     OW19774   3.637   0.514   7.473 -0.1057  0.3886 -0.5003
 2772SOL    HW119775   3.673   0.503   7.385  0.6876  0.0148 -0.1290
 2772SOL    HW219776   3.712   0.518   7.533  0.6622 -1.2819 -1.3518
 2773SOL     OW19777   4.117   3.320   4.121  0.1251  0.0449 -0.2927
 2773SOL    HW119778   4.199   3.356   4.154  0.0528 -0.0585 -0.0068
 2773SOL    HW219779   4.100   3.255   4.188 -1.3617 -0.7107 -1.3899
 2774SOL     OW19780   4.515   0.116   7.416  0.7602  0.0435  0.3651
 2774SOL    HW119781   4.515   0.037   7.362 -0.9867  0.7007 -0.6021
 2774SOL    HW219782   4.600   0.152   7.390  1.1043 -1.0187  0.0043
 2775SOL     OW19783   2.382   2.905   2.767  0.0153 -0.2501  0.4630
 2775SOL    HW119784   2.426   2.894   2.851 -0.3862 -0.8872  0.5908
 2775SOL    HW219785   2.420   2.840   2.708 -0.1400 -2.8127  3.1252
 2776SOL     OW19786   2.803   3.918   5.048 -0.0106 -0.4931 -0.4054
 2776SOL    HW119787   2.798   3.823   5.038  0.0936 -0.9371  3.4340
 2776SOL    HW219788   2.893   3.942   5.029 -0.3914  1.7933  0.6350
 2777SOL     OW19789   4.680   4.467   5.148  0.0600  0.4352 -0.0195
 2777SOL    HW119790   4.613   4.416   5.192  0.0922 -1.1443 -1.8363
 2777SOL    HW219791   4.693   4.410   5.072  3.4689  0.6309  0.4255
 2778SOL     OW19792   0.514   0.979   4.622  0.4234 -0.2962  0.5859
 2778SOL    HW119793   0.527   1.030   4.543 -0.8181  0.1570  0.6700
 2778SOL    HW219794   0.602   0.964   4.657  0.0946  1.1452  2.0504
 2779SOL     OW19795   1.085   3.971   3.430 -0.0195  0.3594  0.4411
 2779SOL    HW119796   1.068   3.894   3.485 -4.2084 -1.2318 -3.0039
 2779SOL    HW219797   1.170   3.946   3.395 -0.2532 -1.2138  1.0099
 2780SOL     OW19798   0.593   3.284   5.502 -0.5099 -0.1389 -0.0485
 2780SOL    HW119799   0.680   3.271   5.464  0.5040 -0.9704  2.5784
 2780SOL    HW219800   0.578   3.201   5.547  1.7684 -0.0635  0.8153
 2781SOL     OW19801   3.589   4.369  15.478 -0.1891  0.2197  0.5286
 2781SOL    HW119802   3.605   4.365  15.572 -1.8491  0.6048  0.8320
 2781SOL    HW219803   3.546   4.285  15.464 -0.6012  0.3373  1.0729
 2782SOL     OW19804   3.444   1.960  12.651  0.5372 -0.4558 -0.0360
 2782SOL    HW119805   3.442   2.017  12.574 -0.5022  0.4672  0.6691
 2782SOL    HW219806   3.358   1.979  12.690  0.6419 -0.6752  0.3042
 2783SOL     OW19807   0.549   1.724   5.824 -0.3913  0.3597  0.0197
 2783SOL    HW119808   0.498   1.747   5.746  1.0637 -0.2290 -1.1299
 2783SOL    HW219809   0.484   1.680   5.879  0.6506  0.1478  1.0803
 2784SOL     OW19810   2.122   1.631   5.914  0.5539 -0.5111  0.3948
 2784SOL    HW119811   2.211   1.617   5.881 -0.2943 -0.5678 -1.8652
 2784SOL    HW219812   2.094   1.712   5.873 -1.0408 -0.3202  1.8589
 2785SOL     OW19813   0.662   2.830  11.693 -0.4930  0.1209  0.6578
 2785SOL    HW119814   0.671   2.740  11.722  1.7608  0.0850 -0.1637
 2785SOL    HW219815   0.619   2.867  11.770 -1.3174 -1.4228  0.9292
 2786SOL     OW19816   2.117   0.280   6.386 -0.3556 -1.3072 -0.2631
 2786SOL    HW119817   2.095   0.366   6.422  0.7855 -0.7772 -0.8268
 2786SOL    HW219818   2.042   0.228   6.415 -2.1767  2.2214  1.3842
 2787SOL     OW19819   0.950   3.454   3.554 -0.0178 -0.1999  0.0023
 2787SOL    HW119820   0.872   3.408   3.523  0.9571 -0.9993 -1.2570
 2787SOL    HW219821   1.023   3.399   3.526 -0.6024 -1.6744  1.3906
 2788SOL     OW19822   3.053   3.543   3.942 -0.5283 -0.3268 -0.1663
 2788SOL    HW119823   3.102   3.517   4.020 -2.1596 -2.2327  0.2277
 2788SOL    HW219824   2.966   3.575   3.966  0.3513  2.3326 -0.5685
 2789SOL     OW19825   2.546   2.774  16.090 -0.1564  0.3569 -0.1680
 2789SOL    HW119826   2.467   2.723  16.109 -1.0730  2.5742  1.9543
 2789SOL    HW219827   2.602   2.705  16.054  2.7707  2.0382  1.2354
 2790SOL     OW19828   0.877   4.015   2.902  0.1018 -0.5664  0.0646
 2790SOL    HW119829   0.791   3.973   2.890 -1.5401  3.1386 -1.1748
 2790SOL    HW219830   0.897   3.990   2.992 -0.7839 -1.8960 -0.0966
 2791SOL     OW19831   1.079   4.211   3.558  0.4243  0.5168  0.4003
 2791SOL    HW119832   1.108   4.121   3.543 -1.5677  0.0072 -0.4189
 2791SOL    HW219833   1.117   4.257   3.484  1.6602 -2.6175 -0.9319
 2792SOL     OW19834   3.224   2.282  12.238  0.3637  0.9571  0.3691
 2792SOL    HW119835   3.177   2.331  12.171 -2.4414 -1.1157  0.8443
 2792SOL    HW219836   3.151   2.245  12.287  1.0355  0.6509  1.1207
 2793SOL     OW19837   1.296   4.534   1.010 -0.1679  0.2171  0.0466
 2793SOL    HW119838   1.213   4.505   0.970 -0.5890  1.6276 -0.0832
 2793SOL    HW219839   1.261   4.613   1.052  1.1279 -0.3491  2.1707
 2794SOL     OW19840   4.006   3.612   4.749 -0.5396  0.2497  0.0432
 2794SOL    HW119841   4.029   3.687   4.694  0.6416  0.3943  0.7381
 2794SOL    HW219842   4.069   3.623   4.820 -1.0574 -0.9514  0.6800
 2795SOL     OW19843   4.519   0.852  16.599 -0.0795  0.4197  0.4400
 2795SOL    HW119844   4.479   0.765  16.601 -0.1772  0.4557  0.0628
 2795SOL    HW219845   4.445   0.905  16.628 -0.8483 -0.8025  0.6743
 2796SOL     OW19846   0.963   4.702   1.164  0.4026  0.4437  0.3944
 2796SOL    HW119847   1.034   0.024   1.120  0.1500  0.9588  0.5380
 2796SOL    HW219848   0.902   0.049   1.178  1.3517  1.6163 -1.4165
 2797SOL     OW19849   4.136   1.901  14.148  0.1384 -0.4368  0.1143
 2797SOL    HW119850   4.228   1.876  14.137  0.1354  0.2447 -1.5237
 2797SOL    HW219851   4.110   1.817  14.186 -4.5376  1.0512  0.1654
 2798SOL     OW19852   3.584   3.172   3.162 -0.5180  0.5556 -0.3326
 2798SOL    HW119853   3.592   3.267   3.174 -0.3035  0.9887 -4.0323
 2798SOL    HW219854   3.630   3.129   3.235  0.3737 -0.7716 -1.6925
 2799SOL     OW19855   0.934   2.302  13.928 -0.0109  0.0861  0.2501
 2799SOL    HW119856   0.931   2.295  14.024 -0.5583  0.0204  0.2317
 2799SOL    HW219857   0.916   2.395  13.920 -1.3398  0.0324  2.5680
 2800SOL     OW19858   2.158   0.052   8.698 -0.2089  0.0606 -0.5016
 2800SOL    HW119859   2.224   0.054   8.767 -1.2971 -1.6756  0.5879
 2800SOL    HW219860   2.205   0.010   8.627  0.1434 -0.2759 -0.0747
 2801SOL     OW19861   3.564   3.047   6.592  0.4177  0.3192 -0.6447
 2801SOL    HW119862   3.551   3.121   6.533  0.4643  1.6633  0.9991
 2801SOL    HW219863   3.534   2.972   6.542  0.4158 -1.4133  1.9642
 2802SOL     OW19864   3.171   0.442  10.374  0.2632  0.5304 -0.0487
 2802SOL    HW119865   3.189   0.466  10.465  0.6823 -0.4575  0.1307
 2802SOL    HW219866   3.220   0.360  10.368 -0.9426 -0.2460  0.7553
 2803SOL     OW19867   0.355   0.409  10.103  0.6246  0.0852 -0.6208
 2803SOL    HW119868   0.361   0.451  10.018  2.3317 -1.4356 -1.2732
 2803SOL    HW219869   0.435   0.356  10.095  0.1085 -0.6470 -0.9499
 2804SOL     OW19870   4.120   4.663   5.457  0.1325  0.1235  0.0073
 2804SOL    HW119871   4.033   4.665   5.495  0.2931  3.0331  0.1778
 2804SOL    HW219872   4.107   4.711   5.375  3.3269 -0.8268 -1.0794
 2805SOL     OW19873   3.104   1.705   4.226 -0.0898  0.4922 -0.4526
 2805SOL    HW119874   3.084   1.797   4.206 -0.5394 -0.1377 -2.9232
 2805SOL    HW219875   3.043   1.688   4.298  0.3379 -1.6871 -0.6161
 2806SOL     OW19876   1.987   1.828   7.286 -0.2789  0.4614  0.1887
 2806SOL    HW119877   1.962   1.737   7.306 -0.1427  0.5643  0.8307
 2806SOL    HW219878   1.998   1.862   7.374  0.1887  0.8180 -0.0126
 2807SOL     OW19879   1.780   2.967  13.022  0.1695 -0.5419  0.5364
 2807SOL    HW119880   1.740   2.880  13.019 -0.9366 -0.0805  1.6397
 2807SOL    HW219881   1.730   3.008  12.951 -1.9321 -2.1265  1.1018
 2808SOL     OW19882   1.563   0.772   3.470  0.1290  0.0824  0.1974
 2808SOL    HW119883   1.560   0.850   3.525  0.7288  1.1939 -1.3304
 2808SOL    HW219884   1.550   0.713   3.544  2.2210  2.6790  2.5831
 2809SOL     OW19885   0.561   0.663   7.048  0.1159  0.0783 -0.1817
 2809SOL    HW119886   0.606   0.589   7.008 -0.6633 -0.8588  0.6757
 2809SOL    HW219887   0.602   0.731   6.995  0.8489  0.0749  0.3846
 2810SOL     OW19888   2.836   0.314   0.638  0.1909  0.1275  0.2362
 2810SOL    HW119889   2.903   0.305   0.571  1.2725 -1.6596  1.5724
 2810SOL    HW219890   2.834   0.224   0.670  4.4910  0.3503  1.1388
 2811SOL     OW19891   0.020   3.441   6.065  0.0535  0.0309  0.1056
 2811SOL    HW119892   0.111   3.454   6.091 -0.0904  1.6899 -0.2387
 2811SOL    HW219893   0.009   3.352   6.100 -1.0303 -1.0091 -2.8688
 2812SOL     OW19894   2.896   0.543   9.805  0.5054 -0.3504 -0.0825
 2812SOL    HW119895   2.840   0.621   9.805  0.0249 -0.6869 -0.9941
 2812SOL    HW219896   2.843   0.478   9.759 -1.6005  2.4504 -1.6950
 2813SOL     OW19897   2.892   3.655  14.548  0.8888  0.5495  0.1460
 2813SOL    HW119898   2.944   3.649  14.467  0.5034  0.3513 -0.0874
 2813SOL    HW219899   2.806   3.660  14.506  0.0030  1.0799  2.0444
 2814SOL     OW19900   4.097   2.075   5.654 -0.2179  1.0808 -0.5107
 2814SOL    HW119901   4.113   2.127   5.574  0.5439 -1.0973 -1.7736
 2814SOL    HW219902   4.004   2.085   5.674 -0.9392 -2.4110 -2.1839
 2815SOL     OW19903   2.575   2.771   7.807  0.1437 -0.1410  0.0654
 2815SOL    HW119904   2.524   2.813   7.737 -0.4413  1.2230  1.3194
 2815SOL    HW219905   2.535   2.685   7.803  2.3413 -1.0573 -2.0771
 2816SOL     OW19906   0.021   1.747  13.082  0.1180 -0.2260  0.8817
 2816SOL    HW119907   4.683   1.799  13.132 -0.3522  0.2609 -0.2060
 2816SOL    HW219908   4.720   1.655  13.088  3.0075 -1.0469  0.6078
 2817SOL     OW19909   2.249   3.891   3.860 -0.0357  0.3515 -0.0828
 2817SOL    HW119910   2.160   3.867   3.887  0.1677 -0.3567 -0.0393
 2817SOL    HW219911   2.301   3.818   3.894 -1.2807 -0.5103 -0.0249
 2818SOL     OW19912   3.020   4.271  17.505  0.3025  0.2631  0.1914
 2818SOL    HW119913   2.994   4.219  17.581  1.0894 -1.7921 -0.9545
 2818SOL    HW219914   3.074   4.211  17.454  1.7364  0.8720  0.9808
 2819SOL     OW19915   4.617   3.200   5.074 -1.2557  0.0312  0.0409
 2819SOL    HW119916   4.545   3.240   5.123 -0.0370 -0.2708  2.0546
 2819SOL    HW219917   4.682   3.191   5.143 -0.1508  0.4274 -0.9661
 2820SOL     OW19918   3.832   1.045  16.820 -0.4917  1.1193 -0.4609
 2820SOL    HW119919   3.919   1.006  16.822  0.2012  2.6662 -0.0050
 2820SOL    HW219920   3.793   1.035  16.734 -0.2862 -0.2759 -0.3894
 2821SOL     OW19921   0.344   2.872   7.099  0.6996 -0.1324  0.1070
 2821SOL    HW119922   0.251   2.861   7.120  1.1646 -1.7308  1.3594
 2821SOL    HW219923   0.327   2.944   7.039 -0.6207  0.5718  1.3214
 2822SOL     OW19924   3.672   4.075   7.391 -0.1215 -0.0294 -0.0345
 2822SOL    HW119925   3.582   4.063   7.420 -0.0327 -0.3581  0.1076
 2822SOL    HW219926   3.708   4.128   7.461  1.4740 -1.1939  0.0197
 2823SOL     OW19927   0.441   2.099  15.850 -0.2109 -0.1430  0.1181
 2823SOL    HW119928   0.509   2.086  15.916  1.1500 -1.5543 -1.5558
 2823SOL    HW219929   0.394   2.173  15.888 -1.4509 -2.5288  3.2045
 2824SOL     OW19930   2.064   0.508  14.592  0.1164 -0.1370 -0.0403
 2824SOL    HW119931   2.104   0.569  14.529  0.8763  1.0586  1.6013
 2824SOL    HW219932   2.107   0.510  14.677  0.1805  0.3095 -0.0824
 2825SOL     OW19933   3.503   1.407   3.088 -0.4849 -0.0580 -0.2221
 2825SOL    HW119934   3.476   1.378   3.001  0.3338  0.2018 -0.5658
 2825SOL    HW219935   3.565   1.472   3.054 -2.2873  1.8808  0.1517
 2826SOL     OW19936   1.151   3.012   6.673  0.2360  0.2390  0.5633
 2826SOL    HW119937   1.209   3.087   6.657  0.1435  0.7802  2.8472
 2826SOL    HW219938   1.079   3.053   6.721 -0.3748 -0.5133  0.2925
 2827SOL     OW19939   0.827   0.964   1.914 -0.0960  0.2058  0.4749
 2827SOL    HW119940   0.854   0.872   1.910  1.1245  0.5529  0.9945
 2827SOL    HW219941   0.876   0.982   1.994 -0.8746 -1.6801  1.3704
 2828SOL     OW19942   3.499   0.232   3.728 -0.0762  0.3122 -0.0212
 2828SOL    HW119943   3.444   0.305   3.757 -1.2069 -0.0466 -1.2497
 2828SOL    HW219944   3.549   0.200   3.803 -0.1614 -0.5211 -0.3215
 2829SOL     OW19945   2.200   3.392   0.074 -0.4998 -0.2884 -0.1686
 2829SOL    HW119946   2.142   3.381  17.700  1.7986 -1.1647 -1.8067
 2829SOL    HW219947   2.143   3.377   0.150  1.2721  1.0043  1.3912
 2830SOL     OW19948   3.989   1.401  10.916  0.6817 -0.3150 -0.4301
 2830SOL    HW119949   4.079   1.372  10.904  0.3529 -0.8979 -1.5690
 2830SOL    HW219950   3.977   1.393  11.010 -2.1959  0.5953 -0.7175
 2831SOL     OW19951   4.499   2.291   3.990  0.3117 -0.0237  0.0543
 2831SOL    HW119952   4.508   2.257   4.078  0.6896 -1.4294 -0.5273
 2831SOL    HW219953   4.590   2.312   3.969  0.5422 -0.8975  0.2019
 2832SOL     OW19954   4.165   1.003  10.021 -0.7837  0.6740 -0.2516
 2832SOL    HW119955   4.125   0.984   9.936 -2.0985  1.5422  0.1797
 2832SOL    HW219956   4.236   0.938  10.023 -1.0718  0.2960 -1.7651
 2833SOL     OW19957   0.485   0.265  10.713 -0.4412 -0.0151 -0.2515
 2833SOL    HW119958   0.529   0.186  10.743 -0.3060  1.0917  2.4180
 2833SOL    HW219959   0.545   0.305  10.651  0.3255 -0.7463  0.0277
 2834SOL     OW19960   0.758   2.885   3.120  0.2586  0.2431  0.1500
 2834SOL    HW119961   0.722   2.971   3.098  0.9586  0.1161 -1.4985
 2834SOL    HW219962   0.838   2.901   3.170  0.8358  0.2951 -0.7877
 2835SOL     OW19963   0.412   4.615   8.044  0.9728 -0.2034  0.0903
 2835SOL    HW119964   0.483   4.636   8.104  2.0390  0.5928 -1.4467
 2835SOL    HW219965   0.355   4.561   8.099  1.9342 -0.5453  0.7536
 2836SOL     OW19966   2.600   1.529  10.658  0.2396 -0.2449  0.6236
 2836SOL    HW119967   2.579   1.621  10.644  1.6780  0.3021  2.0804
 2836SOL    HW219968   2.516   1.484  10.664 -0.3473  0.2494 -3.7841
 2837SOL     OW19969   2.338   3.354   0.361  0.0093  0.4803  0.5770
 2837SOL    HW119970   2.426   3.336   0.327 -1.1016 -1.6303 -1.2227
 2837SOL    HW219971   2.338   3.294   0.436 -0.4561 -1.5758 -1.0510
 2838SOL     OW19972   0.697   1.978   1.529  0.3508 -0.0232  0.0799
 2838SOL    HW119973   0.668   1.976   1.620  1.4434  0.5035  0.4316
 2838SOL    HW219974   0.792   1.974   1.535  0.4045  1.3106  0.2559
 2839SOL     OW19975   0.023   2.114   6.393 -0.5117 -0.0432 -0.0967
 2839SOL    HW119976   4.724   2.060   6.318 -0.4244  0.6822 -0.6520
 2839SOL    HW219977   4.664   2.115   6.440 -1.2585 -4.0487 -1.3447
 2840SOL     OW19978   3.353   1.312   6.193 -0.5446 -0.1862 -0.0785
 2840SOL    HW119979   3.374   1.262   6.114 -2.2875  0.2992 -0.8423
 2840SOL    HW219980   3.275   1.261   6.216 -0.0937 -0.3592  1.0343
 2841SOL     OW19981   2.609   4.025  11.750 -0.3250  0.5191  0.5907
 2841SOL    HW119982   2.586   4.039  11.842 -2.9693  2.6881 -0.3916
 2841SOL    HW219983   2.604   3.931  11.732 -2.3168  0.7940 -0.3533
 2842SOL     OW19984   1.262   0.466   6.543 -0.3718 -0.1785  0.3725
 2842SOL    HW119985   1.208   0.424   6.610 -0.1263  1.2994  1.4745
 2842SOL    HW219986   1.252   0.559   6.560 -0.4427  0.1267 -1.3145
 2843SOL     OW19987   4.311   0.565   0.007  0.5856  0.1148  0.0894
 2843SOL    HW119988   4.254   0.606  17.644 -2.8902 -0.3401  2.8595
 2843SOL    HW219989   4.317   0.476  17.675 -1.6102 -0.4397  1.1277
 2844SOL     OW19990   1.431   0.645  12.501 -0.4852 -0.0689  0.6845
 2844SOL    HW119991   1.374   0.703  12.451  0.7962 -1.4393 -2.4199
 2844SOL    HW219992   1.481   0.704  12.556  0.0017  1.5740 -1.4927
 2845SOL     OW19993   4.644   0.038   6.814  0.5344  0.3049 -0.2656
 2845SOL    HW119994   4.653   4.687   6.756  1.2144 -1.0188  1.5889
 2845SOL    HW219995   4.656   4.720   6.898 -2.2685  2.1278  1.0601
 2846SOL     OW19996   2.054   4.430   4.511 -0.4890  0.1683  0.0890
 2846SOL    HW119997   2.077   4.499   4.449  0.3511  1.0747  1.4197
 2846SOL    HW219998   1.967   4.415   4.473 -1.0558  0.2549  1.3498
 2847SOL     OW19999   0.418   0.129   7.254 -0.0285  0.2685  0.0664
 2847SOL    HW120000   0.457   0.064   7.196 -0.7731  0.5133 -0.7226
 2847SOL    HW220001   0.492   0.189   7.257  0.2309 -0.2320  3.0273
 2848SOL     OW20002   1.796   1.966  17.560 -0.4441  0.1605  0.0477
 2848SOL    HW120003   1.866   1.934  17.504  0.0461 -0.8739  1.2600
 2848SOL    HW220004   1.774   1.881  17.598  1.9385 -0.5243 -0.1214
 2849SOL     OW20005   0.841   4.070  17.329  0.0322 -0.1055  0.7155
 2849SOL    HW120006   0.795   4.015  17.393 -0.1694  0.9036  1.4342
 2849SOL    HW220007   0.769   4.129  17.306  1.6648  1.7494  0.3795
 2850SOL     OW20008   0.369   3.081   9.172 -0.5532  0.4048 -0.4216
 2850SOL    HW120009   0.386   3.129   9.091 -2.7175 -1.6190 -2.0996
 2850SOL    HW220010   0.441   3.125   9.217 -0.0080  0.2406 -1.1317
 2851SOL     OW20011   4.260   2.200   4.019 -1.0078 -0.0305 -0.2246
 2851SOL    HW120012   4.346   2.231   3.992 -0.9570 -0.4978 -0.6016
 2851SOL    HW220013   4.266   2.195   4.114 -0.9775  1.2477 -0.1634
 2852SOL     OW20014   2.253   0.105   2.201 -0.2524  0.1252 -0.3283
 2852SOL    HW120015   2.343   0.126   2.223  0.1442 -1.1234 -0.7425
 2852SOL    HW220016   2.259   0.018   2.242  5.3653  0.8536  0.4235
 2853SOL     OW20017   1.974   1.679   7.615 -0.1919  0.2355  0.0888
 2853SOL    HW120018   2.009   1.761   7.651 -0.2124  0.6199 -0.7790
 2853SOL    HW220019   1.879   1.681   7.626 -0.2404  0.9382 -0.4864
 2854SOL     OW20020   0.176   2.869   8.448 -0.0762  0.1741  0.2841
 2854SOL    HW120021   0.139   2.783   8.427  0.5529 -0.5749  2.3258
 2854SOL    HW220022   0.102   2.923   8.475  1.3628  2.1177  0.3154
 2855SOL     OW20023   2.276   2.519   7.547  0.1990 -0.5669 -0.5177
 2855SOL    HW120024   2.344   2.539   7.610  0.5869 -0.3081 -1.0221
 2855SOL    HW220025   2.275   2.423   7.554 -0.1728 -0.3584  2.3273
 2856SOL     OW20026   2.262   4.633   5.675 -0.1842 -0.1746  0.0294
 2856SOL    HW120027   2.210   4.574   5.621 -1.0838  0.1384  0.5620
 2856SOL    HW220028   2.344   4.627   5.626  0.3926 -1.6249  1.1810
 2857SOL     OW20029   2.717   2.847  10.979 -0.2005 -0.2052 -0.3337
 2857SOL    HW120030   2.791   2.897  11.014 -0.3823 -0.3245  0.2193
 2857SOL    HW220031   2.677   2.903  10.912 -0.9017  2.4800  2.3647
 2858SOL     OW20032   4.501   0.374   4.924  0.5662 -0.8732  0.2710
 2858SOL    HW120033   4.557   0.356   4.848  1.0375 -2.8025  1.0787
 2858SOL    HW220034   4.450   0.438   4.874  2.3682  1.3886  1.3453
 2859SOL     OW20035   1.603   0.347   9.034 -0.3261  0.3990  0.0533
 2859SOL    HW120036   1.657   0.270   9.018 -1.1940  0.5616 -3.6461
 2859SOL    HW220037   1.623   0.406   8.961  0.4556  2.2244  1.7106
 2860SOL     OW20038   2.920   3.360   2.508  0.8087  0.6020 -0.0956
 2860SOL    HW120039   2.840   3.359   2.560 -0.3253  0.5254 -1.8463
 2860SOL    HW220040   2.903   3.389   2.418  1.0140  1.6634  0.2108
 2861SOL     OW20041   3.318   2.630  11.092 -0.0442  0.7136 -0.1170
 2861SOL    HW120042   3.320   2.661  11.183  1.0182 -1.8971  0.7451
 2861SOL    HW220043   3.403   2.663  11.062 -0.5504  1.6350 -0.5412
 2862SOL     OW20044   4.640   4.331   3.360  0.2624 -0.3931 -0.0436
 2862SOL    HW120045   4.610   4.420   3.339 -0.9348 -0.6455  0.5600
 2862SOL    HW220046   4.571   4.293   3.415 -2.1709  1.4519 -1.7777
 2863SOL     OW20047   0.339   1.030   7.105 -0.2189  0.4426 -0.0544
 2863SOL    HW120048   0.277   1.097   7.078 -1.3450 -0.5982 -0.0499
 2863SOL    HW220049   0.368   1.052   7.194 -2.2998 -2.2071  1.2725
 2864SOL     OW20050   2.302   1.893  11.216 -0.0231 -0.0124  0.2976
 2864SOL    HW120051   2.336   1.907  11.128 -1.1330 -0.0944 -0.1461
 2864SOL    HW220052   2.211   1.923  11.216 -0.8725 -2.5432 -2.4463
 2865SOL     OW20053   3.609   3.510   4.670  0.0683 -0.3459 -0.5869
 2865SOL    HW120054   3.618   3.419   4.640 -0.1105  0.2485 -2.4388
 2865SOL    HW220055   3.660   3.560   4.607  0.5412 -0.2369 -0.1173
 2866SOL     OW20056   0.847   2.570   5.584 -0.0509  0.2012 -0.3655
 2866SOL    HW120057   0.924   2.554   5.638 -0.1416 -0.4690 -0.4440
 2866SOL    HW220058   0.888   2.560   5.498  0.0808  1.9773 -0.5164
 2867SOL     OW20059   1.348   2.442   4.580 -0.3591  0.0796 -0.3809
 2867SOL    HW120060   1.317   2.532   4.567  3.3530  1.3107 -0.5884
 2867SOL    HW220061   1.293   2.401   4.513 -0.3116 -2.0803  0.8943
 2868SOL     OW20062   1.330   1.021   3.657 -0.2877 -0.3710  0.0070
 2868SOL    HW120063   1.312   1.103   3.611  0.2354 -0.0581  0.3747
 2868SOL    HW220064   1.422   0.999   3.640  0.4059  1.2221  1.8290
 2869SOL     OW20065   4.089   3.751   1.786 -0.4475 -0.5707 -0.6789
 2869SOL    HW120066   4.125   3.825   1.835 -1.4488 -0.3177 -0.3358
 2869SOL    HW220067   4.152   3.744   1.714 -0.4288 -4.7407 -0.2347
 2870SOL     OW20068   4.664   4.247   6.937 -0.3165  0.4231  0.4597
 2870SOL    HW120069   4.623   4.208   7.015 -1.7018  1.7589  0.3976
 2870SOL    HW220070   4.605   4.319   6.919  1.0242  1.8450  1.7306
 2871SOL     OW20071   0.856   3.879  13.422 -0.2538 -0.3301 -0.3882
 2871SOL    HW120072   0.840   3.827  13.343 -1.5988  0.5222 -0.6648
 2871SOL    HW220073   0.936   3.929  13.407 -0.1462 -0.8959 -1.7343
 2872SOL     OW20074   4.508   3.339  12.506 -0.1267  0.2898 -0.7997
 2872SOL    HW120075   4.433   3.358  12.449 -1.4734  1.7627  1.4740
 2872SOL    HW220076   4.467   3.354  12.591  0.3150 -1.6908 -0.2389
 2873SOL     OW20077   2.882   0.891   6.944  0.6725 -0.1437 -0.2619
 2873SOL    HW120078   2.867   0.821   6.880 -1.8946  1.6513 -1.6131
 2873SOL    HW220079   2.978   0.882   6.946  0.8456  1.8011  0.2286
 2874SOL     OW20080   4.019   4.136   1.007  0.2000  0.6392  0.2387
 2874SOL    HW120081   4.102   4.183   0.998  0.5032  0.0058 -0.3171
 2874SOL    HW220082   3.990   4.121   0.917  0.4716  0.8739  0.1124
 2875SOL     OW20083   2.808   1.967   4.501  0.2417 -0.3661 -0.4812
 2875SOL    HW120084   2.729   1.986   4.552  0.9418 -0.2020  0.5300
 2875SOL    HW220085   2.878   2.024   4.533  1.0924 -1.0443 -1.1309
 2876SOL     OW20086   0.339   0.508   0.995 -0.0430 -0.0262 -0.0632
 2876SOL    HW120087   0.248   0.496   1.021 -0.1461 -0.7608 -0.7752
 2876SOL    HW220088   0.347   0.598   1.027 -0.3174 -0.2337  0.6043
 2877SOL     OW20089   1.958   1.703   3.286  0.2739 -0.1585 -0.2849
 2877SOL    HW120090   1.880   1.660   3.320  1.4899 -1.4640  0.8406
 2877SOL    HW220091   1.996   1.629   3.239 -0.5256  0.3776 -1.8062
 2878SOL     OW20092   3.128   3.893   5.573 -0.4155  0.1947  0.1391
 2878SOL    HW120093   3.120   3.799   5.583  0.0208 -0.1340 -2.6318
 2878SOL    HW220094   3.045   3.921   5.611 -1.1365 -0.6673 -0.8003
 2879SOL     OW20095   0.577   2.302   2.647 -0.7198 -0.0046  0.1282
 2879SOL    HW120096   0.567   2.318   2.741 -2.0569 -3.0684  0.4814
 2879SOL    HW220097   0.667   2.335   2.636 -0.9728  0.0518 -1.7779
 2880SOL     OW20098   0.591   4.307  12.645 -0.5893 -0.3453 -0.1715
 2880SOL    HW120099   0.518   4.292  12.585  0.9118 -0.5511 -1.9198
 2880SOL    HW220100   0.667   4.312  12.587 -1.9306  4.2581 -1.5613
 2881SOL     OW20101   0.924   4.575   3.416 -0.2859 -0.5001 -0.8186
 2881SOL    HW120102   0.937   4.497   3.361 -2.6978 -1.3301 -0.2181
 2881SOL    HW220103   0.828   4.579   3.414 -0.3778 -1.8538  0.8324
 2882SOL     OW20104   0.240   3.566  10.516  0.4654 -0.2249  0.1152
 2882SOL    HW120105   0.332   3.576  10.494 -0.0079  2.9645 -0.3241
 2882SOL    HW220106   0.241   3.625  10.591 -3.0363 -0.7969  0.6335
 2883SOL     OW20107   1.428   0.306   6.409 -0.2441 -1.1429  0.1822
 2883SOL    HW120108   1.354   0.358   6.440  1.4091  0.7136  1.0668
 2883SOL    HW220109   1.489   0.319   6.482  2.5658  0.8479 -2.4847
 2884SOL     OW20110   3.054   2.801   1.943  0.0836 -0.4977 -0.2876
 2884SOL    HW120111   3.110   2.781   2.018 -1.7995  1.2921  1.5644
 2884SOL    HW220112   3.065   2.725   1.886 -0.4686 -1.0579  0.3684
 2885SOL     OW20113   2.890   2.736   4.959 -0.6610  0.6398  0.1761
 2885SOL    HW120114   2.915   2.656   5.006 -2.1381 -0.1849 -0.4364
 2885SOL    HW220115   2.952   2.796   5.001  1.0947  1.3812 -3.4456
 2886SOL     OW20116   0.545   3.384   6.862  0.1001  0.4091 -0.4778
 2886SOL    HW120117   0.489   3.319   6.819  0.8695 -1.2976  1.0633
 2886SOL    HW220118   0.582   3.431   6.787 -0.5454 -0.9580 -1.6652
 2887SOL     OW20119   2.200   0.880  12.297 -0.0303  0.2451 -0.7290
 2887SOL    HW120120   2.179   0.787  12.292 -0.0962  0.1906  0.8346
 2887SOL    HW220121   2.295   0.889  12.288  0.0192 -0.0781 -0.5136
 2888SOL     OW20122   2.894   2.577  10.896  0.5376  0.2334  0.5025
 2888SOL    HW120123   2.823   2.630  10.930  1.1808  1.0514  0.5676
 2888SOL    HW220124   2.968   2.597  10.954 -1.1125  1.3402  2.2192
 2889SOL     OW20125   4.216   3.876   3.706 -0.2224  0.1218  0.6526
 2889SOL    HW120126   4.175   3.793   3.681  1.8796  0.1881 -2.9194
 2889SOL    HW220127   4.143   3.937   3.698 -0.4512 -0.0492  1.3578
 2890SOL     OW20128   0.840   4.385   7.945  0.1624  0.2366 -0.4686
 2890SOL    HW120129   0.893   4.388   7.865 -1.4753 -3.0373 -1.6646
 2890SOL    HW220130   0.760   4.343   7.913 -0.9752  1.5000  0.7048
 2891SOL     OW20131   0.120   4.274  11.452  0.2926 -0.5322  0.2838
 2891SOL    HW120132   0.111   4.294  11.359 -2.1846 -2.0815  0.1780
 2891SOL    HW220133   0.200   4.318  11.482  0.7409 -0.6013 -0.8074
 2892SOL     OW20134   4.338   2.429   2.417 -0.0475 -0.1886 -0.3175
 2892SOL    HW120135   4.247   2.402   2.401 -0.7335  0.8686  1.7255
 2892SOL    HW220136   4.326   2.520   2.389 -1.0284 -0.0395  0.5595
 2893SOL     OW20137   0.956   1.131  12.274  0.1481  0.9904 -0.3903
 2893SOL    HW120138   0.872   1.084  12.277  0.1560  1.0556  1.0377
 2893SOL    HW220139   0.998   1.085  12.347  1.7291  1.5263 -0.9647
 2894SOL     OW20140   1.957   3.198   4.146 -0.6738  0.2979 -0.3842
 2894SOL    HW120141   2.023   3.223   4.210 -0.0403 -0.8465 -0.5942
 2894SOL    HW220142   1.995   3.234   4.066 -2.1887  1.1362 -0.7363
 2895SOL     OW20143   1.865   3.714  10.707 -0.4896  0.4235  0.5386
 2895SOL    HW120144   1.955   3.742  10.688 -0.5178 -1.4376 -2.4313
 2895SOL    HW220145   1.883   3.621  10.719 -1.4792  0.4284  2.0696
 2896SOL     OW20146   3.289   1.027   7.740  0.4797 -0.5654  0.0786
 2896SOL    HW120147   3.200   1.060   7.749  1.1010  0.7909  1.1764
 2896SOL    HW220148   3.342   1.106   7.752  1.0038 -0.6347 -1.8043
 2897SOL     OW20149   3.848   0.104   4.336 -0.1240  0.3673 -0.2842
 2897SOL    HW120150   3.780   0.085   4.272 -0.1265  0.5661 -0.3392
 2897SOL    HW220151   3.810   0.179   4.382 -0.6293 -0.2423  0.2873
 2898SOL     OW20152   2.991   1.517   8.296  0.2972  0.6997  0.4876
 2898SOL    HW120153   3.055   1.459   8.338  1.5750 -0.1253 -2.5428
 2898SOL    HW220154   3.002   1.598   8.345  0.6441 -0.2426  1.9423
 2899SOL     OW20155   1.378   2.877   5.663  0.1700 -0.1147 -0.3951
 2899SOL    HW120156   1.427   2.878   5.582  1.8620  0.3883  0.6348
 2899SOL    HW220157   1.392   2.784   5.681 -1.8116 -0.1219  1.1336
 2900SOL     OW20158   0.576   3.723   6.373 -0.6405 -0.1569  0.0275
 2900SOL    HW120159   0.546   3.646   6.326  1.6892 -0.9810 -0.0998
 2900SOL    HW220160   0.663   3.696   6.403 -0.0626  2.4506  0.6919
 2901SOL     OW20161   1.680   0.133   9.671  0.2724  0.4885  0.4397
 2901SOL    HW120162   1.668   0.168   9.583 -0.3988  0.6576  0.5989
 2901SOL    HW220163   1.597   0.160   9.710 -0.1896 -1.6458  0.9295
 2902SOL     OW20164   2.885   0.820   3.703 -0.1296  0.4283 -0.2586
 2902SOL    HW120165   2.859   0.771   3.781  0.7466 -0.9126 -0.8048
 2902SOL    HW220166   2.831   0.898   3.710  0.3058  0.7910 -0.9784
 2903SOL     OW20167   1.674   2.786   6.201  0.2017  0.2401  0.4756
 2903SOL    HW120168   1.761   2.825   6.211 -0.2283  0.9424  1.4471
 2903SOL    HW220169   1.633   2.857   6.150  2.3978  0.7870 -0.5430
 2904SOL     OW20170   2.775   4.355   7.037  0.1006 -0.1193 -0.3112
 2904SOL    HW120171   2.839   4.284   7.038  1.8492  1.4596 -0.3834
 2904SOL    HW220172   2.829   4.428   7.006  1.9240 -0.5389  1.8669
 2905SOL     OW20173   2.142   2.536   9.900  0.1048 -0.0325 -0.2132
 2905SOL    HW120174   2.085   2.476   9.948  0.6589  1.8387  2.7985
 2905SOL    HW220175   2.202   2.470   9.866 -0.0063 -0.9386  1.3285
 2906SOL     OW20176   0.262   1.802  12.365  0.0675  0.6738 -0.2487
 2906SOL    HW120177   0.302   1.862  12.427 -0.5007  0.8328 -0.0319
 2906SOL    HW220178   0.199   1.771  12.431  0.1214  0.3403 -0.3544
 2907SOL     OW20179   3.377   0.721  11.716  0.1047  0.2511  0.6620
 2907SOL    HW120180   3.349   0.775  11.790 -1.7884  0.1250  0.0463
 2907SOL    HW220181   3.299   0.703  11.664 -1.0799  0.4906  2.3787
 2908SOL     OW20182   4.237   4.232  12.896  0.3335 -0.1218 -0.6513
 2908SOL    HW120183   4.233   4.268  12.807  0.8414 -0.0652 -0.6544
 2908SOL    HW220184   4.144   4.227  12.918  0.1360 -1.5301 -1.8019
 2909SOL     OW20185   3.042   2.307  11.285  0.0286  0.2480  0.0547
 2909SOL    HW120186   3.078   2.273  11.367 -0.5831  0.5576  0.4516
 2909SOL    HW220187   2.955   2.337  11.312  0.6050  1.0700  0.9915
 2910SOL     OW20188   0.852   3.547   6.714 -0.1826  0.5984 -0.7689
 2910SOL    HW120189   0.782   3.510   6.661 -0.2210 -1.0319  0.4075
 2910SOL    HW220190   0.867   3.629   6.667  0.6644  1.5703  1.1572
 2911SOL     OW20191   4.485   3.616   3.878 -0.4150  0.5789  0.5010
 2911SOL    HW120192   4.476   3.701   3.922  0.6508  1.1878 -0.4396
 2911SOL    HW220193   4.533   3.573   3.949 -0.7112  0.1505  0.4429
 2912SOL     OW20194   2.649   0.939  12.467  0.1036  0.0274 -0.1949
 2912SOL    HW120195   2.693   0.976  12.543  2.2006  0.8693 -1.8008
 2912SOL    HW220196   2.721   0.888  12.428  1.1842  0.2003  1.5878
 2913SOL     OW20197   0.479   1.222  16.352  0.4410 -0.3410 -0.9781
 2913SOL    HW120198   0.406   1.191  16.298 -0.1103 -1.4902  0.4251
 2913SOL    HW220199   0.550   1.182  16.302 -1.0478  0.9145 -4.0997
 2914SOL     OW20200   4.020   4.225   7.113 -0.1550 -0.3625 -0.3758
 2914SOL    HW120201   3.928   4.234   7.090 -0.6595  0.8320  2.1730
 2914SOL    HW220202   4.027   4.265   7.200  1.7812  1.2123 -1.2519
 2915SOL     OW20203   4.125   1.460  15.546  0.6554 -0.0866 -0.0483
 2915SOL    HW120204   4.207   1.466  15.595  1.8351  0.4360 -2.0865
 2915SOL    HW220205   4.159   1.458  15.456  0.4666  0.2492 -0.1287
 2916SOL     OW20206   4.157   3.977   7.185 -0.1359  0.3692  0.0471
 2916SOL    HW120207   4.106   4.055   7.162 -0.4732 -0.0522 -0.6424
 2916SOL    HW220208   4.231   3.985   7.125  1.4858 -0.6043  1.9029
 2917SOL     OW20209   0.136   2.372   3.173 -0.1289 -0.9915  0.1398
 2917SOL    HW120210   0.216   2.345   3.218  0.5004 -0.5115 -0.7032
 2917SOL    HW220211   0.141   2.316   3.096  0.5912 -0.6875 -0.0307
 2918SOL     OW20212   3.020   4.588  14.415 -0.1433  0.0649 -0.3785
 2918SOL    HW120213   3.040   4.621  14.328 -2.1363 -0.4540 -1.0335
 2918SOL    HW220214   3.089   4.631  14.467 -0.8459 -0.5552  1.0766
 2919SOL     OW20215   2.513   3.919   5.436  0.4965  0.1171 -0.4640
 2919SOL    HW120216   2.596   3.915   5.388  0.6749 -0.4669 -0.0992
 2919SOL    HW220217   2.492   4.012   5.423 -0.5805  0.0407  0.7302
 2920SOL     OW20218   2.127   3.231  17.408  0.4385 -0.0510  0.5068
 2920SOL    HW120219   2.068   3.178  17.461 -1.2753 -0.0344 -1.3733
 2920SOL    HW220220   2.208   3.181  17.413  0.3539 -0.0952  1.4424
 2921SOL     OW20221   0.135   4.630  11.470  0.0600 -0.2080 -0.1358
 2921SOL    HW120222   0.125   4.536  11.483 -1.7149 -0.0041 -0.1537
 2921SOL    HW220223   0.193   4.635  11.547 -1.2750  1.3433  0.7701
 2922SOL     OW20224   3.823   2.958   7.898 -0.1392 -0.2180  0.1877
 2922SOL    HW120225   3.875   2.947   7.818  0.4584  1.2966  0.3676
 2922SOL    HW220226   3.737   2.967   7.857  0.3111  0.1387 -0.6978
 2923SOL     OW20227   0.124   2.157   6.653 -0.2105 -0.1183 -0.3531
 2923SOL    HW120228   0.094   2.135   6.564 -0.6770 -2.2025  0.3178
 2923SOL    HW220229   0.163   2.071   6.668  1.2950  0.6112 -0.1134
 2924SOL     OW20230   4.695   4.380   5.737  0.1688 -0.4386  0.3689
 2924SOL    HW120231   0.065   4.372   5.725  0.2111 -2.2560  1.9967
 2924SOL    HW220232   4.688   4.457   5.680 -1.0530 -1.2334 -0.5479
 2925SOL     OW20233   2.906   3.055  11.050  0.0882 -0.4115  0.4252
 2925SOL    HW120234   2.919   3.130  10.991  1.3329 -0.7781  0.2208
 2925SOL    HW220235   2.981   2.996  11.037  0.1211  0.2044 -2.2325
 2926SOL     OW20236   4.098   2.370   3.372 -0.8150 -0.1153  0.0218
 2926SOL    HW120237   4.149   2.450   3.376  4.0314 -3.2008  0.2051
 2926SOL    HW220238   4.120   2.343   3.283  0.4926  0.5913  0.1371
 2927SOL     OW20239   3.970   3.552   8.675  0.0521 -0.5050  0.0718
 2927SOL    HW120240   4.011   3.500   8.744 -1.6983 -1.8994  0.0677
 2927SOL    HW220241   3.880   3.546   8.706 -0.2301 -2.0237 -1.0173
 2928SOL     OW20242   3.616   0.604   1.705  0.0543 -0.5497  0.1085
 2928SOL    HW120243   3.677   0.556   1.761 -0.0028 -0.9854 -0.2041
 2928SOL    HW220244   3.680   0.620   1.637  1.8178 -0.7763  1.7313
 2929SOL     OW20245   2.815   3.117   5.209  0.2015 -0.4052  0.5798
 2929SOL    HW120246   2.806   3.159   5.124 -3.0798 -1.3625  0.4463
 2929SOL    HW220247   2.791   3.192   5.264 -1.7069 -0.8533  0.3468
 2930SOL     OW20248   1.045   0.987  12.479 -0.2594  0.0507  0.2410
 2930SOL    HW120249   1.042   1.052  12.550 -0.1321 -0.9741  1.1780
 2930SOL    HW220250   0.969   0.929  12.487  0.9161 -1.5794 -0.4332
 2931SOL     OW20251   3.536   3.149  17.149 -0.4999 -0.1555 -0.3116
 2931SOL    HW120252   3.529   3.186  17.061  2.1765  2.1870  0.4516
 2931SOL    HW220253   3.618   3.183  17.183 -1.5099  1.3568  0.6367
 2932SOL     OW20254   0.677   1.152   3.345 -0.4232 -0.1345 -0.0088
 2932SOL    HW120255   0.702   1.194   3.427 -3.5265 -1.1254  1.4515
 2932SOL    HW220256   0.762   1.125   3.313  0.4426  1.3060  1.0855
 2933SOL     OW20257   4.414   2.503   4.388  0.2119  0.2917 -0.6662
 2933SOL    HW120258   4.480   2.523   4.321  1.6245  1.4670  1.0619
 2933SOL    HW220259   4.456   2.532   4.469 -0.2369 -0.5611 -0.1328
 2934SOL     OW20260   1.978   3.332  14.204 -0.5840 -0.1907  0.2747
 2934SOL    HW120261   2.063   3.294  14.224 -0.0645  0.6232 -0.4190
 2934SOL    HW220262   1.917   3.271  14.246 -0.7420 -0.0583  0.2409
 2935SOL     OW20263   0.086   4.129   4.679 -0.0582  0.7828  0.4946
 2935SOL    HW120264   0.068   4.206   4.626 -0.0682  1.2031  1.1008
 2935SOL    HW220265   4.719   4.103   4.684  0.0666 -0.4098 -3.5880
 2936SOL     OW20266   3.760   1.110  15.305  0.3142 -0.3123 -0.1802
 2936SOL    HW120267   3.824   1.159  15.252  1.2263 -3.2674 -1.7876
 2936SOL    HW220268   3.806   1.080  15.383 -1.8140 -1.4926  0.6175
 2937SOL     OW20269   1.507   4.234   3.730 -0.1937  0.2979 -0.2511
 2937SOL    HW120270   1.587   4.273   3.694 -1.1068  0.2894 -2.3030
 2937SOL    HW220271   1.462   4.318   3.737  2.8269  1.7702  1.8173
 2938SOL     OW20272   4.555   3.783   9.985  0.1755 -0.3891  0.1040
 2938SOL    HW120273   4.534   3.832  10.064 -0.5552 -1.0753  0.3423
 2938SOL    HW220274   4.521   3.830   9.909 -0.8324  0.2736  0.9740
 2939SOL     OW20275   3.542   1.327   7.454  0.3977  0.5792 -0.8267
 2939SOL    HW120276   3.486   1.387   7.503 -0.3233 -1.5591  1.0084
 2939SOL    HW220277   3.568   1.264   7.522  1.0985  1.7587 -0.0058
 2940SOL     OW20278   4.647   2.298   6.753 -0.0837 -0.7461 -0.0423
 2940SOL    HW120279   4.647   2.240   6.830  1.9892 -0.9038 -0.1513
 2940SOL    HW220280   4.721   2.266   6.700  0.5349  0.6580 -0.0194
 2941SOL     OW20281   4.629   1.266   5.533  0.4107  0.3979  0.1471
 2941SOL    HW120282   4.628   1.316   5.615 -0.2710 -0.4336  0.6454
 2941SOL    HW220283   4.540   1.261   5.498  0.5211 -0.8036  0.0562
 2942SOL     OW20284   1.869   2.173   2.473  0.0704  0.1812  0.2784
 2942SOL    HW120285   1.942   2.213   2.426  1.7231 -0.4043  2.3505
 2942SOL    HW220286   1.858   2.241   2.539 -0.1072 -0.0095  0.4429
 2943SOL     OW20287   4.343   4.669  10.960  0.2407  0.0662  0.2907
 2943SOL    HW120288   4.380   4.601  10.904  0.6476  1.0231 -0.6116
 2943SOL    HW220289   4.424   4.698  11.001  0.6867  0.0462 -0.5696
 2944SOL     OW20290   2.101   0.175   1.543  0.0079  0.7982  0.0616
 2944SOL    HW120291   2.015   0.185   1.503  0.1448 -0.3801 -0.5394
 2944SOL    HW220292   2.101   0.079   1.546  0.9382  0.8195  0.6802
 2945SOL     OW20293   2.344   1.416   0.710 -0.1508 -0.6889 -0.5180
 2945SOL    HW120294   2.438   1.408   0.690  0.0094 -0.6618  0.2371
 2945SOL    HW220295   2.344   1.511   0.722  1.3801 -0.3068 -3.2934
 2946SOL     OW20296   1.402   3.529   4.069  0.1351 -0.5761  0.4847
 2946SOL    HW120297   1.473   3.591   4.085 -0.3674 -0.0777  0.7901
 2946SOL    HW220298   1.437   3.442   4.050  0.1803 -0.4855  0.1557
 2947SOL     OW20299   4.026   3.691   6.098  0.1578  0.4404  0.2729
 2947SOL    HW120300   4.028   3.677   6.193 -0.3094 -4.0767 -0.3402
 2947SOL    HW220301   4.114   3.722   6.081 -0.0303  0.3480 -0.8196
 2948SOL     OW20302   4.512   1.529   4.003 -0.2227  0.1753 -0.1905
 2948SOL    HW120303   4.460   1.460   4.045  0.8234 -0.0942  0.6736
 2948SOL    HW220304   4.575   1.560   4.068 -2.1978 -0.5790  2.1011
 2949SOL     OW20305   4.001   4.628  15.853 -0.4079 -0.0957 -0.1122
 2949SOL    HW120306   3.955   4.622  15.770 -1.3752 -0.1836  0.4371
 2949SOL    HW220307   4.040   4.712  15.831 -1.1796  0.2792 -0.0379
 2950SOL     OW20308   2.904   0.868  14.109 -0.1280  0.0472 -0.4208
 2950SOL    HW120309   2.879   0.804  14.042 -1.0448  1.1841 -1.1826
 2950SOL    HW220310   2.836   0.934  14.093  1.2560  1.2852 -1.1188
 2951SOL     OW20311   0.971   1.758   7.041 -0.4170  0.2485 -0.3791
 2951SOL    HW120312   0.996   1.689   7.103 -1.3540 -2.4727 -3.0386
 2951SOL    HW220313   0.938   1.825   7.100  2.0590  0.6352  0.5735
 2952SOL     OW20314   0.337   1.436   6.193 -0.2103 -0.0726 -0.1497
 2952SOL    HW120315   0.300   1.376   6.257 -1.4107 -0.1513 -0.9212
 2952SOL    HW220316   0.404   1.372   6.168  0.2761 -0.1625  1.3815
 2953SOL     OW20317   0.172   3.090  12.211 -0.4734 -0.5060 -0.1432
 2953SOL    HW120318   0.100   3.135  12.166  0.5308  0.3662 -0.8860
 2953SOL    HW220319   0.133   3.087  12.298 -3.2843  0.0991 -1.3874
 2954SOL     OW20320   4.376   1.533   9.013 -0.1070 -0.1342 -0.0263
 2954SOL    HW120321   4.389   1.540   9.108 -1.2423  1.0410  0.0575
 2954SOL    HW220322   4.294   1.483   9.008 -0.8456  0.9946  0.6386
 2955SOL     OW20323   0.077   3.612   5.099 -0.2211 -0.3163  0.0799
 2955SOL    HW120324   0.151   3.591   5.157 -1.5957 -1.2814  1.4707
 2955SOL    HW220325   0.002   3.584   5.151 -3.6092  0.5022 -4.3367
 2956SOL     OW20326   1.682   1.516   0.171  0.0773  0.2931 -0.3497
 2956SOL    HW120327   1.653   1.547   0.257  0.1769  1.2582 -0.6650
 2956SOL    HW220328   1.624   1.440   0.168  0.8910 -0.2855 -1.1419
 2957SOL     OW20329   0.986   4.544   5.610  0.4357 -0.3877 -0.0556
 2957SOL    HW120330   0.980   4.639   5.605 -0.5685 -0.4479  0.1446
 2957SOL    HW220331   1.069   4.520   5.653  0.5944  0.1168 -0.0869
 2958SOL     OW20332   2.206   2.273   6.003  0.4769 -0.1180 -1.2864
 2958SOL    HW120333   2.195   2.316   6.088  0.4340  1.9063 -2.3209
 2958SOL    HW220334   2.259   2.336   5.954 -2.0070  0.3898 -3.2719
 2959SOL     OW20335   4.176   1.879  17.369 -0.1462  0.0855 -0.0559
 2959SOL    HW120336   4.188   1.962  17.414  0.8178  0.2965 -0.7006
 2959SOL    HW220337   4.084   1.887  17.344 -0.2057  1.5622  0.6200
 2960SOL     OW20338   4.122   2.445   2.934 -0.3132  0.0365 -0.4612
 2960SOL    HW120339   4.175   2.525   2.937 -1.9915  1.1490 -0.2065
 2960SOL    HW220340   4.104   2.440   2.840  0.7539 -3.7183 -0.4295
 2961SOL     OW20341   2.701   1.975  17.629  0.7566 -0.3604  0.2947
 2961SOL    HW120342   2.699   1.977  17.534  0.4717  1.1212  0.3363
 2961SOL    HW220343   2.757   2.050  17.650  1.9543 -1.1919  0.0733
 2962SOL     OW20344   1.618   2.853   5.082  0.2529 -0.4181  0.1855
 2962SOL    HW120345   1.578   2.940   5.076  1.8333  0.2852  0.0183
 2962SOL    HW220346   1.671   2.839   5.004 -0.3099  1.5246 -0.5497
 2963SOL     OW20347   3.515   3.930  11.243  0.5378 -0.0082  0.0162
 2963SOL    HW120348   3.479   3.851  11.203 -0.9231  0.5506  0.2113
 2963SOL    HW220349   3.571   3.897  11.313  1.1560  2.3836  0.6431
 2964SOL     OW20350   3.987   3.146  12.673  0.2625 -0.4054  1.1825
 2964SOL    HW120351   4.003   3.081  12.742  0.0660 -1.3216  0.3657
 2964SOL    HW220352   3.909   3.112  12.629  0.3029  0.0768  0.7379
 2965SOL     OW20353   3.084   1.727   8.444  0.4059  0.1253  0.0740
 2965SOL    HW120354   3.010   1.722   8.505  2.9234 -3.3286  2.8564
 2965SOL    HW220355   3.161   1.718   8.500  0.6143 -0.7351 -0.3529
 2966SOL     OW20356   2.541   0.725   6.593 -0.0155 -0.2976  0.2142
 2966SOL    HW120357   2.537   0.820   6.597 -0.0050 -0.2547 -0.9788
 2966SOL    HW220358   2.539   0.706   6.687 -1.7555  0.5914  0.3443
 2967SOL     OW20359   2.025   4.049  13.294  0.1376 -0.6233 -0.3620
 2967SOL    HW120360   1.977   4.115  13.344  1.6193  2.0128 -2.4186
 2967SOL    HW220361   1.973   4.038  13.215  1.4277  1.2976 -1.4738
 2968SOL     OW20362   2.404   3.727  14.288  0.0855  0.2894 -0.3506
 2968SOL    HW120363   2.337   3.727  14.220 -0.3729  0.9935  0.1000
 2968SOL    HW220364   2.359   3.666  14.346  2.2749 -1.7025 -0.7219
 2969SOL     OW20365   1.346   2.298   6.595  0.4947  0.0294 -0.0082
 2969SOL    HW120366   1.328   2.205   6.584  0.5073  0.3644 -2.6940
 2969SOL    HW220367   1.302   2.329   6.516 -1.0423  0.5700  1.0623
 2970SOL     OW20368   0.298   4.281   3.355 -0.4957  0.7323  0.6729
 2970SOL    HW120369   0.370   4.220   3.372 -0.7693  0.1676 -0.1838
 2970SOL    HW220370   0.306   4.277   3.259 -0.2264  0.9615  0.6864
 2971SOL     OW20371   2.962   0.594  15.328 -0.3323 -0.1198  0.1466
 2971SOL    HW120372   2.893   0.535  15.356  1.7459 -2.4075  0.4681
 2971SOL    HW220373   2.995   0.618  15.415 -1.3553  0.8599  0.2549
 2972SOL     OW20374   2.228   3.704  11.280 -0.3288  0.6733 -0.7273
 2972SOL    HW120375   2.140   3.734  11.303 -0.1791  1.3711 -1.0711
 2972SOL    HW220376   2.222   3.630  11.340 -1.9186  2.1540  0.9469
 2973SOL     OW20377   0.940   0.233   7.257 -0.3894 -0.0661 -0.7880
 2973SOL    HW120378   0.925   0.143   7.230 -0.3604  0.1116 -1.3875
 2973SOL    HW220379   0.853   0.270   7.268  0.2566  0.3531  2.9089
 2974SOL     OW20380   4.460   0.807  14.229 -0.2454 -0.5306  0.4503
 2974SOL    HW120381   4.502   0.877  14.278  0.3175  0.8694 -2.0092
 2974SOL    HW220382   4.416   0.757  14.298 -0.2317 -0.2791  0.6381
 2975SOL     OW20383   2.394   4.250   8.806  0.5247 -0.3801  0.2235
 2975SOL    HW120384   2.326   4.316   8.792 -1.4079 -2.2220  0.8954
 2975SOL    HW220385   2.465   4.285   8.751  0.1382 -0.9426 -0.6339
 2976SOL     OW20386   0.925   0.772   5.224 -0.0549 -0.5978  0.3517
 2976SOL    HW120387   0.961   0.822   5.297 -1.9141  2.7213 -1.0069
 2976SOL    HW220388   0.958   0.683   5.231 -1.3378 -1.0575  0.4494
 2977SOL     OW20389   0.708   0.830   6.919 -0.4125 -0.3033 -0.0143
 2977SOL    HW120390   0.675   0.920   6.921  0.7159  0.1785 -3.9459
 2977SOL    HW220391   0.800   0.838   6.895 -0.0952  0.1294  1.3373
 2978SOL     OW20392   1.729   1.773   5.114 -0.1356  0.7703 -0.9242
 2978SOL    HW120393   1.781   1.850   5.137 -0.7402  1.0358 -0.4713
 2978SOL    HW220394   1.796   1.707   5.094 -1.3384 -0.6178 -0.4002
 2979SOL     OW20395   1.125   2.667  17.163 -0.5031  0.0253  0.0957
 2979SOL    HW120396   1.132   2.634  17.253  1.5666 -1.2703 -0.5182
 2979SOL    HW220397   1.212   2.705  17.151 -0.1058 -0.3113  1.8915
 2980SOL     OW20398   2.990   1.717   2.946 -0.4858 -0.2918 -0.4042
 2980SOL    HW120399   3.083   1.698   2.958 -0.2828  0.7762 -0.2700
 2980SOL    HW220400   2.975   1.800   2.993  0.9982 -0.0567 -0.3571
 2981SOL     OW20401   3.322   3.749   4.882 -0.1045 -0.0288 -0.1004
 2981SOL    HW120402   3.322   3.831   4.832  1.0156 -0.2372 -0.4501
 2981SOL    HW220403   3.341   3.690   4.809  0.5826  0.5086 -0.3573
 2982SOL     OW20404   2.314   3.206   4.120 -0.1528  0.3663 -0.7222
 2982SOL    HW120405   2.349   3.276   4.175 -1.2499 -0.3539  0.8827
 2982SOL    HW220406   2.271   3.161   4.193  1.2942  1.5936  0.8899
 2983SOL     OW20407   3.083   1.341   2.189 -0.0767  0.4092 -0.1946
 2983SOL    HW120408   3.118   1.276   2.250 -1.8783  0.3575  0.8121
 2983SOL    HW220409   3.164   1.371   2.150  0.3829 -1.1146 -0.4221
 2984SOL     OW20410   3.021   4.015   9.105  0.0280  0.2026  0.5005
 2984SOL    HW120411   3.099   3.983   9.059  0.4292  1.2988  0.4403
 2984SOL    HW220412   2.964   3.945   9.072  1.6728 -2.0241  2.3594
 2985SOL     OW20413   2.204   1.246   4.208 -0.7628  0.3370 -0.3869
 2985SOL    HW120414   2.224   1.203   4.292  0.4978 -0.5829 -1.1652
 2985SOL    HW220415   2.216   1.177   4.143 -0.1058 -0.1563  0.2510
 2986SOL     OW20416   1.782   0.590  16.610 -0.3506 -0.2638 -0.3354
 2986SOL    HW120417   1.730   0.664  16.640 -1.3566  0.3879 -3.7969
 2986SOL    HW220418   1.841   0.581  16.686  0.0114 -1.0895 -0.7072
 2987SOL     OW20419   2.720   4.522   5.984  0.5377  0.6440 -0.5288
 2987SOL    HW120420   2.648   4.510   5.923  0.3904 -1.1895  0.0011
 2987SOL    HW220421   2.776   4.448   5.960  0.5236  0.6982 -0.7302
 2988SOL     OW20422   2.770   3.124   7.249 -0.0805 -0.1232  0.1882
 2988SOL    HW120423   2.687   3.081   7.271 -0.7906  1.4294  0.5077
 2988SOL    HW220424   2.757   3.138   7.155  0.1702  2.3286  0.5278
 2989SOL     OW20425   4.252   0.095   3.717  0.1167 -0.0405  0.0249
 2989SOL    HW120426   4.310   0.084   3.642  1.3011 -0.9494  1.0873
 2989SOL    HW220427   4.309   0.051   3.780  1.1509 -1.6459 -2.0271
 2990SOL     OW20428   0.076   2.514   4.140 -0.3489 -0.5505 -0.2166
 2990SOL    HW120429   0.067   2.526   4.235  1.4360  0.2207 -0.1464
 2990SOL    HW220430   0.022   2.588   4.112  0.9230  0.2284 -0.6066
 2991SOL     OW20431   1.733   1.859   3.806 -0.4704 -0.4562  0.0307
 2991SOL    HW120432   1.729   1.919   3.881  0.9501  0.9294 -0.9883
 2991SOL    HW220433   1.708   1.778   3.850  0.0202  0.1880  1.5081
 2992SOL     OW20434   3.960   1.830   2.102 -0.3829 -0.5606 -0.0775
 2992SOL    HW120435   4.021   1.890   2.058 -0.9318 -0.3351 -0.5356
 2992SOL    HW220436   3.954   1.858   2.193 -0.7632  0.6146 -0.4641
 2993SOL     OW20437   4.453   2.769  14.849 -0.4375 -0.5719 -0.2116
 2993SOL    HW120438   4.473   2.712  14.775  1.0596  0.0125 -0.2654
 2993SOL    HW220439   4.383   2.717  14.887 -0.0685 -0.8106  0.1438
 2994SOL     OW20440   3.952   2.452   7.101 -0.1976 -0.0654  0.6509
 2994SOL    HW120441   4.031   2.398   7.097 -0.5877 -0.6532  0.8303
 2994SOL    HW220442   3.885   2.384   7.089  1.7610 -1.7282 -1.0028
 2995SOL     OW20443   2.704   2.642  12.910 -0.0481 -0.3619 -0.4565
 2995SOL    HW120444   2.692   2.602  12.996 -0.7334 -0.6178 -0.6701
 2995SOL    HW220445   2.798   2.661  12.913 -0.4159  1.1094  2.1253
 2996SOL     OW20446   0.524   0.322   5.649 -0.0184  0.8629  0.5223
 2996SOL    HW120447   0.550   0.230   5.658  0.7202  1.1982  1.9725
 2996SOL    HW220448   0.586   0.361   5.711  0.0388  0.5331  0.6735
 2997SOL     OW20449   4.280   3.168   3.698  0.2898  0.1279  0.4165
 2997SOL    HW120450   4.195   3.128   3.679 -0.8774  1.3237  3.2060
 2997SOL    HW220451   4.274   3.187   3.791  2.3638 -1.3115  0.8577
 2998SOL     OW20452   0.736   2.128   8.224 -0.0709  0.4072  0.0160
 2998SOL    HW120453   0.657   2.157   8.270 -0.9026 -3.4633  1.1235
 2998SOL    HW220454   0.704   2.066   8.158  1.0304 -0.2084  0.0542
 2999SOL     OW20455   2.410   1.255  13.812  0.4274  0.4174 -0.2869
 2999SOL    HW120456   2.332   1.310  13.808  0.9475  0.8875 -3.2842
 2999SOL    HW220457   2.479   1.312  13.778 -0.8864  0.8283 -2.2709
 3000SOL     OW20458   1.400   0.254   6.831 -0.2756  0.7034 -0.3575
 3000SOL    HW120459   1.362   0.340   6.816  0.3156  1.0489  0.1184
 3000SOL    HW220460   1.394   0.258   6.927  0.2577  3.4597 -0.4381
 3001SOL     OW20461   0.176   3.997   6.633  0.5541  0.0109 -0.0589
 3001SOL    HW120462   0.241   3.935   6.599 -0.3644  0.1247 -2.0252
 3001SOL    HW220463   0.215   4.083   6.645  1.1940 -0.3967  0.8129
 3002SOL     OW20464   3.828   0.903  16.524 -0.0530 -0.3631  0.3071
 3002SOL    HW120465   3.765   0.971  16.498 -0.0919 -0.9724 -1.1880
 3002SOL    HW220466   3.909   0.950  16.502  0.5093 -0.9076  1.2189
 3003SOL     OW20467   3.326   4.083   7.289 -0.9560 -0.5385 -0.0576
 3003SOL    HW120468   3.350   4.021   7.359 -1.6501 -0.4600  0.2500
 3003SOL    HW220469   3.249   4.124   7.328 -2.1997 -1.4241 -1.5886
 3004SOL     OW20470   0.974   2.365   7.842  0.0843 -0.0733 -0.7983
 3004SOL    HW120471   0.935   2.327   7.921  2.0707  0.3182  0.3718
 3004SOL    HW220472   0.981   2.292   7.781 -1.5488 -0.7706 -0.1399
 3005SOL     OW20473   2.873   2.331  12.971 -0.1226 -0.3113  0.1467
 3005SOL    HW120474   2.836   2.339  12.884 -0.4106 -1.4730  0.1659
 3005SOL    HW220475   2.898   2.421  12.992 -0.7344 -0.3877  1.2370
 3006SOL     OW20476   3.577   1.302  15.303 -0.7871  0.2760  0.0546
 3006SOL    HW120477   3.503   1.264  15.349 -1.5285  0.1744 -1.2271
 3006SOL    HW220478   3.653   1.248  15.326 -0.4324  0.5588 -0.4331
 3007SOL     OW20479   3.100   0.319   7.483  0.7072 -0.7362 -0.5864
 3007SOL    HW120480   3.049   0.337   7.404  0.3365  3.7618  0.6669
 3007SOL    HW220481   3.109   0.408   7.519 -2.1651  0.6987 -3.4025
 3008SOL     OW20482   3.595   2.505  13.452 -0.5298  0.7605 -0.4699
 3008SOL    HW120483   3.605   2.439  13.384 -2.8638 -0.7043  0.6257
 3008SOL    HW220484   3.503   2.500  13.477 -0.4721  1.4954 -0.1167
 3009SOL     OW20485   1.140   2.893   4.362 -0.3138  0.1427 -0.4604
 3009SOL    HW120486   1.215   2.887   4.422 -0.7072  0.4255  0.0628
 3009SOL    HW220487   1.112   2.982   4.381 -2.2459 -0.7872  1.0333
 3010SOL     OW20488   4.213   1.378  10.284  0.4905  0.3093 -0.0393
 3010SOL    HW120489   4.291   1.329  10.314 -1.9312 -0.6690  4.7497
 3010SOL    HW220490   4.218   1.383  10.189  1.2355 -1.8702 -0.1339
 3011SOL     OW20491   3.658   0.052  16.560 -0.1175  0.4388 -0.1536
 3011SOL    HW120492   3.667   4.683  16.540  3.3018  0.4331  1.3632
 3011SOL    HW220493   3.611   0.054  16.643 -1.3249  1.5842 -0.8667
 3012SOL     OW20494   2.493   4.501   9.188 -0.0657 -0.2910 -0.2079
 3012SOL    HW120495   2.568   4.453   9.153  0.0956  0.1116 -0.4148
 3012SOL    HW220496   2.508   4.488   9.281 -1.8853  0.7087  0.2229
 3013SOL     OW20497   2.793   4.385   8.329  0.3257  0.4979 -0.1888
 3013SOL    HW120498   2.800   4.336   8.247  0.2971  1.0838 -0.5400
 3013SOL    HW220499   2.857   4.335   8.381 -1.9656  0.6447  2.7382
 3014SOL     OW20500   3.748   0.926   5.431 -0.1285  0.2398 -0.0041
 3014SOL    HW120501   3.738   0.841   5.387 -0.2933 -0.7012  1.8284
 3014SOL    HW220502   3.723   0.983   5.359 -0.0146 -0.7280 -0.8025
 3015SOL     OW20503   2.427   1.548   3.590  0.0723  0.5437 -0.1464
 3015SOL    HW120504   2.375   1.627   3.575  1.9711  1.8508  0.2082
 3015SOL    HW220505   2.499   1.575   3.534  2.5571 -1.9554  1.8300
 3016SOL     OW20506   1.832   4.322   7.622  0.2869 -0.4737  0.2431
 3016SOL    HW120507   1.846   4.229   7.643  0.8682 -0.6291 -0.8263
 3016SOL    HW220508   1.798   4.319   7.532  0.4973  0.4132  0.1369
 3017SOL     OW20509   2.075   2.359   3.598 -0.0945 -0.7592  0.1518
 3017SOL    HW120510   1.986   2.389   3.576  0.0137 -0.6516 -0.1453
 3017SOL    HW220511   2.126   2.439   3.584 -1.1431 -0.1367 -0.1885
 3018SOL     OW20512   2.120   2.636   3.565  0.1886  0.3829  0.2429
 3018SOL    HW120513   2.121   2.729   3.588  2.8057  0.4417 -0.1238
 3018SOL    HW220514   2.026   2.617   3.566 -0.0039  1.3639  0.3766
 3019SOL     OW20515   2.461   4.298   2.839 -0.0018  0.1783  0.4092
 3019SOL    HW120516   2.472   4.380   2.791 -0.0561 -0.9698 -1.5671
 3019SOL    HW220517   2.368   4.282   2.823 -0.4792  2.0415  1.3075
 3020SOL     OW20518   1.786   2.927   8.181  0.0925  0.2079  0.0715
 3020SOL    HW120519   1.824   3.003   8.138 -1.2418  1.2938  0.8239
 3020SOL    HW220520   1.749   2.892   8.100  0.5554 -2.0886  0.8441
 3021SOL     OW20521   1.434   0.185   5.484  0.2622  0.1317  0.4626
 3021SOL    HW120522   1.378   0.207   5.410  0.7277  0.5979  0.2535
 3021SOL    HW220523   1.415   0.092   5.498 -0.5872  0.1159 -0.8582
 3022SOL     OW20524   1.048   3.826   8.239  0.6251 -0.4793 -0.0047
 3022SOL    HW120525   1.014   3.913   8.217 -0.2828 -1.2773 -1.7059
 3022SOL    HW220526   1.012   3.813   8.327  1.8584 -0.0759  0.5597
 3023SOL     OW20527   3.205   0.641  14.460  0.3388 -0.3377  0.7017
 3023SOL    HW120528   3.253   0.569  14.420 -1.2912 -1.6426  1.1160
 3023SOL    HW220529   3.152   0.670  14.386  0.6303  0.2526  0.7228
 3024SOL     OW20530   3.364   1.697   6.831 -0.9885 -0.2826 -0.1681
 3024SOL    HW120531   3.285   1.668   6.786  0.6500 -1.2983 -2.3751
 3024SOL    HW220532   3.435   1.653   6.784 -2.1443  1.0362 -3.0921
 3025SOL     OW20533   4.323   1.382   6.048  0.6688 -0.0132  0.0065
 3025SOL    HW120534   4.402   1.340   6.083  1.1115  1.0402  0.2646
 3025SOL    HW220535   4.342   1.380   5.954 -3.3688 -0.2153 -0.8107
 3026SOL     OW20536   0.343   4.230   9.262 -0.5219  0.2796  0.3598
 3026SOL    HW120537   0.424   4.179   9.261 -0.1874  0.7887  1.4927
 3026SOL    HW220538   0.283   4.170   9.307  0.8368 -0.5733  1.0446
 3027SOL     OW20539   3.201   0.913  11.799 -0.0656 -0.8690  0.0969
 3027SOL    HW120540   3.140   0.926  11.727 -1.9022 -0.2395  1.7475
 3027SOL    HW220541   3.155   0.941  11.879  0.0648  2.7248 -1.1116
 3028SOL     OW20542   1.165   4.560   3.153 -0.0823  0.1401 -0.7117
 3028SOL    HW120543   1.091   4.534   3.099 -0.1173  1.0145 -1.0903
 3028SOL    HW220544   1.139   4.649   3.177 -1.8946 -0.3395 -0.9124
 3029SOL     OW20545   2.696   3.387   2.659  0.0578 -0.2377  0.2202
 3029SOL    HW120546   2.635   3.461   2.668 -0.7148 -0.5510 -2.2928
 3029SOL    HW220547   2.633   3.316   2.645 -0.7439  0.8087 -1.4766
 3030SOL     OW20548   3.854   2.968   1.629 -0.1856 -0.0662 -0.1655
 3030SOL    HW120549   3.832   3.015   1.549 -0.5825  1.1097  0.6273
 3030SOL    HW220550   3.849   3.040   1.692  1.7327  0.3057 -0.4254
 3031SOL     OW20551   1.334   0.379   3.531 -0.4246 -0.1068  0.1692
 3031SOL    HW120552   1.333   0.417   3.443  1.3060 -2.8758 -1.0392
 3031SOL    HW220553   1.400   0.433   3.575  0.5872  0.3343 -1.8933
 3032SOL     OW20554   3.772   4.188   7.002 -0.2805 -0.0715 -0.1614
 3032SOL    HW120555   3.680   4.179   7.025 -0.4953  1.1462 -0.5323
 3032SOL    HW220556   3.771   4.274   6.959  0.0959 -0.3116 -0.6547
 3033SOL     OW20557   1.871   0.114  15.503  0.0965  0.3796 -0.4313
 3033SOL    HW120558   1.955   0.076  15.527 -0.6051  0.2278  1.7850
 3033SOL    HW220559   1.842   0.070  15.423 -0.4117  0.7702 -0.4703
 3034SOL     OW20560   2.863   0.465  12.260  0.1073  0.2055  0.6611
 3034SOL    HW120561   2.938   0.524  12.254  2.2177 -2.3541  1.8027
 3034SOL    HW220562   2.903   0.378  12.257 -1.4207 -0.4913  0.4585
 3035SOL     OW20563   3.276   0.494  11.301  0.1643  0.2759 -0.1936
 3035SOL    HW120564   3.337   0.543  11.245  1.4190  1.5571  2.2842
 3035SOL    HW220565   3.272   0.413  11.250 -0.9802 -0.1269  0.5506
 3036SOL     OW20566   3.098   1.564  16.273  0.3561 -0.0712 -0.0782
 3036SOL    HW120567   3.023   1.525  16.317 -0.5698  2.1963  0.3288
 3036SOL    HW220568   3.096   1.648  16.319 -1.0382 -1.6744  2.7770
 3037SOL     OW20569   1.199   1.539  16.454 -0.3826  0.0295 -0.4198
 3037SOL    HW120570   1.266   1.508  16.515 -2.1522 -0.7127  1.1193
 3037SOL    HW220571   1.179   1.625  16.492  0.9217 -0.5864  1.6937
 3038SOL     OW20572   4.476   1.670  11.063 -0.1859  0.3616  0.2716
 3038SOL    HW120573   4.434   1.756  11.058 -1.3988 -0.2227  0.3501
 3038SOL    HW220574   4.442   1.628  10.984 -1.2959  0.7500  0.5505
 3039SOL     OW20575   0.994   4.565   9.062  0.9983  0.5772  0.0739
 3039SOL    HW120576   0.955   4.490   9.019  0.1589 -1.4974  4.4044
 3039SOL    HW220577   0.997   4.553   9.157 -1.1430  1.4833  0.2457
 3040SOL     OW20578   3.979   1.322  14.108  0.0685 -0.9603 -0.2768
 3040SOL    HW120579   3.923   1.362  14.174 -0.9590 -2.9576  0.0637
 3040SOL    HW220580   3.951   1.358  14.023  1.2877  1.5378  0.3879
 3041SOL     OW20581   3.930   3.987   4.358  0.3011  0.3565  0.8841
 3041SOL    HW120582   3.883   3.981   4.275  2.0059 -0.6424  0.0004
 3041SOL    HW220583   4.016   3.998   4.319  0.0697 -3.8048 -0.8343
 3042SOL     OW20584   4.275   0.160   7.892 -0.2005  0.1666  0.0856
 3042SOL    HW120585   4.255   0.154   7.798  2.3633 -0.3293 -0.4257
 3042SOL    HW220586   4.200   0.109   7.922 -1.7878  2.6354  0.3987
 3043SOL     OW20587   2.210   4.024  15.834 -0.0916  0.1093 -0.2453
 3043SOL    HW120588   2.139   4.042  15.772  0.8380  2.5999 -0.5659
 3043SOL    HW220589   2.172   3.957  15.891 -2.1205 -0.5733 -2.3592
 3044SOL     OW20590   3.678   2.682   1.172  0.1742  0.0464  0.1216
 3044SOL    HW120591   3.751   2.619   1.171  2.4107  2.6674 -1.5681
 3044SOL    HW220592   3.705   2.710   1.084 -1.0935  0.7670 -0.0412
 3045SOL     OW20593   2.153   3.153   4.819  0.2861 -0.4616  0.2080
 3045SOL    HW120594   2.060   3.170   4.809  0.4307  1.0916  1.4284
 3045SOL    HW220595   2.164   3.204   4.899  1.0704  0.3064 -0.3908
 3046SOL     OW20596   4.276   2.517  14.565  0.7474 -0.3754 -0.0270
 3046SOL    HW120597   4.224   2.436  14.566  0.5573 -0.2360  0.7760
 3046SOL    HW220598   4.262   2.536  14.657  1.0797 -1.7603  0.3108
 3047SOL     OW20599   3.518   2.597  14.268  0.0718  0.1068 -0.8156
 3047SOL    HW120600   3.473   2.679  14.252 -0.0640  0.1766 -0.0443
 3047SOL    HW220601   3.452   2.529  14.251  0.5271 -0.4492 -0.3865
 3048SOL     OW20602   2.698   0.819   6.347  0.1616 -0.0056 -0.7308
 3048SOL    HW120603   2.726   0.827   6.438  1.0585  0.1293 -1.0211
 3048SOL    HW220604   2.603   0.813   6.354  0.3027 -2.0289 -0.5452
 3049SOL     OW20605   4.540   0.384   0.209  0.2807  0.0984  0.3785
 3049SOL    HW120606   4.518   0.297   0.241 -1.3657  0.1193 -0.6739
 3049SOL    HW220607   4.554   0.427   0.293  1.5157  0.3239  0.0646
 3050SOL     OW20608   4.127   0.832   8.754 -0.2311  0.2179  0.7248
 3050SOL    HW120609   4.169   0.909   8.792 -0.3995  0.6045  0.1273
 3050SOL    HW220610   4.204   0.780   8.733 -1.6412 -1.4208 -0.4151
 3051SOL     OW20611   4.624   0.146   8.792  0.0723  0.1113 -0.4380
 3051SOL    HW120612   4.655   0.073   8.739 -0.5131 -1.0085  0.7578
 3051SOL    HW220613   4.632   0.226   8.739  1.6348 -0.1041 -0.5161
 3052SOL     OW20614   0.107   2.783  13.119 -0.4860  0.0446 -0.1605
 3052SOL    HW120615   0.012   2.781  13.118 -0.5024  0.7245 -0.2087
 3052SOL    HW220616   0.131   2.776  13.027 -2.1469 -0.3689 -0.5598
 3053SOL     OW20617   0.983   3.750   3.017 -0.2067 -0.6556 -0.3314
 3053SOL    HW120618   1.022   3.702   3.091 -1.2014  0.6060  1.0238
 3053SOL    HW220619   1.040   3.826   3.003 -0.0199 -1.0861 -1.8976
 3054SOL     OW20620   1.057   0.606   2.312 -0.1720  0.9264 -0.1162
 3054SOL    HW120621   0.971   0.647   2.301 -0.6564 -0.8882 -2.8710
 3054SOL    HW220622   1.067   0.613   2.407  0.0771  0.5620 -0.1157
 3055SOL     OW20623   4.189   3.688   4.940  0.8955  0.0582 -0.1071
 3055SOL    HW120624   4.176   3.782   4.930 -1.5699 -0.4066 -1.1909
 3055SOL    HW220625   4.284   3.682   4.949  0.8985 -1.0556 -0.8935
 3056SOL     OW20626   0.264   3.421  15.335  0.0439 -0.0348  0.2607
 3056SOL    HW120627   0.199   3.374  15.387  1.5032 -0.2496  1.8752
 3056SOL    HW220628   0.298   3.362  15.268 -2.2434  1.1174 -1.9172
 3057SOL     OW20629   4.449   4.180  15.742  0.2915 -0.3375 -0.0984
 3057SOL    HW120630   4.401   4.122  15.801 -0.4573 -0.0924 -0.4662
 3057SOL    HW220631   4.405   4.263  15.762 -0.3383 -0.3983 -1.1890
 3058SOL     OW20632   4.309   1.199  17.595 -0.2285 -0.2313  0.0131
 3058SOL    HW120633   4.285   1.237  17.679 -1.1138 -1.8752  0.4989
 3058SOL    HW220634   4.255   1.120  17.596 -0.6270  0.0705  2.6296
 3059SOL     OW20635   1.101   1.998   1.135 -0.1250  0.1660 -0.1234
 3059SOL    HW120636   1.130   2.049   1.211 -1.1915 -0.6601  0.8279
 3059SOL    HW220637   1.146   1.919   1.165  1.1210  0.9361  0.0490
 3060SOL     OW20638   4.720   0.637   4.720 -0.1538 -0.2585 -0.1734
 3060SOL    HW120639   4.701   0.654   4.628 -4.9008  0.3608  0.9123
 3060SOL    HW220640   0.051   0.560   4.725  1.0636  0.6832  0.5933
 3061SOL     OW20641   2.328   4.292   5.634 -0.4598 -0.2860  0.2237
 3061SOL    HW120642   2.415   4.305   5.597 -0.7962 -0.4211 -0.6198
 3061SOL    HW220643   2.344   4.205   5.669  0.6226 -0.9866 -1.9890
 3062SOL     OW20644   0.741   2.615   6.288  0.2926  0.3760 -0.4464
 3062SOL    HW120645   0.674   2.551   6.312  1.9731 -0.6649  1.5029
 3062SOL    HW220646   0.738   2.680   6.358 -3.4711 -0.9937  0.6261
 3063SOL     OW20647   2.280   2.300   4.738 -0.1083  1.0781  0.0614
 3063SOL    HW120648   2.365   2.275   4.702  0.3843 -1.2136  2.8589
 3063SOL    HW220649   2.289   2.395   4.733  0.0463  1.1055  0.8344
 3064SOL     OW20650   3.986   0.890   2.186  0.3240  0.1071 -0.1593
 3064SOL    HW120651   3.926   0.864   2.116 -1.2417 -1.3948  1.7436
 3064SOL    HW220652   4.028   0.806   2.204  0.2398  0.3176  1.0357
 3065SOL     OW20653   4.579   0.767   2.659  0.3911 -1.0945 -0.2552
 3065SOL    HW120654   4.583   0.768   2.755  0.9704  1.0224 -0.3213
 3065SOL    HW220655   4.486   0.745   2.661  0.5966 -2.0174 -0.6088
 3066SOL     OW20656   3.145   2.175   3.957 -0.0770 -0.1933  0.3918
 3066SOL    HW120657   3.182   2.178   3.869 -0.8087 -3.2799 -0.0106
 3066SOL    HW220658   3.054   2.154   3.937 -0.2912  0.8357  0.2972
 3067SOL     OW20659   3.035   2.375  16.087  0.6341 -0.7657 -0.1358
 3067SOL    HW120660   3.068   2.434  16.155  0.1109  0.2580 -0.7726
 3067SOL    HW220661   3.092   2.395  16.013 -1.8187  1.8317 -1.3275
 3068SOL     OW20662   4.235   3.001  10.299  0.2077  0.5206  0.4592
 3068SOL    HW120663   4.297   2.939  10.258 -1.2686 -0.6370 -0.0134
 3068SOL    HW220664   4.175   3.031  10.231 -0.9620  2.3717  2.3398
 3069SOL     OW20665   2.997   2.779   8.051 -0.3668  0.4447  0.4473
 3069SOL    HW120666   2.958   2.796   7.965 -0.0070  3.5344  0.8775
 3069SOL    HW220667   2.966   2.859   8.094  0.7455  1.8348 -1.3626
 3070SOL     OW20668   0.670   2.639   4.304  0.0835 -0.2372 -0.5814
 3070SOL    HW120669   0.647   2.687   4.224 -0.4896 -1.8627 -1.3755
 3070SOL    HW220670   0.762   2.622   4.283 -0.0412 -1.7505  0.1543
 3071SOL     OW20671   4.524   1.760   5.707 -0.1758  0.5832 -0.6836
 3071SOL    HW120672   4.446   1.801   5.671  0.3414  1.1889 -1.1191
 3071SOL    HW220673   4.590   1.771   5.638  1.0502  2.1059  0.7181
 3072SOL     OW20674   2.028   0.840   9.359  0.3698 -0.1792  0.0521
 3072SOL    HW120675   1.958   0.775   9.356 -0.6874  0.8945  1.4585
 3072SOL    HW220676   2.029   0.883   9.444 -2.2838 -0.7431  0.3629
 3073SOL     OW20677   3.694   2.389   4.687 -0.1641  0.1404  0.4174
 3073SOL    HW120678   3.636   2.317   4.710 -0.7776  0.9742  1.5189
 3073SOL    HW220679   3.734   2.353   4.608  1.7353  0.4985  1.2166
 3074SOL     OW20680   3.087   4.430   8.040 -0.1907  0.1250  0.3046
 3074SOL    HW120681   3.024   4.409   8.109  0.2047 -4.0789 -0.5710
 3074SOL    HW220682   3.136   4.506   8.070  1.3439 -0.3639 -0.9302
 3075SOL     OW20683   2.180   1.009   5.460  0.2636  0.2570 -0.1025
 3075SOL    HW120684   2.236   1.082   5.487  1.9331 -1.1749  0.2699
 3075SOL    HW220685   2.094   1.042   5.487  0.4894 -0.0537  1.0002
 3076SOL     OW20686   4.326   1.830   7.438  0.1634 -0.0749 -0.2761
 3076SOL    HW120687   4.261   1.780   7.389 -1.2965  1.0100  0.5443
 3076SOL    HW220688   4.380   1.864   7.367 -0.6409  0.6911 -0.5194
 3077SOL     OW20689   1.395   1.048  14.518  0.8164 -0.2136 -0.8619
 3077SOL    HW120690   1.369   1.122  14.462 -0.0172 -0.4660 -0.8070
 3077SOL    HW220691   1.305   1.025  14.543  1.1639  1.4240  1.8400
 3078SOL     OW20692   2.441   3.342   5.851 -0.9970  0.1090 -0.0501
 3078SOL    HW120693   2.475   3.254   5.837 -1.4933 -0.5912  3.0467
 3078SOL    HW220694   2.349   3.321   5.869 -1.1071  1.3745  0.9153
 3079SOL     OW20695   3.250   3.802   6.771  0.6428 -0.1284 -0.0958
 3079SOL    HW120696   3.211   3.753   6.699  0.2375 -2.1716  1.5245
 3079SOL    HW220697   3.279   3.727   6.823 -1.9614 -1.3739 -0.4813
 3080SOL     OW20698   3.042   1.647   5.475  0.1200 -0.2365 -0.2968
 3080SOL    HW120699   3.062   1.594   5.398  2.9456 -2.6055  2.0950
 3080SOL    HW220700   2.958   1.685   5.449  0.2433  0.7249  0.6864
 3081SOL     OW20701   4.721   0.625   7.893  0.0972  0.1105 -0.3625
 3081SOL    HW120702   4.698   0.695   7.832  0.3420  0.8078  0.3561
 3081SOL    HW220703   0.084   0.656   7.916 -0.1186  1.7816 -1.7675
 3082SOL     OW20704   3.017   4.678   2.524 -0.1330 -0.2106 -0.1995
 3082SOL    HW120705   3.074   4.635   2.588  2.1261 -0.0310 -2.1128
 3082SOL    HW220706   3.004   4.602   2.467 -0.0202 -0.2471 -0.1765
 3083SOL     OW20707   1.914   2.886   6.269 -0.3639  0.3164  0.0286
 3083SOL    HW120708   1.988   2.915   6.323 -0.0512  0.7338 -0.6355
 3083SOL    HW220709   1.873   2.835   6.339  2.7271 -1.0786  0.8268
 3084SOL     OW20710   3.640   2.498  12.104  0.1595 -0.0120 -0.3700
 3084SOL    HW120711   3.577   2.506  12.033  0.1559  3.1286  0.0181
 3084SOL    HW220712   3.686   2.421  12.071  0.0107  1.0598 -3.0455
 3085SOL     OW20713   2.438   3.912  15.708  0.3088  0.2027 -0.2507
 3085SOL    HW120714   2.501   3.899  15.780 -1.3295  0.4191  1.2246
 3085SOL    HW220715   2.364   3.954  15.751  0.0250  0.7259 -1.2586
 3086SOL     OW20716   1.298   0.568   4.551  0.6325  0.2709  0.1230
 3086SOL    HW120717   1.380   0.557   4.598 -0.1063 -1.0009  1.1104
 3086SOL    HW220718   1.294   0.473   4.543  2.3286  0.2753 -0.6749
 3087SOL     OW20719   2.346   4.611   1.669 -0.3275 -0.5339  0.1093
 3087SOL    HW120720   2.365   4.600   1.762  0.8340  0.0239 -0.0646
 3087SOL    HW220721   2.425   4.622   1.616 -0.7908  1.8718 -0.0910
 3088SOL     OW20722   1.942   0.790   6.732 -0.1111  0.1628  0.2270
 3088SOL    HW120723   1.985   0.723   6.679 -0.1422 -0.1892  0.6439
 3088SOL    HW220724   1.861   0.750   6.761 -0.1211  1.8461  2.6024
 3089SOL     OW20725   2.882   0.907  10.944  0.2198 -0.6215  0.3055
 3089SOL    HW120726   2.915   0.996  10.930 -1.1686  0.4599  4.0041
 3089SOL    HW220727   2.921   0.869  10.866  1.5215  0.9299  0.2146
 3090SOL     OW20728   3.360   3.816   0.742 -0.4504  0.1932  0.2882
 3090SOL    HW120729   3.314   3.882   0.691  0.4451 -0.4265 -1.2991
 3090SOL    HW220730   3.302   3.740   0.728  0.1868 -0.3419  0.5447
 3091SOL     OW20731   3.142   1.141   2.368  0.4407  0.2588 -0.3045
 3091SOL    HW120732   3.132   1.054   2.331  1.9239 -0.0127 -0.0465
 3091SOL    HW220733   3.220   1.128   2.421 -0.3304 -0.8590  0.5613
 3092SOL     OW20734   0.161   4.491   8.324  0.2593  0.1599  0.5689
 3092SOL    HW120735   0.225   4.531   8.383 -0.9568  0.5682  1.6122
 3092SOL    HW220736   0.165   4.405   8.365 -0.9712 -1.1812 -2.1814
 3093SOL     OW20737   2.454   1.704   6.791  0.5324  0.2705 -0.3397
 3093SOL    HW120738   2.475   1.796   6.809  2.6900 -0.3830  0.5047
 3093SOL    HW220739   2.481   1.658   6.871  3.7871 -0.5931 -1.9406
 3094SOL     OW20740   4.286   0.582  15.460 -0.4621  0.3514 -0.8219
 3094SOL    HW120741   4.336   0.661  15.441  0.8610 -0.7590 -2.0166
 3094SOL    HW220742   4.293   0.587  15.555  0.4025 -0.8279 -0.8124
 3095SOL     OW20743   4.625   1.374   5.122 -0.2653  0.2067  0.1398
 3095SOL    HW120744   4.594   1.287   5.144  0.8095  0.2893  1.9954
 3095SOL    HW220745   4.673   1.393   5.202 -1.6405 -1.5293  1.3644
 3096SOL     OW20746   0.255   0.506   2.415  0.0737 -0.0335 -0.3170
 3096SOL    HW120747   0.297   0.541   2.494 -0.4342 -0.3444  0.0883
 3096SOL    HW220748   0.192   0.448   2.456  0.5206 -0.2060  0.1309
 3097SOL     OW20749   1.437   2.318   6.866  0.0916 -0.5572  0.5490
 3097SOL    HW120750   1.497   2.246   6.882  2.3032  1.2061  0.0854
 3097SOL    HW220751   1.431   2.321   6.771  1.7580 -0.8909  0.4488
 3098SOL     OW20752   0.133   1.337   4.288  0.0803  0.1410 -0.1289
 3098SOL    HW120753   0.090   1.265   4.243 -0.1780  0.2034  0.0215
 3098SOL    HW220754   0.227   1.325   4.272 -0.1014  0.5232 -1.5158
 3099SOL     OW20755   0.780   1.501  16.068 -0.1183 -0.0203  0.1741
 3099SOL    HW120756   0.722   1.550  16.127  2.2319  1.5425  1.1980
 3099SOL    HW220757   0.751   1.410  16.075  0.3474 -0.2033 -0.3301
 3100SOL     OW20758   3.340   0.119  14.630  0.3402  0.0261 -0.0316
 3100SOL    HW120759   3.359   0.158  14.715  1.1089 -0.9129  0.2204
 3100SOL    HW220760   3.245   0.132  14.628  0.1039 -1.7017 -0.1608
 3101SOL     OW20761   2.619   0.194   5.392  0.3819  0.0455 -0.1194
 3101SOL    HW120762   2.583   0.278   5.365 -0.5766 -0.5949 -0.8218
 3101SOL    HW220763   2.562   0.174   5.466 -0.8800  1.2664 -0.7868
 3102SOL     OW20764   1.337   4.536   1.742  0.4476 -0.5897  0.2493
 3102SOL    HW120765   1.281   4.612   1.753  0.3447 -0.5763 -0.3428
 3102SOL    HW220766   1.272   4.468   1.725 -1.3482  0.8619  1.3853
 3103SOL     OW20767   3.564   0.842   5.997 -0.1905 -0.1237  0.1379
 3103SOL    HW120768   3.538   0.884   5.916  0.0775 -1.2255 -0.5174
 3103SOL    HW220769   3.630   0.903   6.030  1.6466 -2.3391  0.6140
 3104SOL     OW20770   1.215   1.761   2.665 -0.8672  0.4872 -1.1312
 3104SOL    HW120771   1.279   1.690   2.657  0.2813  1.3631  0.3031
 3104SOL    HW220772   1.149   1.733   2.601  0.4165 -2.0091 -1.3683
 3105SOL     OW20773   3.236   1.764   9.828 -0.0184  0.2887  0.2806
 3105SOL    HW120774   3.177   1.739   9.756  0.7705 -2.3718  0.5479
 3105SOL    HW220775   3.251   1.680   9.871  0.0992  0.6941  1.0308
 3106SOL     OW20776   2.466   0.320   2.616  0.0058 -0.1421  0.6570
 3106SOL    HW120777   2.500   0.245   2.666 -1.2040  0.9207  3.0415
 3106SOL    HW220778   2.544   0.342   2.565 -1.5431  1.8084 -0.8872
 3107SOL     OW20779   1.508   4.023   3.354 -0.5385 -0.1733 -0.0307
 3107SOL    HW120780   1.589   3.974   3.340 -1.2391 -1.0524 -0.9837
 3107SOL    HW220781   1.444   3.956   3.329 -1.9520  1.8416 -1.8616
 3108SOL     OW20782   2.625   4.583   4.224 -0.5387  0.0653  0.1377
 3108SOL    HW120783   2.602   4.658   4.278  0.7178  0.3204  0.3200
 3108SOL    HW220784   2.626   4.611   4.132  1.2595  0.0616  0.1459
 3109SOL     OW20785   1.817   0.038  11.555 -0.2914 -0.0947 -0.3310
 3109SOL    HW120786   1.804   4.678  11.597 -2.1485 -0.6070 -1.9044
 3109SOL    HW220787   1.909   0.026  11.534 -0.4107  2.4609 -2.3382
 3110SOL     OW20788   1.150   1.128  15.977  0.0725  0.3968  0.0020
 3110SOL    HW120789   1.158   1.096  15.888 -2.7354 -1.9951  0.6197
 3110SOL    HW220790   1.182   1.218  15.968  0.7247  0.1747  0.1736
 3111SOL     OW20791   0.884   2.785  11.198  0.4184  0.3992  0.0304
 3111SOL    HW120792   0.810   2.803  11.141  0.1372  1.9876  0.8850
 3111SOL    HW220793   0.858   2.813  11.286  1.7554  0.3122  0.4667
 3112SOL     OW20794   2.063   4.312   2.829  0.1010  0.0115  0.2148
 3112SOL    HW120795   1.989   4.279   2.778 -0.0699  0.8698 -0.0873
 3112SOL    HW220796   2.133   4.254   2.799  0.8469  0.6689  0.6609
 3113SOL     OW20797   0.854   3.221   4.875 -0.0800 -0.0603  0.0124
 3113SOL    HW120798   0.763   3.249   4.880 -0.1460 -0.2315 -0.2661
 3113SOL    HW220799   0.880   3.262   4.793 -1.0324 -0.9751 -0.7479
 3114SOL     OW20800   4.138   3.062   2.329 -0.2076 -0.4978 -0.0229
 3114SOL    HW120801   4.115   2.975   2.363  1.3574 -0.8602  0.0988
 3114SOL    HW220802   4.233   3.054   2.335 -0.0297 -0.3324 -2.9839
 3115SOL     OW20803   4.145   0.883  15.300  0.1461 -0.6542 -0.3741
 3115SOL    HW120804   4.124   0.950  15.364  0.2122 -0.0233 -1.0215
 3115SOL    HW220805   4.215   0.835  15.344 -0.7449 -3.5002 -2.0223
 3116SOL     OW20806   1.575   4.513   9.143  0.5709  0.3692  0.2481
 3116SOL    HW120807   1.577   4.472   9.229 -1.0875  0.6135  0.3958
 3116SOL    HW220808   1.664   4.489   9.116  0.1760  1.3254 -1.9556
 3117SOL     OW20809   4.215   2.576   5.003 -0.3344  0.1228  0.2152
 3117SOL    HW120810   4.190   2.668   5.009  2.6916  0.9223  0.7462
 3117SOL    HW220811   4.292   2.578   5.060 -0.9216  2.3719  0.9107
 3118SOL     OW20812   1.004   3.640   0.695 -0.7568 -0.4754  0.1437
 3118SOL    HW120813   1.041   3.597   0.618  2.2618  2.3156  0.0692
 3118SOL    HW220814   0.910   3.637   0.678 -0.0307 -0.5326 -3.8115
 3119SOL     OW20815   4.724   3.304   3.973  0.0778  0.3539  0.6768
 3119SOL    HW120816   4.669   3.362   4.026  0.0466  1.9230 -1.1084
 3119SOL    HW220817   4.656   3.246   3.940  0.6280  0.1240 -0.0432
 3120SOL     OW20818   0.553   3.267   9.279  0.2970 -0.1876 -0.2943
 3120SOL    HW120819   0.634   3.260   9.329  0.9810 -3.3707 -1.7963
 3120SOL    HW220820   0.503   3.332   9.328 -2.0984 -2.2075 -0.0042
 3121SOL     OW20821   3.239   1.238   0.281 -0.8661 -0.8134  0.8985
 3121SOL    HW120822   3.285   1.157   0.261  0.9668  0.1109  1.3080
 3121SOL    HW220823   3.312   1.288   0.318  0.0414 -2.2996  1.0914
 3122SOL     OW20824   1.178   1.457   5.553 -0.0413 -0.1260 -0.2563
 3122SOL    HW120825   1.184   1.515   5.477  1.5267  0.2419  0.1462
 3122SOL    HW220826   1.183   1.374   5.505 -0.5612  0.2221 -0.9061
 3123SOL     OW20827   3.436   0.800  14.429  0.2558  0.2771 -0.2922
 3123SOL    HW120828   3.449   0.876  14.487 -0.1680 -0.5273  0.8524
 3123SOL    HW220829   3.352   0.764  14.458  0.0108  1.4684  0.5136
 3124SOL     OW20830   0.497   2.990  11.550 -0.0160 -0.3451  0.1735
 3124SOL    HW120831   0.475   3.041  11.628  2.1022  1.6432 -0.5545
 3124SOL    HW220832   0.558   2.927  11.589 -0.8895 -0.4104  1.4475
 3125SOL     OW20833   4.508   4.589   4.254  0.5619 -0.3167 -0.6552
 3125SOL    HW120834   4.578   4.562   4.195  0.7818 -1.2681  0.0463
 3125SOL    HW220835   4.473   4.500   4.248 -2.3966  0.8605 -1.1702
 3126SOL     OW20836   3.137   4.340  13.944 -0.0384  0.1412  0.0378
 3126SOL    HW120837   3.079   4.382  13.881 -1.8240 -0.4325  1.2986
 3126SOL    HW220838   3.162   4.262  13.894  1.1047  1.1476 -0.9734
 3127SOL     OW20839   4.581   2.828   7.179  0.2726  0.0380  0.2289
 3127SOL    HW120840   4.657   2.778   7.150  0.8043  0.4028  0.9769
 3127SOL    HW220841   4.595   2.798   7.269  0.0268  0.0687  0.2768
 3128SOL     OW20842   0.350   2.880   8.657  0.3317  0.9419  0.4957
 3128SOL    HW120843   0.339   2.967   8.694 -0.5444  0.3800  1.5685
 3128SOL    HW220844   0.307   2.884   8.572  1.6724 -2.4824 -0.3230
 3129SOL     OW20845   0.627   2.796   4.109 -0.2205  0.0425 -0.2111
 3129SOL    HW120846   0.533   2.792   4.087 -0.1919  1.5132 -0.6093
 3129SOL    HW220847   0.675   2.773   4.029 -0.0661 -0.0120 -0.1010
 3130SOL     OW20848   0.648   0.190   3.484  0.1690 -0.9320  0.6886
 3130SOL    HW120849   0.652   0.208   3.390 -0.3421 -3.4943  0.1743
 3130SOL    HW220850   0.624   0.098   3.476  0.9029 -1.0409 -0.1654
 3131SOL     OW20851   2.734   0.511   5.122  0.2130  0.0699  0.2002
 3131SOL    HW120852   2.676   0.500   5.046  0.7661 -0.0541 -0.1991
 3131SOL    HW220853   2.728   0.604   5.143 -1.2474 -0.9001  4.0317
 3132SOL     OW20854   2.980   4.204   7.166 -0.7647 -0.4452 -0.4639
 3132SOL    HW120855   2.982   4.131   7.104  1.7489  0.4625 -1.4343
 3132SOL    HW220856   2.963   4.166   7.253  2.1186 -0.0365  0.2734
 3133SOL     OW20857   3.729   2.363   6.148  0.4388  0.2948 -0.3105
 3133SOL    HW120858   3.647   2.366   6.197  0.5826 -0.5909 -0.0088
 3133SOL    HW220859   3.746   2.269   6.147  0.6452  0.3737 -3.4061
 3134SOL     OW20860   0.564   0.608   3.099  0.1638 -0.1635 -0.4476
 3134SOL    HW120861   0.650   0.566   3.085  1.1714  1.5525  0.6050
 3134SOL    HW220862   0.585   0.699   3.117  4.6190 -1.0513 -0.9055
 3135SOL     OW20863   0.767   2.108   5.241  0.4874 -0.2377  0.3792
 3135SOL    HW120864   0.720   2.186   5.213  0.8461 -0.9764 -2.3484
 3135SOL    HW220865   0.745   2.039   5.178  0.3605 -2.8782  3.3442
 3136SOL     OW20866   0.472   1.239  13.930  0.1704 -0.0117 -1.0972
 3136SOL    HW120867   0.464   1.317  13.875 -0.2638  0.1505 -0.8057
 3136SOL    HW220868   0.507   1.181  13.862  1.4638  0.4806 -0.8648
 3137SOL     OW20869   1.495   1.177   4.003 -0.1854  0.0193 -0.7264
 3137SOL    HW120870   1.408   1.170   3.963  0.2579 -2.4032 -1.2339
 3137SOL    HW220871   1.545   1.117   3.949 -0.6486  0.0784 -1.2204
 3138SOL     OW20872   3.777   2.528   7.354 -0.4474 -0.0035  0.3995
 3138SOL    HW120873   3.740   2.486   7.277  0.9190  0.4826 -0.5334
 3138SOL    HW220874   3.816   2.452   7.397 -0.2440  0.1241  0.4396
 3139SOL     OW20875   0.600   4.380   7.103  0.2624  0.1685  0.2796
 3139SOL    HW120876   0.670   4.348   7.045 -1.3041 -1.9255 -0.4453
 3139SOL    HW220877   0.522   4.362   7.050 -0.6368  1.6393  1.1177
 3140SOL     OW20878   0.633   1.663   6.148 -0.2240  0.8456  0.1381
 3140SOL    HW120879   0.690   1.614   6.089  0.9189 -0.8582  2.6519
 3140SOL    HW220880   0.673   1.749   6.157  2.5118 -0.6010  1.9003
 3141SOL     OW20881   4.361   4.152   3.941  0.5852 -0.1260 -0.4849
 3141SOL    HW120882   4.322   4.185   3.860 -0.1411  0.5660  0.1421
 3141SOL    HW220883   4.283   4.174   3.992 -0.2692 -1.8064 -1.0918
 3142SOL     OW20884   1.068   3.782   2.282  0.3232  0.6471 -0.1653
 3142SOL    HW120885   1.021   3.766   2.363 -0.5562 -0.1857 -0.8447
 3142SOL    HW220886   1.014   3.851   2.243 -0.4483 -0.0152 -0.2606
 3143SOL     OW20887   1.375   3.833   6.714  0.4140  0.0512  0.4768
 3143SOL    HW120888   1.447   3.841   6.778 -0.5884  0.4608  1.5554
 3143SOL    HW220889   1.340   3.749   6.743  2.4733 -0.8340  0.4171
 3144SOL     OW20890   0.832   2.656   3.274  0.2836 -0.4563  0.1771
 3144SOL    HW120891   0.858   2.591   3.209  0.4612 -0.1148 -0.0991
 3144SOL    HW220892   0.793   2.728   3.224 -1.4539 -0.0445  2.1188
 3145SOL     OW20893   4.461   2.087  14.340 -0.0773 -0.0294  0.3668
 3145SOL    HW120894   4.453   1.994  14.362 -0.7073 -0.0260  0.1391
 3145SOL    HW220895   4.557   2.091  14.338 -0.0540 -1.2270 -0.7140
 3146SOL     OW20896   1.270   2.404   9.560  0.1434  0.6207 -0.6298
 3146SOL    HW120897   1.223   2.323   9.582  1.3010  0.7634  2.4653
 3146SOL    HW220898   1.213   2.456   9.503  1.0090  1.7359 -0.4668
 3147SOL     OW20899   0.353   2.531   1.529 -0.2981  0.8589 -0.2981
 3147SOL    HW120900   0.360   2.607   1.586  0.9228  0.7697 -0.3221
 3147SOL    HW220901   0.261   2.518   1.509 -0.8725  4.1485  0.1725
 3148SOL     OW20902   3.080   4.114   2.216 -0.0574  0.0083 -0.1254
 3148SOL    HW120903   3.095   4.165   2.295 -0.2855 -0.2369  0.0762
 3148SOL    HW220904   3.126   4.032   2.232 -0.6100  0.2044  2.5160
 3149SOL     OW20905   0.096   3.420  12.741  0.1319  0.2545 -0.2599
 3149SOL    HW120906   0.165   3.411  12.675 -0.3689  0.6667 -0.8549
 3149SOL    HW220907   0.062   3.508  12.724 -1.7051 -0.1980  1.1256
 3150SOL     OW20908   1.397   4.498   5.036  0.2349  0.0022  0.2903
 3150SOL    HW120909   1.409   4.522   4.944 -0.8916  1.6442  0.5627
 3150SOL    HW220910   1.468   4.435   5.045  1.2969  1.5553  2.8889
 3151SOL     OW20911   4.375   1.048   0.468 -0.6283  0.1182 -0.0691
 3151SOL    HW120912   4.301   1.096   0.504 -1.2239  0.6402 -1.9864
 3151SOL    HW220913   4.442   1.116   0.458 -0.8931  0.3130 -0.5027
 3152SOL     OW20914   0.286   0.926   8.869  0.2074 -0.0428 -0.1718
 3152SOL    HW120915   0.355   0.880   8.820  0.1098 -0.4514  0.0745
 3152SOL    HW220916   0.311   1.018   8.859  1.1526 -0.3175 -0.4234
 3153SOL     OW20917   3.535   2.831  10.391  0.5172 -0.7414  0.3128
 3153SOL    HW120918   3.466   2.780  10.433 -0.0726  0.0484  0.3059
 3153SOL    HW220919   3.514   2.819  10.298  2.5740  0.4464 -0.3126
 3154SOL     OW20920   0.199   2.021   8.410  0.2658 -0.3291 -0.0258
 3154SOL    HW120921   0.219   2.095   8.354  0.0511  1.1260  1.8135
 3154SOL    HW220922   0.260   1.958   8.372  1.1879 -0.1393  1.1479
 3155SOL     OW20923   4.063   2.987   6.881  0.4755  0.4151  0.8647
 3155SOL    HW120924   3.977   2.953   6.855  0.2390  1.2106  0.5913
 3155SOL    HW220925   4.120   2.951   6.813 -2.6493 -1.1194 -0.9318
 3156SOL     OW20926   1.856   3.805   4.904 -0.0313  0.3169 -0.2057
 3156SOL    HW120927   1.765   3.826   4.882  1.1989  2.8926 -2.8555
 3156SOL    HW220928   1.847   3.795   4.999 -2.4569 -0.5613 -0.5297
 3157SOL     OW20929   2.241   1.330  12.012  0.1114 -0.1429  0.2542
 3157SOL    HW120930   2.257   1.285  12.095  2.1552 -0.6988 -0.4519
 3157SOL    HW220931   2.149   1.353  12.025  0.1193  0.2453 -0.3653
 3158SOL     OW20932   2.032   4.565   2.352  0.0445  0.1511 -0.2615
 3158SOL    HW120933   1.999   4.649   2.322 -0.6473 -0.8308 -2.2916
 3158SOL    HW220934   1.959   4.504   2.338  0.9004 -0.8749 -0.2154
 3159SOL     OW20935   0.924   1.668   6.611  0.2465  0.4586 -0.1615
 3159SOL    HW120936   0.866   1.665   6.687 -0.2406  0.6088 -0.5227
 3159SOL    HW220937   0.997   1.721   6.644 -0.1435  1.0760 -0.2880
 3160SOL     OW20938   3.213   3.401   4.784 -0.1487 -0.4523  0.2829
 3160SOL    HW120939   3.265   3.469   4.741  2.7127 -1.2917  2.4556
 3160SOL    HW220940   3.200   3.340   4.711  0.6973 -2.0312  1.4510
 3161SOL     OW20941   3.090   1.585   6.531 -0.3260  0.0113  0.3252
 3161SOL    HW120942   3.107   1.674   6.562 -1.8135 -0.2250  1.7871
 3161SOL    HW220943   3.163   1.579   6.469 -2.2885  0.0941 -1.9617
 3162SOL     OW20944   3.563   2.106   6.218  0.0619 -0.4423  0.2514
 3162SOL    HW120945   3.566   2.106   6.122 -1.9593 -0.3637  0.1965
 3162SOL    HW220946   3.512   2.187   6.225  1.0697  0.0848  1.5083
 3163SOL     OW20947   1.560   3.720   9.579 -0.1150 -0.1320 -0.8495
 3163SOL    HW120948   1.472   3.758   9.576 -0.1037 -0.0328 -0.0105
 3163SOL    HW220949   1.584   3.736   9.670 -0.0735  0.9323 -1.0498
 3164SOL     OW20950   3.265   1.340   1.115  0.2069 -0.3223  0.2557
 3164SOL    HW120951   3.221   1.425   1.105 -0.6250 -0.8786 -0.8004
 3164SOL    HW220952   3.350   1.368   1.081 -0.0134  0.3191  0.2368
 3165SOL     OW20953   2.176   4.416   9.941 -0.0947  0.1121 -0.6671
 3165SOL    HW120954   2.237   4.429   9.868 -0.3643 -2.3516 -1.3442
 3165SOL    HW220955   2.125   4.496   9.927 -1.7759 -0.5940  1.4740
 3166SOL     OW20956   1.313   1.184   5.624 -0.1147  0.3846 -0.0930
 3166SOL    HW120957   1.301   1.092   5.648  1.5322  0.8659  2.6532
 3166SOL    HW220958   1.255   1.187   5.548  0.9488  3.1664 -0.7889
 3167SOL     OW20959   1.442   4.509  17.627 -0.5796  0.1828  0.3267
 3167SOL    HW120960   1.414   4.447  17.560  0.4894  0.5326 -0.4440
 3167SOL    HW220961   1.380   4.495  17.698 -0.9077 -0.5967 -0.1112
 3168SOL     OW20962   0.635   0.812  16.304 -0.1747 -0.2225 -0.0683
 3168SOL    HW120963   0.621   0.751  16.376 -0.6219 -0.3021 -0.2192
 3168SOL    HW220964   0.718   0.853  16.328 -0.1778 -0.3185  0.1052
 3169SOL     OW20965   4.229   1.049   8.857 -0.0442  0.3710  0.0401
 3169SOL    HW120966   4.320   1.078   8.845  0.6002 -1.9927 -0.9259
 3169SOL    HW220967   4.245   1.012   8.944 -0.2389  0.6935  0.2120
 3170SOL     OW20968   4.522   1.915   7.279  0.8715 -0.2366  1.1133
 3170SOL    HW120969   4.587   1.848   7.300  0.8909 -0.2689  0.9502
 3170SOL    HW220970   4.569   1.991   7.312 -1.7256  2.5804 -1.6648
 3171SOL     OW20971   2.324   2.454  10.870  0.9619  0.1776 -0.3313
 3171SOL    HW120972   2.318   2.521  10.938 -0.5637 -0.8555  0.5579
 3171SOL    HW220973   2.261   2.494  10.810 -0.2797  0.3362  1.0838
 3172SOL     OW20974   1.812   1.681   4.751 -0.2602  0.3645  0.1962
 3172SOL    HW120975   1.895   1.722   4.727 -0.1338  0.6279  1.1159
 3172SOL    HW220976   1.767   1.757   4.788  2.0044  0.7985  1.9823
 3173SOL     OW20977   2.093   2.258   7.281 -0.2628 -0.1460  0.6026
 3173SOL    HW120978   2.066   2.257   7.373  1.9969  1.8098  1.3180
 3173SOL    HW220979   2.188   2.272   7.288 -0.1698 -0.1002 -0.6840
 3174SOL     OW20980   2.782   3.463   2.277  0.1900 -0.3255  0.4270
 3174SOL    HW120981   2.734   3.545   2.287  1.9321  0.7322  0.2367
 3174SOL    HW220982   2.861   3.506   2.244  1.3094 -1.1784  1.9455
 3175SOL     OW20983   0.247   3.850   5.346  0.3581  0.2521  0.3525
 3175SOL    HW120984   0.163   3.875   5.308  0.4419 -0.0450 -0.0187
 3175SOL    HW220985   0.247   3.756   5.327  2.8194  0.2306  0.4879
 3176SOL     OW20986   2.641   2.475   5.533 -0.4079 -0.3835 -0.2791
 3176SOL    HW120987   2.582   2.431   5.471 -0.4746 -0.8100  0.0879
 3176SOL    HW220988   2.672   2.544   5.474  0.3872 -0.8087 -0.3508
 3177SOL     OW20989   1.152   3.431   8.594  0.1092  0.4070  0.1995
 3177SOL    HW120990   1.084   3.432   8.526  0.2389  0.5638  0.0723
 3177SOL    HW220991   1.113   3.384   8.667 -2.0022  2.6068  0.5278
 3178SOL     OW20992   4.105   0.804   6.124  0.0987  0.0065  0.2235
 3178SOL    HW120993   4.085   0.854   6.203 -0.7024 -0.2338  0.1675
 3178SOL    HW220994   4.198   0.822   6.111 -0.1809  2.3681  1.4543
 3179SOL     OW20995   3.416   1.037  17.281  0.5907 -0.5289 -0.1388
 3179SOL    HW120996   3.478   1.064  17.349  0.9270 -1.4373 -0.0909
 3179SOL    HW220997   3.392   0.954  17.323  0.7390 -0.8383 -0.6736
 3180SOL     OW20998   4.290   4.625   4.471 -0.4892  0.2798 -0.0771
 3180SOL    HW120999   4.249   4.633   4.384  0.3337  0.7411 -0.4213
 3180SOL    HW221000   4.338   4.543   4.461 -0.4876  0.3344 -0.5476
 3181SOL     OW21001   1.178   0.275  17.135 -0.1236 -0.1910 -0.2752
 3181SOL    HW121002   1.093   0.295  17.174 -1.7498 -0.4077 -3.7230
 3181SOL    HW221003   1.225   0.259  17.217  2.4839  2.7490 -1.2180
 3182SOL     OW21004   0.510   2.777   0.611 -0.7482  0.3288  0.4695
 3182SOL    HW121005   0.577   2.816   0.668  1.4870  0.0281 -1.9238
 3182SOL    HW221006   0.512   2.837   0.537 -0.7158  0.9791  0.9982
 3183SOL     OW21007   3.790   2.208   7.015  0.3981  0.3167  0.3437
 3183SOL    HW121008   3.799   2.134   7.075  0.4397  1.4146  1.7060
 3183SOL    HW221009   3.774   2.158   6.935 -0.8225  0.4068  0.5327
 3184SOL     OW21010   2.299   1.896   7.595  0.2600 -0.5411  0.2458
 3184SOL    HW121011   2.365   1.930   7.655  0.2538 -0.5200  0.2407
 3184SOL    HW221012   2.222   1.900   7.651 -0.2123  0.6124 -0.4880
 3185SOL     OW21013   2.591   3.321   3.855  0.1581  0.4851  0.2547
 3185SOL    HW121014   2.528   3.369   3.802 -1.2823 -1.8697 -0.1516
 3185SOL    HW221015   2.596   3.370   3.938  0.2883  1.0187 -0.0673
 3186SOL     OW21016   0.172   0.533   5.247 -0.0575 -0.2388  0.1495
 3186SOL    HW121017   0.199   0.485   5.325 -0.6260 -1.9929 -0.7450
 3186SOL    HW221018   0.085   0.498   5.232 -0.7364  1.0161  1.1195
 3187SOL     OW21019   2.471   3.506   5.445  0.2947  0.4762 -0.4508
 3187SOL    HW121020   2.410   3.450   5.493  0.9240  0.6228  0.5228
 3187SOL    HW221021   2.554   3.500   5.491 -0.7450  3.2056  1.7704
 3188SOL     OW21022   2.612   3.433  14.023 -0.4902 -0.2248 -0.2381
 3188SOL    HW121023   2.595   3.504  13.962 -2.0695  0.0864  0.5519
 3188SOL    HW221024   2.694   3.401  13.987 -0.5523  0.0461 -0.6120
 3189SOL     OW21025   1.228   4.292  15.277  0.3076  0.5290 -0.3689
 3189SOL    HW121026   1.321   4.279  15.258  0.1303 -0.6977 -0.3874
 3189SOL    HW221027   1.213   4.386  15.268  0.4360  0.6438  0.5972
 3190SOL     OW21028   4.597   1.302   6.596  0.6404  0.3358 -0.0084
 3190SOL    HW121029   4.674   1.247   6.584  1.2820  0.5902  2.8377
 3190SOL    HW221030   4.533   1.232   6.588 -0.2624  1.1735 -0.1653
 3191SOL     OW21031   0.470   4.691   5.212  0.4385 -0.2668 -0.5225
 3191SOL    HW121032   0.524   0.045   5.212 -0.5176  0.3804 -0.3562
 3191SOL    HW221033   0.538   4.630   5.241  1.5355  0.0225 -2.4860
 3192SOL     OW21034   0.830   2.543   2.120  0.0109 -0.0482  0.9747
 3192SOL    HW121035   0.766   2.566   2.053  1.7770 -0.5546 -0.8792
 3192SOL    HW221036   0.881   2.623   2.128  0.5206 -0.1266 -1.5336
 3193SOL     OW21037   0.300   2.412   4.575  0.7555 -0.3148 -0.5028
 3193SOL    HW121038   0.386   2.408   4.617  2.1460  3.1221 -3.0656
 3193SOL    HW221039   0.310   2.356   4.498  1.3602  0.8419 -1.2673
 3194SOL     OW21040   3.010   0.457   1.527  0.2761 -0.5827 -0.3502
 3194SOL    HW121041   3.062   0.537   1.533  1.7029 -1.5962  0.9408
 3194SOL    HW221042   2.949   0.460   1.601  0.4959  1.7498 -0.2622
 3195SOL     OW21043   2.453   1.639   1.317  0.4473  0.2991 -0.2396
 3195SOL    HW121044   2.520   1.701   1.345  0.4952 -0.1229  0.5821
 3195SOL    HW221045   2.396   1.689   1.260 -1.7813 -0.8224  0.9753
 3196SOL     OW21046   1.126   0.908   4.032  0.7269  0.6119  0.4982
 3196SOL    HW121047   1.179   0.986   4.017  0.7933  0.1407 -1.6804
 3196SOL    HW221048   1.202   0.851   4.041  1.6312  1.9435  1.2223
 3197SOL     OW21049   0.172   4.242  10.203 -0.5886 -0.3653  0.4800
 3197SOL    HW121050   0.109   4.271  10.269  0.4123 -1.0932  1.7452
 3197SOL    HW221051   0.242   4.233  10.267  1.5016 -2.0032 -2.0470
 3198SOL     OW21052   1.023   4.144   2.115  0.0089  0.2169 -0.0492
 3198SOL    HW121053   1.018   4.237   2.093 -0.3596  0.5609  1.4534
 3198SOL    HW221054   1.106   4.142   2.163  0.1893  0.0622 -0.3666
 3199SOL     OW21055   1.797   1.694  10.114 -0.1236 -0.3161  0.0944
 3199SOL    HW121056   1.839   1.682  10.029 -1.2976  3.2041 -0.9721
 3199SOL    HW221057   1.709   1.729  10.098  0.5429  0.6428 -1.3743
 3200SOL     OW21058   2.739   2.755   8.228  0.1597  0.1376 -0.5155
 3200SOL    HW121059   2.655   2.736   8.187 -0.4516  0.0058  0.7900
 3200SOL    HW221060   2.746   2.847   8.250  0.1023  0.6511 -2.6863
 3201SOL     OW21061   4.514   3.750   4.776  0.0618  0.1351  0.2371
 3201SOL    HW121062   4.604   3.766   4.805  0.7563 -0.0451 -1.8502
 3201SOL    HW221063   4.485   3.839   4.753 -2.4791 -0.6873  0.2888
 3202SOL     OW21064   1.858   1.620   9.004  0.6254  0.0474 -0.6615
 3202SOL    HW121065   1.844   1.711   9.031 -1.2082  0.0679 -1.6192
 3202SOL    HW221066   1.772   1.598   8.967  0.1940  0.1786  0.2708
 3203SOL     OW21067   3.265   1.329   3.443 -0.1580  0.2794 -0.3890
 3203SOL    HW121068   3.324   1.297   3.375  0.8116 -0.5717  0.8595
 3203SOL    HW221069   3.261   1.423   3.429  0.3023  0.6298  1.9472
 3204SOL     OW21070   3.975   1.871  14.413 -0.4368  0.2120 -0.3366
 3204SOL    HW121071   3.917   1.875  14.490  0.8956  0.9563  0.6251
 3204SOL    HW221072   3.945   1.942  14.356  1.5589  1.9550  0.8089
 3205SOL     OW21073   2.235   0.671   3.246  0.3284  0.0138 -0.6345
 3205SOL    HW121074   2.191   0.747   3.209  1.5899  1.9730  1.8801
 3205SOL    HW221075   2.159   0.615   3.261 -1.3261  2.2382 -0.7468
 3206SOL     OW21076   2.077   3.919   5.210 -0.4437 -0.3652 -0.1606
 3206SOL    HW121077   2.073   4.004   5.255  3.2804  0.1072 -0.7245
 3206SOL    HW221078   2.072   3.942   5.117  0.6094  0.4031 -0.0343
 3207SOL     OW21079   3.301   0.525  17.142 -0.0403  0.3894  0.1237
 3207SOL    HW121080   3.361   0.594  17.115 -0.4941  0.3289 -1.0179
 3207SOL    HW221081   3.214   0.562  17.125 -1.9898 -4.5318 -0.4568
 3208SOL     OW21082   0.975   0.893   7.291  0.4843  0.1056 -0.2056
 3208SOL    HW121083   0.936   0.917   7.375  0.1275  1.7211 -0.8408
 3208SOL    HW221084   0.930   0.809   7.276  0.3126  0.3257 -0.9458
 3209SOL     OW21085   3.839   2.506   4.876  0.3513 -0.1164 -0.0341
 3209SOL    HW121086   3.774   2.472   4.815  0.8806 -1.9896  0.4679
 3209SOL    HW221087   3.857   2.591   4.836 -0.1781  0.3787  0.7816
 3210SOL     OW21088   0.244   1.300   3.337 -0.0140 -0.3712 -0.3632
 3210SOL    HW121089   0.245   1.341   3.251  0.3749 -1.4761 -0.8851
 3210SOL    HW221090   0.226   1.367   3.403  2.6565  2.0265 -2.0908
 3211SOL     OW21091   3.919   0.855  13.310  0.0266  0.5596  0.2676
 3211SOL    HW121092   3.930   0.886  13.220 -3.2625  1.0040 -0.0118
 3211SOL    HW221093   3.836   0.900  13.330  0.2834  0.6112  1.1874
 3212SOL     OW21094   3.543   4.558  12.733 -0.5079 -0.8540 -0.3798
 3212SOL    HW121095   3.604   4.595  12.796 -0.2928  0.1081 -1.1580
 3212SOL    HW221096   3.555   4.465  12.754  1.3084 -0.6376 -0.4650
 3213SOL     OW21097   3.742   4.500   1.419 -0.3429  0.0506  0.0134
 3213SOL    HW121098   3.801   4.484   1.346 -0.1744 -1.2051  0.4305
 3213SOL    HW221099   3.694   4.572   1.377  2.6453  0.7934 -2.0883
 3214SOL     OW21100   4.708   0.432  12.840  0.0823 -0.0152  0.2792
 3214SOL    HW121101   0.064   0.475  12.812 -0.3162  1.7766  1.8955
 3214SOL    HW221102   4.694   0.486  12.918  1.7780 -0.8806  1.2052
 3215SOL     OW21103   2.861   3.766  15.828 -0.4935  0.1468  0.2633
 3215SOL    HW121104   2.847   3.723  15.744 -0.1691  4.1425 -1.8502
 3215SOL    HW221105   2.771   3.790  15.847 -0.5463 -0.5067  0.8600
 3216SOL     OW21106   4.692   1.889   8.563  0.2773 -0.3550 -0.6805
 3216SOL    HW121107   4.699   1.818   8.499 -2.4306 -0.8940 -0.3548
 3216SOL    HW221108   0.018   1.959   8.522  1.6084 -0.3596  0.9938
 3217SOL     OW21109   0.655   3.359   5.935  0.3945 -0.1414 -0.1162
 3217SOL    HW121110   0.649   3.302   6.011  1.2820 -0.2831 -0.1457
 3217SOL    HW221111   0.591   3.317   5.877  0.7505 -0.5732 -0.1963
 3218SOL     OW21112   4.388   1.847   6.091 -0.0082  0.3076  0.3523
 3218SOL    HW121113   4.375   1.902   6.014  0.8750 -2.0395 -1.4920
 3218SOL    HW221114   4.306   1.862   6.138 -0.1864 -2.0940  0.8040
 3219SOL     OW21115   0.046   2.620  14.018 -0.3593  0.7550  0.1483
 3219SOL    HW121116   0.049   2.564  14.095  0.6842  0.9009  0.2228
 3219SOL    HW221117   4.696   2.574  13.981  1.6865  0.0512 -3.1707
 3220SOL     OW21118   0.702   3.426   7.725 -0.2587  0.1914  0.0068
 3220SOL    HW121119   0.647   3.417   7.802 -0.8787  0.8645 -0.3627
 3220SOL    HW221120   0.687   3.347   7.673 -0.0936 -0.2258  0.5946
 3221SOL     OW21121   4.031   1.313   0.333  0.2636  0.0304 -0.6052
 3221SOL    HW121122   3.966   1.383   0.329  0.3319  0.0320 -1.8615
 3221SOL    HW221123   4.041   1.294   0.426  0.3853 -0.3097 -0.6884
 3222SOL     OW21124   4.301   0.515   3.032  0.2524 -0.3836  0.3973
 3222SOL    HW121125   4.252   0.591   3.001 -0.1096 -0.6894  0.2167
 3222SOL    HW221126   4.346   0.560   3.104 -0.5135 -2.3470  2.1063
 3223SOL     OW21127   0.587   4.660   7.125 -0.1926  0.3964  0.2018
 3223SOL    HW121128   0.539   4.646   7.043  0.9104 -0.2548 -0.3269
 3223SOL    HW221129   0.593   4.568   7.150 -3.4100  0.4145  1.0855
 3224SOL     OW21130   3.129   2.215   4.869 -0.0985  0.4803  0.0529
 3224SOL    HW121131   3.192   2.246   4.934 -0.7766  0.7950  0.5571
 3224SOL    HW221132   3.082   2.295   4.848  1.6937  0.9647 -2.0537
 3225SOL     OW21133   2.772   0.700  12.342 -0.2001  0.4499  0.1561
 3225SOL    HW121134   2.807   0.612  12.325 -0.9216  0.2082 -0.0705
 3225SOL    HW221135   2.682   0.672  12.356  0.2334 -0.8121  0.4484
 3226SOL     OW21136   3.818   1.036   2.473 -0.0482  0.0480  0.2100
 3226SOL    HW121137   3.772   1.090   2.408 -0.6958 -0.3189  0.3577
 3226SOL    HW221138   3.748   0.976   2.498  0.5215 -1.2049 -1.2339
 3227SOL     OW21139   0.290   3.229   2.385  0.1181 -0.6297 -0.1373
 3227SOL    HW121140   0.236   3.303   2.413  1.2698  0.6478 -1.3014
 3227SOL    HW221141   0.320   3.194   2.469 -0.8342  0.4578  0.6645
 3228SOL     OW21142   0.883   0.403  17.417 -0.5700 -0.2798  0.4627
 3228SOL    HW121143   0.844   0.346  17.484 -0.0561 -0.9279  0.2126
 3228SOL    HW221144   0.946   0.448  17.473 -0.4745  1.6491 -1.2229
 3229SOL     OW21145   0.660   1.588   6.408 -0.1245 -0.4140 -0.7559
 3229SOL    HW121146   0.649   1.676   6.445 -2.0024 -1.5259  1.3623
 3229SOL    HW221147   0.643   1.604   6.315  0.0286 -0.5963 -0.8139
 3230SOL     OW21148   4.416   3.391   1.871  0.0002  0.1490  0.4669
 3230SOL    HW121149   4.473   3.344   1.931 -1.7824  0.0326  2.0617
 3230SOL    HW221150   4.457   3.399   1.785  2.1974  0.7441  1.5582
 3231SOL     OW21151   0.221   2.259   1.604 -0.5601 -0.0044 -0.7617
 3231SOL    HW121152   0.177   2.306   1.674  0.1898  0.3041 -0.4977
 3231SOL    HW221153   0.142   2.235   1.556 -2.0958  1.2192  1.1621
 3232SOL     OW21154   2.481   0.393   5.559  0.4448  0.5116  0.2869
 3232SOL    HW121155   2.560   0.372   5.609 -1.5958 -1.9289  2.4604
 3232SOL    HW221156   2.457   0.476   5.602  0.9221  0.1199  1.3227
 3233SOL     OW21157   4.691   3.413   9.782 -0.7012 -0.1593  0.4273
 3233SOL    HW121158   4.684   3.470   9.858  0.0973  0.2880  0.1645
 3233SOL    HW221159   0.035   3.459   9.734 -0.8961 -0.8710 -0.5372
 3234SOL     OW21160   1.620   4.058   9.596  0.3574 -0.2755 -0.0975
 3234SOL    HW121161   1.536   4.015   9.611  1.2966 -2.1144 -0.1462
 3234SOL    HW221162   1.631   4.031   9.505  2.9454 -0.3612  0.2470
 3235SOL     OW21163   2.033   1.721   2.632  0.4054  0.0071 -0.3582
 3235SOL    HW121164   1.985   1.660   2.576 -4.2204  2.1730  1.1976
 3235SOL    HW221165   1.996   1.809   2.620  1.7986  0.6819  0.2203
 3236SOL     OW21166   0.244   4.437   4.087 -0.1191 -0.4718 -0.4963
 3236SOL    HW121167   0.323   4.418   4.137 -0.9148 -2.2914  0.0789
 3236SOL    HW221168   0.257   4.532   4.089 -0.3095 -0.4478 -0.2927
 3237SOL     OW21169   1.559   2.973  10.850 -0.3610  0.5829 -0.7672
 3237SOL    HW121170   1.521   2.952  10.765  0.2360 -0.4702 -0.7633
 3237SOL    HW221171   1.550   2.892  10.900  1.2859  0.6358 -0.3763
 3238SOL     OW21172   0.997   2.520  11.694  0.0918  0.0497 -0.4095
 3238SOL    HW121173   0.981   2.461  11.768  1.9324  0.2703  0.1678
 3238SOL    HW221174   0.973   2.602  11.736 -1.6342  0.1082 -1.4878
 3239SOL     OW21175   1.307   1.500   7.037 -0.0581 -0.0026  0.2855
 3239SOL    HW121176   1.306   1.584   7.083 -2.2283  0.2297 -0.1987
 3239SOL    HW221177   1.262   1.438   7.094 -0.3713 -1.2602 -1.3295
 3240SOL     OW21178   0.380   1.847   5.588  0.0307 -0.5360 -0.3705
 3240SOL    HW121179   0.428   1.866   5.507  0.7338 -0.6577  0.0125
 3240SOL    HW221180   0.372   1.935   5.623 -0.7067 -0.9927  0.6168
 3241SOL     OW21181   2.848   2.618   0.870 -0.7736 -0.3089  1.1945
 3241SOL    HW121182   2.916   2.661   0.922 -2.3594  1.6873  1.6150
 3241SOL    HW221183   2.905   2.555   0.826 -1.8099  1.1700 -2.3325
 3242SOL     OW21184   2.458   2.183   2.545  0.0949  0.4710 -0.3256
 3242SOL    HW121185   2.446   2.274   2.520  1.2215  1.2338  1.9275
 3242SOL    HW221186   2.388   2.139   2.496  0.5338 -0.7072  0.0905
 3243SOL     OW21187   1.824   2.665   3.630 -0.1328  0.3012  0.3228
 3243SOL    HW121188   1.783   2.615   3.700 -1.6429  1.2291  0.0875
 3243SOL    HW221189   1.820   2.607   3.554 -0.0820 -0.3839  0.8406
 3244SOL     OW21190   0.433   2.302   6.950  0.0882  0.2262 -0.0575
 3244SOL    HW121191   0.383   2.348   6.883 -1.7771 -0.3403  0.9770
 3244SOL    HW221192   0.425   2.215   6.910 -0.4830 -0.1344  0.8523
 3245SOL     OW21193   2.287   3.580  17.570 -0.3685 -0.3331  0.2606
 3245SOL    HW121194   2.258   3.554  17.657 -1.8334 -1.3478 -0.5338
 3245SOL    HW221195   2.381   3.592  17.583 -0.7826  1.3003  1.7171
 3246SOL     OW21196   4.302   3.591   3.687  0.4961  0.2388  0.0347
 3246SOL    HW121197   4.240   3.532   3.730  2.3771 -1.7058  0.0592
 3246SOL    HW221198   4.364   3.614   3.757  2.2187 -2.0835 -0.7676
 3247SOL     OW21199   1.505   3.585   2.223 -0.1202  0.0499 -0.0962
 3247SOL    HW121200   1.544   3.534   2.152 -1.0169 -0.0420 -0.5299
 3247SOL    HW221201   1.503   3.518   2.291 -0.6958 -0.3085 -0.4668
 3248SOL     OW21202   0.659   4.023   5.782  0.0498  0.2028 -0.4826
 3248SOL    HW121203   0.740   3.985   5.816  0.3252  1.6291  0.4921
 3248SOL    HW221204   0.597   4.001   5.852  1.0050  0.2635  0.3976
 3249SOL     OW21205   3.884   0.797  11.029  0.4188  0.7015 -0.4892
 3249SOL    HW121206   3.941   0.753  10.965  0.6314 -0.7991  0.7625
 3249SOL    HW221207   3.938   0.797  11.108 -1.4713 -2.2392  0.8009
 3250SOL     OW21208   0.003   3.629   9.171  0.0142  0.3313  0.2418
 3250SOL    HW121209   0.065   3.556   9.180  1.5782  1.5303 -1.0364
 3250SOL    HW221210   4.717   3.655   9.262  0.2327 -1.4864  0.7986
 3251SOL     OW21211   3.931   1.058  13.790 -0.0437 -0.5908 -0.0489
 3251SOL    HW121212   3.996   1.128  13.784  0.0549 -0.6585  0.2287
 3251SOL    HW221213   3.876   1.085  13.864  0.6864 -1.6615  0.8845
 3252SOL     OW21214   2.399   3.257   3.402  0.3029  0.6092  0.3944
 3252SOL    HW121215   2.329   3.266   3.337 -0.5930  0.9265  1.4215
 3252SOL    HW221216   2.338   3.230   3.470  0.9558  1.3323  1.2789
 3253SOL     OW21217   3.332   3.767  10.217  0.2764  0.6587  0.2523
 3253SOL    HW121218   3.275   3.705  10.172  0.8521  0.6196 -0.4181
 3253SOL    HW221219   3.266   3.802  10.277 -1.6538  1.5934 -2.4420
 3254SOL     OW21220   3.820   4.266   8.703 -0.3163  0.1633  0.6485
 3254SOL    HW121221   3.867   4.205   8.645  0.2726  1.7735 -0.5779
 3254SOL    HW221222   3.744   4.213   8.727 -0.7605  2.5652  4.4695
 3255SOL     OW21223   3.336   4.676   2.027  0.0245  0.0353  0.9373
 3255SOL    HW121224   3.385   0.016   2.076  0.5377 -0.3849  0.9840
 3255SOL    HW221225   3.364   4.590   2.058  1.4542 -0.6850 -2.3979
 3256SOL     OW21226   3.309   0.487   8.043  0.8050  0.5632  0.1853
 3256SOL    HW121227   3.221   0.512   8.068  0.7052 -2.0757  2.4632
 3256SOL    HW221228   3.358   0.466   8.123  1.4680 -1.5640 -0.7680
 3257SOL     OW21229   3.066   0.414   0.055  0.0618 -0.4180  0.7133
 3257SOL    HW121230   3.109   0.499   0.048  1.1604 -0.9506  0.9914
 3257SOL    HW221231   2.979   0.450   0.070 -1.4269 -2.5263 -2.9165
 3258SOL     OW21232   3.683   1.132   6.009  0.2494  0.1411 -0.2583
 3258SOL    HW121233   3.694   1.227   6.000  1.8954  0.1061  1.3400
 3258SOL    HW221234   3.767   1.112   6.050 -1.5622 -1.1853  2.7761
 3259SOL     OW21235   4.625   0.707   0.332 -0.4338 -0.5800 -0.0228
 3259SOL    HW121236   4.541   0.676   0.298 -0.0763  0.3421 -1.7949
 3259SOL    HW221237   4.600   0.760   0.407  1.4284  0.4893 -0.1577
 3260SOL     OW21238   2.928   0.952   0.069  0.1705 -0.2308 -0.3473
 3260SOL    HW121239   2.989   0.913   0.131 -1.8744 -2.0532  0.4849
 3260SOL    HW221240   2.911   1.036   0.112 -0.0250 -0.1326 -0.6153
 3261SOL     OW21241   1.213   0.791   9.143 -0.5751  0.4016  0.8714
 3261SOL    HW121242   1.192   0.868   9.091  1.1746  0.2505 -0.0862
 3261SOL    HW221243   1.248   0.843   9.215  2.1379  0.9829 -0.8565
 3262SOL     OW21244   1.676   0.528   8.832  0.1409  0.2243  0.2109
 3262SOL    HW121245   1.641   0.605   8.787 -0.0959 -0.2030 -0.3459
 3262SOL    HW221246   1.675   0.476   8.751  0.1126 -1.0453  1.0238
 3263SOL     OW21247   2.056   3.555   7.307 -0.0628  0.3430  0.5560
 3263SOL    HW121248   2.128   3.569   7.245 -0.9695  0.0947 -0.5578
 3263SOL    HW221249   2.015   3.642   7.310  0.9195  0.7425  2.2744
 3264SOL     OW21250   0.599   2.847   1.515  0.4477 -0.1809 -0.5605
 3264SOL    HW121251   0.627   2.919   1.573  2.3980  0.8928 -2.8385
 3264SOL    HW221252   0.630   2.870   1.428  0.1431 -0.7900 -0.8265
 3265SOL     OW21253   2.974   1.824  17.412 -0.0385  0.0550 -0.3128
 3265SOL    HW121254   3.035   1.799  17.343  2.5810 -0.4319  2.1531
 3265SOL    HW221255   2.922   1.892  17.368  0.4205  0.6106  0.0093
 3266SOL     OW21256   0.780   1.891   6.226  0.0931 -0.5742  0.2098
 3266SOL    HW121257   0.799   1.912   6.317 -0.1374  0.4985  0.0133
 3266SOL    HW221258   0.869   1.875   6.194 -0.9217 -1.7567 -2.0687
 3267SOL     OW21259   4.364   0.098  14.861 -0.0992  0.2070  0.0366
 3267SOL    HW121260   4.428   0.142  14.918 -0.4125 -2.1155  2.1787
 3267SOL    HW221261   4.300   0.067  14.925 -1.7388  2.4275 -0.5312
 3268SOL     OW21262   2.214   3.949   2.166  0.3239 -0.0969  0.1599
 3268SOL    HW121263   2.205   3.865   2.121 -3.3825  0.5119 -0.2131
 3268SOL    HW221264   2.126   3.976   2.190  0.8577  1.6378  0.1617
 3269SOL     OW21265   0.342   1.553  10.066  0.1648 -0.1737  0.1614
 3269SOL    HW121266   0.379   1.534  10.153 -1.0513  1.9205  1.1446
 3269SOL    HW221267   0.411   1.607  10.029 -0.6043 -0.0088 -1.0242
 3270SOL     OW21268   1.824   3.632   4.560 -0.0571  0.3679  0.0936
 3270SOL    HW121269   1.752   3.693   4.578 -0.1999  0.1275  0.3468
 3270SOL    HW221270   1.818   3.623   4.465  2.5610 -3.1888  0.2619
 3271SOL     OW21271   4.157   3.639  15.301  0.2542  0.4860  0.6607
 3271SOL    HW121272   4.197   3.558  15.268  1.8747  1.7537 -0.5369
 3271SOL    HW221273   4.216   3.692  15.247  0.6637  1.9755  2.5978
 3272SOL     OW21274   0.071   0.193   7.411 -0.2720  0.1767 -0.5776
 3272SOL    HW121275   0.086   0.204   7.505 -0.9630 -1.8449 -0.2322
 3272SOL    HW221276   0.157   0.176   7.374 -0.1659  0.6346 -0.5503
 3273SOL     OW21277   2.909   1.562   8.618  0.7494  0.0308 -0.0638
 3273SOL    HW121278   2.846   1.569   8.690 -0.3928 -1.7125 -0.9061
 3273SOL    HW221279   2.850   1.562   8.542  1.8580 -0.9550 -0.9198
 3274SOL     OW21280   3.419   0.175   1.024 -0.3850 -0.3297  0.0616
 3274SOL    HW121281   3.514   0.162   1.022 -0.0694  1.9827 -0.1321
 3274SOL    HW221282   3.419   0.271   1.032  1.5448 -0.3478  0.2848
 3275SOL     OW21283   0.229   0.220  14.739 -1.0617 -0.6375 -0.1931
 3275SOL    HW121284   0.195   0.282  14.675 -1.6401 -1.8998 -1.1009
 3275SOL    HW221285   0.159   0.155  14.738 -0.6256 -1.0684 -2.4190
 3276SOL     OW21286   0.815   3.524  17.604 -0.5400 -0.0277  0.2796
 3276SOL    HW121287   0.871   3.502  17.529 -0.2177 -0.0251  0.5219
 3276SOL    HW221288   0.869   3.501  17.679  0.1989  2.4448  0.5141
 3277SOL     OW21289   2.410   2.460  11.221 -0.1217  0.6790  0.2751
 3277SOL    HW121290   2.382   2.515  11.295  2.4855 -0.8047  2.3599
 3277SOL    HW221291   2.396   2.530  11.158  0.6472 -0.8523 -1.5759
 3278SOL     OW21292   2.684   0.215   7.954 -1.1497 -0.2453  0.1695
 3278SOL    HW121293   2.704   0.126   7.925 -1.0524 -0.1947  0.0832
 3278SOL    HW221294   2.707   0.277   7.885 -1.4969 -0.0462  0.2314
 3279SOL     OW21295   3.113   2.949   2.217 -0.9904  0.4814  0.1434
 3279SOL    HW121296   3.103   3.008   2.292 -2.8215 -0.6879  0.8249
 3279SOL    HW221297   3.197   2.911   2.243 -1.1104 -0.6380 -1.1167
 3280SOL     OW21298   3.560   1.362   8.453  0.1460  0.1200  0.0370
 3280SOL    HW121299   3.643   1.371   8.501 -0.0874  1.5294  0.1706
 3280SOL    HW221300   3.562   1.269   8.430  0.1251  0.3419 -0.8790
 3281SOL     OW21301   4.074   1.266   6.989 -0.4841  0.5771  0.2721
 3281SOL    HW121302   4.156   1.311   6.968  1.2933 -1.2377  3.2665
 3281SOL    HW221303   4.029   1.320   7.054  0.3190 -1.3273  2.4264
 3282SOL     OW21304   4.249   3.819  10.080 -0.1146 -0.0017 -0.3092
 3282SOL    HW121305   4.334   3.834  10.120 -1.3821  2.4326  1.4279
 3282SOL    HW221306   4.268   3.846   9.990 -2.2990 -1.0223 -1.0841
 3283SOL     OW21307   1.090   1.104  17.417 -0.3074  0.0081 -0.6750
 3283SOL    HW121308   1.044   1.185  17.442  0.5790  0.4948 -0.6210
 3283SOL    HW221309   1.144   1.091  17.495  1.1855  1.0797 -1.5135
 3284SOL     OW21310   2.366   1.555   5.834 -0.2499  0.3103  0.1577
 3284SOL    HW121311   2.413   1.542   5.917  1.0773  1.0394 -0.4681
 3284SOL    HW221312   2.437   1.589   5.780 -1.0743  2.9060  0.6848
 3285SOL     OW21313   3.264   0.128   0.443 -0.2254  1.2149  0.5222
 3285SOL    HW121314   3.289   0.098   0.355  0.4315  0.7089  0.8788
 3285SOL    HW221315   3.333   0.195   0.443 -1.7778  2.8166 -2.7403
 3286SOL     OW21316   0.853   1.215  15.184  0.2990 -0.1376 -0.5558
 3286SOL    HW121317   0.941   1.242  15.159  0.1335  0.0700 -0.9156
 3286SOL    HW221318   0.866   1.123  15.207  0.1642 -0.2497 -0.9401
 3287SOL     OW21319   2.378   0.754   8.346  0.1289  0.0354  0.0554
 3287SOL    HW121320   2.406   0.714   8.428 -0.5771 -0.0165  0.2688
 3287SOL    HW221321   2.285   0.746   8.365 -0.4537  2.5529 -1.7483
 3288SOL     OW21322   4.470   0.592  16.745  0.1591  0.0332 -0.2946
 3288SOL    HW121323   4.456   0.613  16.838  0.4092 -0.2461 -0.1940
 3288SOL    HW221324   4.551   0.543  16.761 -0.5451 -1.4463 -1.2899
 3289SOL     OW21325   0.946   0.752   6.600 -0.0739 -0.6832 -0.4313
 3289SOL    HW121326   1.039   0.768   6.584 -0.7521  1.6871 -1.9432
 3289SOL    HW221327   0.931   0.838   6.640 -1.0507 -1.5862  1.1293
 3290SOL     OW21328   2.215   0.045  17.012 -0.0897  0.1889 -0.0255
 3290SOL    HW121329   2.126   0.029  16.980  0.5003 -3.5335  0.2262
 3290SOL    HW221330   2.205   0.118  17.073 -0.3739 -0.7821  1.0873
 3291SOL     OW21331   1.761   3.119   3.334 -0.7195 -0.8355  0.4406
 3291SOL    HW121332   1.773   3.038   3.382  1.8813 -0.1939  0.8794
 3291SOL    HW221333   1.829   3.100   3.269  1.0375 -1.7213  2.5357
 3292SOL     OW21334   0.989   0.582   7.649 -0.5826 -0.0117 -0.1836
 3292SOL    HW121335   0.999   0.490   7.622  0.0263  0.2503 -0.8698
 3292SOL    HW221336   1.034   0.581   7.733  1.6654 -0.0733 -1.3706
 3293SOL     OW21337   0.369   1.622   7.824 -0.8319  0.3142  0.5676
 3293SOL    HW121338   0.399   1.599   7.736 -0.3251 -1.6535  1.2381
 3293SOL    HW221339   0.420   1.702   7.826  2.4437 -1.7312 -0.1809
 3294SOL     OW21340   0.388   3.746   0.555 -0.5646  0.1695  0.3816
 3294SOL    HW121341   0.447   3.742   0.480  0.3858 -0.7847  1.1805
 3294SOL    HW221342   0.408   3.657   0.584  0.2875 -0.0146 -0.7480
 3295SOL     OW21343   0.537   3.311  12.247  0.0632  0.0596  0.4729
 3295SOL    HW121344   0.524   3.254  12.323  0.2335 -1.6589 -0.8032
 3295SOL    HW221345   0.521   3.397  12.288  0.6993  0.3976  0.0104
 3296SOL     OW21346   0.909   3.049   1.489 -0.2073  0.0462 -0.2785
 3296SOL    HW121347   0.898   3.136   1.528  0.8852  0.1311 -0.1628
 3296SOL    HW221348   0.929   3.077   1.399  0.7674 -1.7415 -0.6191
 3297SOL     OW21349   3.969   0.369   7.515 -0.1923 -0.4730  0.1966
 3297SOL    HW121350   4.024   0.448   7.515  0.2688 -0.7730  1.9315
 3297SOL    HW221351   3.928   0.376   7.429 -0.8486 -0.9054  0.4741
 3298SOL     OW21352   1.187   3.265   3.561  0.3497 -0.1294 -0.3928
 3298SOL    HW121353   1.177   3.190   3.618  0.7989  1.4905  1.8327
 3298SOL    HW221354   1.225   3.326   3.625  2.4401 -1.5458 -0.2791
 3299SOL     OW21355   1.572   3.792   5.366 -0.2493 -0.0341  0.1073
 3299SOL    HW121356   1.491   3.829   5.333  0.8117  2.9654  0.9016
 3299SOL    HW221357   1.540   3.708   5.399 -0.4990  0.1193  0.2510
 3300SOL     OW21358   0.550   1.281   6.785 -0.6322  0.6180  0.4856
 3300SOL    HW121359   0.583   1.202   6.828  1.2394  1.9321  1.4259
 3300SOL    HW221360   0.614   1.293   6.715 -0.9742  1.3988  0.3078
 3301SOL     OW21361   4.334   2.659   7.183 -0.3562 -0.5950  0.1313
 3301SOL    HW121362   4.287   2.685   7.104 -1.3535 -2.8343 -0.0185
 3301SOL    HW221363   4.420   2.697   7.166 -0.6767 -0.1985 -0.5976
 3302SOL     OW21364   1.302   0.870  12.385 -0.8581  0.0790  0.0497
 3302SOL    HW121365   1.223   0.903  12.426 -0.3455  1.4273 -0.0631
 3302SOL    HW221366   1.274   0.791  12.338 -1.2840  0.4119 -0.2532
 3303SOL     OW21367   1.919   3.908  10.056  0.1399  0.1429 -0.2954
 3303SOL    HW121368   1.962   3.987  10.024  0.0210  0.1535 -0.4271
 3303SOL    HW221369   1.927   3.853   9.978 -1.3529 -1.6145  0.7841
 3304SOL     OW21370   2.529   1.975   6.300 -0.3453 -0.0986 -0.1471
 3304SOL    HW121371   2.549   2.011   6.386  3.0077  2.8887 -2.2168
 3304SOL    HW221372   2.434   1.982   6.311 -0.1941 -0.9506  1.8472
 3305SOL     OW21373   4.338   0.334   9.122  0.6312  0.4331  0.3449
 3305SOL    HW121374   4.393   0.267   9.083 -1.8555 -0.0950 -2.2829
 3305SOL    HW221375   4.250   0.300   9.106 -0.3266  2.2642  1.6658
 3306SOL     OW21376   3.814   1.225   5.015  0.6040  0.0018 -0.3028
 3306SOL    HW121377   3.798   1.315   5.044  0.0165 -0.5549  1.0794
 3306SOL    HW221378   3.746   1.211   4.948  0.1586 -1.9163  0.5480
 3307SOL     OW21379   0.767   3.481   3.214  0.1050  0.4002  0.0240
 3307SOL    HW121380   0.744   3.547   3.149  0.5537 -0.3963 -0.9399
 3307SOL    HW221381   0.772   3.539   3.290  3.1009  0.7868 -0.4450
 3308SOL     OW21382   2.635   4.022  12.028  0.0895 -0.0241 -0.4163
 3308SOL    HW121383   2.701   4.090  12.036  0.7897 -0.6303 -1.0161
 3308SOL    HW221384   2.583   4.057  12.100 -0.0252  0.9819 -0.9887
 3309SOL     OW21385   3.129   0.678   3.446 -0.3918  0.3708  0.0430
 3309SOL    HW121386   3.049   0.651   3.490  0.2451 -2.2337 -0.3725
 3309SOL    HW221387   3.182   0.599   3.457  0.6948  1.2360  1.0166
 3310SOL     OW21388   1.398   2.789  11.358  0.1763  0.4672 -0.3187
 3310SOL    HW121389   1.375   2.699  11.339 -0.4051  0.2855  1.2243
 3310SOL    HW221390   1.313   2.830  11.375  1.5748  3.3331 -0.2527
 3311SOL     OW21391   2.641   0.308   1.832 -0.0336  0.5608 -0.0785
 3311SOL    HW121392   2.702   0.348   1.893  0.1508 -0.9733  0.7726
 3311SOL    HW221393   2.602   0.380   1.784 -1.4767  0.8342  1.4725
 3312SOL     OW21394   2.857   3.586   3.668  0.3029 -0.5613  0.3667
 3312SOL    HW121395   2.827   3.496   3.683  0.3771 -0.2684  2.2712
 3312SOL    HW221396   2.951   3.575   3.656  0.1657 -0.1132 -1.1071
 3313SOL     OW21397   2.364   3.462  15.686 -0.1223 -0.1751 -0.3324
 3313SOL    HW121398   2.317   3.385  15.718 -1.8787  0.5991 -0.9996
 3313SOL    HW221399   2.298   3.530  15.703  1.3274  1.8983 -2.8762
 3314SOL     OW21400   1.490   4.134   7.575  0.2631 -0.3410  0.1813
 3314SOL    HW121401   1.492   4.180   7.658 -2.1829 -3.1609  1.8222
 3314SOL    HW221402   1.566   4.078   7.592  1.0036  0.9850  1.2422
 3315SOL     OW21403   4.218   2.576  12.405  0.1735 -0.0578 -0.2112
 3315SOL    HW121404   4.250   2.595  12.493  1.1380  0.2383 -0.6113
 3315SOL    HW221405   4.212   2.663  12.363  1.3833  1.1278  2.0760
 3316SOL     OW21406   1.886   1.729   6.319  0.1384  0.2515  0.2157
 3316SOL    HW121407   1.912   1.716   6.410 -0.9384 -2.7707  0.1106
 3316SOL    HW221408   1.952   1.674   6.276 -2.2855 -1.4556 -1.3476
 3317SOL     OW21409   2.990   0.649  14.802 -0.0922 -0.1050 -0.2736
 3317SOL    HW121410   3.052   0.689  14.863  0.1371 -0.7501 -0.0862
 3317SOL    HW221411   2.936   0.607  14.870  1.6903 -1.9361  0.0042
 3318SOL     OW21412   2.940   1.111   5.291  0.7266  0.3998  0.0787
 3318SOL    HW121413   3.014   1.150   5.336 -2.2234  5.0346  0.9246
 3318SOL    HW221414   2.940   1.021   5.325  0.1849  0.0139 -0.9391
 3319SOL     OW21415   1.563   0.817   4.807  0.0703 -0.4153 -0.3549
 3319SOL    HW121416   1.570   0.848   4.898 -0.3967 -1.3780  0.0115
 3319SOL    HW221417   1.641   0.760   4.803 -1.1107 -2.2251  1.7898
 3320SOL     OW21418   3.500   0.619   3.201 -0.3639  0.1043 -0.0319
 3320SOL    HW121419   3.482   0.553   3.133 -2.4298  0.0054  0.6117
 3320SOL    HW221420   3.509   0.702   3.156  0.3191 -0.5056 -1.0157
 3321SOL     OW21421   0.040   4.465   1.740 -0.1266  0.7954 -0.5385
 3321SOL    HW121422   0.026   4.457   1.646  0.4828 -0.2252 -0.5500
 3321SOL    HW221423   4.691   4.423   1.784  3.0557 -2.0743  2.1572
 3322SOL     OW21424   3.688   4.298   0.598  0.0187 -0.5853  0.0713
 3322SOL    HW121425   3.705   4.265   0.510  2.8493 -0.3474  0.5135
 3322SOL    HW221426   3.633   4.376   0.589  0.5547 -0.3110 -0.8095
 3323SOL     OW21427   1.065   2.017   6.678  0.0020  0.3945 -0.2611
 3323SOL    HW121428   0.974   1.985   6.680 -0.1869  0.8427 -1.2898
 3323SOL    HW221429   1.098   1.979   6.759 -1.5923 -2.8256 -1.1210
 3324SOL     OW21430   2.251   1.916   3.306 -0.0034  0.0743 -0.2989
 3324SOL    HW121431   2.164   1.892   3.274  0.3081 -1.6375  0.1525
 3324SOL    HW221432   2.244   2.011   3.309  2.3133  0.3072 -2.2167
 3325SOL     OW21433   0.752   1.899   5.904  0.2755  0.3060 -0.0670
 3325SOL    HW121434   0.803   1.886   5.823 -0.7315  1.2475 -0.8572
 3325SOL    HW221435   0.674   1.850   5.879 -0.5904  0.8865  1.5444
 3326SOL     OW21436   3.086   0.124   5.745 -0.0388  0.3275 -0.3349
 3326SOL    HW121437   3.176   0.107   5.774 -0.6687 -0.5616  1.1066
 3326SOL    HW221438   3.048   0.145   5.830  2.5311  0.2381  0.8343
 3327SOL     OW21439   1.275   2.910   7.498 -0.3486  0.3057  0.3732
 3327SOL    HW121440   1.268   2.823   7.458 -1.0438 -0.5718  2.4097
 3327SOL    HW221441   1.228   2.968   7.438 -0.0035  0.4670  0.2552
 3328SOL     OW21442   3.009   0.539  15.602  0.0495  0.6085 -0.4150
 3328SOL    HW121443   2.943   0.544  15.672  1.4540  1.3120  0.8670
 3328SOL    HW221444   3.035   0.447  15.600 -1.1618  0.2560  0.2113
 3329SOL     OW21445   2.393   0.583   8.078  0.1658 -0.1796  0.3699
 3329SOL    HW121446   2.409   0.620   8.164  0.1819 -1.2857  0.8432
 3329SOL    HW221447   2.483   0.557   8.059 -0.2791 -0.9293 -0.7508
 3330SOL     OW21448   1.867   1.569   7.274 -0.2109  0.6341  0.2213
 3330SOL    HW121449   1.933   1.554   7.206  1.1138  2.2323  1.1548
 3330SOL    HW221450   1.791   1.524   7.237  0.9734 -1.0764 -0.1261
 3331SOL     OW21451   3.480   0.311   0.391 -0.1582  0.7161  0.0704
 3331SOL    HW121452   3.563   0.264   0.389 -0.7961 -0.5020  1.9141
 3331SOL    HW221453   3.508   0.389   0.439 -0.4815  1.4911 -1.0173
 3332SOL     OW21454   2.031   4.385  11.464  0.2801  0.2857  0.1703
 3332SOL    HW121455   2.055   4.329  11.391  0.9895  0.7170  0.0747
 3332SOL    HW221456   2.007   4.468  11.421  0.5600 -0.0917 -0.7010
 3333SOL     OW21457   2.684   1.807  10.567 -0.1959 -0.1131 -0.0224
 3333SOL    HW121458   2.716   1.894  10.544  0.4910  0.0615  1.6066
 3333SOL    HW221459   2.749   1.774  10.629 -1.4185 -1.5195  0.5122
 3334SOL     OW21460   1.666   4.139   6.615  0.3166 -0.6156  0.0780
 3334SOL    HW121461   1.621   4.089   6.547 -0.8610  2.3672 -1.3254
 3334SOL    HW221462   1.750   4.097   6.633  2.2770  1.6019 -4.0588
 3335SOL     OW21463   4.632   3.621   1.295 -0.5144  0.2255 -0.8243
 3335SOL    HW121464   4.643   3.527   1.307  3.0743  0.4031 -2.8777
 3335SOL    HW221465   4.725   3.642   1.307 -0.4922 -0.7646  0.7037
 3336SOL     OW21466   2.546   1.406   3.970 -0.6027 -0.1483 -0.0135
 3336SOL    HW121467   2.541   1.389   4.064 -0.9687 -1.3608 -0.2552
 3336SOL    HW221468   2.641   1.415   3.962 -0.5944 -1.9560 -1.9707
 3337SOL     OW21469   2.427   0.815   3.874  0.2671 -0.3631  0.0943
 3337SOL    HW121470   2.404   0.868   3.798  0.0789 -0.4210  0.1107
 3337SOL    HW221471   2.480   0.884   3.915  3.9149 -2.5201 -0.9403
 3338SOL     OW21472   0.780   2.903   5.389 -0.0647  0.2443  0.7679
 3338SOL    HW121473   0.777   2.955   5.309  1.9063 -1.4387 -0.4103
 3338SOL    HW221474   0.834   2.826   5.368  1.1959  1.4004 -0.1987
 3339SOL     OW21475   3.443   0.845   9.253 -0.4846  0.3880  0.2700
 3339SOL    HW121476   3.498   0.896   9.193 -3.9627  0.8643 -2.5271
 3339SOL    HW221477   3.385   0.912   9.290 -1.2483 -0.8126  1.2464
 3340SOL     OW21478   4.513   4.109   6.167 -0.1791 -0.0746 -0.4333
 3340SOL    HW121479   4.587   4.125   6.227  1.5100  0.4545 -2.6527
 3340SOL    HW221480   4.504   4.198   6.135  2.4530  0.3274 -0.0551
 3341SOL     OW21481   0.868   0.294   3.811 -0.6739 -0.0928 -0.1370
 3341SOL    HW121482   0.878   0.324   3.721 -0.0852 -2.2207 -0.7789
 3341SOL    HW221483   0.774   0.272   3.813 -0.2131 -1.8327  2.1159
 3342SOL     OW21484   3.546   4.215   8.810 -0.1727 -0.8204 -0.0914
 3342SOL    HW121485   3.521   4.239   8.899 -1.5828 -2.8523  0.0547
 3342SOL    HW221486   3.458   4.208   8.772 -0.4872 -0.0560  0.4948
 3343SOL     OW21487   3.445   1.932   5.229  0.4019 -0.4111 -0.0461
 3343SOL    HW121488   3.383   1.951   5.160 -0.3184 -2.3452  0.0534
 3343SOL    HW221489   3.396   1.870   5.284 -0.5502 -0.0684 -0.5139
 3344SOL     OW21490   2.896   0.496   5.794  0.8604 -0.6428 -0.0253
 3344SOL    HW121491   2.869   0.520   5.882 -1.5198 -0.4100 -0.8117
 3344SOL    HW221492   2.842   0.554   5.738  1.6684 -1.6992 -1.9021
 3345SOL     OW21493   3.117   4.321   6.520 -0.4188  0.3030  0.2202
 3345SOL    HW121494   3.120   4.298   6.613 -0.4279 -1.2698 -0.1725
 3345SOL    HW221495   3.022   4.333   6.516 -0.6113 -0.7969  1.6431
 3346SOL     OW21496   3.102   0.791   0.196 -0.7218 -0.1954 -0.3486
 3346SOL    HW121497   3.117   0.728   0.125  1.7676  0.2564 -0.2374
 3346SOL    HW221498   3.151   0.750   0.267  2.1406  1.3909 -1.4345
 3347SOL     OW21499   0.544   1.655   5.103  0.7018 -0.1898 -0.3838
 3347SOL    HW121500   0.602   1.589   5.143  0.4860  0.9570  1.8352
 3347SOL    HW221501   0.599   1.732   5.091  0.9984 -0.2275  0.7550
 3348SOL     OW21502   2.983   1.185   6.410 -0.2874 -0.4996  0.4804
 3348SOL    HW121503   2.917   1.129   6.367  0.5432  0.2478 -1.7529
 3348SOL    HW221504   2.957   1.274   6.385  0.8645 -0.8103 -1.8427
 3349SOL     OW21505   1.141   1.847   8.860 -0.2130  0.2928  0.3071
 3349SOL    HW121506   1.126   1.940   8.877 -0.0240  0.5224 -0.8104
 3349SOL    HW221507   1.178   1.823   8.945  1.2104 -0.0211 -0.3871
 3350SOL     OW21508   1.865   0.765  13.512  0.6791  0.4661 -1.2719
 3350SOL    HW121509   1.952   0.803  13.516  1.0605 -0.6272  0.7253
 3350SOL    HW221510   1.836   0.786  13.601  1.6926  0.5023 -0.9542
 3351SOL     OW21511   3.371   3.047   0.398  0.1560 -0.1071 -0.1150
 3351SOL    HW121512   3.452   3.013   0.362 -0.0957 -2.8282  1.8509
 3351SOL    HW221513   3.360   2.982   0.469  0.7453  0.0795  0.1455
 3352SOL     OW21514   2.932   0.970   8.527  0.1929 -0.0543  0.4826
 3352SOL    HW121515   2.851   1.019   8.514  0.3107 -0.0258 -0.1535
 3352SOL    HW221516   2.947   0.984   8.621  0.4199  1.6185  0.2051
 3353SOL     OW21517   3.212   3.121   2.693 -0.5634 -0.2828  0.6253
 3353SOL    HW121518   3.177   3.166   2.770  0.9711  1.3557  0.3798
 3353SOL    HW221519   3.246   3.195   2.643 -1.9539  0.7431  1.1828
 3354SOL     OW21520   3.980   2.319   4.180 -0.0009  0.0470  0.0795
 3354SOL    HW121521   4.069   2.305   4.213  0.3225  0.4514 -0.6240
 3354SOL    HW221522   3.988   2.412   4.157  2.8738 -1.1246 -3.7260
 3355SOL     OW21523   2.019   3.463   2.243 -0.0288  0.3275  0.2243
 3355SOL    HW121524   1.965   3.542   2.246  0.5135  0.7195 -0.2198
 3355SOL    HW221525   2.081   3.487   2.174 -0.6642 -0.3911 -0.5977
 3356SOL     OW21526   2.864   2.003  14.702  0.0701  0.6596  0.1246
 3356SOL    HW121527   2.886   2.069  14.636  2.2500 -1.0365 -0.8495
 3356SOL    HW221528   2.772   2.026  14.720 -0.7728 -1.4183 -1.5697
 3357SOL     OW21529   4.083   3.369   7.179 -0.6861 -0.0693 -0.1497
 3357SOL    HW121530   4.032   3.291   7.199  1.1026 -1.0951  0.3864
 3357SOL    HW221531   4.040   3.405   7.101 -0.5522 -1.3455 -0.8037
 3358SOL     OW21532   2.521   4.457   5.821 -0.2570  0.6114 -0.4930
 3358SOL    HW121533   2.481   4.392   5.878 -0.7322 -0.5264 -2.1177
 3358SOL    HW221534   2.516   4.409   5.738  2.2329  0.7416 -0.7299
 3359SOL     OW21535   3.039   4.207   1.881 -0.7343  0.1231  0.1453
 3359SOL    HW121536   3.107   4.262   1.919 -0.8446  0.0852  0.3940
 3359SOL    HW221537   2.965   4.219   1.940  0.2016  0.9961  1.1427
 3360SOL     OW21538   4.105   0.773   5.442 -0.0623  0.4656  0.5958
 3360SOL    HW121539   4.171   0.751   5.376  0.7315  1.1072  1.1777
 3360SOL    HW221540   4.087   0.864   5.417  2.7501  1.1896  1.2127
 3361SOL     OW21541   3.728   0.089   2.850 -0.5593 -0.3792 -0.9701
 3361SOL    HW121542   3.772   0.079   2.934  1.8088  1.5127 -1.9915
 3361SOL    HW221543   3.639   0.059   2.868 -0.6142 -0.8400 -1.9828
 3362SOL     OW21544   2.872   0.683   1.718  0.0632  0.2953 -0.2063
 3362SOL    HW121545   2.903   0.721   1.801 -1.0986 -0.4910  0.5751
 3362SOL    HW221546   2.921   0.727   1.648 -1.6913  2.1276 -0.2831
 3363SOL     OW21547   2.329   0.984   2.998  0.1408 -0.0643  0.0836
 3363SOL    HW121548   2.248   0.963   3.044  0.3952  0.6703  0.8682
 3363SOL    HW221549   2.341   0.894   2.967 -1.8508 -0.8168  1.4484
 3364SOL     OW21550   4.459   1.627   4.737  0.3368  0.1311 -0.1867
 3364SOL    HW121551   4.489   1.549   4.690  2.6134  0.9267 -0.0687
 3364SOL    HW221552   4.441   1.679   4.659  0.9271  0.3762 -0.1608
 3365SOL     OW21553   1.340   2.441   1.839 -0.2366  0.9629  0.0564
 3365SOL    HW121554   1.397   2.516   1.819  2.8987 -1.4553 -0.0109
 3365SOL    HW221555   1.335   2.406   1.750  0.3832  0.5326  0.1919
 3366SOL     OW21556   3.800   0.819   5.734 -0.0879  0.1293  0.0412
 3366SOL    HW121557   3.761   0.737   5.705 -0.0055  0.1539 -0.1386
 3366SOL    HW221558   3.752   0.884   5.681  0.7153 -0.3707 -1.3023
 3367SOL     OW21559   0.106   3.794  16.710 -0.8875  0.1700 -0.7152
 3367SOL    HW121560   0.158   3.723  16.671 -1.1357  0.8998 -2.3721
 3367SOL    HW221561   0.038   3.799  16.643  0.4672  1.3552 -1.9888
 3368SOL     OW21562   4.131   2.486   8.326  0.5504 -1.0539 -0.3567
 3368SOL    HW121563   4.066   2.522   8.265  0.0588  1.2050  1.4896
 3368SOL    HW221564   4.100   2.396   8.334 -1.3179 -0.3330  0.3532
 3369SOL     OW21565   1.051   2.272   1.711 -0.6980 -0.4018 -0.7666
 3369SOL    HW121566   0.998   2.219   1.769 -1.9316  0.7918 -0.7897
 3369SOL    HW221567   0.990   2.345   1.699 -1.0038 -0.8779 -2.1387
 3370SOL     OW21568   2.458   0.449  16.608  0.1370 -0.2472 -0.1533
 3370SOL    HW121569   2.473   0.407  16.693  1.6900 -3.6723 -2.1615
 3370SOL    HW221570   2.549   0.447  16.579  0.1015 -0.9632 -0.2141
 3371SOL     OW21571   1.885   1.056   0.709 -0.7362  0.3053  0.3704
 3371SOL    HW121572   1.832   1.136   0.712  0.0489  0.8668 -0.8507
 3371SOL    HW221573   1.974   1.089   0.691 -0.9108  1.1277  1.0364
 3372SOL     OW21574   0.016   3.023   3.062 -0.0132  0.1366 -0.4357
 3372SOL    HW121575   0.026   2.967   2.985 -0.0884 -0.3948 -0.0522
 3372SOL    HW221576   4.647   3.039   3.068  0.1241  1.3338 -1.2684
 3373SOL     OW21577   2.904   1.347   2.408 -0.5330 -0.2994  0.1329
 3373SOL    HW121578   2.967   1.298   2.357  1.6545  0.4271  2.1111
 3373SOL    HW221579   2.913   1.307   2.495 -0.9804 -1.3970 -0.3271
 3374SOL     OW21580   3.705   0.535   5.067 -0.0126 -0.1372 -0.0895
 3374SOL    HW121581   3.647   0.558   5.140 -2.0981  1.3172 -2.2072
 3374SOL    HW221582   3.653   0.568   4.993 -1.7635 -1.3146  0.6248
 3375SOL     OW21583   0.341   2.437   5.682 -0.3440  0.6103  0.6687
 3375SOL    HW121584   0.318   2.400   5.597 -0.2836  1.2406  0.3746
 3375SOL    HW221585   0.260   2.485   5.699  0.0363  0.8921  1.6984
 3376SOL     OW21586   3.703   3.485   8.754  0.5395  0.4811 -0.1059
 3376SOL    HW121587   3.640   3.554   8.730 -0.3027 -0.4052 -0.4386
 3376SOL    HW221588   3.710   3.522   8.842  0.9710 -3.4317  1.4956
 3377SOL     OW21589   3.572   3.486   6.683  0.3129  0.1580 -0.1785
 3377SOL    HW121590   3.477   3.483   6.693  0.3505 -1.7788 -0.3126
 3377SOL    HW221591   3.590   3.526   6.768 -3.8748  0.9765  0.3385
 3378SOL     OW21592   0.684   3.728   5.513 -0.2271  0.2148 -0.1839
 3378SOL    HW121593   0.652   3.785   5.443 -1.8297 -0.8713 -0.3186
 3378SOL    HW221594   0.773   3.705   5.485 -0.1941 -1.1060  1.0183
 3379SOL     OW21595   2.422   3.650   7.596  0.1584 -0.8081 -0.4098
 3379SOL    HW121596   2.463   3.573   7.636  0.1251 -0.8570 -0.4688
 3379SOL    HW221597   2.336   3.613   7.576 -0.5648  0.5626  0.2088
 3380SOL     OW21598   1.433   4.587   3.473  0.8983  0.3337  0.1764
 3380SOL    HW121599   1.377   4.665   3.468 -3.5130 -2.8972 -0.1461
 3380SOL    HW221600   1.380   4.532   3.531 -0.2197  3.4580  2.1347
 3381SOL     OW21601   2.348   2.619   7.217  0.0553 -0.1445 -0.0696
 3381SOL    HW121602   2.259   2.628   7.183  0.9318 -0.1571 -2.3518
 3381SOL    HW221603   2.329   2.577   7.302 -0.5479 -1.1029 -0.6715
 3382SOL     OW21604   4.423   1.460   2.548  0.6113  0.0329  0.1703
 3382SOL    HW121605   4.470   1.481   2.466 -1.7959 -1.7204 -1.6584
 3382SOL    HW221606   4.362   1.398   2.508  0.1203 -0.0262  1.0135
 3383SOL     OW21607   2.462   1.454   9.795  0.2633 -0.0493 -0.0790
 3383SOL    HW121608   2.512   1.428   9.872  0.9643 -0.3893 -0.6499
 3383SOL    HW221609   2.381   1.403   9.796 -1.2377  2.3202 -0.2273
 3384SOL     OW21610   0.533   2.574  15.346 -0.7245  0.1312  0.7501
 3384SOL    HW121611   0.464   2.587  15.281  0.8631 -0.0574 -0.9756
 3384SOL    HW221612   0.502   2.492  15.384 -2.2539 -0.1971 -1.1733
 3385SOL     OW21613   2.602   0.653   2.032 -0.1848  0.2697  0.1121
 3385SOL    HW121614   2.667   0.722   2.042 -2.4485  2.4473 -0.2147
 3385SOL    HW221615   2.596   0.649   1.936 -0.0517 -0.9103  0.1539
 3386SOL     OW21616   2.153   4.262   2.330 -0.3714  0.0812 -0.3759
 3386SOL    HW121617   2.204   4.259   2.249  0.9445 -0.6960  0.4817
 3386SOL    HW221618   2.081   4.314   2.295 -0.4963 -0.1308 -0.4309
 3387SOL     OW21619   4.549   4.075   4.704 -0.0015  0.4329  0.6438
 3387SOL    HW121620   4.474   4.056   4.647  1.3996  1.5842 -1.6023
 3387SOL    HW221621   4.503   4.068   4.788  2.0637  2.0631  1.9090
 3388SOL     OW21622   0.279   3.102   6.971  0.2699 -0.4623 -0.6467
 3388SOL    HW121623   0.293   3.155   7.050  2.9495  0.2973 -1.6285
 3388SOL    HW221624   0.323   3.152   6.902  0.0270 -0.5941 -0.8985
 3389SOL     OW21625   1.989   1.414   4.246 -0.0349  0.1559  0.2714
 3389SOL    HW121626   1.920   1.349   4.264 -0.6490  0.5182 -0.7694
 3389SOL    HW221627   2.071   1.365   4.240 -2.1725 -3.5485  1.2206
 3390SOL     OW21628   3.505   1.064   2.843 -0.1357 -0.0692  0.2035
 3390SOL    HW121629   3.488   1.158   2.850 -1.0003 -0.2567  0.5111
 3390SOL    HW221630   3.420   1.021   2.833  0.1456  0.4696 -4.3512
 3391SOL     OW21631   2.677   4.664   3.474  0.1487 -0.4001  0.3443
 3391SOL    HW121632   2.714   4.578   3.454 -1.0237 -0.5726 -1.1092
 3391SOL    HW221633   2.632   4.699   3.397  1.6889 -1.5675 -1.0714
 3392SOL     OW21634   0.499   2.886   3.316 -0.2041 -0.8342  0.3603
 3392SOL    HW121635   0.452   2.969   3.321  1.5666  0.2058 -0.2321
 3392SOL    HW221636   0.531   2.877   3.226  1.1674 -1.3568  0.8958
 3393SOL     OW21637   1.963   3.892   7.647 -0.2753 -0.6194  0.4601
 3393SOL    HW121638   1.987   3.890   7.554 -3.0530  1.4255 -0.3134
 3393SOL    HW221639   1.935   3.800   7.646  1.1126 -1.0362 -0.2562
 3394SOL     OW21640   1.643   0.465   5.475  0.7831  0.4476  0.0180
 3394SOL    HW121641   1.589   0.484   5.398  0.1851  1.8494  0.7842
 3394SOL    HW221642   1.609   0.380   5.501 -1.7172  1.0643 -1.2338
 3395SOL     OW21643   3.867   4.477  14.784 -0.4599 -0.7325 -0.4426
 3395SOL    HW121644   3.914   4.402  14.821  3.3442  2.3102  0.9331
 3395SOL    HW221645   3.920   4.493  14.706  0.4730  2.4170  0.8265
 3396SOL     OW21646   2.466   1.902   4.540  0.4562 -0.0056 -0.8489
 3396SOL    HW121647   2.520   1.932   4.613 -1.5707 -1.3787  1.2162
 3396SOL    HW221648   2.519   1.935   4.468  1.1863  0.4312 -0.1104
 3397SOL     OW21649   4.211   0.652   6.373  0.4004  0.2377  0.2696
 3397SOL    HW121650   4.242   0.625   6.460  0.9302 -0.1324 -0.0333
 3397SOL    HW221651   4.196   0.745   6.391 -0.6208  0.3815 -1.4007
 3398SOL     OW21652   1.979   4.519   5.214 -0.1979  0.4644  0.4145
 3398SOL    HW121653   1.966   4.614   5.215  0.6552  0.5843 -1.6577
 3398SOL    HW221654   1.929   4.496   5.293  1.5104  1.2631  1.7363
 3399SOL     OW21655   0.238   2.333   1.326 -0.2813  0.0284 -0.0805
 3399SOL    HW121656   0.204   2.246   1.308  1.8263 -0.7762 -0.2239
 3399SOL    HW221657   0.295   2.331   1.403  0.0828 -0.1630 -0.3527
 3400SOL     OW21658   0.281   1.040   4.724  0.2498  0.5829 -0.5489
 3400SOL    HW121659   0.368   1.001   4.715  0.3059 -0.2239  3.3527
 3400SOL    HW221660   0.299   1.109   4.788  0.9097  0.9746 -1.1573
 3401SOL     OW21661   1.402   2.823  15.279  0.2870  0.1371  0.5230
 3401SOL    HW121662   1.370   2.791  15.363  2.4367 -1.2857  0.7962
 3401SOL    HW221663   1.334   2.795  15.219 -0.0491 -0.0363  0.9862
 3402SOL     OW21664   3.455   0.495   0.798 -0.1270 -0.2033  0.1331
 3402SOL    HW121665   3.367   0.483   0.761  0.2974 -1.9843 -0.3021
 3402SOL    HW221666   3.445   0.465   0.888 -1.3530 -1.4707 -0.4237
 3403SOL     OW21667   2.263   1.531  10.590 -0.4138  0.3569  0.4490
 3403SOL    HW121668   2.194   1.470  10.615 -1.2348  1.1614  0.1144
 3403SOL    HW221669   2.292   1.545  10.680 -1.3294  0.4731  0.7186
 3404SOL     OW21670   1.736   1.006  11.303 -0.3966 -0.8008 -0.1088
 3404SOL    HW121671   1.760   0.933  11.247 -2.8414 -0.7053 -1.2541
 3404SOL    HW221672   1.816   1.033  11.348 -0.7479 -0.1599  0.1379
 3405SOL     OW21673   4.599   0.116   4.301 -0.4346  0.2280  0.5407
 3405SOL    HW121674   4.567   0.027   4.286 -0.7468  0.4057  0.1565
 3405SOL    HW221675   4.526   0.157   4.348 -0.7967  1.0848 -0.7823
 3406SOL     OW21676   0.146   4.357   2.904  0.2200  0.0973  0.3123
 3406SOL    HW121677   0.169   4.422   2.838  1.1427  1.6477  2.1646
 3406SOL    HW221678   0.050   4.356   2.907  0.1702 -2.0302 -2.0726
 3407SOL     OW21679   2.463   0.718   4.562 -0.1301 -0.4048 -0.2668
 3407SOL    HW121680   2.520   0.766   4.502 -0.1678  0.0102  0.0354
 3407SOL    HW221681   2.468   0.761   4.647  0.3564  0.1358 -0.5685
 3408SOL     OW21682   0.903   0.868  16.361  0.1296 -0.1328 -0.7553
 3408SOL    HW121683   0.940   0.837  16.443 -0.4570 -2.5566 -1.4196
 3408SOL    HW221684   0.963   0.937  16.329  1.0406 -0.2681  0.6735
 3409SOL     OW21685   3.067   3.264   3.371  0.4036 -0.6944  0.2792
 3409SOL    HW121686   2.981   3.225   3.352  0.4429 -1.4644  1.6495
 3409SOL    HW221687   3.062   3.302   3.459  0.3671 -1.7072  0.7233
 3410SOL     OW21688   1.503   1.671   4.988  0.5773 -0.6356 -0.0770
 3410SOL    HW121689   1.572   1.702   5.048  0.2343  0.3600 -0.1923
 3410SOL    HW221690   1.447   1.748   4.981 -0.7220 -1.6438 -0.6771
 3411SOL     OW21691   4.092   3.211   8.338 -0.4113  0.0040  0.2069
 3411SOL    HW121692   4.141   3.286   8.304  0.1835 -0.4283  0.0929
 3411SOL    HW221693   4.160   3.163   8.385  1.2296  1.6836 -0.4644
 3412SOL     OW21694   1.382   3.824  14.237 -0.4630  0.2081  0.4521
 3412SOL    HW121695   1.471   3.830  14.273 -0.8275  1.0979  1.1983
 3412SOL    HW221696   1.347   3.748  14.282  2.2090 -0.4118  1.4825
 3413SOL     OW21697   3.313   1.533   5.956  0.3944  0.1131 -0.8696
 3413SOL    HW121698   3.330   1.443   5.983 -1.5178  0.8967  2.9199
 3413SOL    HW221699   3.230   1.561   5.994 -0.2061  0.7498 -2.6306
 3414SOL     OW21700   1.804   0.903   8.553  0.1452 -0.4856 -0.2434
 3414SOL    HW121701   1.857   0.982   8.539  3.1701 -2.7976 -1.8788
 3414SOL    HW221702   1.848   0.872   8.632 -1.8408 -2.1006  0.2070
 3415SOL     OW21703   3.571   2.330   5.148 -0.0495  0.9206  0.0169
 3415SOL    HW121704   3.632   2.307   5.218 -1.9395 -2.1304  0.7026
 3415SOL    HW221705   3.617   2.411   5.131 -1.1083  2.0170  2.3393
 3416SOL     OW21706   3.680   0.085  11.903 -0.3695 -0.1906  0.0550
 3416SOL    HW121707   3.722   0.040  11.976 -1.3658 -1.8940 -0.4117
 3416SOL    HW221708   3.612   0.144  11.935  0.4571 -0.1745  1.7497
 3417SOL     OW21709   3.051   1.632  11.641  0.4566 -0.2227  0.3775
 3417SOL    HW121710   3.106   1.670  11.572 -1.7019  0.2147 -1.1242
 3417SOL    HW221711   2.980   1.584  11.596 -0.5809  1.8781 -0.2232
 3418SOL     OW21712   1.553   0.070   9.181  0.0083 -0.0535  0.0902
 3418SOL    HW121713   1.555   4.700   9.190 -1.0981 -0.1350 -0.5150
 3418SOL    HW221714   1.513   0.082   9.095 -0.7538  1.5485  0.6655
 3419SOL     OW21715   3.240   1.542   7.383 -0.7924  0.2031 -0.5964
 3419SOL    HW121716   3.306   1.610   7.372 -1.6751  0.7259 -2.7129
 3419SOL    HW221717   3.224   1.504   7.296 -0.3777 -0.3464 -0.4340
 3420SOL     OW21718   3.824   2.272   1.616  0.1605 -0.4110  0.3545
 3420SOL    HW121719   3.845   2.317   1.698 -2.9171  0.0970  0.8745
 3420SOL    HW221720   3.881   2.195   1.619  0.8596  0.1027  0.2079
 3421SOL     OW21721   1.814   3.249   6.607  0.4594  0.2053 -0.4710
 3421SOL    HW121722   1.901   3.247   6.567  1.8430  0.1916  2.5591
 3421SOL    HW221723   1.831   3.249   6.701 -0.5110  1.5417 -0.2926
 3422SOL     OW21724   0.623   0.308   9.581  0.1647 -0.1757  0.3707
 3422SOL    HW121725   0.702   0.289   9.632 -0.6331 -1.4589  1.1253
 3422SOL    HW221726   0.569   0.232   9.603  1.6082 -0.6776  2.2350
 3423SOL     OW21727   1.848   4.370   3.229  0.0025  0.6187 -0.1659
 3423SOL    HW121728   1.925   4.370   3.173  2.6192  0.7042  3.4160
 3423SOL    HW221729   1.847   4.461   3.259 -0.7320  1.6967 -3.4408
 3424SOL     OW21730   0.274   2.696   2.227 -0.0989 -0.1358 -0.2406
 3424SOL    HW121731   0.330   2.681   2.304 -0.5256 -0.0311  0.0917
 3424SOL    HW221732   0.263   2.604   2.204 -1.6721  0.4123 -1.5790
 3425SOL     OW21733   4.716   0.667   8.387 -0.3621  0.0217 -0.1894
 3425SOL    HW121734   0.055   0.623   8.332  0.7653 -0.9714  1.9106
 3425SOL    HW221735   4.689   0.593   8.442 -3.2479  1.1360 -0.0900
 3426SOL     OW21736   1.261   2.966   4.974 -0.0454  0.1277  0.6768
 3426SOL    HW121737   1.179   2.937   4.934  0.6205 -0.0565 -0.5522
 3426SOL    HW221738   1.228   3.017   5.048  0.1155  0.9189  0.2121
 3427SOL     OW21739   0.727   3.155  11.122 -0.1293  0.0899  0.4626
 3427SOL    HW121740   0.690   3.100  11.191 -2.2439 -1.0207 -1.5401
 3427SOL    HW221741   0.791   3.201  11.175 -1.6162  2.7396 -0.0277
 3428SOL     OW21742   0.581   2.461  16.610 -0.0397 -0.1989  0.2390
 3428SOL    HW121743   0.602   2.378  16.653 -2.7464 -1.0827 -0.1161
 3428SOL    HW221744   0.558   2.432  16.522 -0.4017  2.0574 -0.3896
 3429SOL     OW21745   4.152   0.797  13.965  0.5396  0.3055  0.4392
 3429SOL    HW121746   4.153   0.885  14.002 -1.9844 -0.0003  1.2388
 3429SOL    HW221747   4.125   0.749  14.043  0.6158 -0.1211  0.1994
 3430SOL     OW21748   0.048   4.255   4.121  0.4649  0.0195  0.4721
 3430SOL    HW121749   0.123   4.308   4.095  0.4544 -1.1072 -1.9153
 3430SOL    HW221750   0.018   4.219   4.037  0.5095 -0.5573  0.7050
 3431SOL     OW21751   4.129   3.465   2.334  0.1653 -0.5365  0.2558
 3431SOL    HW121752   4.074   3.392   2.365 -1.1674  0.1018 -0.6024
 3431SOL    HW221753   4.198   3.413   2.292  0.3037  0.6706 -1.0238
 3432SOL     OW21754   3.724   3.494   8.443  0.1990 -0.0817 -0.0178
 3432SOL    HW121755   3.673   3.413   8.448 -0.0744  0.1018  0.1397
 3432SOL    HW221756   3.764   3.512   8.528  0.7363  0.4969 -0.3869
 3433SOL     OW21757   0.521   3.835   1.076  0.2546 -0.1508 -0.1855
 3433SOL    HW121758   0.502   3.815   0.984  0.1595  2.0125 -0.6222
 3433SOL    HW221759   0.468   3.771   1.124  1.0066  1.4307  2.7484
 3434SOL     OW21760   0.035   1.675   4.813 -0.4939  0.1560  0.0284
 3434SOL    HW121761   0.021   1.747   4.751  0.6532  3.1431  3.2253
 3434SOL    HW221762   0.130   1.683   4.812 -0.3295 -1.7643  0.9489
 3435SOL     OW21763   4.286   0.361   6.672  0.2132  0.1832  0.2488
 3435SOL    HW121764   4.204   0.409   6.687 -0.2784 -0.4678 -0.3698
 3435SOL    HW221765   4.288   0.358   6.577  0.7931  3.1745  0.1500
 3436SOL     OW21766   2.649   1.863   3.778 -0.0753 -0.0033  0.7359
 3436SOL    HW121767   2.608   1.882   3.863  0.6126 -0.6045  1.1986
 3436SOL    HW221768   2.700   1.789   3.810  2.2322  0.4504 -1.9609
 3437SOL     OW21769   2.569   2.507   1.892 -0.2523 -0.3661  0.1569
 3437SOL    HW121770   2.531   2.477   1.809  1.4185 -5.3894  1.2211
 3437SOL    HW221771   2.553   2.431   1.948 -1.6321  0.3975  0.8104
 3438SOL     OW21772   1.994   2.323   3.939 -0.0614 -0.3593 -0.0452
 3438SOL    HW121773   2.075   2.375   3.933  1.7696 -3.2072 -0.1048
 3438SOL    HW221774   2.011   2.240   3.893 -2.5030 -1.5546  1.2236
 3439SOL     OW21775   4.615   3.194   0.296  0.0338 -0.4708  0.0942
 3439SOL    HW121776   4.561   3.133   0.346 -0.7294 -0.1461 -0.3256
 3439SOL    HW221777   4.608   3.267   0.357  1.3233 -0.5805  0.3617
 3440SOL     OW21778   4.446   3.975   3.328 -0.0723 -0.2654  0.0573
 3440SOL    HW121779   4.537   3.978   3.300  0.0720  0.5989  0.6330
 3440SOL    HW221780   4.397   3.981   3.246 -2.6447 -0.1864  1.5680
 3441SOL     OW21781   3.969   2.564  12.639  0.0912 -0.0181  0.0741
 3441SOL    HW121782   3.969   2.546  12.545 -2.8716 -4.0469  0.8366
 3441SOL    HW221783   3.978   2.476  12.677 -0.3570 -0.8708 -1.8156
 3442SOL     OW21784   4.200   1.655   9.641  0.6266 -0.0684  0.3871
 3442SOL    HW121785   4.149   1.585   9.682  1.2595 -0.5036  0.4387
 3442SOL    HW221786   4.286   1.630   9.674  0.7979 -0.6298 -0.5057
 3443SOL     OW21787   2.417   3.665   6.050 -0.1249  0.2102 -0.5644
 3443SOL    HW121788   2.389   3.751   6.081  0.7954  0.7398 -1.1972
 3443SOL    HW221789   2.399   3.616   6.130  1.5054  1.8563  0.8116
 3444SOL     OW21790   0.171   3.157   1.938  0.7683  0.3064 -0.1506
 3444SOL    HW121791   0.200   3.081   1.886  0.6356 -0.7048  1.2502
 3444SOL    HW221792   0.255   3.198   1.955 -0.0425  2.1724 -0.7268
 3445SOL     OW21793   1.062   1.204  17.152 -0.0209  1.0831  0.9702
 3445SOL    HW121794   0.996   1.135  17.155 -0.6422  1.6869  1.1904
 3445SOL    HW221795   1.107   1.172  17.231 -1.2177  0.4344  1.3868
 3446SOL     OW21796   1.790   1.826   0.328 -0.0578 -0.7206  0.2036
 3446SOL    HW121797   1.876   1.827   0.285 -0.0852 -1.0384  0.1465
 3446SOL    HW221798   1.759   1.917   0.323  1.7500 -0.0473  0.8992
 3447SOL     OW21799   0.503   1.586   3.915 -0.1683  0.0692 -0.2773
 3447SOL    HW121800   0.509   1.624   3.827 -2.8235  2.6758  0.6722
 3447SOL    HW221801   0.436   1.638   3.959  0.7131 -0.3047  1.5078
 3448SOL     OW21802   0.503   3.577   4.806  0.2478 -0.0626 -0.4797
 3448SOL    HW121803   0.408   3.587   4.799 -0.0110 -1.1818  1.2290
 3448SOL    HW221804   0.522   3.611   4.894  1.3742  1.6386 -1.3932
 3449SOL     OW21805   1.057   4.363  16.094  0.2960 -0.0417  0.4189
 3449SOL    HW121806   1.072   4.321  16.009  0.4447  1.3438 -0.2373
 3449SOL    HW221807   1.070   4.457  16.078  0.0922 -0.0159  0.4078
 3450SOL     OW21808   2.591   3.865  11.054  0.0389  0.2711 -0.2278
 3450SOL    HW121809   2.559   3.775  11.053  0.7925 -0.0001  1.2956
 3450SOL    HW221810   2.641   3.860  10.972  1.0593 -0.2322  0.4259
 3451SOL     OW21811   3.649   1.836  16.132  0.1939 -0.2655 -0.4348
 3451SOL    HW121812   3.585   1.865  16.067  0.4418  0.1669 -0.4785
 3451SOL    HW221813   3.721   1.894  16.108 -1.1238  0.7916 -1.8972
 3452SOL     OW21814   3.668   2.629   2.438  0.2578  0.4985  0.2522
 3452SOL    HW121815   3.668   2.533   2.444  0.3420  0.5682  1.4119
 3452SOL    HW221816   3.685   2.641   2.532 -1.6307 -1.1503  0.8028
 3453SOL     OW21817   4.410   2.286   8.212  0.2621 -0.0338  0.6203
 3453SOL    HW121818   4.478   2.222   8.235 -1.0581 -1.3880  0.7406
 3453SOL    HW221819   4.344   2.285   8.281 -0.5823  0.3211 -0.1916
 3454SOL     OW21820   1.200   2.029   5.616 -0.0983 -0.7080  0.0983
 3454SOL    HW121821   1.142   1.991   5.683 -2.1401  0.6014 -0.9482
 3454SOL    HW221822   1.251   2.086   5.673 -1.2365  1.4017 -1.0189
 3455SOL     OW21823   3.380   3.920   3.400 -0.0426  0.2697  0.1220
 3455SOL    HW121824   3.471   3.936   3.423 -0.9480  2.9436  1.8400
 3455SOL    HW221825   3.343   3.919   3.488 -1.3884  1.2532 -0.4341
 3456SOL     OW21826   2.348   4.089   2.503 -0.2715 -0.0576  0.5975
 3456SOL    HW121827   2.286   4.144   2.456 -0.1479 -2.1184 -1.9811
 3456SOL    HW221828   2.436   4.097   2.467 -0.7020  0.4445 -0.3359
 3457SOL     OW21829   0.766   1.718  10.000 -0.2032  0.9506  0.3077
 3457SOL    HW121830   0.830   1.789  10.006  1.2208 -0.2582 -0.7275
 3457SOL    HW221831   0.772   1.694  10.092  0.6877  1.5020  0.3854
 3458SOL     OW21832   1.548   0.191   7.328  0.0684  0.2222  0.5861
 3458SOL    HW121833   1.624   0.220   7.379  1.1052 -2.5683  0.6503
 3458SOL    HW221834   1.563   0.097   7.328  0.1389  0.2253  1.7879
 3459SOL     OW21835   2.382   2.731   3.134 -0.1116 -0.2626  0.2928
 3459SOL    HW121836   2.453   2.792   3.152 -0.9707  0.5364  1.0216
 3459SOL    HW221837   2.403   2.682   3.054 -1.5794 -0.1659 -0.1513
 3460SOL     OW21838   3.507   2.379  17.044 -0.4301 -0.1378 -0.1886
 3460SOL    HW121839   3.509   2.462  17.092 -0.9678  0.9652 -2.0520
 3460SOL    HW221840   3.590   2.340  17.072 -0.4657  0.3345  0.5760
 3461SOL     OW21841   0.182   1.762   3.187  0.2857 -0.3278  0.2785
 3461SOL    HW121842   0.243   1.702   3.144  1.0721 -0.7846  2.0178
 3461SOL    HW221843   0.217   1.762   3.276 -1.8974 -2.6681  1.1290
 3462SOL     OW21844   4.521   3.272   3.746 -0.6100  0.1991  0.3285
 3462SOL    HW121845   4.436   3.237   3.719 -1.2994  1.9019  0.2749
 3462SOL    HW221846   4.487   3.351   3.787  2.0822  1.0725  0.8452
 3463SOL     OW21847   3.999   2.357   3.889 -0.1269 -0.6410  0.6774
 3463SOL    HW121848   4.010   2.446   3.922  0.2411 -0.2944 -0.3740
 3463SOL    HW221849   4.040   2.305   3.958 -1.2340 -1.6328  0.5922
 3464SOL     OW21850   1.787   2.186   2.878  0.0991 -0.2631 -0.3926
 3464SOL    HW121851   1.773   2.180   2.972  0.3760 -1.1475 -0.4150
 3464SOL    HW221852   1.696   2.191   2.848  0.5519  2.9932 -1.2433
 3465SOL     OW21853   1.557   2.997  13.693  0.4431  0.0434  0.6429
 3465SOL    HW121854   1.542   3.087  13.668  0.1225  0.2562  1.5836
 3465SOL    HW221855   1.560   2.959  13.605 -0.9373  0.6887  0.3263
 3466SOL     OW21856   1.223   4.138  14.208 -0.2193  0.4349  0.0346
 3466SOL    HW121857   1.205   4.118  14.300  0.7763 -0.0249  0.1280
 3466SOL    HW221858   1.273   4.062  14.180 -1.3098 -0.2765  0.0092
 3467SOL     OW21859   2.287   2.191   2.771  0.4835 -0.1862 -0.0918
 3467SOL    HW121860   2.330   2.161   2.851 -0.2368 -4.0762 -1.1906
 3467SOL    HW221861   2.361   2.199   2.710 -0.0314 -0.3665 -0.7426
 3468SOL     OW21862   2.981   2.458   7.838 -0.4227 -0.6128 -0.2841
 3468SOL    HW121863   3.017   2.369   7.835  1.4146  0.1359 -0.8135
 3468SOL    HW221864   2.978   2.466   7.933 -1.3340  1.3336 -0.4841
 3469SOL     OW21865   1.227   1.365   5.812  0.1010  0.2447  0.6902
 3469SOL    HW121866   1.213   1.396   5.722 -2.4682  1.3461  1.4714
 3469SOL    HW221867   1.270   1.281   5.801 -2.0490 -0.6781 -0.7864
 3470SOL     OW21868   1.181   1.037  12.130 -0.0748 -0.8341 -0.3544
 3470SOL    HW121869   1.097   1.081  12.140 -0.0200 -1.0860  1.1874
 3470SOL    HW221870   1.191   1.000  12.217 -4.1831  1.8376  1.2222
 3471SOL     OW21871   1.758   0.224   8.265 -0.0619 -0.5102 -1.0975
 3471SOL    HW121872   1.669   0.218   8.300 -0.0012  0.2312 -0.8285
 3471SOL    HW221873   1.749   0.308   8.222 -0.3151 -0.1870 -0.4176
 3472SOL     OW21874   3.394   0.799   5.039  0.2884  0.3973 -0.3844
 3472SOL    HW121875   3.414   0.892   5.048  0.3879  0.3424 -0.0137
 3472SOL    HW221876   3.299   0.798   5.054  0.3730  1.1860  0.1817
 3473SOL     OW21877   2.095   1.489   3.182 -0.4057  0.0303  0.3875
 3473SOL    HW121878   2.062   1.415   3.131 -0.1186  0.2111 -0.0668
 3473SOL    HW221879   2.162   1.522   3.121 -1.4561 -2.3335 -2.0332
 3474SOL     OW21880   3.311   2.598   4.288  0.3368 -0.3873 -0.0459
 3474SOL    HW121881   3.332   2.657   4.216 -1.9183 -0.7512 -1.0043
 3474SOL    HW221882   3.305   2.513   4.245 -2.3113 -0.1021 -0.2348
 3475SOL     OW21883   2.157   0.334   5.817 -0.1530  0.1484  0.5562
 3475SOL    HW121884   2.195   0.249   5.841 -0.0954 -0.1092 -0.4202
 3475SOL    HW221885   2.211   0.394   5.868 -0.5456  2.5418 -1.8212
 3476SOL     OW21886   0.137   2.008   4.639  0.3497  0.0963 -0.0958
 3476SOL    HW121887   0.053   1.965   4.656 -0.0498  1.1926  0.7012
 3476SOL    HW221888   0.143   2.056   4.721 -0.0496  0.7008 -0.4205
 3477SOL     OW21889   1.252   3.917   4.736 -0.3305  0.2865 -0.0390
 3477SOL    HW121890   1.162   3.889   4.719 -0.2419  0.0491 -0.1242
 3477SOL    HW221891   1.294   3.837   4.703 -0.5563 -0.0788  0.5637
 3478SOL     OW21892   4.200   0.352   4.763 -0.1569 -0.0467  0.9625
 3478SOL    HW121893   4.212   0.446   4.755  1.5857 -0.2918  0.7092
 3478SOL    HW221894   4.229   0.330   4.851  0.0873  0.4685  1.0057
 3479SOL     OW21895   2.115   0.291   0.561 -0.2884 -0.1083  0.5363
 3479SOL    HW121896   2.184   0.227   0.545 -0.0684  0.7151 -1.7668
 3479SOL    HW221897   2.104   0.284   0.656  0.8439  0.7625  0.7337
 3480SOL     OW21898   3.296   1.023  14.280  1.0962 -0.5725  0.0744
 3480SOL    HW121899   3.382   0.981  14.286  0.6911 -1.1240  1.8861
 3480SOL    HW221900   3.317   1.115  14.265  2.4883 -0.7845  0.7306
 3481SOL     OW21901   3.994   1.324   3.597  0.5154  0.2836  0.3710
 3481SOL    HW121902   3.969   1.402   3.548  1.6270  0.8537  0.7062
 3481SOL    HW221903   4.063   1.360   3.654  1.4632  0.3559 -0.8127
 3482SOL     OW21904   3.541   1.455   7.096  0.1987  0.0317 -0.3954
 3482SOL    HW121905   3.521   1.524   7.159  2.0764  0.2883 -0.0740
 3482SOL    HW221906   3.450   1.431   7.077  1.1260 -0.4128 -4.2616
 3483SOL     OW21907   1.604   2.597  11.568  0.0430  0.0854  0.1000
 3483SOL    HW121908   1.675   2.591  11.632 -2.0958  1.3841  2.6068
 3483SOL    HW221909   1.617   2.688  11.540 -0.4228  0.1070 -0.0519
 3484SOL     OW21910   0.023   2.191   8.027  0.3551  0.1429 -0.2610
 3484SOL    HW121911   0.026   2.147   7.942  0.5546  0.9915 -0.6991
 3484SOL    HW221912   4.696   2.269   8.005 -0.4997 -0.6021 -0.9207
 3485SOL     OW21913   2.563   2.615   6.894  0.2087 -0.0098 -0.2368
 3485SOL    HW121914   2.633   2.595   6.833  3.0931 -2.0118  3.7265
 3485SOL    HW221915   2.525   2.529   6.911  0.3713 -0.3345 -1.5260
 3486SOL     OW21916   0.564   3.026   5.554 -0.4250  0.5626  0.3848
 3486SOL    HW121917   0.595   2.951   5.503  0.7862  1.3559 -0.0627
 3486SOL    HW221918   0.582   2.999   5.644  0.2287  1.2357  0.4597
 3487SOL     OW21919   4.149   0.245  13.083 -0.2787  0.3709 -0.6875
 3487SOL    HW121920   4.154   0.320  13.023 -1.2224 -0.2726 -1.5642
 3487SOL    HW221921   4.238   0.235  13.115 -1.4247 -1.4815  1.9571
 3488SOL     OW21922   3.068   1.865   6.185 -0.4865  0.5213 -0.0882
 3488SOL    HW121923   3.149   1.908   6.158 -1.6812  2.2483 -0.9420
 3488SOL    HW221924   3.047   1.907   6.268 -2.3970 -0.3839 -0.1008
 3489SOL     OW21925   0.646   4.030  17.573 -0.1339 -0.1140  0.8270
 3489SOL    HW121926   0.554   4.020  17.598  0.7407 -0.6227  3.8329
 3489SOL    HW221927   0.637   4.124  17.556 -1.8664 -0.4743 -0.2953
 3490SOL     OW21928   4.098   0.267   4.383 -0.0090  0.3959  0.1047
 3490SOL    HW121929   4.060   0.213   4.313 -0.1525  0.1069  0.4055
 3490SOL    HW221930   4.103   0.348   4.332 -1.3834 -0.3049 -1.1871
 3491SOL     OW21931   0.952   4.713   2.963 -0.0375 -0.3387 -0.8648
 3491SOL    HW121932   0.905   4.637   2.999 -0.8195  0.6394  0.1595
 3491SOL    HW221933   0.956   0.046   3.039 -0.6129 -2.0309  0.4773
 3492SOL     OW21934   1.887   0.106   6.403 -0.2564  0.3497 -0.4903
 3492SOL    HW121935   1.862   0.023   6.443 -0.0278 -0.6133 -2.3080
 3492SOL    HW221936   1.881   0.076   6.312 -0.0873 -1.0791 -0.0436
 3493SOL     OW21937   2.838   2.372   7.270 -0.1627  0.1343  0.1287
 3493SOL    HW121938   2.760   2.425   7.260 -0.0449  0.5199  1.2908
 3493SOL    HW221939   2.840   2.345   7.362 -0.5945 -1.3799 -0.3055
 3494SOL     OW21940   0.363   2.433   6.476 -0.1591 -0.2335  0.7064
 3494SOL    HW121941   0.444   2.390   6.448 -0.9570 -0.2043 -1.6119
 3494SOL    HW221942   0.323   2.458   6.393  0.1549 -0.4015  0.5038
 3495SOL     OW21943   0.994   0.020   0.440  0.1202 -0.6088 -0.3447
 3495SOL    HW121944   0.904   0.004   0.471  0.3389 -0.1693  0.5198
 3495SOL    HW221945   0.972   4.723   0.350 -0.4499 -1.6689  0.0442
 3496SOL     OW21946   0.164   0.677  11.418  0.3383 -0.4917  0.0483
 3496SOL    HW121947   0.193   0.589  11.444  0.6217 -0.8249 -1.3984
 3496SOL    HW221948   0.071   0.663  11.437  0.2047 -0.3893 -0.5323
 3497SOL     OW21949   0.600   4.660   1.730 -0.0238 -0.1577  0.1658
 3497SOL    HW121950   0.596   0.012   1.675 -0.5039 -2.1121 -2.5243
 3497SOL    HW221951   0.662   4.607   1.680 -1.5613  0.7670 -2.7014
 3498SOL     OW21952   4.718   3.263  12.092 -0.2650  0.1239  0.2920
 3498SOL    HW121953   4.625   3.238  12.094 -0.2178  0.0945  2.0904
 3498SOL    HW221954   4.722   3.345  12.042  0.2213 -0.7555 -1.1252
 3499SOL     OW21955   1.145   1.269   3.094 -0.0853  0.0746 -0.1630
 3499SOL    HW121956   1.084   1.294   3.024  1.1033 -0.4097 -1.3600
 3499SOL    HW221957   1.127   1.176   3.103  1.0970 -0.2792 -1.5121
 3500SOL     OW21958   4.533   1.325   8.211  0.0671 -0.2109  0.2699
 3500SOL    HW121959   4.496   1.244   8.247 -0.8856 -0.6813 -1.7075
 3500SOL    HW221960   4.461   1.387   8.201 -0.4131 -0.5785  1.5406
 3501SOL     OW21961   2.047   0.479   4.739  0.3633  0.1926 -0.6018
 3501SOL    HW121962   2.008   0.393   4.720 -0.7375  0.3889  0.7679
 3501SOL    HW221963   2.011   0.534   4.670 -1.7683 -0.9301 -0.3760
 3502SOL     OW21964   0.833   4.015   7.822  0.6564  0.1512 -0.0590
 3502SOL    HW121965   0.783   4.095   7.810  0.8521  0.1958 -0.5899
 3502SOL    HW221966   0.905   4.052   7.874  0.8046 -0.1575 -0.0415
 3503SOL     OW21967   3.020   1.319   9.286  0.2583  0.1239 -0.2678
 3503SOL    HW121968   2.939   1.294   9.242  0.1742  1.1779 -0.6973
 3503SOL    HW221969   3.082   1.261   9.242 -1.3008 -0.5281 -1.6164
 3504SOL     OW21970   3.591   3.791   0.416  0.1415  0.7800 -0.1644
 3504SOL    HW121971   3.570   3.733   0.343  0.1134  0.4168  0.1315
 3504SOL    HW221972   3.540   3.870   0.401  2.0000  1.6808 -1.8578
 3505SOL     OW21973   2.741   1.445   0.840 -0.3909  0.6419 -0.2866
 3505SOL    HW121974   2.819   1.402   0.875 -0.7190  0.7596  0.5756
 3505SOL    HW221975   2.693   1.470   0.918  0.4777  0.3388  0.3536
 3506SOL     OW21976   3.462   0.312   7.657 -0.0043  0.0163 -0.2600
 3506SOL    HW121977   3.463   0.384   7.594  1.3875  0.0610 -0.1904
 3506SOL    HW221978   3.387   0.338   7.710  1.1379  1.1753  0.7965
 3507SOL     OW21979   1.516   3.381  14.696  0.1592 -0.7361 -0.1039
 3507SOL    HW121980   1.595   3.352  14.651  0.1181 -1.7488  0.4845
 3507SOL    HW221981   1.508   3.310  14.760  0.0565  0.4590  1.2185
 3508SOL     OW21982   2.184   2.024   5.165  0.0923  0.0385  0.1640
 3508SOL    HW121983   2.201   1.942   5.119 -1.4282 -0.5305  0.6199
 3508SOL    HW221984   2.162   2.075   5.086  1.5209 -0.3585 -0.4902
 3509SOL     OW21985   1.088   1.392   4.648  0.3282  0.0858 -0.7746
 3509SOL    HW121986   1.082   1.355   4.560  0.5175  0.0246 -0.7625
 3509SOL    HW221987   1.155   1.459   4.636  1.4683 -1.6431 -4.1874
 3510SOL     OW21988   1.605   3.455   7.303  0.5273 -0.6806  0.2217
 3510SOL    HW121989   1.607   3.523   7.370  1.8895 -0.0253 -0.4875
 3510SOL    HW221990   1.678   3.404   7.339  1.6699  0.4384 -0.5335
 3511SOL     OW21991   0.506   2.864   9.066 -0.3642  0.0216 -0.4845
 3511SOL    HW121992   0.565   2.868   9.141 -1.9916 -0.8611  0.8470
 3511SOL    HW221993   0.443   2.934   9.079 -0.3225  0.3304 -1.9404
 3512SOL     OW21994   3.016   3.520   5.863  0.5263  0.0906  0.6706
 3512SOL    HW121995   2.949   3.522   5.932 -0.8490 -2.0093 -0.6332
 3512SOL    HW221996   3.087   3.556   5.916 -0.6596  1.2752  1.4551
 3513SOL     OW21997   4.249   2.170   1.428 -0.0033 -0.2939  0.0032
 3513SOL    HW121998   4.225   2.241   1.488 -4.3293 -1.3558 -0.4721
 3513SOL    HW221999   4.169   2.123   1.450 -1.4702  1.9701 -0.5418
 3514SOL     OW22000   1.672   3.666   7.469  0.0769  0.1739  0.1665
 3514SOL    HW122001   1.590   3.693   7.510  0.6340  1.4334  0.4517
 3514SOL    HW222002   1.731   3.655   7.544 -0.8602 -2.4095  0.5279
 3515SOL     OW22003   0.864   1.988   3.056 -0.0030  0.4262  0.3425
 3515SOL    HW122004   0.862   1.892   3.047 -0.4849  0.5993 -1.2887
 3515SOL    HW222005   0.947   2.003   3.103  0.8235  1.7083 -1.5593
 3516SOL     OW22006   0.208   1.849   5.986  0.1839  0.2503  0.2303
 3516SOL    HW122007   0.269   1.838   6.059  0.7180  2.0669  0.0650
 3516SOL    HW222008   0.221   1.768   5.937 -1.9659  0.4380 -0.6542
 3517SOL     OW22009   2.968   0.558  13.344  0.5445  0.0102 -0.1675
 3517SOL    HW122010   2.985   0.504  13.422  0.8762 -1.5272 -1.2964
 3517SOL    HW222011   3.033   0.627  13.340  1.2876 -0.6125  1.0213
 3518SOL     OW22012   3.756   1.357  15.881 -0.0205 -0.1763  0.6870
 3518SOL    HW122013   3.708   1.367  15.799 -0.4482  2.5441  1.2581
 3518SOL    HW222014   3.713   1.424  15.935 -0.3481 -0.5845  0.9254
 3519SOL     OW22015   1.576   3.168  14.901 -0.3664  0.4707  0.1877
 3519SOL    HW122016   1.503   3.107  14.910 -0.9544  0.6248 -3.8486
 3519SOL    HW222017   1.630   3.116  14.842 -0.4607 -0.1337  0.6286
 3520SOL     OW22018   1.101   2.866   5.335  0.2559  0.3060 -0.2468
 3520SOL    HW122019   1.047   2.881   5.413  1.1230 -0.8522  0.5657
 3520SOL    HW222020   1.111   2.956   5.303 -1.6387  1.0473  1.2869
 3521SOL     OW22021   1.123   0.455   0.816 -0.3173 -0.5692  0.5768
 3521SOL    HW122022   1.145   0.387   0.753  1.0897  0.4391 -0.0255
 3521SOL    HW222023   1.068   0.409   0.879 -1.5935  1.2607  0.8007
 3522SOL     OW22024   3.216   3.217   8.439  0.4001 -0.5315  0.4605
 3522SOL    HW122025   3.193   3.165   8.362  1.6600 -0.1491 -0.1659
 3522SOL    HW222026   3.253   3.159   8.504 -2.0452 -0.4740  1.9234
 3523SOL     OW22027   1.678   0.070   5.050 -0.2386  0.1586  0.0337
 3523SOL    HW122028   1.731   0.011   4.997 -0.9214 -1.1488  0.8103
 3523SOL    HW222029   1.622   0.014   5.104  0.3781 -0.0208  0.4854
 3524SOL     OW22030   3.625   3.272   3.761  0.0719 -0.3962 -0.0506
 3524SOL    HW122031   3.571   3.349   3.742 -0.3861 -0.5829  0.4701
 3524SOL    HW222032   3.561   3.200   3.762  0.7742 -1.0262 -0.2488
 3525SOL     OW22033   0.685   2.175   9.277 -0.0396  0.3698 -0.4454
 3525SOL    HW122034   0.770   2.136   9.297  1.7385  2.8613 -3.0916
 3525SOL    HW222035   0.697   2.207   9.188 -1.0658  2.1553  0.0434
 3526SOL     OW22036   3.463   0.394   9.783 -0.1435  0.0739 -0.2229
 3526SOL    HW122037   3.382   0.416   9.828 -1.5134 -2.4442 -1.4133
 3526SOL    HW222038   3.427   0.369   9.698  1.0301 -0.6255 -0.5225
 3527SOL     OW22039   1.766   2.444   3.841  0.5001 -0.2822 -0.2918
 3527SOL    HW122040   1.705   2.381   3.803 -0.6747  0.4758  0.3291
 3527SOL    HW222041   1.842   2.386   3.845  0.8770  0.1418 -1.3284
 3528SOL     OW22042   1.253   4.507   0.112  0.2172  0.3082  0.6803
 3528SOL    HW122043   1.180   4.530   0.054  0.6252  0.3198  0.1774
 3528SOL    HW222044   1.248   4.575   0.180 -1.2928  0.5109  0.3679
 3529SOL     OW22045   2.840   1.983   3.572 -0.4491  0.0149  0.0623
 3529SOL    HW122046   2.807   1.936   3.496  1.3775 -0.1183 -0.6627
 3529SOL    HW222047   2.786   1.942   3.639 -1.5688  0.4051 -0.6031
 3530SOL     OW22048   3.828   2.602  11.847 -0.2298 -0.6371  0.7216
 3530SOL    HW122049   3.801   2.513  11.824  0.2809 -0.4509 -0.5649
 3530SOL    HW222050   3.884   2.580  11.922 -1.1976  0.6340  1.8227
 3531SOL     OW22051   0.335   3.500   0.657 -0.4569  0.2922 -0.6211
 3531SOL    HW122052   0.248   3.475   0.629 -2.1389  1.9882  3.1304
 3531SOL    HW222053   0.375   3.413   0.667 -0.9107 -0.0153 -1.5598
 3532SOL     OW22054   1.585   2.693  10.977  0.2561 -0.0239 -0.1449
 3532SOL    HW122055   1.498   2.726  10.999  0.0660 -1.2185  0.8618
 3532SOL    HW222056   1.618   2.671  11.064  0.1246  0.7399  0.1040
 3533SOL     OW22057   1.996   3.709   5.363  0.1149  0.1235 -0.3113
 3533SOL    HW122058   2.041   3.763   5.298  0.7291  0.2361  0.2020
 3533SOL    HW222059   2.050   3.631   5.376  1.8205  1.2251 -0.8832
 3534SOL     OW22060   0.366   1.383   1.333 -0.0937  0.3003 -0.2160
 3534SOL    HW122061   0.301   1.362   1.266  0.6300  0.0606 -0.8441
 3534SOL    HW222062   0.364   1.479   1.332 -2.4917  0.2509 -0.8457
 3535SOL     OW22063   1.174   1.075   6.479  0.4876  0.6377 -0.5016
 3535SOL    HW122064   1.212   1.043   6.561 -1.2352 -1.5650 -0.5446
 3535SOL    HW222065   1.245   1.136   6.457  1.8080 -1.3230 -1.7205
 3536SOL     OW22066   0.651   2.773   5.677 -0.2515 -0.4386  0.4761
 3536SOL    HW122067   0.696   2.821   5.747  0.1956  0.3099 -0.3230
 3536SOL    HW222068   0.723   2.710   5.672 -0.0170 -0.0668 -0.6533
 3537SOL     OW22069   4.148   3.052   2.942 -0.0178  0.2689  0.7573
 3537SOL    HW122070   4.148   3.087   3.031 -1.7619  1.9451  0.0913
 3537SOL    HW222071   4.076   2.990   2.958  0.8590 -1.2314 -0.9753
 3538SOL     OW22072   4.436   0.811  10.930 -0.5513  0.1589  0.1383
 3538SOL    HW122073   4.474   0.735  10.974 -0.0483  0.9889  1.1499
 3538SOL    HW222074   4.514   0.845  10.885 -0.1507 -1.0938 -0.1013
 3539SOL     OW22075   3.696   1.016  13.423  0.1352 -0.4792  0.0007
 3539SOL    HW122076   3.634   0.994  13.492  0.1468  0.7329  0.3901
 3539SOL    HW222077   3.654   1.089  13.378 -0.5505 -0.5299  0.5581
 3540SOL     OW22078   1.192   3.319  10.085  0.2610 -0.1977 -0.3104
 3540SOL    HW122079   1.246   3.240  10.092  1.3467  0.6315  0.6384
 3540SOL    HW222080   1.198   3.349  10.176 -3.8682  1.2886 -0.5114
 3541SOL     OW22081   2.492   4.491   3.792 -0.1386 -0.3812  0.0919
 3541SOL    HW122082   2.432   4.420   3.814  0.2553 -0.7684 -0.0745
 3541SOL    HW222083   2.564   4.437   3.758 -1.5251 -1.5052 -1.1098
 3542SOL     OW22084   1.052   4.018  10.312 -0.1871  0.0337 -0.3583
 3542SOL    HW122085   0.963   4.008  10.346  0.5038 -0.8882  1.1849
 3542SOL    HW222086   1.054   4.113  10.309 -1.1464  0.0121 -1.8490
 3543SOL     OW22087   1.878   3.150   8.083 -0.3354 -0.1122  0.2228
 3543SOL    HW122088   1.865   3.245   8.093  1.2225  0.1067  0.0999
 3543SOL    HW222089   1.923   3.144   7.999 -1.1680  0.0486 -0.2357
 3544SOL     OW22090   4.312   2.679   8.248  0.0335  0.1171  0.2094
 3544SOL    HW122091   4.285   2.588   8.262 -0.4402  0.2127 -0.1022
 3544SOL    HW222092   4.279   2.714   8.330  2.1569 -0.1069  1.1625
 3545SOL     OW22093   1.760   4.310   2.636  0.5732 -0.3312 -0.5146
 3545SOL    HW122094   1.776   4.400   2.664  2.1960 -0.9072  0.3919
 3545SOL    HW222095   1.849   4.278   2.623  0.6040 -0.3726 -0.1950
 3546SOL     OW22096   0.674   2.314   8.753  0.1494  0.0793 -0.6883
 3546SOL    HW122097   0.585   2.280   8.762  0.3790 -0.2282  0.4914
 3546SOL    HW222098   0.685   2.348   8.842  1.2823  0.9535 -1.1571
 3547SOL     OW22099   4.556   3.010   4.893 -0.3929 -0.6914 -0.5330
 3547SOL    HW122100   4.607   3.075   4.941  2.6060 -2.1434 -1.7578
 3547SOL    HW222101   4.472   3.057   4.885 -0.3662 -0.2011  2.1896
 3548SOL     OW22102   2.905   1.905   6.454  0.4395  0.3454  0.0966
 3548SOL    HW122103   2.958   1.865   6.523  0.6585  0.6665  0.1148
 3548SOL    HW222104   2.940   1.994   6.457  1.1131  0.1248 -1.7880
 3549SOL     OW22105   0.850   0.532   3.510 -0.4574 -0.3834  0.0641
 3549SOL    HW122106   0.867   0.622   3.484  1.7981 -0.8024  0.0850
 3549SOL    HW222107   0.756   0.527   3.526 -0.8290  0.1441 -1.9791
 3550SOL     OW22108   0.683   1.509   2.293 -0.6204  0.4953 -0.3321
 3550SOL    HW122109   0.596   1.482   2.265 -0.9217  0.5797  0.5128
 3550SOL    HW222110   0.707   1.422   2.326  2.5894  2.0421  1.4482
 3551SOL     OW22111   3.392   4.063   6.916 -0.2854  0.6574 -0.1314
 3551SOL    HW122112   3.459   4.111   6.966 -0.6059  1.4104 -0.4221
 3551SOL    HW222113   3.433   3.980   6.893 -2.6682  0.2297 -2.8759
 3552SOL     OW22114   1.668   0.349   4.899  0.7756  0.2959  0.2433
 3552SOL    HW122115   1.693   0.417   4.962  0.7856  0.9652 -0.4794
 3552SOL    HW222116   1.658   0.282   4.967  2.4413 -0.7763 -0.5721
 3553SOL     OW22117   0.275   0.151   4.719 -0.2663 -0.2081 -0.2011
 3553SOL    HW122118   0.357   0.147   4.769  0.5138 -0.8762 -1.5163
 3553SOL    HW222119   0.219   0.169   4.794 -2.1528 -0.8360 -1.4737
 3554SOL     OW22120   1.168   0.011   4.254  0.1629  0.5633 -0.4294
 3554SOL    HW122121   1.182   4.653   4.208  1.7865  1.2250 -1.1042
 3554SOL    HW222122   1.078   4.719   4.284  0.2016  0.8485 -0.1617
 3555SOL     OW22123   0.683   3.913  13.674  0.5425  0.1964  0.2640
 3555SOL    HW122124   0.708   3.871  13.592  1.8613  0.1160  0.7134
 3555SOL    HW222125   0.681   4.003  13.642  0.4767 -0.4514 -1.5263
 3556SOL     OW22126   1.190   2.633   5.597  0.1301  0.3039  0.0426
 3556SOL    HW122127   1.216   2.714   5.552  1.1071  1.7470  3.1848
 3556SOL    HW222128   1.188   2.571   5.525  1.4063 -0.9257  1.0447
 3557SOL     OW22129   3.530   0.815   0.607  0.5213 -0.3973  0.1233
 3557SOL    HW122130   3.535   0.901   0.649  4.1764  0.3122 -1.8287
 3557SOL    HW222131   3.443   0.830   0.570  0.4235 -1.2129  0.0147
 3558SOL     OW22132   3.145   0.851   9.187  0.0147 -0.3815 -0.1307
 3558SOL    HW122133   3.189   0.891   9.262  0.8521 -2.1762  0.3308
 3558SOL    HW222134   3.206   0.874   9.117  0.1658 -0.3946 -0.0014
 3559SOL     OW22135   1.473   2.076  11.239  0.2086 -0.0172 -0.7265
 3559SOL    HW122136   1.387   2.090  11.281 -0.1495 -5.0544  0.2284
 3559SOL    HW222137   1.536   2.103  11.305  0.0094 -1.2093 -0.0482
 3560SOL     OW22138   0.915   3.049   0.452 -0.9687 -0.1452  0.0663
 3560SOL    HW122139   0.907   3.016   0.363  1.9970 -0.3335 -0.1359
 3560SOL    HW222140   0.998   3.008   0.479 -1.8333  0.3908  3.6250
 3561SOL     OW22141   1.515   4.606   7.796 -0.1455 -0.2406 -0.4436
 3561SOL    HW122142   1.552   4.607   7.707 -0.5947  2.0107 -0.6215
 3561SOL    HW222143   1.422   4.605   7.773 -0.3326 -1.2207  0.3872
 3562SOL     OW22144   2.625   1.936  15.524 -0.3799  0.4576  0.1553
 3562SOL    HW122145   2.666   1.983  15.596  1.0311  0.1812 -0.4700
 3562SOL    HW222146   2.531   1.954  15.533 -0.5238  0.6644 -1.7596
 3563SOL     OW22147   2.366   3.729  14.984 -0.1613  0.3860 -0.4981
 3563SOL    HW122148   2.327   3.656  15.032 -1.2800 -0.1652 -2.2784
 3563SOL    HW222149   2.307   3.802  15.001 -1.9788 -1.1756 -0.1380
 3564SOL     OW22150   3.254   3.190   6.577  0.2022  0.4877 -0.1234
 3564SOL    HW122151   3.234   3.100   6.552  0.0905  0.4478  0.1069
 3564SOL    HW222152   3.335   3.201   6.527 -0.3175  1.5307 -0.7364
 3565SOL     OW22153   4.571   3.082  14.351 -0.0891  0.3282 -0.3590
 3565SOL    HW122154   4.631   3.018  14.388 -0.9337 -1.1188 -1.5319
 3565SOL    HW222155   4.558   3.054  14.261 -0.5982  1.5216 -0.6644
 3566SOL     OW22156   1.701   1.704   9.600 -0.5046 -0.0025  0.5347
 3566SOL    HW122157   1.795   1.689   9.607 -0.4370 -0.2334 -0.9117
 3566SOL    HW222158   1.696   1.761   9.523 -0.8708  0.1229  0.6506
 3567SOL     OW22159   2.417   1.659  11.554  0.1203 -0.4666  0.0070
 3567SOL    HW122160   2.424   1.679  11.647  0.8606  3.1382 -0.8113
 3567SOL    HW222161   2.459   1.573  11.560  0.0404 -0.5433 -0.5636
 3568SOL     OW22162   4.524   1.198   7.944 -0.6071 -0.2273 -0.2385
 3568SOL    HW122163   4.535   1.292   7.953 -3.1337 -0.0319  0.5825
 3568SOL    HW222164   4.537   1.162   8.032  2.1335  1.0324 -0.1073
 3569SOL     OW22165   0.747   1.508   5.232 -0.1604 -0.2834  0.4639
 3569SOL    HW122166   0.717   1.417   5.236  3.4670 -1.4689 -0.0480
 3569SOL    HW222167   0.830   1.494   5.187  0.3492  0.1472  1.2961
 3570SOL     OW22168   3.369   4.060   7.835 -0.1535 -0.1851  0.1693
 3570SOL    HW122169   3.342   4.151   7.821  0.4229  0.2034  1.5425
 3570SOL    HW222170   3.301   4.019   7.783  1.8027 -2.3626 -0.6795
 3571SOL     OW22171   2.262   2.022  13.232 -1.0321  0.6721 -0.6772
 3571SOL    HW122172   2.330   1.960  13.258 -1.1939  0.0601 -1.6960
 3571SOL    HW222173   2.255   1.988  13.142  1.7133 -0.5310 -0.4394
 3572SOL     OW22174   3.288   0.719   9.601  0.3283  0.5482 -0.5069
 3572SOL    HW122175   3.296   0.667   9.521  3.0334 -0.0460  0.1722
 3572SOL    HW222176   3.260   0.805   9.568 -0.4956  0.9090  1.1536
 3573SOL     OW22177   1.845   2.077   3.186  0.7184  0.0814  0.0206
 3573SOL    HW122178   1.867   2.018   3.113  3.6461  2.4827 -1.0499
 3573SOL    HW222179   1.814   2.021   3.257 -1.2133  0.4140 -0.5692
 3574SOL     OW22180   2.938   1.779   7.601 -0.3321  0.0845  0.9216
 3574SOL    HW122181   2.861   1.800   7.654 -1.4318 -3.1913  0.6314
 3574SOL    HW222182   2.976   1.703   7.646  0.7519  0.1437  0.1052
 3575SOL     OW22183   4.144   0.173  10.924 -0.4426 -0.3662 -0.5844
 3575SOL    HW122184   4.063   0.221  10.937  0.4626  1.3304 -1.1062
 3575SOL    HW222185   4.132   0.146  10.833  0.3865  1.6073 -1.2891
 3576SOL     OW22186   1.090   0.169   8.943  0.2015 -0.6444 -0.3697
 3576SOL    HW122187   1.049   0.175   9.030  1.9079 -1.3133  0.4780
 3576SOL    HW222188   1.170   0.216   8.966  0.5214 -0.2854 -2.2100
 3577SOL     OW22189   2.503   4.396   6.478 -0.0200 -0.8845  0.0827
 3577SOL    HW122190   2.470   4.426   6.562  0.4105 -2.0314  0.6546
 3577SOL    HW222191   2.439   4.418   6.410  1.7524  2.4484 -0.5169
 3578SOL     OW22192   3.543   2.186   7.831  0.0658  0.4468 -0.2773
 3578SOL    HW122193   3.498   2.202   7.914  0.4074 -0.5224  0.1003
 3578SOL    HW222194   3.470   2.151   7.780  0.2695 -1.5178  0.7845
 3579SOL     OW22195   0.082   0.606   6.456  0.8466  0.3293 -0.1542
 3579SOL    HW122196   0.073   0.577   6.547  0.2724 -1.7202 -0.8847
 3579SOL    HW222197   0.101   0.517   6.426 -0.5148  0.3888 -1.2030
 3580SOL     OW22198   1.535   3.038  16.259 -0.1782  0.0783 -0.0669
 3580SOL    HW122199   1.472   3.005  16.194  0.0662  0.2007 -0.3672
 3580SOL    HW222200   1.538   3.133  16.246  0.7396  0.2108  1.1227
 3581SOL     OW22201   3.667   3.557  12.213  0.5471 -0.0227 -0.5583
 3581SOL    HW122202   3.711   3.635  12.246 -1.1219  0.4992  0.4642
 3581SOL    HW222203   3.578   3.575  12.244  0.0272 -1.2526 -1.3463
 3582SOL     OW22204   1.755   0.003  10.292  0.2205  0.0890 -0.1746
 3582SOL    HW122205   1.813   4.660  10.256  1.3993  1.1299 -0.2281
 3582SOL    HW222206   1.819   0.040  10.353  0.8970 -0.2469 -0.6644
 3583SOL     OW22207   4.538   4.510   6.043  0.3058 -0.3544  0.4950
 3583SOL    HW122208   4.611   4.558   6.081  1.3265 -0.3590 -1.4678
 3583SOL    HW222209   4.506   4.570   5.975  1.1871  0.0934  0.4836
 3584SOL     OW22210   3.200   2.114   0.120  0.0637 -0.4124 -0.0558
 3584SOL    HW122211   3.135   2.043   0.114  0.8159 -1.0996 -0.0984
 3584SOL    HW222212   3.200   2.145   0.029  0.8193 -0.0576  0.0728
 3585SOL     OW22213   0.176   0.700   3.793  0.3176 -0.4478  0.0725
 3585SOL    HW122214   0.231   0.694   3.715 -0.1752 -1.3337 -0.1994
 3585SOL    HW222215   0.198   0.611   3.818  0.4113 -0.5333 -0.3135
 3586SOL     OW22216   3.898   0.352  11.508 -0.0900 -0.1487 -0.1357
 3586SOL    HW122217   3.915   0.433  11.557 -1.1266  1.6932 -2.8145
 3586SOL    HW222218   3.851   0.296  11.570  1.5977 -0.2629  1.0614
 3587SOL     OW22219   0.941   1.306   9.484  0.0799  0.2132  0.6882
 3587SOL    HW122220   0.863   1.257   9.509 -1.4694  1.8476 -0.9266
 3587SOL    HW222221   0.976   1.255   9.411  0.8099  0.8696  0.5830
 3588SOL     OW22222   3.234   0.998   1.713 -0.2568 -0.1239 -0.6571
 3588SOL    HW122223   3.277   0.912   1.711  0.1877  0.1263 -1.7830
 3588SOL    HW222224   3.313   1.049   1.694 -0.6783  0.9991  0.5739
 3589SOL     OW22225   1.541   3.775   3.599 -0.3514  0.3467 -0.0631
 3589SOL    HW122226   1.635   3.778   3.617 -0.3114 -0.7497 -0.0903
 3589SOL    HW222227   1.538   3.754   3.506 -0.6345 -0.5377  0.1399
 3590SOL     OW22228   3.526   2.402  15.642  0.6022 -0.1520  0.6880
 3590SOL    HW122229   3.519   2.324  15.587 -0.1319  0.6289 -0.3151
 3590SOL    HW222230   3.514   2.358  15.726 -0.8574 -1.0623 -0.0109
 3591SOL     OW22231   0.028   2.827  17.587 -0.5446  0.0267  0.0754
 3591SOL    HW122232   0.074   2.750  17.618  1.0681  0.4020 -1.3883
 3591SOL    HW222233   4.715   2.852  17.671  1.4401 -0.6725  1.1641
 3592SOL     OW22234   4.653   1.967  12.236  0.0764 -0.1844  0.0138
 3592SOL    HW122235   4.644   2.058  12.209 -0.9490 -0.5111 -0.7531
 3592SOL    HW222236   4.586   1.922  12.184  0.9540 -0.4385 -0.8992
 3593SOL     OW22237   4.585   1.260   3.225 -0.2853 -0.1730 -0.4029
 3593SOL    HW122238   4.589   1.347   3.266 -1.4729 -0.7170  0.8391
 3593SOL    HW222239   4.569   1.200   3.298 -0.0606  1.2273  0.8096
 3594SOL     OW22240   1.757   1.572   5.671 -0.4316  0.3194  0.4265
 3594SOL    HW122241   1.678   1.577   5.724  0.3912  1.9897  1.4832
 3594SOL    HW222242   1.772   1.666   5.663  1.5083  0.0346  0.5779
 3595SOL     OW22243   1.604   0.114   2.795  0.8429 -0.5080 -0.2380
 3595SOL    HW122244   1.520   0.083   2.828 -0.1804 -0.1733 -2.4972
 3595SOL    HW222245   1.593   0.100   2.701 -2.1965  0.6646 -0.0441
 3596SOL     OW22246   4.305   1.344   2.229 -0.9420 -0.0659 -0.0025
 3596SOL    HW122247   4.307   1.286   2.152 -0.1147  0.3067 -0.2602
 3596SOL    HW222248   4.215   1.331   2.260  0.0378 -1.2497  2.3197
 3597SOL     OW22249   3.181   0.062   4.381  0.1180  0.2010  0.2923
 3597SOL    HW122250   3.166   0.135   4.322  1.6731 -1.3686 -2.0470
 3597SOL    HW222251   3.235   0.103   4.449 -1.6623  1.1816  1.1172
 3598SOL     OW22252   1.555   1.261   0.179  0.3937 -0.0587  0.0595
 3598SOL    HW122253   1.598   1.233   0.098  1.0604  2.2043 -0.3706
 3598SOL    HW222254   1.571   1.191   0.243  1.2582  0.9698  0.9855
 3599SOL     OW22255   0.896   0.175   1.749 -0.3778  0.4053  0.4852
 3599SOL    HW122256   0.983   0.182   1.708 -1.1811  3.7623 -0.5979
 3599SOL    HW222257   0.851   0.250   1.710 -0.8004  1.2181  2.5185
 3600SOL     OW22258   2.950   3.694   5.329 -0.5020 -0.6815  0.2251
 3600SOL    HW122259   3.020   3.712   5.266  0.1626 -0.1241  1.1259
 3600SOL    HW222260   2.991   3.705   5.414 -1.1416 -2.0439  0.7181
 3601SOL     OW22261   2.098   0.551   5.670 -0.3845 -0.0893  0.3391
 3601SOL    HW122262   2.077   0.460   5.693 -0.2985 -0.2998 -0.3876
 3601SOL    HW222263   2.091   0.546   5.574  1.5454  0.4975  0.1697
 3602SOL     OW22264   1.852   1.857   6.752 -0.1976  0.6546 -0.0934
 3602SOL    HW122265   1.913   1.823   6.817  0.0976  2.5940  0.6281
 3602SOL    HW222266   1.878   1.815   6.671  1.3718 -1.1247  1.3346
 3603SOL     OW22267   2.963   1.739   7.282 -0.1455  0.5992  0.0805
 3603SOL    HW122268   2.925   1.732   7.370  1.7024 -0.1165  0.8234
 3603SOL    HW222269   2.975   1.647   7.257  1.8626  0.9114 -0.1028
 3604SOL     OW22270   3.288   0.711  14.722 -0.3810 -0.3642  0.7554
 3604SOL    HW122271   3.284   0.663  14.639  1.6042 -0.4091  0.6782
 3604SOL    HW222272   3.344   0.655  14.776  2.3790  0.4102 -1.3236
 3605SOL     OW22273   2.886   0.069   4.339 -0.2452 -0.4424  0.1211
 3605SOL    HW122274   2.861   0.021   4.261 -0.2520  0.1435 -0.2400
 3605SOL    HW222275   2.850   0.150   4.303  0.6402 -1.4057 -2.9356
 3606SOL     OW22276   1.457   1.272   2.321 -0.0078 -0.0485  0.1219
 3606SOL    HW122277   1.374   1.234   2.349  0.1046 -1.7822 -1.9302
 3606SOL    HW222278   1.440   1.364   2.339 -0.9148 -0.1900  0.0084
 3607SOL     OW22279   1.925   0.463   2.412 -0.2408 -0.0790  0.4728
 3607SOL    HW122280   1.863   0.461   2.339 -0.8821  0.1151  1.0243
 3607SOL    HW222281   2.006   0.456   2.360 -0.9052  0.4087 -0.6229
 3608SOL     OW22282   3.835   2.052  14.219 -0.2226  0.2306  0.2388
 3608SOL    HW122283   3.780   2.004  14.158  1.3956  1.1866 -1.9674
 3608SOL    HW222284   3.810   2.139  14.189 -1.2527 -0.4122 -0.7280
 3609SOL     OW22285   3.083   4.566   1.916  0.5377 -0.2022  0.7115
 3609SOL    HW122286   3.170   4.602   1.935  0.6865 -0.3346  0.2856
 3609SOL    HW222287   3.096   4.526   1.830 -0.6468 -0.2317  0.5544
 3610SOL     OW22288   3.166   2.503   2.128 -0.5996  0.0877  0.1008
 3610SOL    HW122289   3.200   2.491   2.217  1.7632 -1.0954 -0.9448
 3610SOL    HW222290   3.227   2.563   2.085 -4.1187  3.4405 -0.1212
 3611SOL     OW22291   4.677   2.193   8.755  0.1222  0.0926 -0.1512
 3611SOL    HW122292   4.658   2.243   8.675 -0.4984  1.6746  0.9862
 3611SOL    HW222293   4.608   2.127   8.751 -0.2851  0.5109 -0.0848
 3612SOL     OW22294   2.794   0.112   3.177  0.7266 -0.4241 -0.0696
 3612SOL    HW122295   2.854   0.054   3.223  1.2222 -1.4247 -1.9791
 3612SOL    HW222296   2.815   0.200   3.210 -1.8049 -0.8327  2.6029
 3613SOL     OW22297   3.892   1.754   6.016  1.0064  0.3662  0.3649
 3613SOL    HW122298   3.981   1.731   5.992  0.8004 -0.4828  0.4188
 3613SOL    HW222299   3.895   1.722   6.107 -2.3316 -2.4810 -0.5298
 3614SOL     OW22300   0.389   1.226  16.606 -0.2793  0.1714  0.5559
 3614SOL    HW122301   0.318   1.163  16.593 -0.5159  0.1693  1.7980
 3614SOL    HW222302   0.428   1.228  16.519 -1.0324  1.0141  0.2400
 3615SOL     OW22303   4.604   2.211   1.763  0.0409 -0.2302  0.6805
 3615SOL    HW122304   4.566   2.208   1.675  3.3144  2.9932 -0.8336
 3615SOL    HW222305   4.621   2.120   1.786 -4.1392 -0.7286  1.7652
 3616SOL     OW22306   2.660   0.858   0.049 -0.2800 -0.5465 -0.6340
 3616SOL    HW122307   2.750   0.889   0.037  0.5557 -2.1740  1.3701
 3616SOL    HW222308   2.608   0.938   0.050  2.2468  1.1032 -1.0284
 3617SOL     OW22309   1.312   4.187   0.098  0.5432 -0.4209 -0.0100
 3617SOL    HW122310   1.309   4.279   0.124 -0.0906 -0.1319 -1.0934
 3617SOL    HW222311   1.299   4.144   0.182  0.8491 -2.5790 -1.0512
 3618SOL     OW22312   4.607   2.446  13.902  0.4293  0.5774  0.0264
 3618SOL    HW122313   4.543   2.415  13.838  1.1673  0.1977 -0.5205
 3618SOL    HW222314   4.590   2.397  13.983  2.8763 -1.0975 -0.4721
 3619SOL     OW22315   2.111   2.160   0.299  1.1786  0.4368  0.4695
 3619SOL    HW122316   2.123   2.115   0.216  0.9065  0.9384  0.1539
 3619SOL    HW222317   2.113   2.254   0.278 -3.3876  0.6745  0.9507
 3620SOL     OW22318   4.055   1.979   7.670 -0.1062  0.2314  0.2386
 3620SOL    HW122319   4.059   1.894   7.713 -0.1551 -0.2609 -0.7170
 3620SOL    HW222320   4.144   2.014   7.678  0.0017  0.7891 -3.2691
 3621SOL     OW22321   2.357   2.566   4.530 -0.5441  0.0589  0.7918
 3621SOL    HW122322   2.452   2.573   4.537 -0.2878 -2.2932 -0.2839
 3621SOL    HW222323   2.351   2.595   4.439  0.4583 -2.8746 -0.2084
 3622SOL     OW22324   3.070   4.608   5.955 -0.2176  0.1766  0.6474
 3622SOL    HW122325   3.026   4.671   6.012  0.1636  0.4503  0.6378
 3622SOL    HW222326   3.148   4.587   6.006  1.0495  2.0745 -0.5282
 3623SOL     OW22327   1.663   0.870   5.785  0.5912 -0.2185 -0.3921
 3623SOL    HW122328   1.701   0.790   5.747 -0.7395 -0.3244 -1.4901
 3623SOL    HW222329   1.628   0.911   5.706  0.3481  0.3889  0.0387
 3624SOL     OW22330   4.094   1.124  11.013  0.1507 -0.2310  0.2006
 3624SOL    HW122331   4.017   1.172  11.042  0.1828  0.8368 -1.5071
 3624SOL    HW222332   4.057   1.070  10.943 -0.8654 -0.1502  0.6881
 3625SOL     OW22333   2.320   0.135   8.198 -0.0388 -0.7038 -0.1174
 3625SOL    HW122334   2.237   0.094   8.224 -1.8868  3.8304  1.1946
 3625SOL    HW222335   2.299   0.228   8.187 -0.0523 -0.4448  1.9836
 3626SOL     OW22336   1.442   2.416   7.317  0.0412 -0.3106  0.5040
 3626SOL    HW122337   1.511   2.483   7.315  2.1311 -2.5371 -1.2459
 3626SOL    HW222338   1.409   2.419   7.407 -0.2515  1.0529  0.3526
 3627SOL     OW22339   2.577   2.802   5.220  0.1805 -0.4227  0.6074
 3627SOL    HW122340   2.517   2.845   5.283 -0.4768  0.0034 -0.3055
 3627SOL    HW222341   2.531   2.719   5.229  1.6029 -1.3784 -1.0989
 3628SOL     OW22342   3.688   1.616  16.432  0.0997  0.3819 -0.1828
 3628SOL    HW122343   3.671   1.591  16.342  2.3177 -0.7809 -0.2763
 3628SOL    HW222344   3.695   1.712  16.433  1.4036  0.2785  0.3939
 3629SOL     OW22345   0.138   2.349   6.086 -0.2809  0.1638 -0.2090
 3629SOL    HW122346   0.047   2.319   6.082 -0.6494  0.8864  2.6372
 3629SOL    HW222347   0.188   2.272   6.059 -0.9397  0.0969 -1.2534
 3630SOL     OW22348   1.882   2.813  17.651 -0.3563 -0.6485 -0.4192
 3630SOL    HW122349   1.833   2.753  17.595 -0.5126 -1.7143  0.8739
 3630SOL    HW222350   1.813   2.840   0.010  0.4017  1.4834 -0.5026
 3631SOL     OW22351   2.458   1.151  14.049 -0.3273 -0.4387  0.3911
 3631SOL    HW122352   2.429   1.176  13.961  1.2003  1.7925  0.5220
 3631SOL    HW222353   2.387   1.088  14.063 -0.5206 -0.4272 -0.4928
 3632SOL     OW22354   4.187   2.752   4.507  0.4387  0.2156 -0.1790
 3632SOL    HW122355   4.268   2.783   4.467  2.4620 -2.8675  1.5054
 3632SOL    HW222356   4.140   2.834   4.519 -1.2234 -0.4417 -2.0403
 3633SOL     OW22357   0.146   1.345  14.847  0.1859 -0.4046  0.5074
 3633SOL    HW122358   0.077   1.348  14.780  0.6644  0.8356  0.0612
 3633SOL    HW222359   0.092   1.346  14.926 -0.2297 -3.1465  0.2498
 3634SOL     OW22360   2.980   2.888  15.975 -0.0011  0.7201 -0.0411
 3634SOL    HW122361   2.981   2.804  16.020 -2.5874  1.1895  0.8948
 3634SOL    HW222362   2.975   2.947  16.050  2.5416  0.1283  0.5938
 3635SOL     OW22363   1.730   4.610   8.250 -0.3108  0.1549  0.1493
 3635SOL    HW122364   1.744   4.557   8.328  1.9257 -0.1570 -0.4666
 3635SOL    HW222365   1.699   4.690   8.293 -0.7888  1.0496 -1.8700
 3636SOL     OW22366   4.059   0.027   5.739 -0.4035  1.0422  0.8391
 3636SOL    HW122367   4.033   0.097   5.679 -1.4533 -0.2689 -0.2512
 3636SOL    HW222368   4.032   0.063   5.824  1.2351  1.3258  1.2421
 3637SOL     OW22369   1.266   3.661   4.629 -0.8720  0.1369 -0.4109
 3637SOL    HW122370   1.297   3.647   4.540 -0.9815 -2.2075 -0.0751
 3637SOL    HW222371   1.189   3.605   4.640  1.1080 -2.2143  1.4296
 3638SOL     OW22372   3.521   1.350   5.107  0.0331 -0.0194  0.3804
 3638SOL    HW122373   3.537   1.429   5.158  1.8913 -0.4869  0.5030
 3638SOL    HW222374   3.430   1.335   5.133 -0.3669 -0.9311 -1.4937
 3639SOL     OW22375   1.824   3.899  15.074 -0.3611 -0.8044  0.3826
 3639SOL    HW122376   1.847   3.849  14.996 -0.8879 -0.6714  0.1461
 3639SOL    HW222377   1.889   3.969  15.073  1.2754 -2.3228  0.6266
 3640SOL     OW22378   1.050   3.473  15.100 -0.3095 -0.3580  0.4425
 3640SOL    HW122379   1.142   3.480  15.074 -0.1994  0.1822  0.9668
 3640SOL    HW222380   1.052   3.487  15.195 -0.3651  0.0205  0.3886
 3641SOL     OW22381   4.673   4.120  11.118 -0.4943  0.4063 -0.0763
 3641SOL    HW122382   4.596   4.176  11.109  0.8779  1.9879 -1.9525
 3641SOL    HW222383   0.023   4.173  11.147  0.0146 -0.7286  0.6762
 3642SOL     OW22384   0.872   3.937   1.064 -0.3067  0.9507 -0.0219
 3642SOL    HW122385   0.829   3.949   1.149 -2.1856 -1.8055 -0.5968
 3642SOL    HW222386   0.798   3.898   1.018 -0.0404  0.7216 -0.2496
 3643SOL     OW22387   4.170   2.865   8.385 -0.0278  0.4525 -0.2043
 3643SOL    HW122388   4.082   2.829   8.371  0.1948 -0.6070  1.0877
 3643SOL    HW222389   4.191   2.898   8.298 -3.3265  3.2845  0.0671
 3644SOL     OW22390   2.994   1.818   2.156 -0.3372  0.4406 -0.2088
 3644SOL    HW122391   2.952   1.737   2.187  0.6938  1.3312  3.5245
 3644SOL    HW222392   2.970   1.880   2.224  0.3807 -0.1896  0.6204
 3645SOL     OW22393   3.624   1.663   3.210 -0.0607 -0.0882  0.0845
 3645SOL    HW122394   3.712   1.627   3.221 -0.7567 -2.1882 -1.2664
 3645SOL    HW222395   3.573   1.584   3.223 -3.0209  1.4014 -2.4627
 3646SOL     OW22396   0.243   4.078   2.397  0.8786  0.1488 -0.7203
 3646SOL    HW122397   0.224   3.989   2.367 -1.5010  0.2346  0.4617
 3646SOL    HW222398   0.271   4.051   2.485 -2.6902  0.4840  0.5285
 3647SOL     OW22399   3.954   4.532   6.162  0.0974 -0.3387 -0.1197
 3647SOL    HW122400   3.920   4.616   6.193  2.6389 -0.5386  3.1830
 3647SOL    HW222401   3.926   4.533   6.071 -1.9950  0.3297  0.5354
 3648SOL     OW22402   4.546   1.429   0.373 -0.0338  0.9038  0.4416
 3648SOL    HW122403   4.531   1.372   0.298  2.6680 -0.4406  0.9023
 3648SOL    HW222404   4.571   1.363   0.438 -3.8015  0.6453  1.5945
 3649SOL     OW22405   3.458   3.924   8.501  0.0585  0.1800 -0.7849
 3649SOL    HW122406   3.393   3.976   8.548 -0.2335  0.3955 -1.4351
 3649SOL    HW222407   3.464   3.979   8.423 -0.8135 -0.9752 -1.6638
 3650SOL     OW22408   2.015   0.835   7.612 -0.3483 -0.4224  0.2159
 3650SOL    HW122409   2.014   0.772   7.685  1.0726 -3.4622 -2.4147
 3650SOL    HW222410   2.014   0.913   7.667  0.5274  0.3184 -0.8401
 3651SOL     OW22411   2.557   1.709   4.920 -0.5666 -0.0401  0.3172
 3651SOL    HW122412   2.581   1.618   4.935 -0.5811 -0.0778  0.1166
 3651SOL    HW222413   2.637   1.763   4.917  0.5503 -1.7527 -0.9672
 3652SOL     OW22414   3.140   0.328  17.220  0.3510 -0.4553 -0.9139
 3652SOL    HW122415   3.218   0.383  17.222 -1.2802  1.8292  0.8708
 3652SOL    HW222416   3.138   0.304  17.127  2.6834 -1.4308 -0.6945
 3653SOL     OW22417   4.054   2.816  10.430  0.1215  0.1576  0.0817
 3653SOL    HW122418   4.140   2.849  10.405 -0.1148  1.5891  1.1907
 3653SOL    HW222419   4.002   2.893  10.454  0.6934  1.1045 -1.6960
 3654SOL     OW22420   2.967   2.191   1.261  0.2140 -0.4038  0.1589
 3654SOL    HW122421   2.882   2.235   1.255 -0.2171 -1.3467 -0.5580
 3654SOL    HW222422   2.947   2.134   1.335  3.8551 -0.6703  0.9721
 3655SOL     OW22423   2.158   2.088   1.933  0.2730  0.1815 -0.4082
 3655SOL    HW122424   2.166   2.120   1.843 -0.5690  0.0146 -0.5376
 3655SOL    HW222425   2.130   2.168   1.978 -0.3694 -0.9286  1.1342
 3656SOL     OW22426   1.308   3.188   0.958  0.2577 -0.2516  0.5897
 3656SOL    HW122427   1.345   3.103   0.935 -0.1462 -0.6424  1.3984
 3656SOL    HW222428   1.255   3.166   1.034 -0.0830  0.0185  0.4337
 3657SOL     OW22429   1.396   4.046   9.142  0.5060  0.3750  0.8742
 3657SOL    HW122430   1.325   4.101   9.177 -0.4425 -1.2729  1.5320
 3657SOL    HW222431   1.359   3.997   9.069 -0.1957  0.9831  0.8153
 3658SOL     OW22432   2.766   2.316   6.396  0.1928  0.2552 -0.5940
 3658SOL    HW122433   2.694   2.314   6.460  1.4985  0.7794  0.8857
 3658SOL    HW222434   2.720   2.376   6.337  0.4896  0.0535 -1.0316
 3659SOL     OW22435   1.254   0.433   0.496  0.0247 -0.1893 -0.0066
 3659SOL    HW122436   1.331   0.416   0.550  0.0839 -0.2157 -0.0998
 3659SOL    HW222437   1.197   0.360   0.521  3.5355 -2.9394 -0.1415
 3660SOL     OW22438   3.510   2.549   2.224  0.0406 -0.4199  0.0692
 3660SOL    HW122439   3.546   2.583   2.305 -2.1816  2.2488 -0.0587
 3660SOL    HW222440   3.417   2.567   2.238  0.7745  1.7083  2.1208
 3661SOL     OW22441   1.247   1.781  16.064 -0.1313 -0.3311  0.5936
 3661SOL    HW122442   1.251   1.847  16.133 -0.0383  0.2570  0.0211
 3661SOL    HW222443   1.286   1.706  16.108  0.1288 -1.2130 -1.1432
 3662SOL     OW22444   4.185   2.810   7.779 -0.0150 -0.3730 -0.1739
 3662SOL    HW122445   4.189   2.876   7.709  1.1005 -1.9469 -1.5748
 3662SOL    HW222446   4.256   2.835   7.838  0.1420 -0.1602 -0.4492
 3663SOL     OW22447   2.179   2.855  11.841 -0.2816  0.4776  0.0284
 3663SOL    HW122448   2.181   2.951  11.843 -1.0990  0.4783  0.9318
 3663SOL    HW222449   2.273   2.846  11.850 -0.4493 -2.4994 -1.0244
 3664SOL     OW22450   1.361   0.406   4.902 -0.0902 -0.0750 -0.1972
 3664SOL    HW122451   1.456   0.401   4.891 -0.0377  1.1555 -0.3706
 3664SOL    HW222452   1.335   0.490   4.864  2.3266 -0.6031 -2.9865
 3665SOL     OW22453   1.553   2.887   0.378 -0.3094  0.1009  0.6547
 3665SOL    HW122454   1.490   2.954   0.351  0.8398  0.4349 -1.2278
 3665SOL    HW222455   1.501   2.825   0.429  0.4051 -0.1166  1.1262
 3666SOL     OW22456   2.262   1.142   9.587 -0.1620 -0.4704 -0.0997
 3666SOL    HW122457   2.246   1.208   9.655 -0.2858  1.7233 -2.2510
 3666SOL    HW222458   2.350   1.119   9.616 -0.1389  1.1452  1.1091
 3667SOL     OW22459   4.078   4.554   7.166  0.0835  0.3949 -0.2707
 3667SOL    HW122460   4.064   4.506   7.248  1.1894 -0.2392 -0.4550
 3667SOL    HW222461   4.002   4.525   7.115 -0.2670  3.8778 -1.7397
 3668SOL     OW22462   0.868   3.673  16.686  0.2767 -0.1949  0.1666
 3668SOL    HW122463   0.859   3.723  16.768 -1.5077 -2.8207  1.6112
 3668SOL    HW222464   0.957   3.639  16.687  0.1226 -0.6368 -1.9797
 3669SOL     OW22465   1.021   1.344   7.534  0.4330  0.6542  0.1614
 3669SOL    HW122466   1.080   1.356   7.608 -1.0181  0.3259  1.3659
 3669SOL    HW222467   1.085   1.298   7.479 -0.5580 -2.0339  1.2552
 3670SOL     OW22468   1.896   0.357   6.101  0.5034  0.1648 -0.3365
 3670SOL    HW122469   1.967   0.293   6.113  1.0033  1.0523  1.3470
 3670SOL    HW222470   1.835   0.297   6.058  0.8542  0.1215 -0.7860
 3671SOL     OW22471   0.217   3.698  15.406 -0.1258 -0.3873 -0.2277
 3671SOL    HW122472   0.245   3.722  15.317 -2.1858 -0.4252 -0.8741
 3671SOL    HW222473   0.258   3.612  15.409  2.0241  0.5379 -2.1952
 3672SOL     OW22474   1.265   1.036   5.074  0.8100  0.2787  0.0251
 3672SOL    HW122475   1.311   0.984   5.140  1.1555  0.8962  0.2701
 3672SOL    HW222476   1.242   0.977   5.003 -0.5216  0.0768  0.6327
 3673SOL     OW22477   0.914   0.263  11.898 -0.2986  0.4866  0.0116
 3673SOL    HW122478   0.976   0.245  11.827 -0.4252  0.8985 -0.2028
 3673SOL    HW222479   0.840   0.306  11.855 -0.5540 -1.3133 -1.3032
 3674SOL     OW22480   3.408   3.100   2.964  0.0997 -0.0491 -0.5438
 3674SOL    HW122481   3.400   3.179   2.911  0.1456 -0.5905 -1.3579
 3674SOL    HW222482   3.471   3.142   3.023  0.2601 -1.0154 -0.0355
 3675SOL     OW22483   1.953   4.697   3.058  0.1836 -0.5666  0.2970
 3675SOL    HW122484   1.974   4.715   3.150 -0.8543  0.4119  0.3408
 3675SOL    HW222485   1.970   4.603   3.060 -1.0899 -0.8128 -0.3831
 3676SOL     OW22486   3.790   2.779   2.251  0.6106 -0.3003 -0.1578
 3676SOL    HW122487   3.761   2.711   2.312  0.5050  0.8663  1.0840
 3676SOL    HW222488   3.774   2.852   2.310 -1.1296 -0.4886 -0.3805
 3677SOL     OW22489   0.043   2.664   9.579  0.1184  0.1530 -0.1857
 3677SOL    HW122490   0.057   2.713   9.498  3.4496 -1.7728 -0.7851
 3677SOL    HW222491   4.697   2.709   9.624 -0.8334  0.8623 -2.4007
 3678SOL     OW22492   2.886   3.157  11.313  0.1111 -0.8035  0.0292
 3678SOL    HW122493   2.863   3.094  11.244 -1.3845 -0.9605  0.6535
 3678SOL    HW222494   2.809   3.144  11.370  1.0000 -1.7028  1.0200
 3679SOL     OW22495   1.559   3.900   4.908 -0.4661 -0.1105 -0.1416
 3679SOL    HW122496   1.522   3.978   4.866  0.2570 -0.4188 -1.3582
 3679SOL    HW222497   1.600   3.943   4.984 -0.0646  0.5315 -0.7238
 3680SOL     OW22498   2.509   1.882  17.185 -0.0213 -0.5126  0.1765
 3680SOL    HW122499   2.455   1.831  17.245  0.3659  1.3201  2.0873
 3680SOL    HW222500   2.455   1.952  17.151  0.9295  0.4275  0.5944
 3681SOL     OW22501   0.606   4.184   2.796 -0.1741 -0.0913 -0.5170
 3681SOL    HW122502   0.572   4.139   2.873 -0.9476 -0.4934 -1.0844
 3681SOL    HW222503   0.526   4.227   2.764 -1.3825 -1.6370  0.4265
 3682SOL     OW22504   0.103   4.053   5.927  0.0424  0.1142 -0.4291
 3682SOL    HW122505   0.032   4.101   5.970  0.6290 -0.9043  1.6592
 3682SOL    HW222506   0.171   4.120   5.934 -1.3007  1.8338 -3.9692
 3683SOL     OW22507   0.275   3.766  10.688  0.5212 -0.2008  0.1613
 3683SOL    HW122508   0.350   3.796  10.740  2.1430 -0.0150 -2.2465
 3683SOL    HW222509   0.205   3.819  10.724  0.5336  1.1859 -1.8515
 3684SOL     OW22510   2.225   0.791  10.331 -0.3523  0.0342 -0.1944
 3684SOL    HW122511   2.152   0.837  10.289 -1.5884  1.1044  3.0920
 3684SOL    HW222512   2.229   0.828  10.419  3.7824  0.8425 -0.6957
 3685SOL     OW22513   1.133   3.539   3.866  0.6486  0.1424 -0.0836
 3685SOL    HW122514   1.216   3.579   3.840  0.4923 -0.6197 -1.7896
 3685SOL    HW222515   1.169   3.483   3.934  1.5392 -0.5247 -1.0983
 3686SOL     OW22516   3.712   2.536   3.471  0.1507  0.1599 -0.3712
 3686SOL    HW122517   3.702   2.470   3.403  3.4328 -0.2483 -0.4641
 3686SOL    HW222518   3.793   2.513   3.517  1.4327  0.5011 -2.4408
 3687SOL     OW22519   2.128   1.497  11.595  0.2355  0.2630 -0.3309
 3687SOL    HW122520   2.104   1.428  11.534  1.3767 -1.3629  1.0596
 3687SOL    HW222521   2.133   1.574  11.539 -0.9128 -1.2837 -2.5403
 3688SOL     OW22522   3.766   1.754  11.355 -0.0789 -0.2079  0.1578
 3688SOL    HW122523   3.817   1.749  11.274 -2.0746 -4.4213 -0.8288
 3688SOL    HW222524   3.683   1.710  11.341  0.8416 -1.5215 -1.2516
 3689SOL     OW22525   2.670   3.035   8.311  0.1483  0.3990  0.1835
 3689SOL    HW122526   2.663   3.019   8.405 -0.8782 -2.1390 -0.3049
 3689SOL    HW222527   2.617   3.113   8.298 -0.6683 -0.3728 -1.1268
 3690SOL     OW22528   1.345   1.283   3.607  0.3481 -0.4251  0.0744
 3690SOL    HW122529   1.320   1.375   3.600 -2.6963 -1.2228  0.3843
 3690SOL    HW222530   1.381   1.277   3.695 -0.9187 -1.9244  0.4806
 3691SOL     OW22531   1.929   2.899   4.369  0.3465  0.2496  0.5965
 3691SOL    HW122532   1.954   2.817   4.326 -2.1982 -0.2757  0.1260
 3691SOL    HW222533   1.850   2.923   4.320  1.5938  0.9156 -1.1031
 3692SOL     OW22534   4.551   2.593   4.928  0.5865 -0.6077  0.2954
 3692SOL    HW122535   4.494   2.651   4.877  0.6729 -0.6492  0.1539
 3692SOL    HW222536   4.509   2.507   4.933  0.2035 -0.5273 -1.6423
 3693SOL     OW22537   0.579   2.577   4.924 -0.1017 -0.0208 -1.0980
 3693SOL    HW122538   0.647   2.626   4.970  2.5283 -1.0098 -3.9278
 3693SOL    HW222539   0.537   2.654   4.884 -0.4578  0.2667 -0.1773
 3694SOL     OW22540   2.028   0.661  14.861 -0.5892  0.0800 -0.5294
 3694SOL    HW122541   2.027   0.602  14.937  0.5369  0.7063 -0.0377
 3694SOL    HW222542   1.935   0.686  14.853 -0.7403  0.2713  1.8442
 3695SOL     OW22543   3.473   3.366   1.471 -0.0779 -0.0662  0.1462
 3695SOL    HW122544   3.468   3.458   1.446 -4.1617 -0.4540 -0.4427
 3695SOL    HW222545   3.505   3.335   1.386 -0.7807 -2.0896  0.6051
 3696SOL     OW22546   3.250   2.388   4.139  0.0259  0.4487  0.3612
 3696SOL    HW122547   3.258   2.449   4.066 -2.0080  1.5944  1.0911
 3696SOL    HW222548   3.205   2.311   4.103  1.3295 -0.6624  1.1042
 3697SOL     OW22549   4.070   3.020   3.694  0.3472  0.0988 -0.3768
 3697SOL    HW122550   3.993   3.075   3.680  0.4841  0.9532  2.3261
 3697SOL    HW222551   4.027   2.935   3.700 -0.3271  0.5423  1.1914
 3698SOL     OW22552   4.722   2.808   4.950 -0.6274 -0.0488  0.2125
 3698SOL    HW122553   4.655   2.877   4.943 -0.3264  0.1706 -0.5139
 3698SOL    HW222554   4.654   2.741   4.958 -0.5752 -0.1597 -0.2533
 3699SOL     OW22555   1.584   0.125  11.674 -0.0347  0.6720 -0.4460
 3699SOL    HW122556   1.667   0.098  11.635  0.3885  1.0461  0.1986
 3699SOL    HW222557   1.526   0.083  11.610 -0.2388  1.0332 -0.4971
 3700SOL     OW22558   2.013   2.194   0.562 -0.2082 -0.9994 -0.2970
 3700SOL    HW122559   1.953   2.249   0.511  0.4524  0.5508  0.6276
 3700SOL    HW222560   2.059   2.151   0.490  2.1441  1.2555 -0.1015
 3701SOL     OW22561   2.835   4.204   5.585  0.0260 -0.2651  0.5931
 3701SOL    HW122562   2.848   4.125   5.637  2.3400 -0.2152  0.0820
 3701SOL    HW222563   2.874   4.271   5.640  1.0135 -1.4977  1.3942
 3702SOL     OW22564   1.049   1.575   8.184  0.1729  0.0422 -0.2530
 3702SOL    HW122565   1.106   1.643   8.150  0.5565 -1.3212 -2.3053
 3702SOL    HW222566   1.049   1.590   8.279  0.1850 -1.3341 -0.0352
 3703SOL     OW22567   1.167   1.101  11.260 -0.1437  0.2278  0.3000
 3703SOL    HW122568   1.077   1.079  11.283 -0.6282  0.6188 -1.2145
 3703SOL    HW222569   1.190   1.030  11.200  1.0241  0.3518  0.5890
 3704SOL     OW22570   4.156   1.326   3.017 -0.2459  0.4473  0.0786
 3704SOL    HW122571   4.082   1.269   3.040  0.1671  0.1147  0.5914
 3704SOL    HW222572   4.230   1.266   3.009  0.5510  1.1337  2.3981
 3705SOL     OW22573   1.589   0.927   4.571  0.0760 -0.8088 -0.3276
 3705SOL    HW122574   1.678   0.962   4.580 -0.3392  0.3174 -0.6821
 3705SOL    HW222575   1.568   0.893   4.658 -1.3012  1.3608  0.1990
 3706SOL     OW22576   4.666   2.223  11.995  0.4483 -0.1645  0.3170
 3706SOL    HW122577   0.008   2.162  11.964 -0.2280  0.2587 -1.9462
 3706SOL    HW222578   4.583   2.176  11.991  0.6713 -0.4160 -1.4892
 3707SOL     OW22579   2.430   3.606   1.080  0.0742 -0.0994 -0.1243
 3707SOL    HW122580   2.404   3.582   0.991 -0.6925  2.2225 -0.5181
 3707SOL    HW222581   2.523   3.613   1.057 -0.2016 -0.2954 -1.3049
 3708SOL     OW22582   4.629   3.096   2.606 -0.0679  0.7658 -0.0756
 3708SOL    HW122583   4.698   3.151   2.645  0.6244 -0.9831  1.1638
 3708SOL    HW222584   4.677   3.014   2.596 -3.2158 -0.9876 -0.8215
 3709SOL     OW22585   2.776   3.619   7.691 -0.2878 -0.2303  0.4629
 3709SOL    HW122586   2.703   3.577   7.645 -1.0050  1.7217 -0.1897
 3709SOL    HW222587   2.843   3.551   7.688 -0.1664 -0.0336 -1.4185
 3710SOL     OW22588   3.541   3.733  13.632  0.2466 -0.0743  0.5336
 3710SOL    HW122589   3.557   3.794  13.560  1.3175 -0.4357  0.4689
 3710SOL    HW222590   3.459   3.696  13.600  0.1327  1.0972 -0.4856
 3711SOL     OW22591   4.467   3.432   0.221 -0.3358  0.2584 -0.2045
 3711SOL    HW122592   4.522   3.444   0.298 -1.5296  0.7998  0.5642
 3711SOL    HW222593   4.382   3.451   0.259 -1.4807 -1.0035 -2.1409
 3712SOL     OW22594   2.402   2.704   0.079 -0.4286 -0.4473 -0.0910
 3712SOL    HW122595   2.315   2.742   0.096  0.5805  2.1770 -0.7208
 3712SOL    HW222596   2.461   2.779   0.074 -0.7504 -0.1003  1.3065
 3713SOL     OW22597   3.778   4.042  12.239 -0.2732  0.3172 -0.5629
 3713SOL    HW122598   3.694   4.069  12.276 -0.5051 -0.0225 -0.8403
 3713SOL    HW222599   3.769   4.050  12.144 -1.3552 -0.6671 -0.5373
 3714SOL     OW22600   0.685   4.472   2.677 -0.3599 -0.6481  0.5415
 3714SOL    HW122601   0.776   4.500   2.688 -0.9321  0.5979  2.0315
 3714SOL    HW222602   0.695   4.393   2.624  2.3486  0.1345 -0.0995
 3715SOL     OW22603   2.514   1.973   3.559  0.1737  0.3479  0.2259
 3715SOL    HW122604   2.557   1.935   3.635 -0.0967  0.2484  0.3319
 3715SOL    HW222605   2.469   1.896   3.523 -0.9863  0.4180  1.5344
 3716SOL     OW22606   4.278   4.414   5.184 -0.2877  0.3180  0.5889
 3716SOL    HW122607   4.342   4.383   5.247  0.7529  1.6972  0.2265
 3716SOL    HW222608   4.333   4.413   5.106 -0.4060 -4.0344  0.5806
 3717SOL     OW22609   3.621   0.438  11.640 -0.1805 -0.4890  0.2184
 3717SOL    HW122610   3.601   0.459  11.731 -0.2519  1.4089 -0.2266
 3717SOL    HW222611   3.652   0.348  11.650 -0.2045 -0.4889  0.2986
 3718SOL     OW22612   3.340   1.904  11.276 -0.7537 -0.2297  0.0927
 3718SOL    HW122613   3.275   1.959  11.232 -0.8745  0.8438  1.6347
 3718SOL    HW222614   3.413   1.936  11.222 -0.5009 -2.6841 -1.0431
 3719SOL     OW22615   3.216   2.124   1.898 -0.0036  0.9855  0.0145
 3719SOL    HW122616   3.214   2.122   1.993  1.2409 -1.4178 -0.0278
 3719SOL    HW222617   3.261   2.207   1.881 -0.3873  1.1637 -0.1210
 3720SOL     OW22618   2.002   1.495  11.127  0.5172  0.2729  0.0255
 3720SOL    HW122619   1.959   1.463  11.206  3.1953  2.4211  2.3717
 3720SOL    HW222620   1.948   1.563  11.087 -0.9445  0.1084  1.7163
 3721SOL     OW22621   0.774   4.303   5.938 -0.4537  0.1786  0.0723
 3721SOL    HW122622   0.810   4.392   5.932 -2.6339  1.1784  1.9031
 3721SOL    HW222623   0.707   4.304   5.869  2.1379 -0.8166 -2.4613
 3722SOL     OW22624   0.217   3.601   5.510  0.9699 -0.1490 -0.0128
 3722SOL    HW122625   0.293   3.626   5.562  0.6016  0.1518  0.3795
 3722SOL    HW222626   0.158   3.673   5.534  0.4401 -0.1684 -1.2428
 3723SOL     OW22627   3.791   1.249   3.268  0.1240  0.1287 -0.0577
 3723SOL    HW122628   3.791   1.344   3.252  0.9580 -0.3020 -2.5996
 3723SOL    HW222629   3.847   1.207   3.203 -1.2469  1.6628 -2.2196
 3724SOL     OW22630   3.498   1.266  15.653  0.3365 -0.1245  0.0641
 3724SOL    HW122631   3.489   1.361  15.655 -2.5650 -0.3551 -2.4573
 3724SOL    HW222632   3.469   1.250  15.563 -0.9274 -0.9638  0.6242
 3725SOL     OW22633   2.477   2.022   5.172  0.1876  0.2664  0.6407
 3725SOL    HW122634   2.423   1.977   5.107 -0.0820 -0.6382  1.5008
 3725SOL    HW222635   2.510   1.949   5.224 -0.7015 -0.1714  0.5853
 3726SOL     OW22636   2.200   2.066   6.862 -0.4581 -0.3835  0.2746
 3726SOL    HW122637   2.180   2.159   6.877  0.5467 -0.4960  2.3703
 3726SOL    HW222638   2.249   2.064   6.780  0.0841 -0.3054  0.5988
 3727SOL     OW22639   1.561   1.816   6.666 -0.0712 -0.7609  0.2410
 3727SOL    HW122640   1.566   1.813   6.571  0.4495  2.3929  0.1710
 3727SOL    HW222641   1.648   1.790   6.696  0.3446 -0.6352 -0.8865
 3728SOL     OW22642   4.197   0.938   3.304 -0.1458  0.0719 -0.4023
 3728SOL    HW122643   4.178   0.912   3.394  2.0523  2.1593  0.6956
 3728SOL    HW222644   4.145   0.875   3.256  1.3026 -1.9693  0.7104
 3729SOL     OW22645   4.324   2.749   1.683 -0.0745  0.1759 -0.0549
 3729SOL    HW122646   4.343   2.792   1.600 -1.1527 -1.2776 -1.0491
 3729SOL    HW222647   4.329   2.819   1.748  0.9931 -1.4785  1.6522
 3730SOL     OW22648   2.051   3.916   5.530  0.3097  0.0954 -0.3241
 3730SOL    HW122649   2.031   3.875   5.446 -0.6651 -0.9218  0.4119
 3730SOL    HW222650   2.143   3.893   5.547  0.6689  0.6065 -1.5986
 3731SOL     OW22651   3.091   0.486   8.742  0.8067 -0.2085 -0.1913
 3731SOL    HW122652   3.027   0.419   8.765  1.1188 -1.1262 -1.9703
 3731SOL    HW222653   3.099   0.541   8.820  0.4297  0.1779 -0.4224
 3732SOL     OW22654   2.892   1.670  11.947  0.3491 -0.3071 -0.0775
 3732SOL    HW122655   2.895   1.581  11.981  0.3659  0.3574  1.6486
 3732SOL    HW222656   2.961   1.669  11.880 -0.1664 -2.0818 -0.5722
 3733SOL     OW22657   0.147   4.528   2.338 -0.0875  0.3011 -0.3074
 3733SOL    HW122658   0.127   4.491   2.424  1.0843 -1.8064 -0.9607
 3733SOL    HW222659   0.080   4.488   2.283  0.0465  1.4133 -1.2808
 3734SOL     OW22660   2.502   1.790   5.309 -0.0720 -0.0502 -0.1212
 3734SOL    HW122661   2.487   1.746   5.393 -1.2156 -0.4402 -0.5306
 3734SOL    HW222662   2.538   1.712   5.266 -1.8296 -0.6773 -0.4735
 3735SOL     OW22663   0.230   1.221  14.074  0.2209 -0.3609 -0.3681
 3735SOL    HW122664   0.254   1.231  14.166 -2.1548  3.1638 -0.1216
 3735SOL    HW222665   0.305   1.267  14.037  1.6603 -1.6486  0.9384
 3736SOL     OW22666   3.632   2.164   7.483  0.2477 -0.3555 -0.3356
 3736SOL    HW122667   3.577   2.231   7.442  0.7999  1.1862  1.4194
 3736SOL    HW222668   3.666   2.220   7.552 -0.1574 -2.1350  1.2873
 3737SOL     OW22669   0.509   3.296   1.054  0.7773  0.2843 -0.6198
 3737SOL    HW122670   0.559   3.240   1.113 -0.5723  0.0409  0.3161
 3737SOL    HW222671   0.526   3.237   0.981  0.9291 -1.0841  0.5282
 3738SOL     OW22672   0.114   0.900  17.332  0.3899 -0.0815  0.2793
 3738SOL    HW122673   0.191   0.953  17.313  0.9986 -0.2902  2.1230
 3738SOL    HW222674   0.048   0.967  17.352 -0.7741 -1.0449 -0.3332
 3739SOL     OW22675   2.602   3.663   2.315  0.2142 -0.5707  0.0057
 3739SOL    HW122676   2.575   3.748   2.280 -1.9472 -0.7925  1.1248
 3739SOL    HW222677   2.541   3.657   2.389 -0.3410  0.7842 -0.3427
 3740SOL     OW22678   2.149   2.171   9.278 -0.1339 -0.3124  0.5829
 3740SOL    HW122679   2.238   2.145   9.254  0.0791  0.5597  0.4359
 3740SOL    HW222680   2.114   2.222   9.205 -0.9610  0.0427  1.2324
 3741SOL     OW22681   3.571   1.604   5.869  0.1451 -0.7073  0.0187
 3741SOL    HW122682   3.570   1.692   5.907  0.1976 -0.7905  0.2133
 3741SOL    HW222683   3.479   1.585   5.891  0.7255 -0.9368  2.1935
 3742SOL     OW22684   4.180   1.142   4.118 -0.0193  0.2383  0.4140
 3742SOL    HW122685   4.128   1.075   4.162  0.6200 -2.1191 -2.4286
 3742SOL    HW222686   4.174   1.197   4.196 -3.1610 -0.1123  0.3938
 3743SOL     OW22687   4.475   1.525  17.265  0.1469 -0.2728  0.1528
 3743SOL    HW122688   4.433   1.611  17.269 -0.7726 -0.6960 -0.5258
 3743SOL    HW222689   4.475   1.504  17.172  1.8285 -1.3014  0.3795
 3744SOL     OW22690   1.407   3.080  11.151 -0.4120 -0.1898  0.0514
 3744SOL    HW122691   1.409   2.996  11.106 -3.8169 -0.3412  0.1957
 3744SOL    HW222692   1.314   3.085  11.174 -0.2216 -0.2046  0.8209
 3745SOL     OW22693   1.581   0.474   6.233  0.3154  0.5442  0.0410
 3745SOL    HW122694   1.522   0.400   6.246 -0.9810  0.9747 -3.4233
 3745SOL    HW222695   1.646   0.416   6.193 -1.7058 -2.0942  0.5659
 3746SOL     OW22696   0.258   1.303   8.341  0.3143 -0.4748  0.5168
 3746SOL    HW122697   0.197   1.275   8.272  1.8084  0.1395 -1.0429
 3746SOL    HW222698   0.321   1.326   8.273 -1.1630  0.1783 -0.6314
 3747SOL     OW22699   3.134   3.983   6.223  0.2448 -0.3134 -0.1485
 3747SOL    HW122700   3.061   3.956   6.279 -1.3381  1.9965 -1.0539
 3747SOL    HW222701   3.080   3.980   6.144 -1.6467 -0.0364  1.1270
 3748SOL     OW22702   2.133   4.358   3.898 -0.2467 -0.1402 -0.0534
 3748SOL    HW122703   2.223   4.325   3.896 -1.0682 -2.3144 -1.4790
 3748SOL    HW222704   2.094   4.304   3.967 -2.7220  0.7390 -0.7457
 3749SOL     OW22705   0.171   3.728   3.676  0.2669  0.2143  0.2382
 3749SOL    HW122706   0.079   3.712   3.654 -0.0103  1.0916  0.7520
 3749SOL    HW222707   0.172   3.787   3.751 -2.3334 -0.3680  0.7380
 3750SOL     OW22708   1.867   0.161   5.870 -0.1784  0.7748  0.0681
 3750SOL    HW122709   1.879   0.238   5.814  0.0717  0.2529 -0.5925
 3750SOL    HW222710   1.901   0.093   5.812  0.3500  1.1724 -0.1008
 3751SOL     OW22711   0.509   1.834  16.739  0.2403  0.4722  0.2722
 3751SOL    HW122712   0.449   1.896  16.781 -2.0576 -3.0252  2.0721
 3751SOL    HW222713   0.528   1.770  16.807 -1.2633 -0.5803 -0.2968
 3752SOL     OW22714   0.984   1.251   3.744  0.4706  0.0692 -0.2709
 3752SOL    HW122715   0.923   1.225   3.674  0.4332 -0.5752  0.0046
 3752SOL    HW222716   0.922   1.260   3.816  0.4778 -0.3713 -0.2100
 3753SOL     OW22717   1.180   4.404   8.670 -0.2639  0.1528  0.4000
 3753SOL    HW122718   1.181   4.493   8.633 -1.0345  0.2198  0.5503
 3753SOL    HW222719   1.229   4.412   8.752  1.8026 -1.5088 -0.6623
 3754SOL     OW22720   0.013   2.353  12.459  0.2933  0.2031  0.3814
 3754SOL    HW122721   0.027   2.352  12.365  1.3449 -2.3004  0.5622
 3754SOL    HW222722   4.706   2.266  12.483 -1.0886  1.0688  1.7224
 3755SOL     OW22723   4.492   2.549  12.230  0.4583 -0.5015 -0.6325
 3755SOL    HW122724   4.439   2.581  12.156 -1.3957  1.1973  1.4063
 3755SOL    HW222725   4.456   2.461  12.233  0.4133 -0.4605  0.1032
 3756SOL     OW22726   0.736   1.130  10.020  0.0339 -0.1571  0.0912
 3756SOL    HW122727   0.783   1.208   9.992 -3.5967  0.8429 -3.2120
 3756SOL    HW222728   0.667   1.177  10.068  0.5166  2.4925 -1.8400
 3757SOL     OW22729   2.033   2.332   7.035  0.0476  0.1937 -0.4428
 3757SOL    HW122730   2.062   2.291   7.116 -2.2998 -0.0238  0.2791
 3757SOL    HW222731   2.047   2.426   7.047  0.5485  0.1097 -0.3746
 3758SOL     OW22732   0.835   1.014  11.687 -0.5706  0.4523  0.0492
 3758SOL    HW122733   0.787   1.074  11.744 -0.4020  0.5761  0.0614
 3758SOL    HW222734   0.889   0.981  11.759  2.5291  1.5826 -1.7453
 3759SOL     OW22735   4.408   4.183   2.946 -0.0974  0.0495 -0.8703
 3759SOL    HW122736   4.467   4.146   2.881 -1.5141 -1.6565 -1.1941
 3759SOL    HW222737   4.475   4.216   3.006 -1.4544  0.2943  0.5251
 3760SOL     OW22738   2.091   2.693   1.194  0.7348 -0.2136  0.0522
 3760SOL    HW122739   2.129   2.779   1.178 -0.1624  0.1478 -0.1578
 3760SOL    HW222740   2.161   2.656   1.248 -0.2598 -0.2080  1.3560
 3761SOL     OW22741   0.277   1.624   8.067  0.3023  0.1088 -0.1539
 3761SOL    HW122742   0.366   1.611   8.100  0.1770 -0.4080 -0.0084
 3761SOL    HW222743   0.291   1.597   7.976 -0.9596  0.6736 -0.5027
 3762SOL     OW22744   0.851   0.999   7.538 -0.5281  0.0306  0.6618
 3762SOL    HW122745   0.822   0.913   7.569  0.8148 -1.2423 -1.5482
 3762SOL    HW222746   0.900   1.023   7.617 -0.7661  1.2118  0.4402
 3763SOL     OW22747   0.298   0.532  12.874  0.3673 -0.5532  0.3742
 3763SOL    HW122748   0.240   0.601  12.842  2.1914  1.6654  1.8700
 3763SOL    HW222749   0.298   0.476  12.796 -1.3554  1.3101 -0.9769
 3764SOL     OW22750   0.277   0.687  17.368 -0.5030  0.0995 -0.6016
 3764SOL    HW122751   0.196   0.736  17.356 -0.2760  0.7984  0.7059
 3764SOL    HW222752   0.317   0.694  17.281  0.8694 -0.0246  0.0094
 3765SOL     OW22753   2.829   0.805   9.864  0.0655 -0.5048 -0.0548
 3765SOL    HW122754   2.900   0.847   9.816  0.4713 -0.7106  0.3749
 3765SOL    HW222755   2.885   0.784   9.938  1.7007  0.4468 -1.0261
 3766SOL     OW22756   1.480   4.336   7.161  0.1872  0.3291  0.5743
 3766SOL    HW122757   1.536   4.371   7.092 -0.2395  1.8870  1.0225
 3766SOL    HW222758   1.479   4.244   7.135  0.2247  0.8015 -1.1001
 3767SOL     OW22759   3.987   2.301   7.409 -0.0505  0.1838 -0.2493
 3767SOL    HW122760   4.024   2.350   7.335 -0.1060  0.2690 -0.2210
 3767SOL    HW222761   4.048   2.229   7.420 -0.0031  0.3619  0.6091
 3768SOL     OW22762   0.055   2.499   3.506  0.4517  0.1635 -0.5730
 3768SOL    HW122763   0.115   2.426   3.521 -0.8732 -0.4215  1.9988
 3768SOL    HW222764   4.719   2.450   3.451  1.8742  0.5683 -2.5105
 3769SOL     OW22765   0.476   0.905   5.261 -0.1842  0.7693  0.4999
 3769SOL    HW122766   0.539   0.865   5.201  0.4570  1.1224  0.9395
 3769SOL    HW222767   0.529   0.945   5.331 -0.8123  1.2879  0.6814
 3770SOL     OW22768   1.216   3.591  17.118 -0.4797  0.2022 -0.0367
 3770SOL    HW122769   1.247   3.597  17.208 -4.1599 -0.3201  1.2742
 3770SOL    HW222770   1.125   3.605  17.143 -0.4824 -1.0394  0.6435
 3771SOL     OW22771   3.878   3.668   0.024  0.0591  0.2748 -0.3380
 3771SOL    HW122772   3.866   3.692   0.116 -0.0260  0.9471 -0.5309
 3771SOL    HW222773   3.963   3.625   0.037 -0.5873 -1.2080 -0.9607
 3772SOL     OW22774   1.546   2.984   9.808 -0.4024 -0.0607  0.7671
 3772SOL    HW122775   1.590   3.004   9.725 -0.6882 -2.7110  0.0021
 3772SOL    HW222776   1.531   2.890   9.802  0.2403 -0.0271 -1.2797
 3773SOL     OW22777   0.679   1.014  13.305 -0.1522 -0.7461 -0.2743
 3773SOL    HW122778   0.636   1.097  13.324  0.2914 -0.8840  1.3023
 3773SOL    HW222779   0.636   0.989  13.224  1.2258  2.0502 -1.8841
 3774SOL     OW22780   0.442   1.293   8.151 -0.1626 -0.0637 -0.0257
 3774SOL    HW122781   0.525   1.304   8.105 -1.4285  2.3859 -1.7352
 3774SOL    HW222782   0.462   1.204   8.180 -1.8333 -0.3397  0.2827
 3775SOL     OW22783   1.675   3.965   4.301 -0.0272 -0.0160 -0.1235
 3775SOL    HW122784   1.757   3.950   4.349  0.2547  1.1652 -0.2441
 3775SOL    HW222785   1.620   3.992   4.375 -0.4698 -1.3060  0.0269
 3776SOL     OW22786   4.490   4.237   8.512  0.2262  0.9602 -0.3267
 3776SOL    HW122787   4.473   4.322   8.472 -2.5616  0.5404 -0.0859
 3776SOL    HW222788   4.426   4.232   8.583  0.9511 -2.5679  0.0571
 3777SOL     OW22789   2.000   2.174   5.867 -0.1449 -0.0749 -0.3300
 3777SOL    HW122790   2.057   2.226   5.923  0.7592 -1.0193 -0.3807
 3777SOL    HW222791   2.055   2.156   5.791 -0.1124 -1.4270  0.0130
 3778SOL     OW22792   3.105   1.936  12.006 -0.6982  0.0742  0.2135
 3778SOL    HW122793   3.136   1.861  11.954  0.3828 -0.7207  2.0042
 3778SOL    HW222794   3.077   1.897  12.089 -2.7768  0.4346 -0.3170
 3779SOL     OW22795   3.985   2.903   1.872 -0.2076  0.6496 -0.0670
 3779SOL    HW122796   3.934   2.915   1.792 -0.6062  3.4456  0.5814
 3779SOL    HW222797   3.927   2.933   1.943  0.5535  2.8101 -0.3488
 3780SOL     OW22798   0.060   0.901   7.041  0.2672  0.2611 -0.4833
 3780SOL    HW122799   0.065   0.932   6.950 -0.7486  0.2369 -0.5421
 3780SOL    HW222800   0.135   0.939   7.087 -0.6615  1.7025 -0.1561
 3781SOL     OW22801   0.494   0.272   5.139  0.0790  0.1038 -0.2464
 3781SOL    HW122802   0.422   0.314   5.093  0.6321  2.5671  1.1792
 3781SOL    HW222803   0.476   0.291   5.231  0.9873 -0.2636  0.0116
 3782SOL     OW22804   1.347   2.927   4.172 -0.4451  0.6505  0.0122
 3782SOL    HW122805   1.255   2.950   4.163 -0.7098 -0.3187  0.2452
 3782SOL    HW222806   1.335   2.866   4.245 -1.3309 -1.1102 -1.6185
 3783SOL     OW22807   3.939   1.108   6.108 -0.4492  0.1693  0.1793
 3783SOL    HW122808   3.988   1.099   6.026 -2.5315  1.8434 -1.2403
 3783SOL    HW222809   3.985   1.179   6.153 -0.6217  2.3713 -3.0835
 3784SOL     OW22810   1.412   0.269   7.101  1.0572 -0.5245  0.4928
 3784SOL    HW122811   1.445   0.235   7.184  1.5229 -0.0385  0.5054
 3784SOL    HW222812   1.318   0.252   7.108  0.8014  0.4212 -0.5943
 3785SOL     OW22813   2.634   1.993   2.682 -0.4556 -0.3715  0.3484
 3785SOL    HW122814   2.684   2.061   2.726  0.2344  0.4418 -1.6717
 3785SOL    HW222815   2.567   2.042   2.636  1.8769 -0.2285 -2.9119
 3786SOL     OW22816   2.775   0.357   3.290 -0.2888 -0.1526 -0.0756
 3786SOL    HW122817   2.824   0.404   3.223 -0.3502 -0.0338 -0.0361
 3786SOL    HW222818   2.826   0.390   3.364  0.0674 -1.9524  0.4952
 3787SOL     OW22819   1.927   0.884   0.947 -0.2913 -0.0747 -0.0221
 3787SOL    HW122820   1.912   0.936   0.868  0.2570 -0.6455 -0.5038
 3787SOL    HW222821   1.835   0.865   0.962 -0.2600  0.5847  1.0149
 3788SOL     OW22822   2.308   2.754   5.593 -0.0705  0.1090  0.2766
 3788SOL    HW122823   2.286   2.689   5.526  0.2599  0.5232 -0.2348
 3788SOL    HW222824   2.223   2.765   5.635 -1.0065 -3.7576 -0.5960
 3789SOL     OW22825   2.300   3.680   9.550 -0.5384  0.0459  0.4668
 3789SOL    HW122826   2.215   3.685   9.506  0.2156  1.1739 -0.8818
 3789SOL    HW222827   2.350   3.673   9.468 -4.0468  0.1004 -1.6447
 3790SOL     OW22828   2.174   1.373   7.937 -0.0881  0.4998  0.1876
 3790SOL    HW122829   2.172   1.372   7.842  0.6831 -1.7148  0.1927
 3790SOL    HW222830   2.247   1.312   7.952  1.1747  1.4765 -1.9473
 3791SOL     OW22831   3.875   2.123   7.821 -0.0013 -0.6144 -0.5092
 3791SOL    HW122832   3.889   2.215   7.798  0.6181  0.0200  2.5160
 3791SOL    HW222833   3.948   2.092   7.768  0.8676  0.8321 -0.1523
 3792SOL     OW22834   2.584   3.639  16.031 -0.0067 -0.1904  0.6784
 3792SOL    HW122835   2.618   3.721  15.997 -0.3134 -0.2650  0.1918
 3792SOL    HW222836   2.585   3.589  15.949  1.1437  1.8156 -0.5058
 3793SOL     OW22837   1.926   0.009   7.323 -0.4987  0.3646  0.0044
 3793SOL    HW122838   1.859   0.040   7.383  0.5876 -1.2795  2.0584
 3793SOL    HW222839   1.995   0.065   7.358  0.2890 -0.6783  0.1193
 3794SOL     OW22840   3.991   1.161  10.390  0.2465  0.4999 -0.0779
 3794SOL    HW122841   4.057   1.098  10.418  0.3786  0.6767  0.0062
 3794SOL    HW222842   4.050   1.219  10.343  3.1236 -1.9251  0.5786
 3795SOL     OW22843   0.636   2.725  11.087 -0.0584  0.8879 -0.1688
 3795SOL    HW122844   0.590   2.685  11.161 -0.3598  2.4894  0.5253
 3795SOL    HW222845   0.575   2.798  11.077  0.8448  1.7566  0.5339
 3796SOL     OW22846   2.574   0.049  15.404  0.2556 -0.2834 -0.5405
 3796SOL    HW122847   2.603   0.088  15.487 -1.2071  0.1336 -0.2265
 3796SOL    HW222848   2.596   4.682  15.422 -0.4125 -0.8025 -2.3574
 3797SOL     OW22849   3.471   1.111   8.098  0.0047  0.0176 -0.0267
 3797SOL    HW122850   3.495   1.128   8.189  1.4433 -0.4248 -0.3347
 3797SOL    HW222851   3.423   1.028   8.102 -0.4874  0.4466  3.2793
 3798SOL     OW22852   0.658   0.406  15.663  0.3929  0.2544 -0.2768
 3798SOL    HW122853   0.629   0.375  15.577  2.9841  0.5402 -1.2501
 3798SOL    HW222854   0.689   0.495  15.644  1.3403 -0.2437 -1.0230
 3799SOL     OW22855   2.488   3.442   0.117 -0.0931 -0.0854  0.1496
 3799SOL    HW122856   2.533   3.373   0.068  0.0429  0.3154 -0.2963
 3799SOL    HW222857   2.394   3.428   0.107 -1.0599  5.8365  0.7871
 3800SOL     OW22858   3.523   3.004   5.338 -0.5767  0.1580  0.3554
 3800SOL    HW122859   3.569   3.056   5.404  1.0018 -1.1254  0.2668
 3800SOL    HW222860   3.559   3.049   5.262  1.8386 -0.8812  0.8837
 3801SOL     OW22861   1.214   0.117  15.202  0.0221 -0.3870 -0.1488
 3801SOL    HW122862   1.256   0.175  15.139 -0.4373 -1.0731 -1.0927
 3801SOL    HW222863   1.132   0.163  15.219  0.1830  0.3863 -1.4587
 3802SOL     OW22864   2.506   0.028   5.622  0.6383  0.1716 -0.2813
 3802SOL    HW122865   2.506   0.055   5.714 -0.0965 -0.3133 -0.1430
 3802SOL    HW222866   2.596   4.724   5.607  1.4680  1.8760  1.4727
 3803SOL     OW22867   1.040   3.204   8.125 -0.1389 -0.1732 -0.3831
 3803SOL    HW122868   1.069   3.292   8.151 -0.1590  0.2505 -1.7714
 3803SOL    HW222869   1.032   3.203   8.030  0.5989 -0.6614 -0.4407
 3804SOL     OW22870   1.825   3.233   4.983  0.2059 -0.2783 -0.0960
 3804SOL    HW122871   1.812   3.315   5.032  0.4572 -0.4879  0.3230
 3804SOL    HW222872   1.745   3.227   4.932  0.6825  2.0765 -1.1111
 3805SOL     OW22873   2.924   0.749   3.972 -0.1450 -0.1210  0.4506
 3805SOL    HW122874   3.007   0.771   4.014  0.3212  1.2066 -1.1639
 3805SOL    HW222875   2.886   0.710   4.051  1.7402  1.1577  1.9784
 3806SOL     OW22876   0.505   1.881   3.973 -0.4244  0.4208  0.3690
 3806SOL    HW122877   0.574   1.944   3.995 -0.1135 -0.0673  0.7832
 3806SOL    HW222878   0.540   1.814   3.914  0.1306  0.5374  0.5660
 3807SOL     OW22879   1.236   4.408  11.172  0.3036 -0.6127  0.0055
 3807SOL    HW122880   1.326   4.430  11.147  0.8484 -0.4796  2.0823
 3807SOL    HW222881   1.187   4.419  11.090  0.8842  2.6841  0.1149
 3808SOL     OW22882   0.246   2.226   8.220  0.0434  0.1084  0.0037
 3808SOL    HW122883   0.211   2.243   8.133  0.2890 -0.9346 -0.3069
 3808SOL    HW222884   0.337   2.254   8.207  0.3007 -0.6843  0.0915
 3809SOL     OW22885   2.165   4.224   8.077 -0.0687 -0.3342  0.2307
 3809SOL    HW122886   2.187   4.140   8.036  0.9779 -0.9021  1.9826
 3809SOL    HW222887   2.114   4.187   8.149 -0.2428  0.3836  0.4669
 3810SOL     OW22888   2.458   4.089  12.608  0.5663  0.5313 -0.0333
 3810SOL    HW122889   2.482   4.032  12.535  0.1414  1.1213 -0.6287
 3810SOL    HW222890   2.543   4.130  12.626  1.5812 -2.2680  1.5454
 3811SOL     OW22891   1.311   3.645   9.874 -0.3244 -0.5460  0.8150
 3811SOL    HW122892   1.390   3.697   9.857  0.1645 -0.8525  2.1662
 3811SOL    HW222893   1.333   3.623   9.964  3.2767 -1.0297 -0.1995
 3812SOL     OW22894   4.638   0.206   6.248  0.4962 -0.3459  0.1189
 3812SOL    HW122895   4.548   0.201   6.215 -0.0391  1.5139  1.2951
 3812SOL    HW222896   4.649   0.120   6.288  0.6356 -0.6392 -0.5505
 3813SOL     OW22897   1.968   4.627  11.337  0.4218 -0.2599 -0.3692
 3813SOL    HW122898   1.884   4.582  11.340  1.0845 -1.4091  0.9262
 3813SOL    HW222899   1.974   4.633  11.242 -0.6274  0.8632 -0.3718
 3814SOL     OW22900   2.679   2.532  13.799  0.5429 -0.5329  0.1479
 3814SOL    HW122901   2.648   2.464  13.740  0.8869  1.0678 -1.8465
 3814SOL    HW222902   2.595   2.574  13.819 -0.1976 -1.0697 -1.8851
 3815SOL     OW22903   2.985   1.943   4.193  0.3076  0.0152  0.3179
 3815SOL    HW122904   3.007   2.035   4.211  2.4692  0.0370 -2.4777
 3815SOL    HW222905   2.905   1.930   4.244 -0.8245  1.8261 -0.9676
 3816SOL     OW22906   4.061   3.099   7.604  0.0239 -0.2672  0.0812
 3816SOL    HW122907   4.016   3.016   7.591  0.1646 -0.5012  1.1626
 3816SOL    HW222908   4.136   3.080   7.548 -0.6292  0.0682 -0.9133
 3817SOL     OW22909   2.455   0.973   9.108 -0.1216  0.1089 -0.3742
 3817SOL    HW122910   2.421   1.043   9.053  2.2831 -0.1551 -2.1932
 3817SOL    HW222911   2.417   0.992   9.194 -2.0043  2.7680 -1.7972
 3818SOL     OW22912   3.977   3.554  14.920 -0.0486 -0.4176 -0.1929
 3818SOL    HW122913   4.023   3.522  14.843 -0.0597  0.3441 -0.5156
 3818SOL    HW222914   3.994   3.482  14.982  0.3866 -0.3301 -0.2127
 3819SOL     OW22915   1.303   4.232   7.402 -0.3668  0.3436  0.3032
 3819SOL    HW122916   1.370   4.183   7.450  1.3834  0.0060 -2.4782
 3819SOL    HW222917   1.349   4.272   7.328 -0.5990  0.2556  0.1097
 3820SOL     OW22918   0.026   2.410  12.180 -0.0631 -0.2450 -0.1115
 3820SOL    HW122919   4.678   2.472  12.170 -2.4330 -3.3565 -1.9388
 3820SOL    HW222920   0.020   2.350  12.105 -1.9366 -0.3479  0.1316
 3821SOL     OW22921   3.765   1.040  10.543  0.1428  0.6521 -0.3546
 3821SOL    HW122922   3.802   0.990  10.470 -0.1901 -1.8797  1.1911
 3821SOL    HW222923   3.748   0.968  10.604 -0.3270  0.2827 -0.9211
 3822SOL     OW22924   0.341   1.764   6.479 -0.5521  0.2923 -0.3524
 3822SOL    HW122925   0.332   1.789   6.387 -2.0192  1.2804  0.0656
 3822SOL    HW222926   0.429   1.795   6.501 -0.1194 -1.4160  0.3070
 3823SOL     OW22927   3.063   3.454   8.052 -0.1502  0.2776  0.3401
 3823SOL    HW122928   3.148   3.489   8.078 -1.1635  1.4830  2.0081
 3823SOL    HW222929   3.018   3.526   8.007  1.0563  0.7319 -0.1422
 3824SOL     OW22930   4.394   0.183   2.263  1.1400 -0.5139 -0.2616
 3824SOL    HW122931   4.320   0.149   2.313  2.4205  0.2435  2.1538
 3824SOL    HW222932   4.360   0.172   2.174 -1.2290 -3.5796  1.0463
 3825SOL     OW22933   3.413   1.601   5.269  0.8336 -0.8050  0.5583
 3825SOL    HW122934   3.404   1.644   5.184  2.2982 -1.9501 -0.1731
 3825SOL    HW222935   3.346   1.647   5.320  1.4800  0.1398  0.5535
 3826SOL     OW22936   2.570   0.969   1.224  0.5778  0.0717  0.1603
 3826SOL    HW122937   2.511   0.898   1.197 -3.2157  3.1474  0.4106
 3826SOL    HW222938   2.548   1.040   1.164  1.7207  1.8502  1.8653
 3827SOL     OW22939   0.770   2.293   1.762 -0.4156 -0.2381 -0.1550
 3827SOL    HW122940   0.716   2.220   1.731  1.0305 -1.1079 -0.6251
 3827SOL    HW222941   0.793   2.348   1.687 -1.3816  0.2587 -0.0757
 3828SOL     OW22942   4.189   0.574   9.928  0.2405 -0.0508  0.2057
 3828SOL    HW122943   4.176   0.481   9.947  0.0032  0.0137  0.3582
 3828SOL    HW222944   4.145   0.567   9.844 -1.0155  2.4293  0.6707
 3829SOL     OW22945   4.409   0.442   3.526  0.6649  0.3834 -0.1426
 3829SOL    HW122946   4.475   0.511   3.533  1.9443 -1.0258  1.6379
 3829SOL    HW222947   4.426   0.384   3.601  1.9427 -1.5486 -1.9286
 3830SOL     OW22948   1.037   4.482  11.338  0.4101  0.5236  0.1840
 3830SOL    HW122949   1.093   4.458  11.265 -0.1568 -2.1723  0.6493
 3830SOL    HW222950   1.104   4.502  11.404  0.9556  0.8308 -0.4671
 3831SOL     OW22951   3.073   2.246   0.979 -0.3744 -0.3690 -0.0779
 3831SOL    HW122952   2.985   2.220   0.949 -0.8265  2.4574 -1.2186
 3831SOL    HW222953   3.061   2.238   1.073 -1.4331  0.6568 -0.1097
 3832SOL     OW22954   2.240   3.179   3.610 -0.1714  0.0379 -0.2228
 3832SOL    HW122955   2.206   3.090   3.618 -0.2989  0.2744  2.0185
 3832SOL    HW222956   2.295   3.170   3.689 -1.4639  0.8400  0.7709
 3833SOL     OW22957   0.853   3.014   8.186 -0.1708  0.1392  0.6741
 3833SOL    HW122958   0.867   2.981   8.275  1.3834 -1.0742 -0.0136
 3833SOL    HW222959   0.921   3.082   8.187  1.1966 -1.2011  0.1529
 3834SOL     OW22960   4.291   0.827   1.573 -0.2481  0.1686  0.0050
 3834SOL    HW122961   4.251   0.903   1.617  0.3036 -0.0134  0.8059
 3834SOL    HW222962   4.291   0.863   1.484 -2.9575 -2.2469 -0.9863
 3835SOL     OW22963   1.634   4.181   9.020 -0.2993 -0.1159 -0.0604
 3835SOL    HW122964   1.667   4.097   9.053  0.6150  0.7458  1.2555
 3835SOL    HW222965   1.540   4.162   9.022 -0.5090  0.9018 -0.1427
 3836SOL     OW22966   3.564   3.484   5.984 -0.5092  0.2643  0.3657
 3836SOL    HW122967   3.490   3.439   6.024  1.4211 -2.2141  1.1545
 3836SOL    HW222968   3.521   3.541   5.921 -2.2976 -1.8711 -0.3645
 3837SOL     OW22969   4.468   3.124   6.588 -0.4520 -0.0620 -0.4075
 3837SOL    HW122970   4.427   3.201   6.549 -0.7806  1.2478  2.5449
 3837SOL    HW222971   4.561   3.143   6.578  0.4356 -1.9329  4.2842
 3838SOL     OW22972   3.636   3.041  16.476 -0.7220 -0.4060 -0.0462
 3838SOL    HW122973   3.552   3.007  16.506 -0.2668 -0.4251  1.2055
 3838SOL    HW222974   3.606   3.129  16.454  0.7381  0.4803  1.5626
 3839SOL     OW22975   1.804   3.887   2.871  0.0326 -0.0959 -0.0318
 3839SOL    HW122976   1.806   3.838   2.789  4.3939 -0.5678  0.3297
 3839SOL    HW222977   1.784   3.972   2.833 -0.3814 -0.2973 -0.2640
 3840SOL     OW22978   3.103   0.482  14.636  0.4263 -0.2896  0.3347
 3840SOL    HW122979   3.053   0.525  14.706  0.0659 -2.3477  1.3511
 3840SOL    HW222980   3.137   0.553  14.582 -0.8252 -0.9289 -1.3063
 3841SOL     OW22981   2.856   3.387  14.720  0.1915  0.7172 -0.0186
 3841SOL    HW122982   2.894   3.471  14.694  1.7346  0.4881  1.4853
 3841SOL    HW222983   2.933   3.329  14.721 -0.4487 -0.0898  1.4358
 3842SOL     OW22984   4.328   3.648   8.707 -0.2087 -0.3730 -1.3144
 3842SOL    HW122985   4.350   3.614   8.793  1.5866  0.5804 -1.3921
 3842SOL    HW222986   4.309   3.562   8.668 -0.8835 -0.9795  0.3734
 3843SOL     OW22987   1.265   0.369  12.055 -0.1270 -0.2235  0.3118
 3843SOL    HW122988   1.212   0.448  12.039 -0.3805 -1.0549 -2.9606
 3843SOL    HW222989   1.348   0.417  12.057 -0.3848  0.2899 -1.2879
 3844SOL     OW22990   3.935   0.102  10.576  0.3556 -0.4603 -0.1998
 3844SOL    HW122991   3.871   0.031  10.568 -1.5184  0.9220  2.4943
 3844SOL    HW222992   3.992   0.067  10.645  0.3522 -1.0115 -0.4781
 3845SOL     OW22993   1.704   4.153   7.903  0.4662 -0.3209  1.1219
 3845SOL    HW122994   1.722   4.093   7.831 -0.4926  0.3505  0.3183
 3845SOL    HW222995   1.615   4.178   7.878  1.1407  1.7086  0.7838
 3846SOL     OW22996   0.918   4.721  13.197 -0.1216 -0.0738  0.1243
 3846SOL    HW122997   0.987   4.718  13.264  0.6035 -0.1076 -0.6219
 3846SOL    HW222998   0.939   0.087  13.178 -0.2180 -0.1994 -0.5641
 3847SOL     OW22999   0.701   3.380   9.049 -0.2447  0.4531 -0.0930
 3847SOL    HW123000   0.780   3.415   9.090 -1.4501  1.4812  1.3442
 3847SOL    HW223001   0.647   3.348   9.122 -0.4017 -0.2697 -0.5263
 3848SOL     OW23002   0.539   3.691   4.548 -0.1712  0.0885  0.6096
 3848SOL    HW123003   0.573   3.780   4.557 -2.5985  0.9658  0.9796
 3848SOL    HW223004   0.547   3.665   4.640  0.7172  0.6374  0.6894
 3849SOL     OW23005   1.443   3.411   6.752  0.0151  0.5755 -0.0219
 3849SOL    HW123006   1.531   3.445   6.736 -0.5041  2.2947  0.7919
 3849SOL    HW223007   1.395   3.489   6.780 -1.2446  0.1182 -0.9315
 3850SOL     OW23008   2.165   1.978   1.053 -0.2609 -0.5296 -0.0510
 3850SOL    HW123009   2.171   2.059   1.103 -0.2079 -0.0607 -0.8108
 3850SOL    HW223010   2.105   2.015   0.988 -1.0390 -0.6587  0.5963
 3851SOL     OW23011   3.917   0.979   9.047 -0.5263 -0.1267  0.2947
 3851SOL    HW123012   4.010   0.958   9.057 -0.4677 -0.4508 -1.0279
 3851SOL    HW223013   3.888   0.905   8.994 -0.7951 -0.0625  0.3548
 3852SOL     OW23014   2.169   3.673  15.743 -0.0632 -0.5282 -0.0877
 3852SOL    HW123015   2.130   3.735  15.805  1.6201  0.6597 -0.2153
 3852SOL    HW223016   2.129   3.690  15.658 -0.8503  0.7719  0.5324
 3853SOL     OW23017   2.230   2.528  10.219  0.6782 -0.7804 -0.2206
 3853SOL    HW123018   2.190   2.551  10.303 -1.0451  0.1117 -1.2886
 3853SOL    HW223019   2.152   2.542  10.166  0.8234  0.2060 -0.1716
 3854SOL     OW23020   2.950   0.248  15.114  0.3487  0.3438  0.8932
 3854SOL    HW123021   2.855   0.240  15.124  0.7572 -2.1766  2.7560
 3854SOL    HW223022   2.969   0.162  15.151 -2.1100 -0.3186  0.6385
 3855SOL     OW23023   4.617   1.503   6.190 -0.5162 -0.0204  0.2012
 3855SOL    HW123024   4.584   1.429   6.138  2.2161 -1.7130  0.8385
 3855SOL    HW223025   4.616   1.563   6.116  1.4075 -0.8062 -0.4620
 3856SOL     OW23026   1.281   0.297   4.034  0.4121 -0.1479 -0.1400
 3856SOL    HW123027   1.217   0.234   4.068 -0.5049  1.2061  0.6365
 3856SOL    HW223028   1.351   0.283   4.099  1.3489  1.2326 -0.8549
 3857SOL     OW23029   0.664   3.850   0.799 -0.7489 -0.1756 -0.1265
 3857SOL    HW123030   0.597   3.918   0.791 -1.2960 -0.8041 -0.8894
 3857SOL    HW223031   0.676   3.821   0.709 -1.0772  1.3997 -0.6874
 3858SOL     OW23032   1.624   1.285   1.732  0.2339 -0.1300 -0.7184
 3858SOL    HW123033   1.530   1.297   1.745  0.8284  3.0026  0.4152
 3858SOL    HW223034   1.627   1.227   1.655  1.8194 -1.4991  0.3822
 3859SOL     OW23035   1.986   3.294   2.853  0.6389  0.0841 -0.0091
 3859SOL    HW123036   2.033   3.312   2.934  0.4207  1.2559 -0.1411
 3859SOL    HW223037   1.978   3.380   2.812  0.5099 -0.0849 -0.3430
 3860SOL     OW23038   2.640   1.453   4.939  0.3363 -0.0122  0.1378
 3860SOL    HW123039   2.714   1.408   4.898  1.1852  0.8981  0.6688
 3860SOL    HW223040   2.596   1.381   4.983  0.6112 -0.5293 -0.4384
 3861SOL     OW23041   2.827   0.183  11.514 -0.3027 -0.0054 -0.4970
 3861SOL    HW123042   2.876   0.166  11.434 -0.3013 -0.7389 -0.3471
 3861SOL    HW223043   2.756   0.118  11.510  2.2093 -2.7803  0.3442
 3862SOL     OW23044   3.846   2.308   5.618  0.2341 -0.1381  0.2210
 3862SOL    HW123045   3.794   2.388   5.620 -0.4032 -0.5714  1.4222
 3862SOL    HW223046   3.930   2.341   5.587 -0.5494 -0.2824 -2.1161
 3863SOL     OW23047   0.189   2.603   5.166 -0.6238 -0.4722  0.2582
 3863SOL    HW123048   0.188   2.619   5.260  0.3651 -1.5000  0.4298
 3863SOL    HW223049   0.152   2.515   5.165  0.9006 -1.0931 -0.8987
 3864SOL     OW23050   4.291   4.143   8.672  0.1188  0.3150  0.7984
 3864SOL    HW123051   4.210   4.116   8.629  1.0131  0.5718 -1.0655
 3864SOL    HW223052   4.257   4.208   8.734 -2.0813  0.5385 -0.6640
 3865SOL     OW23053   2.572   1.935   6.866 -0.0395 -0.1193 -0.2157
 3865SOL    HW123054   2.566   1.955   6.959 -0.3973  1.1409 -0.5142
 3865SOL    HW223055   2.592   2.020   6.828  2.3370 -0.6220 -0.0925
 3866SOL     OW23056   2.846   1.817   8.059  0.8880 -0.2135  0.3822
 3866SOL    HW123057   2.827   1.723   8.058 -0.3410  0.0493 -0.7261
 3866SOL    HW223058   2.923   1.827   8.115 -0.0758 -0.2115  1.7290
 3867SOL     OW23059   2.406   4.387   4.205 -0.4769  0.1587 -0.2282
 3867SOL    HW123060   2.475   4.451   4.220  0.0886  0.0693 -2.3875
 3867SOL    HW223061   2.341   4.445   4.166 -0.1885  1.0210  0.5898
 3868SOL     OW23062   3.927   1.641   4.493 -0.1973 -0.3729  0.2910
 3868SOL    HW123063   3.994   1.592   4.444 -1.4658 -0.1043 -1.7246
 3868SOL    HW223064   3.963   1.727   4.514 -2.7413  1.1231 -1.4165
 3869SOL     OW23065   2.187   1.930   6.525  0.6261  0.0064 -0.0813
 3869SOL    HW123066   2.258   1.972   6.573 -0.0356  0.2120  0.7086
 3869SOL    HW223067   2.189   1.848   6.575 -3.3412 -0.1147 -0.1064
 3870SOL     OW23068   2.972   4.455   8.743  0.3427 -0.3467  0.0822
 3870SOL    HW123069   3.021   4.409   8.812  1.1062  1.0301  0.4442
 3870SOL    HW223070   2.886   4.412   8.747  1.3109 -2.0402  2.8254
 3871SOL     OW23071   0.667   4.237   3.534  0.0644  0.0830 -0.3542
 3871SOL    HW123072   0.605   4.190   3.479 -1.4436 -0.1547  1.5680
 3871SOL    HW223073   0.613   4.312   3.558  1.2007  0.5163  0.8724
 3872SOL     OW23074   1.213   4.232   8.485 -0.8510  0.1059  0.2421
 3872SOL    HW123075   1.163   4.159   8.522 -0.2429 -0.9870 -1.0677
 3872SOL    HW223076   1.213   4.298   8.554  0.2240  0.3470  0.0076
 3873SOL     OW23077   3.405   0.412   1.708  0.7877 -0.1653 -0.1796
 3873SOL    HW123078   3.453   0.488   1.741  0.7373  0.5924 -1.8565
 3873SOL    HW223079   3.319   0.454   1.705  1.9994  2.3899  0.5538
 3874SOL     OW23080   2.053   0.077   4.902  0.3143  0.0104 -0.0262
 3874SOL    HW123081   2.117   0.036   4.844 -1.8558 -0.7088 -1.9267
 3874SOL    HW223082   2.105   0.134   4.959 -0.0959 -0.1001  0.4530
 3875SOL     OW23083   4.432   1.190  14.628 -0.0793  0.1790 -0.5461
 3875SOL    HW123084   4.349   1.211  14.585  0.0236  2.9204  0.5845
 3875SOL    HW223085   4.405   1.147  14.710  0.3789  0.9053 -0.0078
 3876SOL     OW23086   0.197   0.649   3.108  0.0644  0.2137  0.3066
 3876SOL    HW123087   0.227   0.689   3.027 -2.0233 -2.4122 -1.7568
 3876SOL    HW223088   0.204   0.721   3.171 -1.9940  0.9540 -0.3190
 3877SOL     OW23089   2.976   3.259   5.536  0.1584  0.4437 -0.1659
 3877SOL    HW123090   3.064   3.239   5.505  0.0945 -0.0784 -0.0116
 3877SOL    HW223091   2.935   3.288   5.454 -1.2813 -1.5876 -0.1452
 3878SOL     OW23092   0.635   1.831   6.531  0.1178 -0.6574 -0.3668
 3878SOL    HW123093   0.620   1.920   6.501  1.2754 -0.6010 -0.7979
 3878SOL    HW223094   0.718   1.840   6.579 -1.6192 -0.3427  2.5725
 3879SOL     OW23095   3.817   1.708   7.253 -0.2428 -0.0659 -0.0878
 3879SOL    HW123096   3.818   1.613   7.263 -0.0953 -0.2706 -1.9181
 3879SOL    HW223097   3.776   1.748   7.330 -3.0707  0.3196 -1.7747
 3880SOL     OW23098   2.843   0.982  11.208  0.1435 -0.0901 -0.1480
 3880SOL    HW123099   2.828   0.943  11.122 -2.4520  0.2788  0.1213
 3880SOL    HW223100   2.921   0.934  11.235 -0.5983 -1.3950 -0.3173
 3881SOL     OW23101   4.680   1.097  13.742 -0.8314 -0.6707 -0.1226
 3881SOL    HW123102   4.666   1.184  13.781  0.5815 -0.7385  0.5452
 3881SOL    HW223103   4.717   1.044  13.813  3.5207  3.1865  0.4973
 3882SOL     OW23104   2.003   2.561   7.411 -0.3352  0.2569 -0.1436
 3882SOL    HW123105   1.944   2.610   7.468  0.8872 -0.0907  1.4382
 3882SOL    HW223106   1.994   2.470   7.441 -0.0685  0.5405  0.7928
 3883SOL     OW23107   3.877   1.163   7.701  0.1884 -0.1450 -0.4151
 3883SOL    HW123108   3.852   1.110   7.777 -0.3636  1.6691  0.6407
 3883SOL    HW223109   3.806   1.131   7.645 -1.8537  0.8040  1.6340
 3884SOL     OW23110   2.678   1.046   2.480 -0.4189 -0.0340 -0.0776
 3884SOL    HW123111   2.757   1.032   2.533  0.0792 -1.6484 -1.2613
 3884SOL    HW223112   2.673   1.141   2.470  0.3246  0.0606  0.4038
 3885SOL     OW23113   2.058   0.837   8.181  0.4102 -0.4815  0.1994
 3885SOL    HW123114   1.964   0.841   8.163  0.1425  0.2503  1.7016
 3885SOL    HW223115   2.057   0.787   8.263 -2.9392 -1.3139 -0.3576
 3886SOL     OW23116   2.648   1.979   1.903  0.0366 -0.2882 -0.0455
 3886SOL    HW123117   2.674   2.039   1.973  0.8427 -1.9685  1.0898
 3886SOL    HW223118   2.555   1.974   1.928  0.0495  1.0894  0.2639
 3887SOL     OW23119   4.273   2.537   0.108  0.3047 -0.4594  0.0059
 3887SOL    HW123120   4.302   2.600   0.175 -0.5419 -1.0905  0.9716
 3887SOL    HW223121   4.351   2.552   0.055  0.6959 -0.0492  0.6873
 3888SOL     OW23122   1.181   1.558   3.980 -0.4692  0.3899  0.2811
 3888SOL    HW123123   1.095   1.582   4.013  0.4449  0.6297  2.4673
 3888SOL    HW223124   1.231   1.640   3.973 -1.7687  1.1487  0.0079
 3889SOL     OW23125   0.809   1.788  16.525  0.0306 -0.2587 -0.3306
 3889SOL    HW123126   0.839   1.878  16.540  1.0254 -0.4830 -0.9951
 3889SOL    HW223127   0.891   1.742  16.506  0.0714 -0.2059 -0.2832
 3890SOL     OW23128   3.413   4.595   4.351 -0.2745 -0.0057  0.0988
 3890SOL    HW123129   3.321   4.598   4.325 -0.4131 -0.4280  0.5278
 3890SOL    HW223130   3.441   4.534   4.283  1.3680  1.5644 -0.6234
 3891SOL     OW23131   1.392   1.890  10.810 -0.0409  0.4998  0.3770
 3891SOL    HW123132   1.452   1.961  10.788 -1.0020  1.0116 -0.5654
 3891SOL    HW223133   1.324   1.919  10.750 -0.1275  1.3781  0.9031
 3892SOL     OW23134   0.116   3.317   7.768 -0.0682  0.0880 -0.0133
 3892SOL    HW123135   0.073   3.319   7.854 -1.1066 -2.3411 -0.4616
 3892SOL    HW223136   0.148   3.227   7.770 -0.7246 -0.1373  0.3286
 3893SOL     OW23137   1.854   0.983  15.939  0.2322 -0.0259 -0.0715
 3893SOL    HW123138   1.932   1.037  15.932 -0.6894  1.0619 -1.9360
 3893SOL    HW223139   1.786   1.048  15.918  1.5407  1.3755  0.0501
 3894SOL     OW23140   0.881   1.406   5.838  0.1979 -0.6961 -0.4729
 3894SOL    HW123141   0.866   1.426   5.930 -0.9984 -2.3220 -0.3000
 3894SOL    HW223142   0.927   1.481   5.801 -0.2579  0.3425  1.1109
 3895SOL     OW23143   0.369   1.732   3.373 -0.1812 -0.1153  0.5311
 3895SOL    HW123144   0.362   1.719   3.468  0.2284  0.6861  0.6750
 3895SOL    HW223145   0.450   1.682   3.365 -1.5337 -1.9292 -1.5692
 3896SOL     OW23146   0.223   1.426  15.818  0.4969  0.4767 -0.6227
 3896SOL    HW123147   0.176   1.473  15.750 -0.3746  0.8650  0.2495
 3896SOL    HW223148   0.237   1.505  15.870  0.1545  1.2936 -1.7897
 3897SOL     OW23149   3.985   0.985  14.464 -0.1511 -0.0131 -0.2296
 3897SOL    HW123150   3.947   0.940  14.388  2.7349 -1.5656 -0.7497
 3897SOL    HW223151   4.024   0.908  14.505  1.3834 -0.1079 -1.8386
 3898SOL     OW23152   3.728   0.650   6.337  0.2222 -0.1066 -0.2935
 3898SOL    HW123153   3.776   0.724   6.301 -3.8521  1.5846 -2.3321
 3898SOL    HW223154   3.643   0.695   6.340  1.0530  1.4750 -0.5428
 3899SOL     OW23155   1.682   2.806   9.429  0.3387 -0.2723 -0.3730
 3899SOL    HW123156   1.675   2.729   9.373 -0.0633  0.0431 -0.7644
 3899SOL    HW223157   1.657   2.874   9.366 -2.2729 -0.4598  0.4702
 3900SOL     OW23158   2.757   2.158   2.095  0.0640 -0.0499 -0.3753
 3900SOL    HW123159   2.822   2.226   2.108 -0.8335  0.5081  1.2158
 3900SOL    HW223160   2.682   2.216   2.088  0.8777  0.6971 -2.8457
 3901SOL     OW23161   2.471   4.293   8.377  0.3805 -0.4326 -0.4621
 3901SOL    HW123162   2.404   4.340   8.427  0.2405 -0.8127 -0.2977
 3901SOL    HW223163   2.527   4.269   8.451 -0.1653 -0.5093 -0.0745
 3902SOL     OW23164   4.672   4.009  13.197  0.0142  0.0900 -0.5547
 3902SOL    HW123165   4.621   3.972  13.269 -1.3825  0.4830 -1.3418
 3902SOL    HW223166   4.663   3.943  13.128 -0.7156  0.4496 -0.7943
 3903SOL     OW23167   0.952   0.944  11.894  0.2139 -0.0954 -0.3934
 3903SOL    HW123168   0.897   0.943  11.972 -0.0046 -2.5923 -0.5607
 3903SOL    HW223169   0.991   0.856  11.886  2.0418  0.6419  0.2854
 3904SOL     OW23170   0.917   0.248   4.089 -0.0333  0.7296  0.0529
 3904SOL    HW123171   0.895   0.238   3.997  0.7266  0.1808 -0.0674
 3904SOL    HW223172   0.855   0.186   4.129  1.1906 -0.8253 -0.4585
 3905SOL     OW23173   0.732   0.092   4.196  0.0652 -0.5071  0.4766
 3905SOL    HW123174   0.693   0.041   4.267 -1.4891 -1.6770 -1.2248
 3905SOL    HW223175   0.745   0.024   4.130  0.0526 -0.0609  0.0128
 3906SOL     OW23176   3.881   1.567   2.064 -0.1125  0.5717  0.2326
 3906SOL    HW123177   3.914   1.657   2.069  2.7240 -0.2011 -4.9112
 3906SOL    HW223178   3.820   1.586   1.994  0.3535  0.1635 -0.2837
 3907SOL     OW23179   1.322   3.490   5.190  0.6032 -0.1185 -0.2560
 3907SOL    HW123180   1.349   3.581   5.183 -0.8140  0.3183 -0.0559
 3907SOL    HW223181   1.275   3.472   5.109  1.8694  0.5442 -1.1423
 3908SOL     OW23182   0.714   2.624   7.146 -0.0339  0.6276  0.4438
 3908SOL    HW123183   0.721   2.562   7.073 -0.3170 -1.0844  1.8907
 3908SOL    HW223184   0.624   2.607   7.173 -1.1856  1.2110 -2.9676
 3909SOL     OW23185   3.180   0.613   1.753  0.3729  0.4424  0.4920
 3909SOL    HW123186   3.131   0.532   1.766 -0.1978  0.7585  0.3278
 3909SOL    HW223187   3.124   0.673   1.802  0.5194  0.2976  0.8359
 3910SOL     OW23188   1.057   4.074  17.043  0.2193  0.1228 -0.1499
 3910SOL    HW123189   1.124   4.016  17.008 -0.4778 -1.4623  1.1849
 3910SOL    HW223190   1.081   4.073  17.136  0.4238 -1.5034 -0.2317
 3911SOL     OW23191   0.247   3.802   2.268  0.0837 -0.1066  0.0762
 3911SOL    HW123192   0.175   3.747   2.236  0.5864 -0.3846 -0.5817
 3911SOL    HW223193   0.312   3.734   2.288  0.0123 -0.8728 -2.2243
 3912SOL     OW23194   3.637   1.120   7.192 -0.6952 -0.1243 -0.0380
 3912SOL    HW123195   3.609   1.101   7.103  2.9233  0.6778 -1.3623
 3912SOL    HW223196   3.610   1.211   7.195  0.3339  0.1927 -0.2085
 3913SOL     OW23197   2.130   2.584   2.504 -0.0065 -0.0384 -0.3992
 3913SOL    HW123198   2.117   2.640   2.581  0.7571 -3.9674  2.5765
 3913SOL    HW223199   2.166   2.645   2.440  0.2599  1.3609  1.0776
 3914SOL     OW23200   4.269   1.016  10.781  0.2009 -0.0944 -0.1130
 3914SOL    HW123201   4.287   1.104  10.747 -1.1863 -0.0216 -0.6579
 3914SOL    HW223202   4.177   1.005  10.757  0.6334 -0.6432 -1.4651
 3915SOL     OW23203   2.303   3.534   2.836 -0.5343  0.1528 -0.6836
 3915SOL    HW123204   2.251   3.509   2.759 -0.2992 -1.3011 -0.3698
 3915SOL    HW223205   2.230   3.563   2.891  1.0823 -1.4369  2.2398
 3916SOL     OW23206   3.566   2.452   7.766 -0.1994  0.0169  0.4260
 3916SOL    HW123207   3.658   2.478   7.766 -0.0786 -0.4125  0.3781
 3916SOL    HW223208   3.569   2.357   7.777 -1.0925  0.0444  0.8517
 3917SOL     OW23209   0.846   1.141   2.872  0.0539 -0.0065  0.8909
 3917SOL    HW123210   0.868   1.216   2.927  1.2450  0.8102 -0.6961
 3917SOL    HW223211   0.910   1.074   2.897 -0.0407 -0.4852 -0.1512
 3918SOL     OW23212   1.176   1.794   4.252 -0.3511  0.0796 -0.7052
 3918SOL    HW123213   1.253   1.850   4.240 -2.0597  2.4914 -0.4532
 3918SOL    HW223214   1.106   1.826   4.195 -1.0313  0.2992  0.2651
 3919SOL     OW23215   4.401   3.887   3.939 -0.2412 -0.1419 -0.4652
 3919SOL    HW123216   4.409   3.982   3.935  0.2979 -0.1793 -0.2432
 3919SOL    HW223217   4.338   3.872   3.868 -1.0717 -2.9635  0.8609
 3920SOL     OW23218   3.058   2.818   3.288  0.2542 -0.1584  0.4655
 3920SOL    HW123219   3.089   2.897   3.243 -0.4687  1.1626  2.2469
 3920SOL    HW223220   2.985   2.782   3.239  0.3524  0.6160 -0.2495
 3921SOL     OW23221   1.799   2.307   4.138  0.0786 -0.3657 -0.1391
 3921SOL    HW123222   1.875   2.300   4.081 -2.6525 -1.8307 -3.6450
 3921SOL    HW223223   1.844   2.327   4.220 -2.1674  0.2576  0.9336
 3922SOL     OW23224   1.691   3.762  16.585  0.3288  0.4999  0.3957
 3922SOL    HW123225   1.605   3.782  16.548  0.8818  1.3452 -0.4442
 3922SOL    HW223226   1.737   3.845  16.573 -0.0146  0.8065  1.2424
 3923SOL     OW23227   2.401   1.008   6.071 -0.0922 -0.2665 -0.0333
 3923SOL    HW123228   2.321   0.979   6.026 -0.2224 -0.8273  0.5419
 3923SOL    HW223229   2.378   1.099   6.085 -0.0931 -0.2572 -0.0944
 3924SOL     OW23230   1.455   1.782   2.381  0.5626 -0.2045  0.3090
 3924SOL    HW123231   1.452   1.876   2.398  0.3552 -0.1801  0.1383
 3924SOL    HW223232   1.526   1.782   2.317 -0.9787  1.1860 -1.3952
 3925SOL     OW23233   2.246   4.177  13.232 -0.4435  0.4170  0.0783
 3925SOL    HW123234   2.247   4.134  13.147 -1.2750 -2.1361  1.3609
 3925SOL    HW223235   2.178   4.131  13.280 -0.2957  2.5972  2.3462
 3926SOL     OW23236   2.392   0.625   6.381 -0.0359  0.0101  0.2477
 3926SOL    HW123237   2.403   0.719   6.369 -1.5151  0.0902 -0.4026
 3926SOL    HW223238   2.406   0.617   6.476  2.4718 -0.7608 -0.1774
 3927SOL     OW23239   0.393   2.071   4.523  0.3763 -0.1688 -0.2141
 3927SOL    HW123240   0.457   2.065   4.594  0.0809  1.8453  0.2298
 3927SOL    HW223241   0.319   2.027   4.565  0.7538 -0.9539 -0.3773
 3928SOL     OW23242   2.366   1.887  13.586 -0.2703 -0.0633 -0.3837
 3928SOL    HW123243   2.344   1.914  13.675 -1.6575  0.9404 -1.0262
 3928SOL    HW223244   2.459   1.864  13.581 -1.0999 -3.2428 -0.8640
 3929SOL     OW23245   2.390   1.856   9.471  0.1629 -0.1804  0.1827
 3929SOL    HW123246   2.429   1.781   9.426 -0.0716 -0.2960  0.1733
 3929SOL    HW223247   2.405   1.832   9.562  1.7989  0.1984  0.0206
 3930SOL     OW23248   3.400   2.750   3.671  0.2341  0.2198  0.7703
 3930SOL    HW123249   3.339   2.763   3.744  0.3100  1.6263  0.5818
 3930SOL    HW223250   3.446   2.672   3.704  2.1894 -0.1712 -2.8895
 3931SOL     OW23251   4.470   3.927  11.329 -0.3156  0.1324  0.2345
 3931SOL    HW123252   4.431   3.929  11.242  1.0137  1.7145 -0.3165
 3931SOL    HW223253   4.448   4.014  11.363 -1.5965 -0.6343  1.3604
 3932SOL     OW23254   2.443   2.727   2.220 -0.4776 -0.4276 -0.1180
 3932SOL    HW123255   2.499   2.733   2.142 -0.3358 -4.0138 -0.3200
 3932SOL    HW223256   2.472   2.802   2.270  1.4480 -1.0542 -0.2738
 3933SOL     OW23257   3.651   3.684   3.972 -0.2631  0.3042  0.1360
 3933SOL    HW123258   3.698   3.700   4.054 -1.9491 -2.2405  1.6183
 3933SOL    HW223259   3.702   3.734   3.908  1.0540 -0.3197  0.7200
 3934SOL     OW23260   2.597   1.678   5.858 -0.2193  0.0269 -0.2467
 3934SOL    HW123261   2.543   1.756   5.849 -0.8951 -0.3833  0.2009
 3934SOL    HW223262   2.641   1.695   5.941 -0.3662 -0.5582 -0.0442
 3935SOL     OW23263   3.502   3.159   6.181 -0.3975  0.3731  0.0417
 3935SOL    HW123264   3.497   3.087   6.245  0.1265  2.0291  1.9320
 3935SOL    HW223265   3.567   3.130   6.117 -0.5622 -0.3460  0.1983
 3936SOL     OW23266   3.116   2.374  11.713 -0.2241  0.3595  0.4482
 3936SOL    HW123267   3.079   2.318  11.781  1.4363 -2.1607 -0.7135
 3936SOL    HW223268   3.157   2.307  11.659  0.9295  0.6759  0.9352
 3937SOL     OW23269   0.741   3.500  15.252 -0.2188  0.0803  0.1009
 3937SOL    HW123270   0.802   3.447  15.304 -1.4043 -2.1374 -0.7418
 3937SOL    HW223271   0.676   3.534  15.314  0.5047 -0.5153  1.1978
 3938SOL     OW23272   0.696   2.352   3.729 -0.2621  0.5771 -0.1273
 3938SOL    HW123273   0.701   2.338   3.635  1.9887 -0.8824  0.2192
 3938SOL    HW223274   0.687   2.447   3.737 -1.3382  0.4714 -0.0163
 3939SOL     OW23275   3.754   2.835  11.976 -0.9232  0.0735  0.0317
 3939SOL    HW123276   3.665   2.807  11.998 -0.1193 -1.5655  1.1795
 3939SOL    HW223277   3.783   2.755  11.932  3.0927  1.5694 -0.0914
 3940SOL     OW23278   2.833   4.553   2.055  0.0627 -0.2866 -0.7818
 3940SOL    HW123279   2.924   4.548   2.026  0.5246 -0.4538  0.6798
 3940SOL    HW223280   2.815   4.460   2.073  1.5387 -0.6402 -1.1111
 3941SOL     OW23281   3.116   2.914   4.125 -0.5587 -0.1454 -0.2588
 3941SOL    HW123282   3.053   2.943   4.190 -0.5635 -0.0879 -0.2895
 3941SOL    HW223283   3.103   2.820   4.113  1.1882 -0.5087  0.7383
 3942SOL     OW23284   0.878   1.698  13.776 -0.4265 -0.3253  0.1662
 3942SOL    HW123285   0.817   1.663  13.841  0.9767 -2.0476  0.5670
 3942SOL    HW223286   0.821   1.719  13.702 -0.7214  2.8813  1.3381
 3943SOL     OW23287   2.201   2.037  10.113 -0.9740  0.1902  0.5078
 3943SOL    HW123288   2.227   2.091  10.038 -2.4791 -1.1059 -0.9645
 3943SOL    HW223289   2.203   2.109  10.175 -2.4684  1.0491 -0.4362
 3944SOL     OW23290   1.803   2.579  14.828 -0.0311 -0.4818  0.7035
 3944SOL    HW123291   1.858   2.584  14.907 -1.2095 -0.0324  1.4893
 3944SOL    HW223292   1.821   2.485  14.816 -1.5435 -0.7978  0.9889
 3945SOL     OW23293   1.742   1.220   3.179 -0.3147  0.3587  0.4736
 3945SOL    HW123294   1.751   1.309   3.144 -0.2088 -0.1346 -0.7427
 3945SOL    HW223295   1.656   1.220   3.221 -0.3347  0.8231  0.4330
 3946SOL     OW23296   3.043   3.642   5.619 -0.1261  0.1316 -0.1506
 3946SOL    HW123297   3.063   3.556   5.583  2.0791  0.1719  1.0242
 3946SOL    HW223298   3.018   3.621   5.709 -0.0541 -1.4775 -0.5206
 3947SOL     OW23299   2.513   2.786   1.091 -0.4722  0.2575 -0.0790
 3947SOL    HW123300   2.439   2.756   1.144  0.3204 -0.3446  0.6789
 3947SOL    HW223301   2.590   2.767   1.145 -0.1417  0.7433 -0.3834
 3948SOL     OW23302   1.135   4.048  10.974 -0.3532  0.1793  0.3828
 3948SOL    HW123303   1.178   3.979  10.923  1.2013  3.1215 -2.3457
 3948SOL    HW223304   1.208   4.076  11.030 -0.7332  1.2589  0.3332
 3949SOL     OW23305   3.360   0.457  12.359 -0.0915  0.0886  0.0961
 3949SOL    HW123306   3.383   0.451  12.452  0.8431  1.9439 -0.0176
 3949SOL    HW223307   3.434   0.411  12.319  1.3362  1.0580  1.6377
 3950SOL     OW23308   1.064   3.300   5.041 -0.7761  0.4662 -0.0797
 3950SOL    HW123309   1.005   3.270   4.971 -3.0228 -1.2830  2.5787
 3950SOL    HW223310   1.096   3.386   5.015  2.5177 -0.4404  1.0239
 3951SOL     OW23311   1.426   1.190   3.103 -0.8134 -0.4679 -0.3873
 3951SOL    HW123312   1.491   1.208   3.035 -0.0229 -0.8969  0.2474
 3951SOL    HW223313   1.359   1.253   3.075 -0.0522  0.0502 -1.0356
 3952SOL     OW23314   3.602   4.392  14.748 -0.5459 -0.2114  0.1641
 3952SOL    HW123315   3.693   4.401  14.720 -0.5396  0.4247  0.4009
 3952SOL    HW223316   3.548   4.399  14.669 -1.2659  2.7320  0.9173
 3953SOL     OW23317   2.542   4.112   4.705  0.0926  0.2582  0.7127
 3953SOL    HW123318   2.451   4.084   4.711  0.3757 -0.7605  0.2155
 3953SOL    HW223319   2.532   4.190   4.651 -1.1131 -0.2432  0.2173
 3954SOL     OW23320   3.763   3.406   2.881 -0.2468  0.2266 -0.2777
 3954SOL    HW123321   3.857   3.389   2.880 -0.1710  0.4014  2.0744
 3954SOL    HW223322   3.746   3.428   2.790  0.1550  0.5390 -0.2800
 3955SOL     OW23323   3.592   3.940  15.528  0.2466 -0.5665  0.1582
 3955SOL    HW123324   3.550   4.018  15.493  0.1002  0.3946  2.5426
 3955SOL    HW223325   3.677   3.971  15.558  0.2446 -0.2344 -0.1717
 3956SOL     OW23326   2.175   3.310   5.846 -0.5930  0.5346  0.4489
 3956SOL    HW123327   2.110   3.251   5.808  0.4500  0.2156 -0.8155
 3956SOL    HW223328   2.119   3.387   5.857 -0.7785  0.3552  0.7833
 3957SOL     OW23329   3.070   2.055   0.760 -0.0095 -0.1427 -0.3281
 3957SOL    HW123330   3.021   2.068   0.679 -1.7697  0.7104  0.8867
 3957SOL    HW223331   3.080   2.144   0.795 -1.6428 -0.6493  1.3810
 3958SOL     OW23332   1.992   0.366  13.000 -0.3105 -0.0324  0.1963
 3958SOL    HW123333   2.026   0.302  13.062  1.4225 -1.7369 -2.5601
 3958SOL    HW223334   2.024   0.330  12.917  0.6448 -0.4491  0.7515
 3959SOL     OW23335   0.634   0.141   7.967  0.5059 -0.4921  0.1361
 3959SOL    HW123336   0.671   0.213   7.917  0.7379 -1.0732 -0.5274
 3959SOL    HW223337   0.702   0.115   8.028  0.7960  1.4394  0.6210
 3960SOL     OW23338   2.176   1.544   9.960 -0.3972  0.0288  0.0950
 3960SOL    HW123339   2.090   1.565   9.923 -0.6659  1.1101  1.3508
 3960SOL    HW223340   2.193   1.613  10.023  3.1744 -0.0952 -0.7381
 3961SOL     OW23341   1.662   0.697   9.170 -0.2508  0.1520 -0.3595
 3961SOL    HW123342   1.578   0.656   9.150  0.2431 -0.2047 -1.7068
 3961SOL    HW223343   1.634   0.780   9.209 -3.0666 -0.4705 -1.0631
 3962SOL     OW23344   2.857   1.185   0.194 -0.2851 -0.6312  0.3455
 3962SOL    HW123345   2.779   1.186   0.250 -0.8531 -0.5987 -0.4465
 3962SOL    HW223346   2.855   1.276   0.163  3.6152 -0.3239  0.9784
 3963SOL     OW23347   0.163   1.004  13.932 -0.7010 -0.1828 -0.2141
 3963SOL    HW123348   0.180   1.092  13.967 -1.4100 -0.1940  0.1417
 3963SOL    HW223349   0.254   0.975  13.922 -0.7292 -0.3545  0.0346
 3964SOL     OW23350   4.306   1.927  16.980 -0.6267  0.7577 -0.1771
 3964SOL    HW123351   4.299   2.012  16.936 -3.1502 -0.4897 -2.2352
 3964SOL    HW223352   4.215   1.905  17.000 -0.2392 -0.3919  0.2614
 3965SOL     OW23353   2.242   4.183   9.089 -0.1509  0.6970  0.4230
 3965SOL    HW123354   2.245   4.241   9.013  0.3243  1.5153  1.0684
 3965SOL    HW223355   2.287   4.110   9.047 -0.7432  0.3461  0.3921
 3966SOL     OW23356   3.196   0.740  11.445  0.0928  0.2216  0.3332
 3966SOL    HW123357   3.136   0.734  11.520 -1.3730  1.7084 -0.7236
 3966SOL    HW223358   3.190   0.652  11.409  0.7945  0.3400 -0.0772
 3967SOL     OW23359   2.203   0.691   7.446  0.2603  0.5520 -0.3493
 3967SOL    HW123360   2.279   0.703   7.503  0.0416 -0.6707  0.2065
 3967SOL    HW223361   2.146   0.750   7.495  0.1127  1.0741 -1.1584
 3968SOL     OW23362   4.164   0.459   5.495 -0.2423  0.4391 -0.5228
 3968SOL    HW123363   4.194   0.412   5.417  0.2254 -1.9720  1.0970
 3968SOL    HW223364   4.108   0.528   5.460 -1.3679 -0.3343 -0.2046
 3969SOL     OW23365   4.124   3.944  12.799  0.3091  0.6825 -0.4229
 3969SOL    HW123366   4.208   3.906  12.822  0.2598  1.3132  0.7840
 3969SOL    HW223367   4.144   4.037  12.815  0.4420  0.7663 -1.0594
 3970SOL     OW23368   1.105   2.539  10.886  0.0670  0.2088  0.6246
 3970SOL    HW123369   1.106   2.577  10.974 -2.9706  0.4137  0.5629
 3970SOL    HW223370   1.094   2.616  10.831 -2.1011  2.1162  3.7470
 3971SOL     OW23371   2.787   4.361   3.019  0.0618  0.1123 -0.5904
 3971SOL    HW123372   2.830   4.284   2.982 -0.3224  0.1609 -1.1509
 3971SOL    HW223373   2.849   4.377   3.089 -0.4411  2.9960 -0.8183
 3972SOL     OW23374   4.069   2.858   5.508 -0.3184 -0.2851 -0.0285
 3972SOL    HW123375   4.136   2.819   5.452  0.2753 -0.9990  1.1848
 3972SOL    HW223376   3.991   2.856   5.453 -0.4307 -0.3519  0.1346
 3973SOL     OW23377   4.510   2.113  14.697 -0.4900 -0.1524  0.3222
 3973SOL    HW123378   4.593   2.119  14.746 -1.0714  0.4241  1.2503
 3973SOL    HW223379   4.538   2.178  14.632 -3.5350  0.9612  0.1012
 3974SOL     OW23380   3.717   3.080   2.869  0.0129  0.4245  0.0597
 3974SOL    HW123381   3.669   3.122   2.798 -0.6489 -0.9774 -0.3262
 3974SOL    HW223382   3.772   3.147   2.909 -0.7446  1.2789 -0.3540
 3975SOL     OW23383   2.815   3.122   6.540 -0.0122  0.3007  0.3997
 3975SOL    HW123384   2.811   3.213   6.571 -2.6472  0.6737 -1.0158
 3975SOL    HW223385   2.864   3.078   6.609  0.8122  1.6994  0.7026
 3976SOL     OW23386   2.003   3.766   4.010 -0.3593 -0.5996 -0.8204
 3976SOL    HW123387   1.926   3.710   3.995 -1.5253  1.2222 -1.6812
 3976SOL    HW223388   2.007   3.757   4.105 -0.1120  0.4846 -0.7230
 3977SOL     OW23389   4.441   0.887   2.334 -0.4118 -0.3033  0.3866
 3977SOL    HW123390   4.476   0.945   2.402 -1.4348  2.3212 -1.3173
 3977SOL    HW223391   4.487   0.806   2.355 -0.9785 -0.8382 -0.4319
 3978SOL     OW23392   2.945   1.334   1.017 -0.0826  0.0515  0.2423
 3978SOL    HW123393   2.952   1.355   1.110  0.5277 -1.9792  0.6676
 3978SOL    HW223394   2.909   1.246   1.014  2.1311 -0.8308 -1.0114
 3979SOL     OW23395   3.287   4.469  14.384  0.2749  0.1728  0.0298
 3979SOL    HW123396   3.378   4.442  14.393 -1.0808 -4.1302  0.5624
 3979SOL    HW223397   3.275   4.530  14.457  0.1746  1.6570 -1.2053
 3980SOL     OW23398   3.194   2.828   3.844 -0.4165  0.4163 -0.2354
 3980SOL    HW123399   3.176   2.864   3.757 -0.4309 -0.9082 -0.7760
 3980SOL    HW223400   3.213   2.903   3.901  2.6090  0.1537 -0.9058
 3981SOL     OW23401   3.588   4.599   7.739 -0.2937 -0.8152 -0.1372
 3981SOL    HW123402   3.646   4.548   7.682  1.2089  0.4531  0.2332
 3981SOL    HW223403   3.589   4.680   7.687  0.6041  0.7634  2.3639
 3982SOL     OW23404   3.477   3.668  11.163  0.2407  0.1723  0.0309
 3982SOL    HW123405   3.480   3.605  11.091 -0.6793 -0.5526  0.6189
 3982SOL    HW223406   3.398   3.638  11.208 -0.4696 -1.3924 -2.2293
 3983SOL     OW23407   2.269   2.685   4.915 -0.2936 -0.3541  0.2455
 3983SOL    HW123408   2.259   2.779   4.930 -0.8591 -0.2681 -0.6959
 3983SOL    HW223409   2.362   2.674   4.934 -0.2702  2.0825  1.5386
 3984SOL     OW23410   2.175   0.559  10.043 -0.2630 -0.4259 -0.3013
 3984SOL    HW123411   2.152   0.539   9.952 -1.6219  1.1139 -0.2800
 3984SOL    HW223412   2.211   0.646  10.030 -0.5359  0.0463  2.0949
 3985SOL     OW23413   2.983   2.368   9.732  0.2904  0.1923 -0.1574
 3985SOL    HW123414   3.028   2.289   9.762  1.5428  0.4413 -1.4009
 3985SOL    HW223415   2.896   2.355   9.770  0.7933  1.2107  1.3677
 3986SOL     OW23416   3.618   4.647   3.260  0.0200 -0.4961 -0.1602
 3986SOL    HW123417   3.598   4.676   3.349  2.7724 -2.1626  1.0220
 3986SOL    HW223418   3.569   4.569   3.237 -0.1545 -1.1658  2.4298
 3987SOL     OW23419   1.593   2.219   9.313 -0.5863 -0.0822 -0.4383
 3987SOL    HW123420   1.498   2.221   9.321 -0.5340 -0.7251  0.3544
 3987SOL    HW223421   1.597   2.180   9.226 -0.4513 -2.2990  0.5726
 3988SOL     OW23422   1.408   1.786  13.380  0.0391 -0.4102 -0.3564
 3988SOL    HW123423   1.382   1.812  13.469  0.8740  0.2203 -0.2947
 3988SOL    HW223424   1.331   1.772  13.325  0.8043 -1.4852 -1.1527
 3989SOL     OW23425   2.137   1.403   5.491 -0.0425 -0.1689  0.4590
 3989SOL    HW123426   2.111   1.479   5.542 -1.3072 -0.1579 -0.1970
 3989SOL    HW223427   2.093   1.431   5.411 -0.7409  0.2609  0.9958
 3990SOL     OW23428   0.842   0.985  10.614 -0.1979 -0.3534  0.1702
 3990SOL    HW123429   0.766   1.034  10.647  0.2878  0.3016  0.2994
 3990SOL    HW223430   0.870   0.956  10.701 -0.9911 -0.4399  0.4008
 3991SOL     OW23431   4.288   3.873   4.304  0.3497  0.2026 -0.4249
 3991SOL    HW123432   4.218   3.814   4.331  0.7598 -0.8946 -1.7561
 3991SOL    HW223433   4.246   3.956   4.280 -2.1200 -0.8084  0.3722
 3992SOL     OW23434   4.571   2.488   8.977 -0.3106  0.0275  0.8656
 3992SOL    HW123435   4.558   2.430   9.053 -1.8825 -1.1394 -0.3042
 3992SOL    HW223436   4.536   2.439   8.903  1.8284 -1.1891  0.6484
 3993SOL     OW23437   3.204   2.684  16.611  0.1868 -0.4551  0.0584
 3993SOL    HW123438   3.169   2.614  16.555 -0.0026 -1.4981  1.4909
 3993SOL    HW223439   3.186   2.757  16.552 -1.1077  0.1186  1.1576
 3994SOL     OW23440   2.220   4.469   1.403  0.2250  0.2187  0.2390
 3994SOL    HW123441   2.282   4.398   1.422  0.3155 -0.2997 -1.8908
 3994SOL    HW223442   2.187   4.495   1.488  0.9011 -2.3406  1.2724
 3995SOL     OW23443   0.888   2.548   5.318 -0.0938  0.0490 -0.2248
 3995SOL    HW123444   0.927   2.460   5.320  0.5699  0.2736 -2.5586
 3995SOL    HW223445   0.942   2.588   5.249  1.0000  0.4839  0.8843
 3996SOL     OW23446   2.178   1.064   2.129  0.2206 -0.3483  0.0261
 3996SOL    HW123447   2.089   1.075   2.096  0.6818  1.5124 -0.5748
 3996SOL    HW223448   2.209   1.150   2.103  1.1328 -0.4147  0.8552
 3997SOL     OW23449   3.956   2.562   4.039  0.5655 -0.0608 -0.5057
 3997SOL    HW123450   3.990   2.607   4.117  1.4133 -1.5378 -0.0214
 3997SOL    HW223451   3.871   2.603   4.027 -0.3121 -1.0291  2.4822
 3998SOL     OW23452   3.963   1.596  15.125  0.3349  0.5461  0.7369
 3998SOL    HW123453   3.955   1.635  15.212 -0.4378  0.0466  0.8835
 3998SOL    HW223454   4.014   1.665  15.082  2.5590 -1.1806  0.6100
 3999SOL     OW23455   4.628   3.656   6.383 -0.2417  0.1724  0.3546
 3999SOL    HW123456   4.723   3.664   6.373 -0.1773 -0.9774  0.0741
 3999SOL    HW223457   4.600   3.747   6.370  0.3970  0.0173 -2.0847
 4000SOL     OW23458   1.133   4.276   5.744  0.5191 -0.1531  0.1610
 4000SOL    HW123459   1.118   4.260   5.837 -0.7478  0.1825  0.0113
 4000SOL    HW223460   1.105   4.193   5.706 -0.0721  0.5153 -0.8630
 4001SOL     OW23461   2.203   3.106   5.532  0.0464  0.8315 -0.1592
 4001SOL    HW123462   2.129   3.116   5.472  0.4216  0.9284 -0.6074
 4001SOL    HW223463   2.175   3.031   5.583  0.7738  0.0181 -0.9556
 4002SOL     OW23464   3.432   1.261  17.676  0.0336 -0.0140 -0.2533
 4002SOL    HW123465   3.400   1.173  17.699 -0.3869  0.1293 -0.2986
 4002SOL    HW223466   3.487   1.241  17.600  0.4108  2.9548 -0.7294
 4003SOL     OW23467   0.707   4.550   7.519 -0.1915 -0.6700  0.2776
 4003SOL    HW123468   0.613   4.556   7.533 -0.3644 -1.0603 -0.7113
 4003SOL    HW223469   0.725   4.644   7.516 -1.4964 -0.5266 -2.3518
 4004SOL     OW23470   1.822   1.139   7.896 -0.3142 -0.1986  0.1480
 4004SOL    HW123471   1.851   1.171   7.981 -2.5105 -1.2785  1.3256
 4004SOL    HW223472   1.746   1.089   7.927 -0.0942 -2.8041 -3.4628
 4005SOL     OW23473   3.111   2.943   4.679 -0.2529  0.5350 -0.1393
 4005SOL    HW123474   3.109   3.024   4.627 -0.8104  1.1184  0.7847
 4005SOL    HW223475   3.036   2.902   4.635 -0.3017 -0.8729  1.2726
 4006SOL     OW23476   1.722   1.620   8.281 -0.3460 -0.0500  0.3490
 4006SOL    HW123477   1.745   1.528   8.263  1.3993  0.5404 -0.4373
 4006SOL    HW223478   1.630   1.599   8.294 -0.6546  1.8787  1.2507
 4007SOL     OW23479   3.531   0.652   9.707  0.2204  0.0658 -0.0786
 4007SOL    HW123480   3.442   0.667   9.674 -0.3264 -2.2931  0.3480
 4007SOL    HW223481   3.528   0.567   9.750  3.0400  0.4751  0.9072
 4008SOL     OW23482   0.829   3.964   5.093 -0.2497  0.3628 -0.0840
 4008SOL    HW123483   0.841   4.041   5.148  1.9752 -0.3804  0.4746
 4008SOL    HW223484   0.905   3.911   5.117 -1.8039 -1.7642  0.0924
 4009SOL     OW23485   4.317   3.637   4.572 -0.0181  0.5682  0.5380
 4009SOL    HW123486   4.301   3.555   4.525  2.0506 -0.3393  1.3960
 4009SOL    HW223487   4.364   3.599   4.647  2.8079  3.0484  0.0218
 4010SOL     OW23488   0.524   4.633   8.667  0.3184 -0.3682  0.1986
 4010SOL    HW123489   0.452   4.620   8.729 -0.8468  0.5716 -0.9584
 4010SOL    HW223490   0.481   4.654   8.584  1.0307 -1.7439 -0.5160
 4011SOL     OW23491   2.211   0.627  11.116  0.0167  0.4209 -0.0316
 4011SOL    HW123492   2.156   0.553  11.142 -0.8298  1.8003  2.1047
 4011SOL    HW223493   2.244   0.590  11.034 -0.0283  2.6109 -1.0228
 4012SOL     OW23494   4.631   2.541  13.044  0.3522 -0.1771  0.0528
 4012SOL    HW123495   4.659   2.555  12.954 -0.2908 -3.0049 -0.5841
 4012SOL    HW223496   4.588   2.625  13.059 -1.3257 -1.2103  1.1465
 4013SOL     OW23497   4.381   3.998   6.387  0.2236 -0.3455 -0.4539
 4013SOL    HW123498   4.353   3.910   6.361  0.3658 -0.7355  0.6882
 4013SOL    HW223499   4.417   4.038   6.308 -1.3932  0.3579 -0.8458
 4014SOL     OW23500   3.523   2.907   9.569 -0.0723 -0.2985 -0.2270
 4014SOL    HW123501   3.466   2.833   9.551 -0.2537 -0.0098 -0.8376
 4014SOL    HW223502   3.581   2.879   9.640 -0.8036  1.8143  1.2094
 4015SOL     OW23503   3.726   3.858  12.687 -0.2482 -0.6222  0.0511
 4015SOL    HW123504   3.656   3.809  12.730  0.8321 -2.7751 -0.6636
 4015SOL    HW223505   3.713   3.949  12.716  3.0035 -0.9713  2.5725
 4016SOL     OW23506   4.455   2.758   8.620  0.2354  0.6262 -0.2684
 4016SOL    HW123507   4.438   2.664   8.629  3.5000  0.0681  0.0388
 4016SOL    HW223508   4.471   2.783   8.711 -0.6045  0.3553 -0.0488
 4017SOL     OW23509   4.341   2.578   7.962  0.0380  0.0039  0.7202
 4017SOL    HW123510   4.355   2.664   7.922  0.8378  0.0172  1.0170
 4017SOL    HW223511   4.295   2.605   8.041 -0.7023 -0.2985  0.3884
 4018SOL     OW23512   3.967   3.464  11.574 -0.0113 -0.0971  0.0461
 4018SOL    HW123513   4.039   3.497  11.629 -0.0619  1.1007 -0.6145
 4018SOL    HW223514   3.944   3.539  11.520  0.0679 -0.0856  0.0276
 4019SOL     OW23515   0.657   2.665  12.612 -0.4110 -0.3892  0.5404
 4019SOL    HW123516   0.680   2.678  12.704  1.7299  1.3697 -0.2526
 4019SOL    HW223517   0.610   2.582  12.617 -0.5743 -0.3565 -0.3714
 4020SOL     OW23518   0.965   3.043   0.834 -0.0280  0.3175 -0.1899
 4020SOL    HW123519   0.923   3.118   0.877 -0.0379  1.5551 -2.3148
 4020SOL    HW223520   1.055   3.060   0.861 -0.0395 -2.6198  1.6620
 4021SOL     OW23521   4.139   1.284  16.111 -0.6742 -0.4574 -0.7846
 4021SOL    HW123522   4.198   1.233  16.166 -2.2567  0.2247  1.5395
 4021SOL    HW223523   4.202   1.311  16.044 -2.5989 -2.2795 -3.3172
 4022SOL     OW23524   3.382   2.949  16.527  0.2157  0.5370 -0.4691
 4022SOL    HW123525   3.375   2.862  16.568 -1.8906  0.1867 -1.5929
 4022SOL    HW223526   3.298   2.945  16.480  0.3068 -0.4646 -0.5484
 4023SOL     OW23527   2.446   0.511   7.808 -0.7676 -0.0033  0.3874
 4023SOL    HW123528   2.403   0.529   7.891  0.2066 -3.3283  1.6134
 4023SOL    HW223529   2.534   0.504   7.845  0.7800 -0.8313 -3.4086
 4024SOL     OW23530   0.001   0.630   1.650  0.6111 -0.1773 -0.3087
 4024SOL    HW123531   4.691   0.678   1.726  1.4604 -0.9497  0.5747
 4024SOL    HW223532   0.035   0.704   1.600 -0.6454  0.9074  0.4147
 4025SOL     OW23533   4.330   2.892  16.633  0.4545  0.1001 -0.0125
 4025SOL    HW123534   4.281   2.888  16.551 -0.0161  1.1911  0.2112
 4025SOL    HW223535   4.328   2.988  16.642  0.4539  0.1116 -0.1366
 4026SOL     OW23536   3.226   2.938   7.492  0.4499 -0.0437 -0.0950
 4026SOL    HW123537   3.313   2.955   7.454  0.9942 -1.0537  0.6894
 4026SOL    HW223538   3.214   3.033   7.494  0.3694 -0.0298 -1.4511
 4027SOL     OW23539   1.799   3.096   2.249 -0.3155 -0.2469  0.0812
 4027SOL    HW123540   1.871   3.033   2.252  0.3419  0.5132  0.4253
 4027SOL    HW223541   1.846   3.165   2.201 -0.8315 -0.0309 -0.1167
 4028SOL     OW23542   4.221   1.493   7.474  0.2588 -0.6908  0.5104
 4028SOL    HW123543   4.126   1.505   7.479  0.6908  2.0850  2.2339
 4028SOL    HW223544   4.232   1.398   7.477  1.4779 -0.4761  3.1398
 4029SOL     OW23545   2.766   4.679  17.456 -0.6552  0.3066 -0.1072
 4029SOL    HW123546   2.764   0.026  17.394  0.2632  1.6182  1.3740
 4029SOL    HW223547   2.688   4.626  17.441  2.4477 -3.6919 -2.3226
 4030SOL     OW23548   3.089   1.899   6.908  0.0818  0.3918  0.0705
 4030SOL    HW123549   3.015   1.860   6.954  1.8045 -2.1305  0.6847
 4030SOL    HW223550   3.044   1.970   6.863 -2.1738 -1.2237 -0.1887
 4031SOL     OW23551   0.233   4.680   6.516  0.1264  0.2077  0.7785
 4031SOL    HW123552   0.312   4.638   6.552  0.6185 -0.0097 -0.5765
 4031SOL    HW223553   0.276   0.029   6.474  2.4522 -0.1874  2.4231
 4032SOL     OW23554   1.879   2.000  14.266  0.5375 -0.1461  0.0029
 4032SOL    HW123555   1.822   2.063  14.223  0.2082 -0.9906 -0.7979
 4032SOL    HW223556   1.822   1.969  14.337 -2.4081  2.3154 -1.3263
 4033SOL     OW23557   3.607   4.218   9.103  0.2248 -0.8416  0.2226
 4033SOL    HW123558   3.561   4.248   9.181 -0.7503  0.9637 -1.0575
 4033SOL    HW223559   3.597   4.124   9.122  0.2416 -0.7012  0.9232
 4034SOL     OW23560   2.953   3.731   4.623 -0.3138  0.0686  0.0548
 4034SOL    HW123561   2.983   3.806   4.676 -0.5870 -0.4583  0.9429
 4034SOL    HW223562   2.859   3.750   4.626 -0.5510 -1.1217 -0.0886
 4035SOL     OW23563   1.524   0.885   6.582 -0.5228  0.2103  0.3615
 4035SOL    HW123564   1.552   0.855   6.496 -1.1444 -1.7857  0.8528
 4035SOL    HW223565   1.500   0.804   6.627 -0.2618 -1.2884 -2.2307
 4036SOL     OW23566   1.141   0.107   3.826 -0.2069 -0.2427  0.5293
 4036SOL    HW123567   1.131   0.103   3.731 -0.1789 -3.2204  0.6401
 4036SOL    HW223568   1.103   0.194   3.840  3.2352  1.4448 -0.6677
 4037SOL     OW23569   3.638   2.832   0.933 -0.4530 -0.0299  0.7422
 4037SOL    HW123570   3.560   2.780   0.914  0.6849 -1.3436 -0.3277
 4037SOL    HW223571   3.591   2.914   0.947 -1.0787 -0.2567 -0.0413
 4038SOL     OW23572   2.255   1.860   2.206  0.0798  0.5036 -0.2428
 4038SOL    HW123573   2.220   1.797   2.268 -0.1311  1.8082  0.9699
 4038SOL    HW223574   2.176   1.869   2.154  0.3952 -1.8046 -1.1250
 4039SOL     OW23575   3.191   4.146   4.437 -0.0241 -0.0417 -0.1440
 4039SOL    HW123576   3.263   4.204   4.461 -0.7354  0.2308  1.3078
 4039SOL    HW223577   3.134   4.156   4.513  0.2007  1.8812 -0.2379
 4040SOL     OW23578   2.273   0.962   1.149 -0.8553  0.2246  0.0052
 4040SOL    HW123579   2.231   1.014   1.081  0.3354  0.4394 -0.5778
 4040SOL    HW223580   2.275   1.026   1.220  1.1607  1.1271 -0.8662
 4041SOL     OW23581   2.243   2.010   7.232 -0.2842 -0.0439 -0.5492
 4041SOL    HW123582   2.275   2.092   7.270  1.4045 -1.0392  0.1743
 4041SOL    HW223583   2.150   2.008   7.255 -0.2195 -0.1899 -0.2955
 4042SOL     OW23584   3.214   1.098   7.400  0.0477 -0.3431  0.0965
 4042SOL    HW123585   3.182   1.126   7.315  1.7811  1.3617  0.0038
 4042SOL    HW223586   3.190   1.167   7.462 -1.0190  2.2244 -3.2061
 4043SOL     OW23587   0.249   0.422  13.424  0.0167 -0.0958  0.1840
 4043SOL    HW123588   0.323   0.464  13.382  0.2474 -1.1457 -0.4522
 4043SOL    HW223589   0.197   0.426  13.344  1.3294  2.6885 -0.5445
 4044SOL     OW23590   0.646   2.379   9.537 -0.3002  0.3769 -1.0417
 4044SOL    HW123591   0.680   2.291   9.518  0.4061 -0.2436  2.9549
 4044SOL    HW223592   0.719   2.407   9.593 -0.0905  0.3388 -1.2911
 4045SOL     OW23593   0.280   1.486   2.698 -0.0146  0.4224  0.1287
 4045SOL    HW123594   0.223   1.457   2.626 -1.2059  2.5043  0.2308
 4045SOL    HW223595   0.230   1.563   2.725  0.3148  0.5018  0.5078
 4046SOL     OW23596   1.336   4.276   3.949  0.5084 -0.3540 -0.2038
 4046SOL    HW123597   1.252   4.230   3.955 -0.8054  1.8902 -1.4846
 4046SOL    HW223598   1.380   4.209   3.897  3.3267  1.1287  0.2934
 4047SOL     OW23599   1.108   1.418   1.362  0.0958  1.0612  0.3018
 4047SOL    HW123600   1.030   1.375   1.327  0.6091 -1.7528  2.6656
 4047SOL    HW223601   1.077   1.505   1.390 -0.9636  1.0103 -0.7055
 4048SOL     OW23602   2.538   3.203  13.776  0.3712  0.4981 -0.1568
 4048SOL    HW123603   2.499   3.181  13.861  2.2322  2.8069  1.2782
 4048SOL    HW223604   2.473   3.186  13.708 -0.4788 -0.2229  0.8260
 4049SOL     OW23605   2.718   4.382   8.830 -0.5399 -0.1183 -0.6673
 4049SOL    HW123606   2.697   4.417   8.916 -1.1128 -0.7657 -0.5472
 4049SOL    HW223607   2.699   4.289   8.842 -1.3907  0.1383  0.0030
 4050SOL     OW23608   0.484   0.788   4.125  0.0567 -0.0242 -0.0339
 4050SOL    HW123609   0.506   0.755   4.212 -0.7273  0.4846  0.3615
 4050SOL    HW223610   0.391   0.777   4.106 -0.2427  2.3769 -0.0234
 4051SOL     OW23611   0.587   1.006   5.476 -0.8826 -0.2383  0.0487
 4051SOL    HW123612   0.527   0.964   5.538  0.5918  2.2919  3.2087
 4051SOL    HW223613   0.578   1.094   5.513 -1.2432  0.2113 -1.1035
 4052SOL     OW23614   3.601   1.010  16.103  0.4516 -0.2369 -0.5204
 4052SOL    HW123615   3.586   1.100  16.129  1.3768 -0.7613  1.8258
 4052SOL    HW223616   3.581   0.980  16.192  0.0773 -3.3551 -1.6358
 4053SOL     OW23617   2.400   2.171   3.038 -0.1712 -0.2335  0.2416
 4053SOL    HW123618   2.485   2.212   3.051 -1.2335  0.8753  3.5199
 4053SOL    HW223619   2.428   2.080   3.033  1.4818  0.3590 -1.7579
 4054SOL     OW23620   1.740   0.298   4.532  0.5797 -0.0844  0.0756
 4054SOL    HW123621   1.807   0.310   4.599  0.2825  0.4946  0.2650
 4054SOL    HW223622   1.688   0.223   4.561 -2.4924  3.0053  2.5496
 4055SOL     OW23623   4.293   0.335   5.265  0.4973  0.4368 -0.5459
 4055SOL    HW123624   4.233   0.351   5.193 -1.3031  0.6478  0.9813
 4055SOL    HW223625   4.323   0.247   5.241  0.2644  0.2324 -0.1154
 4056SOL     OW23626   1.094   0.511  17.513 -0.1304 -0.4423  0.4402
 4056SOL    HW123627   1.141   0.431  17.489  0.4802  0.3327 -0.9139
 4056SOL    HW223628   1.147   0.542  17.587  0.6255  1.1161 -0.7817
 4057SOL     OW23629   1.794   3.967   9.122  0.0653 -0.1692  0.1493
 4057SOL    HW123630   1.830   4.047   9.161 -2.8804  0.9362  0.6410
 4057SOL    HW223631   1.865   3.907   9.144 -0.2761 -0.7249 -0.2660
 4058SOL     OW23632   0.295   1.683   0.342  0.7396 -0.4327  0.2028
 4058SOL    HW123633   0.230   1.650   0.403  0.4645  2.2520  1.3978
 4058SOL    HW223634   0.280   1.626   0.267 -3.9396  2.3305 -0.9489
 4059SOL     OW23635   0.248   2.038   7.471  0.1996 -0.2408 -0.3499
 4059SOL    HW123636   0.164   2.065   7.434  0.0422  1.0686  0.9601
 4059SOL    HW223637   0.261   2.100   7.543  3.9890 -0.9789 -0.3949
 4060SOL     OW23638   0.992   1.275   0.122  0.4906  0.0052  0.4319
 4060SOL    HW123639   1.084   1.262   0.145  0.2559 -1.4927  0.5152
 4060SOL    HW223640   0.963   1.185   0.105  0.2925  0.6254 -2.4728
 4061SOL     OW23641   4.662   4.449   2.172 -0.6409  0.1439  0.2020
 4061SOL    HW123642   4.622   4.528   2.136  0.8401  0.8298  0.0260
 4061SOL    HW223643   4.591   4.386   2.163 -0.2579  0.1798 -2.8711
 4062SOL     OW23644   0.970   2.442   2.585  0.1628  0.6027  0.0087
 4062SOL    HW123645   0.979   2.534   2.560  0.5551 -0.1462 -2.5310
 4062SOL    HW223646   0.903   2.414   2.522  0.1258  0.5235  0.0823
 4063SOL     OW23647   2.516   4.371   7.811  0.5075 -0.0761 -0.2051
 4063SOL    HW123648   2.572   4.413   7.876  0.7591  0.6493 -0.8908
 4063SOL    HW223649   2.543   4.427   7.738  1.4047  0.7737  0.7631
 4064SOL     OW23650   2.151   2.792  12.236 -0.2355 -0.7151  0.1058
 4064SOL    HW123651   2.197   2.768  12.317  1.3261 -1.0225 -0.8550
 4064SOL    HW223652   2.162   2.709  12.189  0.3687  1.4922 -3.6285
 4065SOL     OW23653   4.616   3.184   2.318  0.2414 -0.0039 -0.3664
 4065SOL    HW123654   4.642   3.156   2.406  0.9044  0.0020 -0.5579
 4065SOL    HW223655   4.692   3.147   2.272 -0.8811 -1.2477 -1.2070
 4066SOL     OW23656   0.976   2.098   6.002  0.6468 -0.1508 -0.0722
 4066SOL    HW123657   1.052   2.042   5.989  1.6180  1.0439  0.4306
 4066SOL    HW223658   0.911   2.048   6.051 -0.0224 -0.2547 -1.0663
 4067SOL     OW23659   2.658   3.686  14.450 -0.0555  0.2781 -0.2804
 4067SOL    HW123660   2.599   3.761  14.442  0.3735  0.7482  1.0300
 4067SOL    HW223661   2.612   3.609  14.416 -0.6021  0.9167 -0.9998
 4068SOL     OW23662   1.257   1.683   4.781 -0.5433 -0.0415  0.0457
 4068SOL    HW123663   1.259   1.765   4.732  0.1601  0.6931  1.2878
 4068SOL    HW223664   1.333   1.633   4.751 -0.1260  1.0842 -0.7638
 4069SOL     OW23665   1.121   3.261  11.777 -0.0560  0.2632 -0.7162
 4069SOL    HW123666   1.168   3.257  11.861 -1.0239  0.6742 -0.1592
 4069SOL    HW223667   1.044   3.299  11.819  0.1435  0.4829 -0.5460
 4070SOL     OW23668   3.955   1.078   6.814  0.2062  0.2786 -0.1403
 4070SOL    HW123669   4.019   1.117   6.873  1.8268 -0.9344 -1.0917
 4070SOL    HW223670   3.911   1.010   6.864 -0.0514 -1.2360 -2.4083
 4071SOL     OW23671   4.158   4.717  10.725 -0.7073  0.6213 -0.2619
 4071SOL    HW123672   4.205   4.719  10.808  1.3878  0.0481 -1.4371
 4071SOL    HW223673   4.204   4.646  10.680 -0.2501  0.4231  0.5194
 4072SOL     OW23674   1.607   0.490   1.675 -0.0122  0.1158 -0.3570
 4072SOL    HW123675   1.651   0.500   1.590 -1.0040 -1.3015 -1.0240
 4072SOL    HW223676   1.663   0.540   1.735  1.0073 -0.1972 -1.0420
 4073SOL     OW23677   2.158   3.258   3.290 -0.0496 -0.0410  0.0757
 4073SOL    HW123678   2.102   3.304   3.353 -0.6657 -2.0152  0.9657
 4073SOL    HW223679   2.097   3.186   3.272  1.3557 -1.1131 -0.4411
 4074SOL     OW23680   0.921   0.279  13.193  0.3310 -0.6298 -0.3057
 4074SOL    HW123681   0.888   0.319  13.273  0.6451 -3.6438  1.3455
 4074SOL    HW223682   0.963   0.347  13.141  0.6826 -1.2771 -0.8646
 4075SOL     OW23683   1.872   0.054   6.128 -0.5184  0.5788  0.0009
 4075SOL    HW123684   1.892   0.044   6.035  1.6953 -2.6366  0.8098
 4075SOL    HW223685   1.788   0.097   6.115 -0.2180  1.0438 -0.3867
 4076SOL     OW23686   3.415   1.167   5.977  0.2176  0.0426  0.4301
 4076SOL    HW123687   3.509   1.156   5.959  0.7824  0.9838  2.8837
 4076SOL    HW223688   3.370   1.139   5.898  0.4797  0.0824  0.2657
 4077SOL     OW23689   1.227   1.196   7.444  0.1071  0.3888 -0.4509
 4077SOL    HW123690   1.236   1.127   7.378 -1.1543 -0.5482  0.3691
 4077SOL    HW223691   1.293   1.162   7.504  0.1844  0.1159 -0.6886
 4078SOL     OW23692   1.921   4.163  10.248 -0.2477 -0.2810  0.2831
 4078SOL    HW123693   1.976   4.137  10.175  0.0304 -1.9247  1.0883
 4078SOL    HW223694   1.989   4.164  10.316  0.5258 -1.5108 -0.4800
 4079SOL     OW23695   2.831   4.443   4.338 -0.0244  0.2356 -0.9418
 4079SOL    HW123696   2.778   4.421   4.414  0.0264  1.1714 -0.6392
 4079SOL    HW223697   2.760   4.480   4.287 -0.3376 -0.7485 -1.2149
 4080SOL     OW23698   0.028   0.964   9.580  0.7051  0.1910  0.2737
 4080SOL    HW123699   0.068   1.019   9.648 -0.8969  2.3470 -0.5373
 4080SOL    HW223700   0.074   0.885   9.610  0.8334  0.2399  0.2069
 4081SOL     OW23701   4.245   1.296   0.165 -0.2482 -0.1200  0.4299
 4081SOL    HW123702   4.338   1.290   0.190 -0.4154  0.9237  1.2985
 4081SOL    HW223703   4.200   1.299   0.250 -1.5478  3.1601 -0.3892
 4082SOL     OW23704   2.872   4.398   1.749  0.6119 -0.0358  0.1682
 4082SOL    HW123705   2.934   4.341   1.705  0.6983  1.0266 -1.0594
 4082SOL    HW223706   2.874   4.347   1.830  0.8432  0.1697  0.2911
 4083SOL     OW23707   1.266   0.707   2.846  0.1993 -0.3994  0.2672
 4083SOL    HW123708   1.181   0.695   2.890  0.2631 -1.8834 -0.0287
 4083SOL    HW223709   1.277   0.797   2.878  0.8756 -0.6490  0.7267
 4084SOL     OW23710   0.099   3.917   7.661 -0.1845 -0.1249 -0.1318
 4084SOL    HW123711   0.073   3.904   7.752  1.1637  1.3524  0.4620
 4084SOL    HW223712   0.191   3.944   7.665  0.5665 -2.9803  1.7946
 4085SOL     OW23713   2.247   3.379   2.372 -0.1037 -0.3980  0.0261
 4085SOL    HW123714   2.153   3.392   2.360 -0.2901 -0.3406  1.5860
 4085SOL    HW223715   2.278   3.358   2.284  1.4548 -0.8405  0.6794
 4086SOL     OW23716   1.828   4.131  16.977  0.2416 -0.2721 -0.4809
 4086SOL    HW123717   1.821   4.041  17.008 -2.4726  0.6457  1.5433
 4086SOL    HW223718   1.742   4.161  17.006  0.3230 -0.6609  0.1613
 4087SOL     OW23719   4.617   4.273   6.364  0.3787 -0.2517 -0.2176
 4087SOL    HW123720   4.620   4.267   6.460  0.6980 -1.6725 -0.3229
 4087SOL    HW223721   4.689   4.336   6.361  3.1035 -3.4789 -3.3760
 4088SOL     OW23722   0.872   4.300   3.334 -0.2242 -0.5996  0.1858
 4088SOL    HW123723   0.885   4.241   3.409 -0.3095 -0.1453  0.5608
 4088SOL    HW223724   0.783   4.284   3.305  0.9566 -2.0550 -2.6388
 4089SOL     OW23725   3.814   0.849   1.643  0.3466  0.2678  0.4610
 4089SOL    HW123726   3.870   0.914   1.685 -0.4906  0.2648  1.5737
 4089SOL    HW223727   3.747   0.861   1.710  1.1909 -0.1602  1.3997
 4090SOL     OW23728   2.821   0.089   7.641  0.3081  0.4175 -0.4388
 4090SOL    HW123729   2.913   0.112   7.659  0.1564  0.2929  0.5197
 4090SOL    HW223730   2.830   0.049   7.555  0.8681  3.8508 -1.9403
 4091SOL     OW23731   0.180   1.708   2.761  0.3177 -0.4003  0.0199
 4091SOL    HW123732   0.246   1.757   2.810 -2.0182  1.7658  1.0380
 4091SOL    HW223733   0.191   1.764   2.685 -0.2352  0.0161  0.2453
 4092SOL     OW23734   3.948   1.118   3.054 -0.1663  0.6112  0.0394
 4092SOL    HW123735   3.917   1.111   2.964 -1.5815  0.4288  0.5478
 4092SOL    HW223736   3.952   1.025   3.075 -2.5288  1.0054  2.3352
 4093SOL     OW23737   4.523   0.162  13.625 -0.5777 -0.0145 -0.1390
 4093SOL    HW123738   4.578   0.123  13.557 -0.0011 -0.6910  0.7118
 4093SOL    HW223739   4.582   0.237  13.635 -0.7366  0.1135 -0.1520
 4094SOL     OW23740   1.114   0.652   2.579  0.1334  0.3480 -0.4673
 4094SOL    HW123741   1.198   0.647   2.624 -0.4598 -0.6589  0.5232
 4094SOL    HW223742   1.091   0.742   2.602  1.2294  0.7944 -1.1117
 4095SOL     OW23743   2.849   4.096   6.887 -0.4722  0.0461  0.2105
 4095SOL    HW123744   2.776   4.137   6.841 -0.4398  2.2427  2.1183
 4095SOL    HW223745   2.900   4.042   6.826 -1.8807 -1.1655  0.1259
 4096SOL     OW23746   2.358   2.265  15.414 -0.0505 -0.5513  0.4631
 4096SOL    HW123747   2.295   2.204  15.451 -4.8746  3.5852 -0.9097
 4096SOL    HW223748   2.355   2.330  15.484  0.2476  0.5829 -0.5690
 4097SOL     OW23749   3.439   3.034   0.929 -0.1520  0.9440 -0.3006
 4097SOL    HW123750   3.454   3.096   0.857 -0.8625 -0.6858 -1.8661
 4097SOL    HW223751   3.352   3.000   0.908  0.7723 -2.1653  0.9708
 4098SOL     OW23752   4.304   2.969  12.435 -0.2952  0.4049 -0.8196
 4098SOL    HW123753   4.355   2.927  12.366 -0.4667  2.3071 -2.1167
 4098SOL    HW223754   4.223   2.918  12.423 -0.2624  0.4256 -1.1203
 4099SOL     OW23755   4.690   0.250  15.745  0.0756 -0.3649 -0.6116
 4099SOL    HW123756   4.600   0.280  15.733  0.2020 -0.0139 -0.6815
 4099SOL    HW223757   4.702   0.189  15.672  1.6052 -1.8351  0.8875
 4100SOL     OW23758   0.868   4.189   5.239 -0.2471  0.3665  0.2210
 4100SOL    HW123759   0.779   4.214   5.263  0.6836  2.3726  1.5752
 4100SOL    HW223760   0.920   4.250   5.290 -1.7978  0.1886  2.0071
 4101SOL     OW23761   3.908   1.139   2.762 -0.5219 -0.1070  0.4198
 4101SOL    HW123762   3.951   1.224   2.764  1.1906 -0.9014 -3.3220
 4101SOL    HW223763   3.902   1.113   2.670  0.5653  1.3429 -0.0532
 4102SOL     OW23764   2.825   4.151   7.832 -0.0935 -0.2346 -0.2123
 4102SOL    HW123765   2.735   4.124   7.848 -0.0752 -0.5979 -0.6945
 4102SOL    HW223766   2.827   4.125   7.740  0.9195  2.4466 -0.9458
 4103SOL     OW23767   1.766   2.103   5.450 -0.3957  0.2493 -0.3924
 4103SOL    HW123768   1.699   2.170   5.465  1.6080  2.3491 -0.6875
 4103SOL    HW223769   1.741   2.035   5.513  1.8820 -0.5111 -0.3088
 4104SOL     OW23770   0.758   0.031   1.928 -0.1808 -0.1246 -0.4199
 4104SOL    HW123771   0.797   0.089   1.863  0.4436  0.0642  0.1128
 4104SOL    HW223772   0.708   4.698   1.870 -1.7147 -0.3401  1.1264
 4105SOL     OW23773   2.735   1.213   8.884  0.0419  0.0732  0.0163
 4105SOL    HW123774   2.819   1.173   8.908 -0.5954  0.3115  2.6491
 4105SOL    HW223775   2.738   1.290   8.940  1.4016  0.9584 -1.2477
 4106SOL     OW23776   1.195   0.770   4.399 -0.4176 -0.0076  0.3626
 4106SOL    HW123777   1.227   0.697   4.452 -1.9636 -0.4593  0.6725
 4106SOL    HW223778   1.158   0.830   4.463 -1.9790  0.4506 -0.9651
 4107SOL     OW23779   1.402   1.726   4.037  0.7858  0.1108  0.1485
 4107SOL    HW123780   1.477   1.703   3.982 -0.3020 -1.9107 -0.4954
 4107SOL    HW223781   1.408   1.655   4.101  0.4742  0.8507  0.9962
 4108SOL     OW23782   4.428   2.340   7.182  0.1849 -0.0205  0.0314
 4108SOL    HW123783   4.480   2.353   7.262 -1.2661 -0.6886  1.0825
 4108SOL    HW223784   4.460   2.415   7.132 -0.5662  0.1688 -0.1538
 4109SOL     OW23785   0.863   3.574   7.510  0.3317 -0.0957  0.0386
 4109SOL    HW123786   0.801   3.524   7.564  0.0088  0.1081 -0.1400
 4109SOL    HW223787   0.810   3.653   7.496  0.9159  0.1940 -0.5397
 4110SOL     OW23788   2.085   0.251   5.341 -1.2277 -0.3606 -0.0384
 4110SOL    HW123789   2.160   0.226   5.395  0.2592  0.6275 -1.6481
 4110SOL    HW223790   2.048   0.314   5.403 -0.8891  1.1669 -1.3765
 4111SOL     OW23791   3.452   0.028   8.603 -0.3631 -0.5280  0.0188
 4111SOL    HW123792   3.447   4.670   8.650 -1.0455 -0.8546 -0.6273
 4111SOL    HW223793   3.542   0.057   8.620 -1.0510  1.6100  0.0074
 4112SOL     OW23794   1.172   3.788  16.673  0.8125 -0.2455 -0.4624
 4112SOL    HW123795   1.257   3.828  16.690  0.8446 -0.8274  0.7295
 4112SOL    HW223796   1.124   3.831  16.744  1.2282 -1.9023  0.8445
 4113SOL     OW23797   3.064   2.181  10.957  0.6113  0.0870  0.1998
 4113SOL    HW123798   2.981   2.224  10.979  0.5678 -0.0227  0.2500
 4113SOL    HW223799   3.031   2.106  10.907  0.5925 -0.6992  1.3917
 4114SOL     OW23800   1.230   3.115   5.700  0.1828 -0.1562 -0.0537
 4114SOL    HW123801   1.270   3.030   5.682 -1.7089 -0.4789 -2.7115
 4114SOL    HW223802   1.213   3.103   5.793 -0.8768 -1.9141 -0.4619
 4115SOL     OW23803   2.038   3.728  12.375 -0.0953 -0.1497 -0.3223
 4115SOL    HW123804   2.052   3.724  12.280 -1.2532 -0.1363 -0.4980
 4115SOL    HW223805   1.959   3.674  12.387 -1.0536  1.4924  0.7411
 4116SOL     OW23806   2.602   3.416   3.541  0.3254 -0.4491 -0.6846
 4116SOL    HW123807   2.540   3.371   3.484 -0.9737 -0.6877  0.9415
 4116SOL    HW223808   2.543   3.442   3.612  1.0034  0.6336 -0.5079
 4117SOL     OW23809   3.662   1.398   6.288 -0.1159 -0.2920 -0.1263
 4117SOL    HW123810   3.582   1.386   6.236  1.2624 -0.4110 -2.2421
 4117SOL    HW223811   3.730   1.396   6.220 -0.2386  1.6579 -0.3180
 4118SOL     OW23812   3.153   1.109   2.843  0.0374 -0.2885 -0.2402
 4118SOL    HW123813   3.193   1.071   2.922  0.0636 -0.8978 -0.5475
 4118SOL    HW223814   3.177   1.045   2.777  2.5098 -0.8838  1.2193
 4119SOL     OW23815   3.458   2.864  10.093 -0.3498 -0.0055  0.3385
 4119SOL    HW123816   3.476   2.806  10.019 -0.4548  1.8232 -1.1237
 4119SOL    HW223817   3.476   2.944  10.045  1.0049 -1.4157 -1.4889
 4120SOL     OW23818   3.250   1.690   2.084 -0.2853 -0.4513  0.2891
 4120SOL    HW123819   3.227   1.602   2.116 -0.2176 -0.3449  0.6277
 4120SOL    HW223820   3.173   1.738   2.113  1.1454  3.4148 -2.2576
 4121SOL     OW23821   4.496   0.953   1.715 -0.3515  0.2520  0.0998
 4121SOL    HW123822   4.487   0.895   1.639 -0.6199 -1.4554  1.4267
 4121SOL    HW223823   4.543   0.891   1.771 -0.5776 -0.2247 -0.2325
 4122SOL     OW23824   1.600   2.462   1.915  0.3342 -0.7551 -0.3269
 4122SOL    HW123825   1.618   2.368   1.915 -2.9185 -1.3964  0.8612
 4122SOL    HW223826   1.551   2.458   1.998  0.5878 -0.6024 -0.1696
 4123SOL     OW23827   4.692   2.851   5.405 -0.4828  0.2828  0.1278
 4123SOL    HW123828   4.718   2.891   5.487  1.1350 -0.4562 -0.0315
 4123SOL    HW223829   0.007   2.764   5.412 -0.9506 -0.0841 -1.6357
 4124SOL     OW23830   0.336   4.057   8.738 -0.3421  0.3175  0.1529
 4124SOL    HW123831   0.353   4.147   8.766 -0.1318  0.5696 -0.7840
 4124SOL    HW223832   0.336   4.012   8.822 -1.5816 -1.0130 -0.5697
 4125SOL     OW23833   2.300   2.243  10.306 -0.4423 -0.5339  0.1775
 4125SOL    HW123834   2.263   2.298  10.375 -0.3832 -0.2600 -0.0112
 4125SOL    HW223835   2.362   2.195  10.361  2.4318  1.7606 -1.0608
 4126SOL     OW23836   0.365   0.861  17.600 -0.1379  0.4172 -0.6213
 4126SOL    HW123837   0.293   0.922  17.615 -0.7643 -0.4113 -0.2736
 4126SOL    HW223838   0.341   0.810  17.523  0.2346 -0.4662 -0.1587
 4127SOL     OW23839   3.220   3.586   2.108 -0.1698  0.2995  0.6224
 4127SOL    HW123840   3.276   3.555   2.036 -0.8207 -1.0118  0.6964
 4127SOL    HW223841   3.194   3.510   2.159  0.6599 -0.4955 -0.1406
 4128SOL     OW23842   0.961   0.402   1.946  0.4982 -0.4266 -0.6777
 4128SOL    HW123843   0.887   0.400   1.886  0.3615  1.1941 -0.5791
 4128SOL    HW223844   1.028   0.453   1.900  0.9873  0.8074  1.3821
 4129SOL     OW23845   1.279   2.601   6.687  0.0263 -0.7106  0.0488
 4129SOL    HW123846   1.335   2.677   6.703  0.5744 -0.8096 -1.4774
 4129SOL    HW223847   1.310   2.577   6.600  2.4488  0.1125  0.6924
 4130SOL     OW23848   1.353   0.098   8.679  0.1323 -0.4638 -0.1131
 4130SOL    HW123849   1.270   0.051   8.669 -0.8748  0.8773  2.0971
 4130SOL    HW223850   1.341   0.187   8.647  1.7945 -0.1989 -0.0214
 4131SOL     OW23851   1.019   3.012   8.661 -0.4727 -0.2355 -0.2751
 4131SOL    HW123852   0.924   3.006   8.651 -0.2970 -1.6170 -1.0470
 4131SOL    HW223853   1.056   2.992   8.575 -0.1455  0.2046 -0.2378
 4132SOL     OW23854   3.681   2.015   8.374  0.0668 -0.2759  0.0389
 4132SOL    HW123855   3.718   2.027   8.461 -0.1215 -0.7662  0.1837
 4132SOL    HW223856   3.641   2.102   8.361  1.6211  0.5224  0.6034
 4133SOL     OW23857   3.034   0.053   8.899  0.3683 -0.4512 -0.2182
 4133SOL    HW123858   3.104   0.009   8.851  2.1763  0.9100  1.1839
 4133SOL    HW223859   3.010   0.123   8.839  1.2601 -0.0021 -0.0513
 4134SOL     OW23860   4.247   0.633   4.070 -0.1959  0.4621 -0.3835
 4134SOL    HW123861   4.192   0.709   4.050 -0.5713 -0.0072 -1.0818
 4134SOL    HW223862   4.203   0.602   4.149  0.2571  1.3353  0.2224
 4135SOL     OW23863   0.328   2.961   5.700 -0.0975  0.1538 -0.1207
 4135SOL    HW123864   0.384   2.909   5.641 -0.8895  0.3478 -1.0532
 4135SOL    HW223865   0.315   2.895   5.768 -0.4177 -0.2668 -0.5841
 4136SOL     OW23866   4.267   1.346  11.560 -0.0493  0.1933 -0.3904
 4136SOL    HW123867   4.285   1.439  11.545  2.6624 -0.0891  1.1352
 4136SOL    HW223868   4.332   1.294  11.511  0.3877  1.6821 -1.3884
 4137SOL     OW23869   0.779   2.185   1.095 -0.1950 -0.1182 -0.0008
 4137SOL    HW123870   0.751   2.268   1.135 -0.5702 -1.0100  1.5797
 4137SOL    HW223871   0.757   2.132   1.171  1.0595 -2.5498 -1.3674
 4138SOL     OW23872   2.315   1.308   2.079 -0.1048  0.1495 -0.4670
 4138SOL    HW123873   2.405   1.334   2.095  0.4362  0.0059 -3.2379
 4138SOL    HW223874   2.317   1.311   1.983  0.3231  1.2357 -0.4219
 4139SOL     OW23875   1.491   2.374   4.841 -0.5295 -0.2568  0.0708
 4139SOL    HW123876   1.423   2.375   4.773  0.7909 -1.7214 -1.2771
 4139SOL    HW223877   1.533   2.459   4.827 -0.7771 -0.2517 -0.6959
 4140SOL     OW23878   3.611   1.701  17.586 -0.6088  0.0376  0.3629
 4140SOL    HW123879   3.666   1.719  17.662 -0.0340  3.0574 -0.7751
 4140SOL    HW223880   3.681   1.695  17.520  0.3970  1.7379  1.2810
 4141SOL     OW23881   4.148   1.859   8.698 -0.0515  0.0154 -0.2151
 4141SOL    HW123882   4.095   1.845   8.620  0.1887  1.4782 -0.6442
 4141SOL    HW223883   4.090   1.816   8.761  0.3084 -0.6240 -0.3230
 4142SOL     OW23884   1.373   2.515   5.160  0.4398  0.4217 -0.1069
 4142SOL    HW123885   1.454   2.521   5.210  2.2695 -1.2137 -2.8278
 4142SOL    HW223886   1.407   2.498   5.072  1.9345  0.7158  0.4177
 4143SOL     OW23887   1.227   3.881  12.434 -0.0868  0.0422  0.5953
 4143SOL    HW123888   1.154   3.943  12.433  0.7613  1.0483  0.2307
 4143SOL    HW223889   1.278   3.923  12.504  0.6531 -0.3056  0.2578
 4144SOL     OW23890   3.721   1.209   1.760  0.1163 -0.2697  0.1230
 4144SOL    HW123891   3.793   1.146   1.760  1.3835  1.1751 -1.9478
 4144SOL    HW223892   3.644   1.152   1.759 -1.0667  1.2802  1.2302
 4145SOL     OW23893   2.104   0.535   6.598 -0.1240  0.2608  0.2792
 4145SOL    HW123894   2.058   0.468   6.648 -1.6254  2.9883  2.5085
 4145SOL    HW223895   2.194   0.510   6.619 -0.1768 -0.6810 -0.5954
 4146SOL     OW23896   1.294   2.762   2.602 -0.1216  0.4747  0.2710
 4146SOL    HW123897   1.313   2.730   2.690 -0.4396 -1.6208 -0.4409
 4146SOL    HW223898   1.362   2.718   2.550 -0.0436  2.4353 -1.3174
 4147SOL     OW23899   2.674   1.474   6.292  0.2053  0.2858 -0.2983
 4147SOL    HW123900   2.693   1.567   6.304 -1.8097  0.4186  1.9543
 4147SOL    HW223901   2.762   1.441   6.309 -0.6642 -0.6807  2.4585
 4148SOL     OW23902   3.002   2.233  10.589 -0.8375 -0.2942 -0.1284
 4148SOL    HW123903   2.932   2.247  10.653 -2.0672  0.4291 -1.6349
 4148SOL    HW223904   3.050   2.313  10.611 -1.9800  0.6009 -0.8478
 4149SOL     OW23905   0.517   2.202   8.378 -0.8087 -0.4632 -0.4044
 4149SOL    HW123906   0.517   2.179   8.471 -0.5968  0.9362 -0.0663
 4149SOL    HW223907   0.545   2.293   8.379  1.3804 -1.1478  0.1729
 4150SOL     OW23908   0.748   2.951   5.896 -0.2440 -0.3908 -0.3313
 4150SOL    HW123909   0.782   2.927   5.982 -0.0073  1.2279  0.0280
 4150SOL    HW223910   0.818   3.006   5.861  0.7122 -0.7003  1.0954
 4151SOL     OW23911   0.278   0.952   1.938 -0.1982 -0.3065 -0.9325
 4151SOL    HW123912   0.281   1.008   1.861 -0.7851 -0.6831 -1.2306
 4151SOL    HW223913   0.371   0.936   1.954 -0.3991 -0.3181  0.2495
 4152SOL     OW23914   3.321   3.424   6.716 -0.2812 -0.1790  0.0550
 4152SOL    HW123915   3.251   3.442   6.780  1.2887  0.1873  1.6625
 4152SOL    HW223916   3.298   3.336   6.686 -0.4464 -0.4174  0.8745
 4153SOL     OW23917   2.809   1.115   6.824  0.2813  0.0464 -0.0652
 4153SOL    HW123918   2.842   1.039   6.872  0.6905  1.0427  1.2443
 4153SOL    HW223919   2.745   1.143   6.890  1.8230  2.2162  0.5231
 4154SOL     OW23920   0.896   2.463   6.517  0.1524  0.7083  0.4960
 4154SOL    HW123921   0.894   2.550   6.556 -0.7508  0.9454 -0.0833
 4154SOL    HW223922   0.936   2.417   6.590 -2.4289  0.7057  1.8863
 4155SOL     OW23923   2.985   3.236   2.141 -0.0848 -0.3859  0.2117
 4155SOL    HW123924   3.061   3.278   2.182 -0.6491  1.3153 -0.4591
 4155SOL    HW223925   2.978   3.281   2.057 -0.6521 -2.6453 -0.9486
 4156SOL     OW23926   0.900   2.802   7.295  0.2000 -0.0162  0.1849
 4156SOL    HW123927   0.915   2.894   7.271 -2.2289  0.3046 -0.1274
 4156SOL    HW223928   0.852   2.771   7.218  0.5850 -0.9103  0.3080
 4157SOL     OW23929   1.997   2.881   5.071  0.3170  0.7894  0.0963
 4157SOL    HW123930   2.074   2.925   5.035  0.4560 -0.0823 -0.6742
 4157SOL    HW223931   2.051   2.837   5.138  0.6336  1.5507  0.3369
 4158SOL     OW23932   3.843   4.642   1.201 -0.0603  0.0462 -0.6273
 4158SOL    HW123933   3.826   4.647   1.107 -0.1407 -1.5306 -0.6842
 4158SOL    HW223934   3.937   4.662   1.205 -0.4483  2.1861 -1.8674
 4159SOL     OW23935   1.132   4.074   7.912 -0.3822 -0.5720  0.0601
 4159SOL    HW123936   1.142   4.072   7.817 -0.1161 -2.2920  0.1153
 4159SOL    HW223937   1.166   4.160   7.936  0.5763 -1.4293  1.8317
 4160SOL     OW23938   2.376   2.085   6.655 -0.4354 -0.1618  0.1699
 4160SOL    HW123939   2.470   2.066   6.656 -0.2877  0.5977  0.4689
 4160SOL    HW223940   2.391   2.169   6.612 -1.9040  0.4929  0.9654
 4161SOL     OW23941   0.417   4.101  14.753 -0.2707 -0.5470 -0.6507
 4161SOL    HW123942   0.466   4.100  14.835 -1.7413 -0.3107  0.2238
 4161SOL    HW223943   0.450   4.019  14.716 -0.1789 -0.4788 -0.7208
 4162SOL     OW23944   3.574   0.891   2.244  0.1087  0.3311  0.3018
 4162SOL    HW123945   3.546   0.975   2.210 -1.5946  0.7255  2.6637
 4162SOL    HW223946   3.664   0.886   2.211  0.9336  0.6001  2.5139
 4163SOL     OW23947   2.153   3.419   6.715  0.8489 -0.8175  0.2116
 4163SOL    HW123948   2.114   3.376   6.640  1.4731  0.2190 -0.7052
 4163SOL    HW223949   2.236   3.455   6.683  0.2066 -1.3385 -1.9764
 4164SOL     OW23950   4.649   0.391   5.178 -0.2831 -0.0977  0.0451
 4164SOL    HW123951   4.598   0.352   5.106 -0.7477 -1.4049  1.0616
 4164SOL    HW223952   4.597   0.365   5.255  0.8295 -0.2385  0.7501
 4165SOL     OW23953   3.661   2.317  12.764  0.6838  0.1323 -0.2090
 4165SOL    HW123954   3.618   2.231  12.771  0.0104  0.3295 -1.9692
 4165SOL    HW223955   3.619   2.348  12.684  1.1747 -1.5079 -1.1224
 4166SOL     OW23956   0.716   3.407   4.109 -0.2795 -0.1082 -0.4211
 4166SOL    HW123957   0.665   3.357   4.173  1.7329 -0.5922  0.8240
 4166SOL    HW223958   0.766   3.471   4.160  0.8488 -0.9299 -0.4848
 4167SOL     OW23959   0.012   1.536  15.688 -0.3375  0.0323  0.6314
 4167SOL    HW123960   4.694   1.593  15.624 -3.1639 -0.9678  1.6338
 4167SOL    HW223961   0.027   1.598  15.759 -0.7275 -0.8540  1.4860
 4168SOL     OW23962   2.460   0.771   4.863  0.3521 -0.0848 -0.4214
 4168SOL    HW123963   2.408   0.837   4.908 -0.3097 -0.2620 -0.9358
 4168SOL    HW223964   2.399   0.698   4.876  0.9836 -0.9908 -2.5168
 4169SOL     OW23965   2.944   0.954  16.653 -0.0713 -0.1780  0.5050
 4169SOL    HW123966   2.955   0.919  16.742 -0.5409 -0.3639  0.4875
 4169SOL    HW223967   2.850   0.969  16.650 -0.0320  0.4580  2.2282
 4170SOL     OW23968   4.239   0.880   4.905 -0.2696  0.1153 -0.2747
 4170SOL    HW123969   4.168   0.943   4.917  1.6335  1.7941  2.2417
 4170SOL    HW223970   4.315   0.936   4.892 -0.3096  0.3688  0.5402
 4171SOL     OW23971   3.656   0.134   7.613  0.3932  0.1213 -0.6582
 4171SOL    HW123972   3.636   0.084   7.534 -1.1235 -1.3811  0.6881
 4171SOL    HW223973   3.583   0.194   7.625  0.8846  1.1230 -2.7006
 4172SOL     OW23974   3.923   4.311   3.265 -0.3169  0.3571  0.2367
 4172SOL    HW123975   3.931   4.363   3.345 -0.6035 -0.9660  1.1267
 4172SOL    HW223976   3.908   4.368   3.189  1.0654 -1.5338 -1.4408
 4173SOL     OW23977   2.676   0.858   7.140  0.8142  0.3072  0.0421
 4173SOL    HW123978   2.760   0.878   7.100  1.2212 -1.0946  0.2002
 4173SOL    HW223979   2.618   0.878   7.067 -0.1094  0.5643  0.8444
 4174SOL     OW23980   3.262   4.290  11.246 -0.3679  0.1547  0.4586
 4174SOL    HW123981   3.356   4.291  11.228 -0.3240 -2.7524  0.5482
 4174SOL    HW223982   3.225   4.232  11.180 -1.2541 -0.5564  1.5733
 4175SOL     OW23983   0.728   0.766   7.608  0.4824 -0.4607 -0.9089
 4175SOL    HW123984   0.643   0.750   7.566 -0.5928  0.2618  1.0008
 4175SOL    HW223985   0.771   0.681   7.607  0.3878 -0.5092 -0.6525
 4176SOL     OW23986   4.133   0.018   1.474 -0.6435  0.2706 -0.2272
 4176SOL    HW123987   4.226   0.034   1.461 -0.2370 -1.2279  0.7409
 4176SOL    HW223988   4.125   4.667   1.416  1.6501 -0.7781  0.8357
 4177SOL     OW23989   0.022   1.027   5.172 -0.0255 -0.2883  0.1421
 4177SOL    HW123990   0.098   1.059   5.123 -0.4306  0.1254 -0.2164
 4177SOL    HW223991   0.034   0.933   5.160 -0.9915 -0.1860 -1.7194
 4178SOL     OW23992   0.332   1.902   7.698 -0.1196  0.5356 -0.1456
 4178SOL    HW123993   0.397   1.834   7.716  0.9245  1.5685 -0.0142
 4178SOL    HW223994   0.330   1.928   7.606  0.1186 -0.8406 -0.5314
 4179SOL     OW23995   0.585   3.232   7.588  0.0733  0.3110 -0.5901
 4179SOL    HW123996   0.648   3.160   7.578 -0.2184 -0.1365  0.7807
 4179SOL    HW223997   0.502   3.189   7.565 -0.6866 -0.0401  2.7995
 4180SOL     OW23998   0.233   2.033   2.725  0.5914  0.4167 -0.4217
 4180SOL    HW123999   0.295   1.971   2.763  0.7702  0.9710  0.2118
 4180SOL    HW224000   0.284   2.062   2.649 -1.0747 -0.0780 -1.7054
 4181SOL     OW24001   0.960   4.277   7.570  0.4311  0.0140 -0.0665
 4181SOL    HW124002   0.997   4.305   7.487  0.0523  1.0076  0.0983
 4181SOL    HW224003   0.929   4.361   7.602  1.1571  0.0093  0.6576
 4182SOL     OW24004   2.097   0.764   2.434 -0.0858  0.2169  0.0462
 4182SOL    HW124005   2.145   0.847   2.441  0.1188  0.1325 -0.3491
 4182SOL    HW224006   2.051   0.789   2.354 -0.2754  1.3133  0.4969
 4183SOL     OW24007   1.283   1.741   1.534 -0.2616  0.4939 -0.1100
 4183SOL    HW124008   1.331   1.751   1.452 -1.4476 -0.0197 -0.8705
 4183SOL    HW224009   1.314   1.656   1.564  0.8905  0.5804 -1.0584
 4184SOL     OW24010   1.432   0.224   3.812 -0.2874  0.0308  0.7379
 4184SOL    HW124011   1.361   0.275   3.851  0.2373  0.9403  0.5021
 4184SOL    HW224012   1.442   0.261   3.725 -0.8504 -1.6334 -0.0431
 4185SOL     OW24013   0.661   3.821   3.826 -0.5881  0.0739 -0.6375
 4185SOL    HW124014   0.651   3.762   3.751 -2.2067 -1.4960  0.8034
 4185SOL    HW224015   0.755   3.805   3.834 -0.3658  0.4360 -2.5067
 4186SOL     OW24016   3.075   3.243   9.152  0.6964  0.0207 -0.0316
 4186SOL    HW124017   3.158   3.197   9.159  0.0917 -1.3817 -1.9502
 4186SOL    HW224018   3.084   3.273   9.062 -0.7799  0.5146 -0.0219
 4187SOL     OW24019   1.769   1.245   0.498  0.0666 -0.3022 -0.2629
 4187SOL    HW124020   1.679   1.238   0.531 -0.0595  0.0314 -0.5340
 4187SOL    HW224021   1.767   1.167   0.442  4.8121 -1.4697  1.2232
 4188SOL     OW24022   2.427   2.603  12.490  0.3855 -0.2913  0.2875
 4188SOL    HW124023   2.516   2.568  12.500  0.8275  0.6208 -0.4645
 4188SOL    HW224024   2.392   2.542  12.425 -1.3822  0.3381  0.6763
 4189SOL     OW24025   3.104   0.728   7.883  0.1857 -0.0503  0.0501
 4189SOL    HW124026   3.170   0.792   7.853  1.3468 -1.3946 -0.2412
 4189SOL    HW224027   3.035   0.786   7.916  1.6960  1.5845  0.3696
 4190SOL     OW24028   4.646   0.680  17.457 -0.0606 -0.2290  0.2481
 4190SOL    HW124029   4.724   0.735  17.461  1.2415 -2.0534  0.2768
 4190SOL    HW224030   4.608   0.682  17.544  1.8369 -0.8922  1.0941
 4191SOL     OW24031   0.514   1.325   7.855 -0.2829  0.5030  0.2216
 4191SOL    HW124032   0.565   1.387   7.803 -0.2822 -0.5016 -0.9681
 4191SOL    HW224033   0.425   1.351   7.832 -0.1181  1.8728  1.1034
 4192SOL     OW24034   2.339   2.785   6.897  0.6311  0.4169  0.1730
 4192SOL    HW124035   2.415   2.727   6.891  0.0916 -0.5296  2.2679
 4192SOL    HW224036   2.270   2.718   6.893 -0.4093  1.4441  0.9776
 4193SOL     OW24037   3.525   0.391  10.689  0.0306 -0.0255 -0.1970
 4193SOL    HW124038   3.530   0.464  10.628 -0.7242 -1.1167 -1.5490
 4193SOL    HW224039   3.617   0.383  10.712 -0.2817 -3.4772 -0.1891
 4194SOL     OW24040   1.407   0.425   1.918 -0.2384 -0.4197 -0.6124
 4194SOL    HW124041   1.353   0.503   1.929 -0.2357 -0.4830 -0.1665
 4194SOL    HW224042   1.377   0.396   1.832  0.4437 -1.8167 -0.3967
 4195SOL     OW24043   4.227   1.750  10.032  0.1461  0.1393  0.1639
 4195SOL    HW124044   4.227   1.803  10.112 -1.2918 -0.9326  0.8565
 4195SOL    HW224045   4.270   1.817   9.979  0.3222  0.0827  0.2326
 4196SOL     OW24046   3.431   3.458   7.510 -0.0948  0.6463  0.4728
 4196SOL    HW124047   3.407   3.535   7.561  1.0486  1.3174 -0.0012
 4196SOL    HW224048   3.426   3.489   7.419 -0.3088  1.2548  0.6994
 4197SOL     OW24049   2.869   2.023   2.303  0.1025  0.3686 -0.4314
 4197SOL    HW124050   2.833   2.043   2.216  1.0749 -3.0955 -1.5913
 4197SOL    HW224051   2.876   2.112   2.337 -0.8845 -0.1095  1.0049
 4198SOL     OW24052   3.294   4.328   1.913 -0.0738  0.6638 -0.0673
 4198SOL    HW124053   3.366   4.273   1.880  1.7231  2.3669  0.9986
 4198SOL    HW224054   3.279   4.382   1.836  0.7165 -1.1518 -1.4919
 4199SOL     OW24055   4.227   2.129   0.008  0.0646  0.4126 -0.0574
 4199SOL    HW124056   4.133   2.129  17.692  0.2044  1.5514 -0.8200
 4199SOL    HW224057   4.250   2.040  17.683 -1.8769 -0.5547  1.5323
 4200SOL     OW24058   0.598   3.940   8.790 -0.4909 -0.3141  0.3148
 4200SOL    HW124059   0.526   3.942   8.726 -0.2191  0.8590  0.0318
 4200SOL    HW224060   0.579   4.026   8.827  0.5160  0.1366 -0.2099
 4201SOL     OW24061   0.642   0.563   5.933 -0.4569  0.3543  0.0677
 4201SOL    HW124062   0.661   0.615   5.855 -0.5664  1.5465  0.8417
 4201SOL    HW224063   0.664   0.618   6.008 -0.6169 -0.7558  0.9391
 4202SOL     OW24064   2.375   0.975   5.705 -0.0555 -0.1011  0.3352
 4202SOL    HW124065   2.307   0.966   5.771  0.1741  2.9186  0.9970
 4202SOL    HW224066   2.350   1.063   5.675  3.6895  0.0572 -2.3867
 4203SOL     OW24067   1.052   1.105  15.710 -0.1727 -0.0661  0.0684
 4203SOL    HW124068   1.122   1.063  15.661  0.3355  0.5016  0.3026
 4203SOL    HW224069   0.969   1.084  15.666  0.6268 -0.2482 -1.3547
 4204SOL     OW24070   0.437   1.394   7.012  0.0244  0.3922 -0.0332
 4204SOL    HW124071   0.473   1.373   6.926  0.0874 -3.9376  1.0588
 4204SOL    HW224072   0.526   1.383   7.047  0.1859 -0.1183 -0.6048
 4205SOL     OW24073   1.700   0.872  13.105 -0.1497  0.2086 -0.5215
 4205SOL    HW124074   1.768   0.891  13.170  0.1515  2.0901 -1.4022
 4205SOL    HW224075   1.659   0.797  13.150  0.2774 -0.7019 -1.6636
 4206SOL     OW24076   4.345   2.360   2.688 -0.4255  0.1444 -0.0143
 4206SOL    HW124077   4.372   2.356   2.596 -0.4277 -1.4446  0.0656
 4206SOL    HW224078   4.252   2.338   2.686  0.1319 -2.0812 -1.4560
 4207SOL     OW24079   2.195   3.308   8.118  0.1276  0.0810  0.2675
 4207SOL    HW124080   2.271   3.308   8.176  0.6480  0.9941 -0.4052
 4207SOL    HW224081   2.127   3.280   8.179 -1.0907  0.3177 -0.9879
 4208SOL     OW24082   1.936   1.517   4.559 -0.2975 -0.0030  0.2656
 4208SOL    HW124083   1.906   1.590   4.613  2.3222  1.1787  0.1473
 4208SOL    HW224084   2.019   1.483   4.590 -0.2475 -0.6401 -0.5627
 4209SOL     OW24085   1.964   2.851   2.259  0.7200  0.1482 -0.0410
 4209SOL    HW124086   2.027   2.830   2.327 -1.7275 -2.2781  1.4674
 4209SOL    HW224087   1.997   2.809   2.180 -0.6557 -1.1749  0.0820
 4210SOL     OW24088   1.138   2.186   9.621  0.0878 -0.0494  0.2426
 4210SOL    HW124089   1.102   2.120   9.562 -0.1158  0.8704 -0.6490
 4210SOL    HW224090   1.146   2.140   9.705  0.0473 -0.7952 -0.1595
 4211SOL     OW24091   3.758   3.334   4.070  0.2707  0.3939 -0.7085
 4211SOL    HW124092   3.800   3.314   3.986 -3.1837 -1.2188 -2.0684
 4211SOL    HW224093   3.671   3.374   4.062  0.8076  1.6792  0.0125
 4212SOL     OW24094   3.654   4.078   4.761 -0.3500 -0.2175 -0.0066
 4212SOL    HW124095   3.707   4.143   4.715  0.6932 -1.2272 -0.2561
 4212SOL    HW224096   3.678   4.078   4.853 -1.0663 -1.5371  0.1826
 4213SOL     OW24097   3.295   1.720   8.601  0.3724  0.0891  0.0395
 4213SOL    HW124098   3.320   1.629   8.615  2.2369  0.6914  0.6657
 4213SOL    HW224099   3.375   1.765   8.573  0.4504  0.2919  0.5716
 4214SOL     OW24100   2.840   4.153  15.237  0.4920  0.1233  0.1250
 4214SOL    HW124101   2.896   4.107  15.174 -1.1045 -1.8207  0.1140
 4214SOL    HW224102   2.864   4.243  15.216 -0.9921  0.6482  0.7564
 4215SOL     OW24103   4.004   3.262   2.461  0.0243 -0.0903 -0.4076
 4215SOL    HW124104   3.999   3.245   2.555  2.1169 -1.4356 -0.5421
 4215SOL    HW224105   4.060   3.194   2.424  1.3695 -0.5636  2.5055
 4216SOL     OW24106   1.735   2.663  11.251 -0.4693 -0.3975  0.0266
 4216SOL    HW124107   1.692   2.589  11.294 -0.5314 -0.2715  0.1787
 4216SOL    HW224108   1.763   2.704  11.333  0.6358 -2.2643  0.5810
 4217SOL     OW24109   1.975   0.596  16.820  0.6839 -0.0600  0.7100
 4217SOL    HW124110   2.012   0.683  16.834  0.1191  0.3500 -0.3183
 4217SOL    HW224111   2.052   0.557  16.778  0.2806 -1.3613  1.1825
 4218SOL     OW24112   3.684   3.251   6.963  0.1169 -0.1130 -0.6483
 4218SOL    HW124113   3.676   3.262   6.869  1.9711 -1.0696 -0.9116
 4218SOL    HW224114   3.632   3.327   6.991 -0.1582 -0.7080  0.4832
 4219SOL     OW24115   0.360   4.277   6.953  0.4805  0.4475 -0.0551
 4219SOL    HW124116   0.329   4.187   6.957  0.5859  0.3770 -0.8588
 4219SOL    HW224117   0.421   4.276   6.879 -0.4008  0.5943 -0.7806
 4220SOL     OW24118   4.404   3.117   2.040 -0.4025  0.0602  0.7942
 4220SOL    HW124119   4.329   3.121   1.981 -0.1346  0.4901  0.4835
 4220SOL    HW224120   4.433   3.026   2.037 -2.2875 -0.5508  1.0753
 4221SOL     OW24121   1.073   2.962   2.104  0.0623  0.1000  0.2127
 4221SOL    HW124122   1.035   2.986   2.019  3.3189 -0.0474 -1.2930
 4221SOL    HW224123   1.017   2.890   2.134  1.5944 -0.3582  1.9814
 4222SOL     OW24124   2.166   4.345   1.672  0.7324  0.5655 -0.0795
 4222SOL    HW124125   2.213   4.383   1.746  0.8915  0.7447 -0.2727
 4222SOL    HW224126   2.154   4.254   1.698 -0.4824  0.0359 -2.4400
 4223SOL     OW24127   2.160   2.808   9.923 -0.5236 -0.2001 -0.3422
 4223SOL    HW124128   2.189   2.717   9.915  0.4238  0.2942 -2.6250
 4223SOL    HW224129   2.066   2.790   9.919 -0.1442 -2.6223  1.6807
 4224SOL     OW24130   1.859   0.631   3.148 -0.5242  0.3526  0.0824
 4224SOL    HW124131   1.800   0.640   3.073  0.0475 -1.8595 -0.6395
 4224SOL    HW224132   1.873   0.723   3.171  1.4031  0.1761 -0.4098
 4225SOL     OW24133   3.669   4.005   4.438  0.4113 -0.6482  0.6330
 4225SOL    HW124134   3.761   4.007   4.412  0.2662  0.8104  0.2554
 4225SOL    HW224135   3.673   3.956   4.520 -0.5839 -0.8902  0.5421
 4226SOL     OW24136   3.327   2.101   6.656 -0.3658  0.1410 -0.2066
 4226SOL    HW124137   3.419   2.119   6.637 -0.0639  1.3817  2.4807
 4226SOL    HW224138   3.333   2.072   6.747 -3.5905  0.8989  0.2351
 4227SOL     OW24139   3.235   2.573  16.857  0.0849  0.3448 -0.1190
 4227SOL    HW124140   3.326   2.604  16.857 -0.2453  1.3145 -0.0703
 4227SOL    HW224141   3.215   2.608  16.770 -0.8587  0.8179  0.2938
 4228SOL     OW24142   2.235   3.806   3.411 -0.0708 -0.5588 -0.3539
 4228SOL    HW124143   2.278   3.868   3.470 -1.8077 -0.4807  0.8313
 4228SOL    HW224144   2.301   3.799   3.342  1.3961 -1.4674  1.1219
 4229SOL     OW24145   3.648   1.637   3.948  0.2730 -0.3725 -0.3264
 4229SOL    HW124146   3.633   1.611   4.039  2.1777 -1.1065 -0.2200
 4229SOL    HW224147   3.735   1.604   3.928  0.6219  0.9388 -0.9474
 4230SOL     OW24148   1.548   0.062   0.865  0.0447  0.5303 -0.2342
 4230SOL    HW124149   1.644   0.071   0.869  0.2100 -0.3742 -2.5651
 4230SOL    HW224150   1.520   0.153   0.879  0.4694  0.8459 -1.4313
 4231SOL     OW24151   3.706   2.699   7.917 -0.2960  0.2736 -0.2303
 4231SOL    HW124152   3.735   2.749   7.994 -1.5014  1.3256 -0.4585
 4231SOL    HW224153   3.788   2.690   7.868 -0.2398 -5.5748  0.9609
 4232SOL     OW24154   1.566   3.750   9.855 -0.3152  0.5860  0.2520
 4232SOL    HW124155   1.555   3.811   9.928 -2.5782 -0.3407  0.6476
 4232SOL    HW224156   1.661   3.743   9.865 -0.4631  1.2201  2.0462
 4233SOL     OW24157   3.677   2.314   3.830 -0.2857  0.4375  0.0987
 4233SOL    HW124158   3.679   2.261   3.910  0.7111 -1.0643 -0.9069
 4233SOL    HW224159   3.769   2.334   3.816 -0.1604  0.9625  1.6736
 4234SOL     OW24160   1.411   4.684   3.871  0.2443  0.4836  0.4613
 4234SOL    HW124161   1.432   0.049   3.847  0.4499  0.2364 -0.2768
 4234SOL    HW224162   1.325   4.701   3.909 -0.6376 -1.7933 -0.5002
 4235SOL     OW24163   1.884   1.191   6.987 -0.0144  0.4508 -0.5515
 4235SOL    HW124164   1.890   1.286   6.996 -1.9650  0.2903  2.1238
 4235SOL    HW224165   1.926   1.162   7.068  0.9178  1.6051 -0.6002
 4236SOL     OW24166   3.979   1.035  10.740 -0.3301  0.1457  1.3789
 4236SOL    HW124167   3.904   1.046  10.797 -0.9629 -2.8864  1.1241
 4236SOL    HW224168   3.944   1.046  10.651  1.0055 -0.4812  0.7655
 4237SOL     OW24169   4.488   3.067   0.489  0.0437  0.3836  0.2508
 4237SOL    HW124170   4.450   3.134   0.546  2.4510  0.8916  1.2619
 4237SOL    HW224171   4.495   2.993   0.550  0.9511  0.5008  0.2926
 4238SOL     OW24172   4.703   4.527  13.676  0.1311 -0.2653  0.3054
 4238SOL    HW124173   4.683   4.572  13.758 -1.2674 -0.5562  0.1315
 4238SOL    HW224174   4.630   4.466  13.666  0.1817 -0.1282 -0.9065
 4239SOL     OW24175   1.869   3.650   2.088 -0.2242 -0.2551 -0.1147
 4239SOL    HW124176   1.917   3.648   2.005  1.6963  1.0925  0.9638
 4239SOL    HW224177   1.786   3.691   2.066  1.7932  3.3316 -1.1024
 4240SOL     OW24178   0.374   2.597  11.952 -0.0920  0.2061 -0.1495
 4240SOL    HW124179   0.294   2.618  12.001  1.0387 -0.9737  2.2002
 4240SOL    HW224180   0.350   2.517  11.907  0.9301  0.9626 -2.0342
 4241SOL     OW24181   3.499   0.348   4.436  0.7055 -0.6815  0.0875
 4241SOL    HW124182   3.564   0.400   4.483 -2.3618  2.7550  0.5334
 4241SOL    HW224183   3.435   0.323   4.503 -1.0034  1.9866 -0.5316
 4242SOL     OW24184   2.060   3.278   6.488  0.1629 -0.0087 -0.0450
 4242SOL    HW124185   2.088   3.188   6.477  0.2003 -0.3202  2.6289
 4242SOL    HW224186   2.074   3.323   6.404 -1.5971 -1.0695 -0.9027
 4243SOL     OW24187   3.443   2.687   0.272 -0.3908 -0.5401 -0.1785
 4243SOL    HW124188   3.509   2.672   0.204  0.3497  0.2905  0.3642
 4243SOL    HW224189   3.368   2.637   0.240 -1.8293  1.6504 -0.1295
 4244SOL     OW24190   0.672   1.221  11.472 -0.2071 -0.2849 -0.1955
 4244SOL    HW124191   0.755   1.239  11.516 -0.8636 -0.8528  1.2766
 4244SOL    HW224192   0.688   1.138  11.427  2.7079 -1.5669  3.1675
 4245SOL     OW24193   4.518   2.480   5.314 -0.0026  0.4555  0.3507
 4245SOL    HW124194   4.531   2.539   5.388 -2.4617 -1.6379  2.4104
 4245SOL    HW224195   4.591   2.419   5.317  0.6671  1.1761 -0.9743
 4246SOL     OW24196   2.493   1.076   3.943  0.0477 -0.0550 -0.1146
 4246SOL    HW124197   2.440   1.153   3.923  1.0351  0.7573  0.3575
 4246SOL    HW224198   2.533   1.112   4.023  0.9631 -1.5057  0.0805
 4247SOL     OW24199   3.964   4.483   2.152 -0.3334 -0.4633  0.0864
 4247SOL    HW124200   3.927   4.488   2.064  2.0368  3.1191 -0.6993
 4247SOL    HW224201   3.957   4.573   2.183 -0.5478  0.0837 -1.5348
 4248SOL     OW24202   0.133   2.968  11.699 -0.2466  0.1445  0.1009
 4248SOL    HW124203   0.200   2.910  11.736 -0.9397 -0.3604  0.5747
 4248SOL    HW224204   0.078   2.912  11.643  0.8349 -0.4775 -0.3473
 4249SOL     OW24205   3.615   0.156  12.495 -0.0028 -0.4611  0.1661
 4249SOL    HW124206   3.620   0.076  12.547  0.3385 -0.4184  0.1984
 4249SOL    HW224207   3.697   0.183  12.536 -0.3192  0.1490  0.3927
 4250SOL     OW24208   1.113   0.723  13.851 -0.6881  0.4905 -0.0156
 4250SOL    HW124209   1.208   0.718  13.840 -0.8684  0.1628 -1.4375
 4250SOL    HW224210   1.096   0.789  13.918 -0.3250 -2.1021  2.6120
 4251SOL     OW24211   3.058   0.047   4.743  0.5632 -0.5104  0.2579
 4251SOL    HW124212   3.021   4.718   4.674 -1.0146 -0.5431  1.1342
 4251SOL    HW224213   3.001   0.123   4.732  1.6255  0.3903  0.9709
 4252SOL     OW24214   2.567   2.538   4.927 -0.4213  0.1681 -0.2678
 4252SOL    HW124215   2.602   2.463   4.975 -0.2640 -1.0887 -2.3376
 4252SOL    HW224216   2.603   2.529   4.839 -1.6044 -0.3353 -0.7003
 4253SOL     OW24217   0.033   3.540   9.455  0.2071 -0.0494  0.2103
 4253SOL    HW124218   0.069   3.544   9.544  1.8086 -0.0260 -0.4343
 4253SOL    HW224219   0.041   3.446   9.435  0.6909 -0.2646  1.3755
 4254SOL     OW24220   2.905   1.587   7.862 -0.2040  0.2128 -0.3540
 4254SOL    HW124221   2.865   1.600   7.948 -0.5743 -1.1893 -0.3196
 4254SOL    HW224222   2.828   1.600   7.805 -2.4514 -2.1354  2.1468
 4255SOL     OW24223   4.514   2.343  15.961  0.1812 -0.0516  0.0459
 4255SOL    HW124224   4.461   2.337  16.040  2.1805  2.2681  1.5540
 4255SOL    HW224225   4.530   2.435  15.944  2.2624 -0.2987  0.7061
 4256SOL     OW24226   1.156   2.803  10.744 -0.0530 -0.4480  0.1565
 4256SOL    HW124227   1.128   2.873  10.685  1.8510  0.4459  0.3225
 4256SOL    HW224228   1.199   2.744  10.681  1.5881  0.4078  0.4775
 4257SOL     OW24229   3.230   0.984  12.408  0.2456 -0.1592  0.0437
 4257SOL    HW124230   3.284   0.909  12.435  0.5461 -0.9150 -2.5913
 4257SOL    HW224231   3.153   0.932  12.386 -0.8620  1.2064  0.7611
 4258SOL     OW24232   4.560   4.020   5.389  0.0678 -0.2715  0.7594
 4258SOL    HW124233   4.484   3.963   5.399  0.2974 -0.8503 -0.7249
 4258SOL    HW224234   4.565   4.063   5.474 -0.9263  0.7701  0.3000
 4259SOL     OW24235   3.129   3.558   8.574 -0.0375  0.0193  0.2194
 4259SOL    HW124236   3.192   3.529   8.508  1.7458  1.7870  1.1568
 4259SOL    HW224237   3.151   3.508   8.653  0.2043  0.2790  0.3167
 4260SOL     OW24238   3.009   2.826   8.339  0.3250 -0.2533  0.0642
 4260SOL    HW124239   2.935   2.804   8.283  0.8437  1.6753 -1.3640
 4260SOL    HW224240   2.980   2.909   8.375  2.3360 -0.2791  1.7440
 4261SOL     OW24241   0.238   3.957   0.510 -0.2229  0.2264 -0.6916
 4261SOL    HW124242   0.258   3.863   0.514  1.3787  0.6473  1.5428
 4261SOL    HW224243   0.153   3.947   0.466  0.2012 -1.8380 -1.0542
 4262SOL     OW24244   4.134   2.357  11.604  0.1148 -0.0389 -0.3580
 4262SOL    HW124245   4.044   2.325  11.600 -0.9683  2.8260  1.2914
 4262SOL    HW224246   4.126   2.450  11.582  1.4436 -0.0296 -0.8203
 4263SOL     OW24247   3.274   0.202  10.302 -0.1280  0.2202  0.5250
 4263SOL    HW124248   3.261   0.203  10.207  0.3716  2.1392  0.4854
 4263SOL    HW224249   3.348   0.144  10.319  0.1437  0.3425 -0.2005
 4264SOL     OW24250   3.553   3.739   6.902 -0.2581  0.0168  0.4278
 4264SOL    HW124251   3.597   3.800   6.842  0.9429  0.1080  1.4194
 4264SOL    HW224252   3.554   3.766   6.993 -1.4876 -1.5126  0.8920
 4265SOL     OW24253   1.976   0.795   5.496  0.6436 -0.5416  0.1540
 4265SOL    HW124254   2.051   0.747   5.460  0.2746  1.0931 -2.8300
 4265SOL    HW224255   2.025   0.852   5.555  0.4231 -0.6852  0.4705
 4266SOL     OW24256   3.813   3.585   5.280 -0.3961 -0.0710  0.2588
 4266SOL    HW124257   3.900   3.559   5.250  0.0776  1.7403  0.0390
 4266SOL    HW224258   3.821   3.605   5.374  0.0066  0.1279  0.1829
 4267SOL     OW24259   3.371   0.887   1.294 -0.4616 -0.0634  0.9180
 4267SOL    HW124260   3.326   0.806   1.317  0.5790 -0.9947 -0.2816
 4267SOL    HW224261   3.430   0.854   1.226  0.2093  2.1034  0.4591
 4268SOL     OW24262   2.806   1.553   8.104 -0.0597 -0.1442  0.3705
 4268SOL    HW124263   2.871   1.538   8.172 -2.0672 -2.5747  1.7859
 4268SOL    HW224264   2.766   1.467   8.090  1.3420 -0.8917  1.0426
 4269SOL     OW24265   2.425   3.039   8.699  0.0796 -0.2350  0.3213
 4269SOL    HW124266   2.434   3.062   8.792 -0.2008  0.6847  0.1168
 4269SOL    HW224267   2.514   3.040   8.665 -0.6244 -1.4496 -1.5642
 4270SOL     OW24268   4.166   2.410  11.909  0.2908 -0.0709  0.1588
 4270SOL    HW124269   4.130   2.377  11.827 -0.7040  0.2425  0.4748
 4270SOL    HW224270   4.081   2.427  11.948  0.2507  1.4257 -0.5795
 4271SOL     OW24271   2.489   0.584  12.325  0.5916 -0.0378 -0.1829
 4271SOL    HW124272   2.480   0.549  12.413  0.6204 -0.0620 -0.1894
 4271SOL    HW224273   2.429   0.523  12.283  1.7360 -2.5983  1.9596
 4272SOL     OW24274   1.709   2.224   6.504  0.6652  0.4168  0.5905
 4272SOL    HW124275   1.796   2.209   6.539  1.4440  1.4415 -0.9260
 4272SOL    HW224276   1.649   2.196   6.574 -1.2229 -0.5718 -1.4347
 4273SOL     OW24277   1.120   3.828   0.966  0.5323 -0.7423  0.2803
 4273SOL    HW124278   1.163   3.914   0.964  0.0066 -0.5516 -2.3207
 4273SOL    HW224279   1.030   3.850   0.988  0.7208  0.8725 -0.5721
 4274SOL     OW24280   3.876   3.007  16.615  0.0161 -0.1040 -0.2608
 4274SOL    HW124281   3.913   3.000  16.527  0.2317  1.0825 -0.2643
 4274SOL    HW224282   3.783   3.020  16.598  0.3159  0.9730 -1.0705
 4275SOL     OW24283   1.786   4.033  14.781 -0.0436 -0.4914 -0.0747
 4275SOL    HW124284   1.798   3.938  14.774  0.2550 -0.5022  0.5631
 4275SOL    HW224285   1.724   4.058  14.712 -0.5841 -0.5396  0.3992
 4276SOL     OW24286   4.239   3.406  12.102 -0.1473 -0.1343 -0.0302
 4276SOL    HW124287   4.307   3.341  12.081 -1.3914 -0.7311 -2.2129
 4276SOL    HW224288   4.156   3.366  12.077  0.0682 -0.4831 -0.1949
 4277SOL     OW24289   1.431   2.057   2.436 -0.3849  0.2532  0.0713
 4277SOL    HW124290   1.519   2.089   2.419  0.8800 -0.7945  4.5796
 4277SOL    HW224291   1.381   2.079   2.357  0.2426  1.1544 -0.0758
 4278SOL     OW24292   2.066   2.460   1.466 -0.0006  0.0123 -0.2660
 4278SOL    HW124293   2.059   2.365   1.457  0.1836 -0.2046  1.7555
 4278SOL    HW224294   2.108   2.460   1.552 -0.2003 -1.0009 -0.1749
 4279SOL     OW24295   0.053   2.927   7.824 -0.1934 -0.0877  0.0588
 4279SOL    HW124296   0.066   2.951   7.916  4.1282 -0.1569 -0.5467
 4279SOL    HW224297   0.113   2.853   7.820 -0.6094 -0.4707  0.9536
 4280SOL     OW24298   0.650   2.593  12.973  0.5371 -0.1457  0.1483
 4280SOL    HW124299   0.676   2.504  12.950  1.6200  0.5406 -1.2541
 4280SOL    HW224300   0.734   2.635  12.960  0.3473  0.2757  0.2918
 4281SOL     OW24301   0.709   1.171  11.857  0.1112 -0.0824 -0.1740
 4281SOL    HW124302   0.684   1.141  11.944 -1.7397  1.9027 -0.0063
 4281SOL    HW224303   0.693   1.262  11.883 -0.9323  0.2294 -1.8821
 4282SOL     OW24304   4.675   2.201  17.026  0.1664  0.1387  0.3844
 4282SOL    HW124305   4.590   2.239  17.051  0.2308  0.4234  0.1672
 4282SOL    HW224306   4.658   2.107  17.033 -1.9292  0.5081  0.4528
 4283SOL     OW24307   3.730   0.806  10.687 -0.2996  0.1047  0.0068
 4283SOL    HW124308   3.782   0.770  10.759 -0.4912 -1.0719 -0.4417
 4283SOL    HW224309   3.667   0.735  10.677  1.2528 -1.3301  0.2532
 4284SOL     OW24310   4.098   0.152   4.620  0.6398 -0.4174 -0.3242
 4284SOL    HW124311   4.159   0.208   4.668 -0.8746  0.8667  0.1141
 4284SOL    HW224312   4.083   0.208   4.543  2.0832 -1.4079 -1.3287
 4285SOL     OW24313   1.999   2.007   7.496 -0.0151 -0.3656  0.2584
 4285SOL    HW124314   1.994   2.099   7.522 -0.0876 -0.2775 -0.0699
 4285SOL    HW224315   2.047   1.983   7.575  1.1891  0.6613 -0.1578
 4286SOL     OW24316   4.299   1.472   3.487 -0.4275  0.2552  0.1062
 4286SOL    HW124317   4.281   1.423   3.567 -1.8537 -1.5338 -1.3004
 4286SOL    HW224318   4.235   1.433   3.428  0.3199 -0.4856 -0.2241
 4287SOL     OW24319   0.836   3.909   9.331 -0.0809  0.1282 -0.3164
 4287SOL    HW124320   0.766   3.870   9.382  1.8153 -2.3727  0.4032
 4287SOL    HW224321   0.844   3.832   9.275 -1.3659  0.1567 -0.5341
 4288SOL     OW24322   4.552   1.511  14.968  0.3076  0.0428 -0.0537
 4288SOL    HW124323   4.599   1.462  15.036 -1.3615 -1.0375  0.3048
 4288SOL    HW224324   4.592   1.478  14.887  0.8902 -1.2457  0.7477
 4289SOL     OW24325   3.872   2.475   3.068  0.2063 -0.1589 -0.1652
 4289SOL    HW124326   3.870   2.570   3.060 -0.3498 -0.4433 -3.1628
 4289SOL    HW224327   3.962   2.454   3.041  0.5369  1.3200 -0.2160
 4290SOL     OW24328   2.898   1.440  11.531 -0.0996 -0.0475 -1.0866
 4290SOL    HW124329   2.868   1.380  11.462 -1.0181 -1.2955  0.4238
 4290SOL    HW224330   2.836   1.511  11.511  0.5999  0.8783  0.0017
 4291SOL     OW24331   2.627   0.698  11.749  0.7809 -0.1341 -0.1241
 4291SOL    HW124332   2.586   0.634  11.691  2.9465 -3.0011  1.5090
 4291SOL    HW224333   2.699   0.728  11.693  1.1229 -0.8751 -0.0766
 4292SOL     OW24334   1.619   4.644  14.798 -0.3863 -0.1232  0.1532
 4292SOL    HW124335   1.541   4.604  14.836  0.3025 -0.1016  1.5961
 4292SOL    HW224336   1.603   0.008  14.830 -0.3526 -0.2015  0.3874
 4293SOL     OW24337   4.010   2.087   8.759 -0.0295 -0.1442 -0.1009
 4293SOL    HW124338   4.073   2.017   8.743 -2.0408 -1.8900 -0.2841
 4293SOL    HW224339   4.043   2.147   8.691  0.6375 -2.6253 -1.9645
 4294SOL     OW24340   4.253   2.075   6.822 -0.2897  0.2252 -0.3329
 4294SOL    HW124341   4.174   2.129   6.825 -0.8730 -0.6877  0.6574
 4294SOL    HW224342   4.294   2.069   6.908 -1.7658  2.4373  0.5113
 4295SOL     OW24343   4.557   2.983  10.954  0.0933  0.3431  0.4106
 4295SOL    HW124344   4.561   2.922  11.027 -1.9966  1.7829  1.7028
 4295SOL    HW224345   4.543   2.932  10.874  1.2148  1.3791 -0.4554
 4296SOL     OW24346   1.812   2.687   2.128 -0.2770  0.5046 -0.2827
 4296SOL    HW124347   1.762   2.630   2.185 -2.5840  3.6715  0.8628
 4296SOL    HW224348   1.852   2.748   2.190 -1.2211  1.1859 -0.3462
 4297SOL     OW24349   1.465   0.966  13.949  0.2075 -0.1852 -0.0795
 4297SOL    HW124350   1.415   0.978  13.869  1.6953 -1.6614 -1.2425
 4297SOL    HW224351   1.453   0.872  13.964  0.3407 -0.6542 -3.0022
 4298SOL     OW24352   2.361   0.482  10.281  0.5517 -0.1041 -0.3286
 4298SOL    HW124353   2.337   0.449  10.194 -0.4019 -2.5929  0.8673
 4298SOL    HW224354   2.336   0.574  10.279 -0.9865 -0.5452 -1.2948
 4299SOL     OW24355   1.919   0.750   4.215 -0.6077  0.7636 -0.1221
 4299SOL    HW124356   1.877   0.671   4.248 -0.2894 -0.1927 -1.9965
 4299SOL    HW224357   2.006   0.729   4.179 -1.0054  0.4596 -0.9014
 4300SOL     OW24358   4.069   2.605   5.691  0.2388  0.6454  0.0405
 4300SOL    HW124359   4.079   2.694   5.657  0.5158  0.4083 -0.4947
 4300SOL    HW224360   4.092   2.547   5.619  0.2760 -1.5389  1.7872
 4301SOL     OW24361   4.320   1.238   7.284 -0.3456 -0.1554  0.1711
 4301SOL    HW124362   4.390   1.241   7.219 -1.8533  0.4071 -1.4497
 4301SOL    HW224363   4.361   1.269   7.365 -1.0170 -0.5557  0.6631
 4302SOL     OW24364   1.489   1.634   5.466 -0.0688 -0.5016 -0.4427
 4302SOL    HW124365   1.460   1.547   5.438 -1.0874 -0.3898  0.2681
 4302SOL    HW224366   1.462   1.688   5.391  1.2520 -0.8043 -1.1428
 4303SOL     OW24367   2.060   0.931   7.067  0.0392  0.4670 -0.0168
 4303SOL    HW124368   2.011   0.937   7.149 -0.3506  1.6559 -0.3353
 4303SOL    HW224369   2.066   0.836   7.056 -0.5206  0.2532  1.5179
 4304SOL     OW24370   3.158   2.110   1.471 -0.5646 -0.5401 -0.9557
 4304SOL    HW124371   3.117   2.082   1.553  1.3986  0.7947  0.4976
 4304SOL    HW224372   3.119   2.039   1.421 -0.3919 -1.1850 -0.1665
 4305SOL     OW24373   0.612   0.262   2.015 -0.2855 -0.1823 -0.5371
 4305SOL    HW124374   0.566   0.178   2.023 -1.5067  0.5947  0.4790
 4305SOL    HW224375   0.697   0.219   2.010  0.0660  0.5581 -0.7720
 4306SOL     OW24376   3.846   4.546   7.045  0.6216 -0.4907  0.3207
 4306SOL    HW124377   3.758   4.514   7.031  1.4657 -1.6579 -2.2412
 4306SOL    HW224378   3.845   4.615   6.978 -1.0870  0.0576  0.9113
 4307SOL     OW24379   3.673   4.453   2.828  0.1049  0.1329 -0.0807
 4307SOL    HW124380   3.668   4.504   2.909 -0.3815 -0.0189 -0.0174
 4307SOL    HW224381   3.681   4.364   2.862  1.8106 -0.2698 -1.5087
 4308SOL     OW24382   1.569   0.601   1.014 -0.5930  0.1826  0.1046
 4308SOL    HW124383   1.485   0.638   1.044  0.5329  3.6677 -1.0551
 4308SOL    HW224384   1.599   0.681   0.970 -2.8103  2.1374  2.1332
 4309SOL     OW24385   3.446   4.406   7.515 -0.0016  0.1526  0.1207
 4309SOL    HW124386   3.483   4.493   7.500  3.7942 -1.1906  1.6290
 4309SOL    HW224387   3.524   4.351   7.528 -1.2330 -1.2335  1.7166
 4310SOL     OW24388   0.127   2.494   1.846  0.2872 -0.8578 -0.0469
 4310SOL    HW124389   0.114   2.538   1.762  0.6382 -0.0449  0.3339
 4310SOL    HW224390   0.222   2.490   1.855  0.0223 -1.1141  2.7658
 4311SOL     OW24391   4.011   2.210  17.353 -0.9161 -0.2512 -0.5396
 4311SOL    HW124392   4.099   2.208  17.317  0.0442  1.5282  1.6786
 4311SOL    HW224393   4.001   2.302  17.378 -2.5403 -0.3051 -0.9858
 4312SOL     OW24394   0.460   3.887   3.999  0.3411  0.0741  0.0175
 4312SOL    HW124395   0.494   3.843   4.078  0.9053  0.4058 -0.0444
 4312SOL    HW224396   0.530   3.860   3.940  1.4517  0.4553  1.1593
 4313SOL     OW24397   2.258   0.563  14.779 -0.4036 -0.2122 -0.1991
 4313SOL    HW124398   2.336   0.592  14.826  0.0613 -0.1253 -1.0295
 4313SOL    HW224399   2.184   0.609  14.820 -0.7122 -0.9616  0.0755
 4314SOL     OW24400   1.203   4.541  11.546 -0.4857  0.3469 -0.1164
 4314SOL    HW124401   1.202   4.522  11.640 -2.2296  0.3638 -0.1184
 4314SOL    HW224402   1.227   4.634  11.546 -0.6727  0.3962 -0.3196
 4315SOL     OW24403   1.442   3.720   6.331  0.1212 -0.5286  0.0311
 4315SOL    HW124404   1.487   3.726   6.247 -1.8929 -2.5170 -1.1852
 4315SOL    HW224405   1.489   3.642   6.357 -0.4815 -1.4438 -1.6135
 4316SOL     OW24406   3.584   4.697   8.339  0.8601  0.2286  0.1627
 4316SOL    HW124407   3.616   0.042   8.396  1.6509  0.8081 -0.9772
 4316SOL    HW224408   3.519   0.017   8.285  0.2501  0.1313  0.8120
 4317SOL     OW24409   3.605   4.431  14.151  0.1005  0.4040 -0.5590
 4317SOL    HW124410   3.562   4.487  14.087 -0.7115 -0.6739 -0.9670
 4317SOL    HW224411   3.607   4.486  14.229 -2.0151 -0.4587  0.1069
 4318SOL     OW24412   2.983   3.831   6.052 -0.0238  0.0567 -0.2953
 4318SOL    HW124413   2.944   3.757   6.099  0.9564 -0.0980  0.2676
 4318SOL    HW224414   3.060   3.795   6.009  0.3842 -0.6460  1.0052
 4319SOL     OW24415   2.590   0.691   3.147  0.1375 -0.3362  0.3377
 4319SOL    HW124416   2.537   0.769   3.162 -1.9459 -1.9802  1.5055
 4319SOL    HW224417   2.679   0.725   3.138 -0.2641  1.0201  1.4798
 4320SOL     OW24418   1.354   0.566   3.869 -0.2134 -0.1610 -0.1170
 4320SOL    HW124419   1.302   0.579   3.789  1.0250  1.5553 -0.6566
 4320SOL    HW224420   1.412   0.642   3.872  0.9962 -1.0577 -1.0076
 4321SOL     OW24421   3.024   2.903   5.626  0.1582 -0.1818 -0.3418
 4321SOL    HW124422   2.948   2.926   5.574  0.4602 -1.2058 -1.2418
 4321SOL    HW224423   3.091   2.918   5.559  1.2310  3.1923  1.4556
 4322SOL     OW24424   2.579   3.659   6.461  0.1432  0.1975 -0.2822
 4322SOL    HW124425   2.504   3.617   6.419 -0.2372  0.7613 -0.1514
 4322SOL    HW224426   2.541   3.678   6.546  0.0558 -0.7986 -0.0958
 4323SOL     OW24427   3.833   0.657   8.054  0.1841  0.4200  0.5029
 4323SOL    HW124428   3.854   0.567   8.076 -1.5172 -0.3016 -0.9071
 4323SOL    HW224429   3.739   0.656   8.038  0.0336  1.1910  1.3191
 4324SOL     OW24430   3.516   0.758  14.176 -0.1410  0.0084  0.2991
 4324SOL    HW124431   3.557   0.671  14.171 -0.8739 -0.4078  1.4126
 4324SOL    HW224432   3.488   0.750  14.267  0.3431 -0.7221  0.3822
 4325SOL     OW24433   3.625   0.305   5.692 -0.3367  0.2974 -0.2333
 4325SOL    HW124434   3.615   0.305   5.597 -0.5001  0.8774 -0.2183
 4325SOL    HW224435   3.679   0.382   5.711  0.9570 -0.2130 -1.8909
 4326SOL     OW24436   0.137   2.212  16.833 -0.7381  0.8929 -0.2527
 4326SOL    HW124437   0.084   2.224  16.912  0.5804 -0.5309  0.8595
 4326SOL    HW224438   0.062   2.222  16.775 -0.7827 -2.6716 -0.7882
 4327SOL     OW24439   0.100   2.713   8.169 -0.2204  0.0689  0.1336
 4327SOL    HW124440   0.013   2.710   8.208 -2.0374  2.5467 -3.7100
 4327SOL    HW224441   0.158   2.679   8.237  0.7741 -1.2022 -1.3533
 4328SOL     OW24442   3.695   1.810   5.544  0.1067 -0.2305 -0.2065
 4328SOL    HW124443   3.616   1.789   5.593  0.9469  1.7840  1.9929
 4328SOL    HW224444   3.757   1.777   5.608  0.9812  2.3104  0.2798
 4329SOL     OW24445   0.602   1.606  16.499  0.3685  0.4848 -0.6805
 4329SOL    HW124446   0.532   1.669  16.512  0.1045 -0.1638  1.0135
 4329SOL    HW224447   0.677   1.662  16.519  1.3685 -0.8691 -0.5844
 4330SOL     OW24448   3.950   0.327  13.291  0.1724 -0.4761  0.1453
 4330SOL    HW124449   3.924   0.416  13.265 -0.1379 -0.3937  0.7321
 4330SOL    HW224450   4.015   0.311  13.222 -1.7002  0.4220 -1.8203
 4331SOL     OW24451   2.696   0.139   7.183  0.3778 -0.5716 -0.1468
 4331SOL    HW124452   2.674   0.210   7.244 -0.3181 -1.0743  0.1872
 4331SOL    HW224453   2.624   0.140   7.120 -1.3275  0.2283  1.8136
 4332SOL     OW24454   1.003   4.619  12.895  0.1910  0.2241 -0.7373
 4332SOL    HW124455   0.995   4.666  12.979  0.0054 -1.6886  0.3025
 4332SOL    HW224456   1.017   4.693  12.836 -1.3772 -1.8750 -3.6722
 4333SOL     OW24457   1.034   0.701   6.943 -0.5025  0.1352  0.3447
 4333SOL    HW124458   1.020   0.745   6.859  1.5275 -0.3687 -0.2636
 4333SOL    HW224459   1.099   0.762   6.979  1.5633 -2.6407  1.3091
 4334SOL     OW24460   0.627   1.449   9.098  0.7302 -0.1362 -0.7137
 4334SOL    HW124461   0.684   1.466   9.173  1.6925 -2.4782 -0.9146
 4334SOL    HW224462   0.553   1.416   9.150 -0.6173 -0.9502 -3.1132
 4335SOL     OW24463   2.087   1.956   8.474 -0.4495  0.2689 -0.5040
 4335SOL    HW124464   2.057   1.873   8.437 -0.2109 -0.2272  0.4098
 4335SOL    HW224465   2.025   2.011   8.427 -0.6841 -0.1922 -0.7268
 4336SOL     OW24466   0.480   3.805   7.794 -0.1156  0.0887  0.2248
 4336SOL    HW124467   0.434   3.878   7.835 -0.7562  1.0210 -2.1553
 4336SOL    HW224468   0.461   3.822   7.701  0.3773 -0.2263  0.0685
 4337SOL     OW24469   0.365   1.820   8.282  0.4738  0.4206 -0.0720
 4337SOL    HW124470   0.350   1.737   8.237 -0.3332  0.7800 -0.4710
 4337SOL    HW224471   0.409   1.869   8.212  2.9217  0.1193  1.2496
 4338SOL     OW24472   0.349   0.593   7.579  0.3827 -0.1543 -0.3262
 4338SOL    HW124473   0.396   0.519   7.541  0.1433 -0.6003  0.2556
 4338SOL    HW224474   0.298   0.563   7.654 -0.0999 -2.3052 -1.5390
 4339SOL     OW24475   0.326   4.194   5.915  0.7325 -0.3240  0.7494
 4339SOL    HW124476   0.389   4.122   5.911  1.4893  0.4323 -1.1018
 4339SOL    HW224477   0.375   4.270   5.882 -0.0587  0.5451  1.6052
 4340SOL     OW24478   2.468   0.062  16.913  0.4575  0.5852 -0.1663
 4340SOL    HW124479   2.515   0.029  16.989 -0.2642  0.7744  0.3638
 4340SOL    HW224480   2.385   0.025  16.945  1.4760 -0.7541  0.9313
 4341SOL     OW24481   4.472   3.187   4.506 -0.0436  0.4661 -0.4016
 4341SOL    HW124482   4.562   3.166   4.531  0.3113  0.5996 -1.5615
 4341SOL    HW224483   4.428   3.177   4.590  2.1571 -1.3081  0.5353
 4342SOL     OW24484   4.679   2.486  11.734 -0.1163 -0.2171  0.5597
 4342SOL    HW124485   4.588   2.465  11.758  0.0208  1.0271  2.2047
 4342SOL    HW224486   4.722   2.405  11.763 -0.7487 -0.5727  0.5067
 4343SOL     OW24487   1.062   4.486   3.667  0.3108  0.1625 -0.0376
 4343SOL    HW124488   1.063   4.392   3.651 -1.2068  0.4871 -1.9982
 4343SOL    HW224489   1.008   4.525   3.597 -0.3480  0.5422  0.6757
 4344SOL     OW24490   0.494   4.414  15.210  0.0508 -0.3463 -0.8570
 4344SOL    HW124491   0.488   4.492  15.265  1.2325 -0.5155 -0.4961
 4344SOL    HW224492   0.403   4.410  15.183 -0.7589  1.0995  1.6692
 4345SOL     OW24493   1.729   3.559   7.907 -0.9426 -0.3678  0.1792
 4345SOL    HW124494   1.639   3.538   7.882  0.1516 -4.2336 -0.5987
 4345SOL    HW224495   1.750   3.479   7.956 -1.0813 -0.0216  0.8108
 4346SOL     OW24496   0.835   1.468  17.348 -0.3433 -0.3090 -0.2420
 4346SOL    HW124497   0.789   1.406  17.291 -0.3790  0.2630 -0.8294
 4346SOL    HW224498   0.860   1.418  17.426 -1.8330  1.2906  1.2582
 4347SOL     OW24499   2.267   3.473  12.257 -0.6098  0.5054 -0.2949
 4347SOL    HW124500   2.242   3.552  12.305 -1.3431 -0.2376  0.5522
 4347SOL    HW224501   2.360   3.488  12.241 -0.2457 -1.9737 -0.5122
 4348SOL     OW24502   1.019   3.832  11.189 -0.4585 -0.1388 -0.1882
 4348SOL    HW124503   1.015   3.895  11.118 -1.7517  1.2524  1.1143
 4348SOL    HW224504   1.002   3.750  11.142 -1.7344 -0.8254  1.4552
 4349SOL     OW24505   1.458   4.224   2.052  0.1311 -0.2490  0.2679
 4349SOL    HW124506   1.422   4.189   1.970  1.8973 -1.2801 -0.0621
 4349SOL    HW224507   1.531   4.275   2.018 -0.2396 -0.8862 -1.4978
 4350SOL     OW24508   0.755   3.727   3.410 -0.2278  0.2716  0.6272
 4350SOL    HW124509   0.829   3.762   3.459  0.9794  1.1307 -1.8723
 4350SOL    HW224510   0.714   3.679   3.482  0.5442 -0.8298  0.3352
 4351SOL     OW24511   3.741   4.600  12.943 -0.5622 -0.2963  0.0063
 4351SOL    HW124512   3.778   4.670  12.997 -1.3180  1.3352 -1.5855
 4351SOL    HW224513   3.760   4.522  12.996 -0.5786  0.0767  0.5625
 4352SOL     OW24514   2.250   2.002   6.269 -0.2056 -0.0543 -0.8039
 4352SOL    HW124515   2.289   2.073   6.320  0.3492 -1.3707  0.6035
 4352SOL    HW224516   2.197   1.962   6.338 -3.3359  1.4862 -2.3434
 4353SOL     OW24517   2.344   0.791  10.009 -0.4776 -0.3322 -0.4168
 4353SOL    HW124518   2.308   0.875  10.037 -0.4364 -0.6091  0.4591
 4353SOL    HW224519   2.390   0.808   9.927  0.4023  1.7232  0.5046
 4354SOL     OW24520   1.669   4.678   1.461  0.2742 -0.1553  0.3820
 4354SOL    HW124521   1.616   4.608   1.498 -1.7661  0.7648 -0.8108
 4354SOL    HW224522   1.600   4.712   1.405 -0.4721 -0.2814  1.2173
 4355SOL     OW24523   1.849   3.732   7.247 -0.5547 -0.2856  0.4274
 4355SOL    HW124524   1.835   3.673   7.173 -1.9783  0.9263 -0.2898
 4355SOL    HW224525   1.793   3.704   7.320  2.0029 -1.2175  2.0011
 4356SOL     OW24526   1.911   0.145   8.678  0.1785  0.1179  0.5970
 4356SOL    HW124527   1.915   0.078   8.609  0.5876  0.9838 -0.2092
 4356SOL    HW224528   1.997   0.124   8.714  1.7583  3.3570 -1.3581
 4357SOL     OW24529   2.127   3.825   4.500  0.2306  0.2639  0.4459
 4357SOL    HW124530   2.164   3.876   4.571 -1.0016  2.1146 -0.2385
 4357SOL    HW224531   2.038   3.860   4.500 -1.6478 -4.5236 -1.5849
 4358SOL     OW24532   3.788   1.272   8.198  0.1497 -0.0243  0.7069
 4358SOL    HW124533   3.878   1.298   8.177 -0.2205 -0.4870 -1.5120
 4358SOL    HW224534   3.737   1.342   8.158  2.3588  1.5746  0.6534
 4359SOL     OW24535   1.585   0.235   2.491  0.7916  0.2429 -0.3670
 4359SOL    HW124536   1.566   0.204   2.402  1.5404 -1.7449  0.1823
 4359SOL    HW224537   1.540   0.319   2.501  2.1581  0.5805  2.7649
 4360SOL     OW24538   3.782   0.200   2.099  0.2967 -0.6680  0.2819
 4360SOL    HW124539   3.712   0.253   2.137  1.2387 -0.8227  2.1939
 4360SOL    HW224540   3.733   0.152   2.033  0.0213 -0.3652  0.2646
 4361SOL     OW24541   2.724   4.631  14.503 -0.0114 -0.3410  0.6695
 4361SOL    HW124542   2.665   4.620  14.428  0.3991 -1.8747  0.5632
 4361SOL    HW224543   2.797   4.678  14.464 -0.0737 -1.6882 -1.0870
 4362SOL     OW24544   3.283   1.813   5.421 -0.3266 -0.1867  0.4318
 4362SOL    HW124545   3.307   1.824   5.513  0.3007  2.0534 -0.0028
 4362SOL    HW224546   3.235   1.894   5.407  2.4575  1.2557 -0.5722
 4363SOL     OW24547   2.682   1.592   7.669  0.1050 -0.4996  0.4737
 4363SOL    HW124548   2.710   1.546   7.590  0.6326  3.0368 -1.3984
 4363SOL    HW224549   2.594   1.555   7.673  0.0412 -0.5097 -1.1178
 4364SOL     OW24550   2.440   1.816   0.796 -0.2494 -0.0607  0.5649
 4364SOL    HW124551   2.361   1.804   0.744 -0.3103 -1.1757  0.9194
 4364SOL    HW224552   2.493   1.746   0.759 -1.3743  0.6149 -2.3478
 4365SOL     OW24553   2.865   1.203   3.901  0.3170 -0.2293  0.2538
 4365SOL    HW124554   2.921   1.159   3.965  0.6706  0.6164  0.5260
 4365SOL    HW224555   2.929   1.265   3.865 -1.7914  0.7828 -1.7623
 4366SOL     OW24556   4.002   2.816   3.023  0.1552 -0.0813  0.3981
 4366SOL    HW124557   3.982   2.862   3.105  0.2846 -1.6813  1.3387
 4366SOL    HW224558   3.919   2.789   2.986 -0.6436  2.8592  0.1211
 4367SOL     OW24559   0.021   2.597   7.718 -0.2860  0.5486  0.2763
 4367SOL    HW124560   0.067   2.637   7.792  1.0160 -1.3860  0.5033
 4367SOL    HW224561   0.023   2.505   7.745  1.7758  0.7047  0.6186
 4368SOL     OW24562   4.239   1.168   3.463  0.1898 -0.1174  0.4564
 4368SOL    HW124563   4.155   1.207   3.438  0.5361 -0.3288 -1.0310
 4368SOL    HW224564   4.225   1.087   3.414  0.6127 -0.1306  0.3597
 4369SOL     OW24565   0.713   0.998   3.881 -0.0243  0.0809 -0.2929
 4369SOL    HW124566   0.807   1.008   3.897  0.1359 -0.3949 -0.9331
 4369SOL    HW224567   0.704   0.907   3.852  1.2025  0.0403 -0.5452
 4370SOL     OW24568   1.003   3.948   1.908  0.0395  1.0318 -0.6348
 4370SOL    HW124569   0.981   4.006   1.981 -0.8781  2.0096 -1.6970
 4370SOL    HW224570   1.096   3.931   1.922  0.0898  0.6364 -1.4634
 4371SOL     OW24571   3.208   4.348   7.123 -0.4412  0.1041 -0.4775
 4371SOL    HW124572   3.154   4.273   7.150 -0.2173  0.0524 -0.1815
 4371SOL    HW224573   3.156   4.382   7.050 -1.1830  1.7913  0.8389
 4372SOL     OW24574   1.602   3.562   2.780  0.5041  0.1471 -0.6425
 4372SOL    HW124575   1.510   3.541   2.767  0.6614 -0.3453 -0.9670
 4372SOL    HW224576   1.608   3.597   2.869 -0.9830 -0.8806 -0.1458
 4373SOL     OW24577   2.608   2.387   1.010 -0.2606  0.4155 -0.3707
 4373SOL    HW124578   2.522   2.353   1.035  0.0842 -0.6480 -0.6708
 4373SOL    HW224579   2.584   2.446   0.938  0.8021  0.2416 -0.8578
 4374SOL     OW24580   1.425   2.654   0.523 -0.1195  0.5288  0.5953
 4374SOL    HW124581   1.334   2.625   0.513  1.0732 -3.7775  2.2742
 4374SOL    HW224582   1.453   2.577   0.573 -0.5028 -1.1212 -1.7455
 4375SOL     OW24583   3.250   0.602   5.420 -0.2849 -0.4025 -0.4742
 4375SOL    HW124584   3.208   0.516   5.423  0.8761 -0.9517  0.2324
 4375SOL    HW224585   3.243   0.626   5.512  1.3674  0.8273 -0.6645
 4376SOL     OW24586   3.648   2.765   4.819  0.1703 -0.0879 -0.2357
 4376SOL    HW124587   3.612   2.677   4.829  0.6069 -0.1001  1.2624
 4376SOL    HW224588   3.569   2.813   4.793  0.6847  0.7665 -0.2069
 4377SOL     OW24589   0.102   2.969   4.040  0.5415 -0.8943 -0.0044
 4377SOL    HW124590   0.020   2.956   3.992  0.8295 -0.4846 -0.6141
 4377SOL    HW224591   0.158   3.018   3.979  1.0764 -1.7694 -0.2202
 4378SOL     OW24592   1.845   3.982   5.708 -0.6880 -0.4196  0.6485
 4378SOL    HW124593   1.799   3.985   5.625 -1.0134  0.0084  0.8447
 4378SOL    HW224594   1.934   3.981   5.673 -0.3671 -5.9425  1.6160
 4379SOL     OW24595   2.119   4.663   6.729 -0.0612 -0.1121 -0.1074
 4379SOL    HW124596   2.133   4.585   6.784  0.8219 -0.5488 -0.9540
 4379SOL    HW224597   2.024   4.663   6.728 -0.0655  0.1908  0.3159
 4380SOL     OW24598   4.132   3.039   7.143 -0.2523  0.1632  0.2488
 4380SOL    HW124599   4.126   3.001   7.055  2.1343  1.3033 -0.4060
 4380SOL    HW224600   4.041   3.068   7.151 -0.3256  0.2881 -0.9982
 4381SOL     OW24601   0.057   3.921   6.865  0.3487  0.4976 -0.4762
 4381SOL    HW124602   0.087   3.943   6.777 -1.2470  1.9268 -0.6587
 4381SOL    HW224603   4.690   3.946   6.873  0.4377  1.1825 -1.5688
 4382SOL     OW24604   3.001   2.160   0.512  0.5841  0.2256  0.1351
 4382SOL    HW124605   3.073   2.193   0.458 -0.2497 -0.9777 -1.7284
 4382SOL    HW224606   2.938   2.229   0.490  1.1200  1.3831  2.2285
 4383SOL     OW24607   3.948   3.617   2.198 -0.7473  0.3521 -0.2667
 4383SOL    HW124608   3.927   3.533   2.158 -0.5080  0.1335  0.0713
 4383SOL    HW224609   4.013   3.589   2.262 -1.1880 -0.3805 -0.1411
 4384SOL     OW24610   0.640   3.408   6.593 -0.3427  0.5204  0.1201
 4384SOL    HW124611   0.732   3.391   6.572 -0.4219  0.7185 -0.3874
 4384SOL    HW224612   0.610   3.325   6.557 -1.5652  1.7667 -1.7604
 4385SOL     OW24613   4.199   0.650   5.891 -0.3926  0.5156  0.4323
 4385SOL    HW124614   4.160   0.711   5.828 -1.0183 -0.6641 -0.3232
 4385SOL    HW224615   4.141   0.667   5.965  1.1371  2.3016  1.2052
 4386SOL     OW24616   2.491   4.094   3.330  0.2168  0.2761  0.1783
 4386SOL    HW124617   2.489   4.002   3.353  3.2970  0.5552  1.5898
 4386SOL    HW224618   2.481   4.090   3.234 -1.9383 -0.5207  0.4500
 4387SOL     OW24619   4.550   4.694   4.812 -0.1809 -0.2365 -0.3109
 4387SOL    HW124620   4.556   4.603   4.783 -2.2919 -0.3737 -0.2971
 4387SOL    HW224621   4.576   0.001   4.726  3.0747  2.3245  1.6051
 4388SOL     OW24622   0.971   1.962   4.165  0.0235  0.5097 -0.5272
 4388SOL    HW124623   0.926   1.972   4.081 -1.3995  5.2571  0.7975
 4388SOL    HW224624   0.958   2.045   4.211  2.8943  0.4459  0.4251
 4389SOL     OW24625   0.740   2.782   6.504 -0.8756 -0.0522 -0.4163
 4389SOL    HW124626   0.723   2.833   6.584  0.0214 -1.1261  0.4563
 4389SOL    HW224627   0.834   2.798   6.503 -0.2328 -3.4226  3.5738
 4390SOL     OW24628   2.248   3.803   8.687  0.2522 -0.1607  0.2657
 4390SOL    HW124629   2.179   3.867   8.670  0.0920 -0.1701  0.8989
 4390SOL    HW224630   2.318   3.863   8.714  0.5763 -1.2350  1.8225
 4391SOL     OW24631   1.117   4.447   6.013 -0.5658  0.1321  0.1829
 4391SOL    HW124632   1.051   4.501   6.056  0.4550  0.4971  1.2829
 4391SOL    HW224633   1.133   4.500   5.934  0.6681 -0.5061  0.0078
 4392SOL     OW24634   4.213   1.184   7.858 -0.4148  0.1149 -0.3681
 4392SOL    HW124635   4.152   1.129   7.908  0.3870  0.2680  0.7717
 4392SOL    HW224636   4.294   1.177   7.908 -0.3770 -0.2332 -0.4766
 4393SOL     OW24637   3.296   0.730   6.782  0.3247  0.0407  0.5641
 4393SOL    HW124638   3.299   0.820   6.752  0.5314  0.3995  1.6460
 4393SOL    HW224639   3.357   0.680   6.728  0.6846  1.6930 -0.5426
 4394SOL     OW24640   3.410   1.318   2.840  0.0852 -0.9934 -0.0139
 4394SOL    HW124641   3.315   1.331   2.852  0.3674  0.0522  1.1273
 4394SOL    HW224642   3.427   1.391   2.780  1.9511  0.6115  2.5055
 4395SOL     OW24643   1.546   1.501  10.116 -0.1546 -0.0474 -0.9593
 4395SOL    HW124644   1.537   1.575  10.055 -1.1496 -0.0846 -0.8650
 4395SOL    HW224645   1.548   1.548  10.199  0.4315  1.0376 -1.5813
 4396SOL     OW24646   3.468   3.796   5.315 -0.1451 -0.3004  0.4338
 4396SOL    HW124647   3.427   3.878   5.288  0.4520 -0.5524 -1.2340
 4396SOL    HW224648   3.493   3.762   5.229 -0.3854  1.7145 -0.4405
 4397SOL     OW24649   1.393   0.047  11.485 -0.7830 -1.0087 -0.4047
 4397SOL    HW124650   1.431   4.715  11.418  1.8112 -0.3009  0.4690
 4397SOL    HW224651   1.357   0.120  11.434  0.2738  0.5946  1.1572
 4398SOL     OW24652   0.492   0.844   0.839 -0.3842  0.1446  0.2132
 4398SOL    HW124653   0.583   0.816   0.852 -0.8021 -0.8735  0.9287
 4398SOL    HW224654   0.456   0.781   0.778  1.4455 -1.5005  0.8339
 4399SOL     OW24655   2.882   2.997   1.998 -0.1973  0.0597  0.3346
 4399SOL    HW124656   2.947   3.051   2.043  0.5995 -1.3295  0.8491
 4399SOL    HW224657   2.928   2.921   1.963 -1.3896 -1.4576  2.0656
 4400SOL     OW24658   1.555   1.600  17.555 -0.3079  0.0879 -0.1745
 4400SOL    HW124659   1.502   1.555  17.621  1.7408 -1.6546  0.2749
 4400SOL    HW224660   1.563   1.531  17.489  0.4361 -0.1088  0.1234
 4401SOL     OW24661   2.535   2.542  10.686 -0.4094 -0.4102 -0.0697
 4401SOL    HW124662   2.520   2.637  10.678 -0.0843 -0.0294  3.9243
 4401SOL    HW224663   2.496   2.519  10.770 -1.1764 -0.0632 -0.3325
 4402SOL     OW24664   4.061   2.359   2.687  0.3542 -0.2369  0.4026
 4402SOL    HW124665   4.053   2.420   2.613 -0.4175  0.0102  0.6888
 4402SOL    HW224666   4.000   2.292   2.656 -2.0456  0.5133  3.5116
 4403SOL     OW24667   3.036   1.200   6.670 -0.2291  0.1680 -0.1930
 4403SOL    HW124668   3.012   1.193   6.578 -0.2549 -0.6162 -0.1256
 4403SOL    HW224669   2.959   1.154   6.704  0.4762 -1.6128 -0.9895
 4404SOL     OW24670   0.149   4.405   7.050 -0.2743 -0.1944 -0.0784
 4404SOL    HW124671   0.227   4.372   7.007 -0.5460 -1.2515  0.2350
 4404SOL    HW224672   0.080   4.360   7.002 -0.4844 -1.1146  1.1112
 4405SOL     OW24673   0.831   1.368   6.673  0.6282 -0.2145 -0.1332
 4405SOL    HW124674   0.847   1.459   6.647 -2.3895  0.0009 -1.1697
 4405SOL    HW224675   0.835   1.330   6.585 -1.0060  1.9388 -1.1253
 4406SOL     OW24676   2.867   1.241   4.852 -0.3741 -0.2639  0.0286
 4406SOL    HW124677   2.845   1.148   4.853 -0.0687 -0.3349  1.6635
 4406SOL    HW224678   2.891   1.248   4.760 -0.9138 -0.5531 -0.1378
 4407SOL     OW24679   4.664   3.614   2.550 -0.3030 -0.6640  0.4780
 4407SOL    HW124680   4.641   3.690   2.496  1.1236 -0.6503 -0.1062
 4407SOL    HW224681   4.580   3.589   2.587 -1.1689  0.4724 -0.6858
 4408SOL     OW24682   4.196   1.977   2.028  0.5269  0.2202  0.1588
 4408SOL    HW124683   4.241   2.060   2.016  1.0083  0.0512  0.8088
 4408SOL    HW224684   4.221   1.928   1.949 -1.4843 -2.1085  0.9536
 4409SOL     OW24685   4.200   2.692   6.467 -0.5316  0.3965 -0.5060
 4409SOL    HW124686   4.254   2.633   6.520 -3.0445 -0.3134  1.2598
 4409SOL    HW224687   4.225   2.657   6.382 -0.7363 -1.0413  0.0241
 4410SOL     OW24688   2.999   0.263  17.506 -0.0788 -0.0546 -0.4618
 4410SOL    HW124689   3.028   0.232  17.592 -0.3768 -0.5191 -0.5265
 4410SOL    HW224690   2.984   0.354  17.531 -3.3735 -1.0590  1.1402
 4411SOL     OW24691   2.711   2.806   4.738  0.4598  0.3258  0.0191
 4411SOL    HW124692   2.768   2.831   4.665  0.8380  0.2722  0.3024
 4411SOL    HW224693   2.773   2.803   4.810 -1.7492 -0.9577  1.8854
 4412SOL     OW24694   2.043   4.140  16.068 -0.5311 -0.5100  0.1823
 4412SOL    HW124695   2.095   4.098  16.137 -0.8917  2.0627  1.9896
 4412SOL    HW224696   2.104   4.143  15.994  1.7088  1.6638  2.1217
 4413SOL     OW24697   0.108   3.907   9.157 -0.0227 -0.0327  0.1446
 4413SOL    HW124698   0.027   3.956   9.174 -0.1819 -0.3679  0.3497
 4413SOL    HW224699   0.068   3.820   9.147 -1.4699  0.3826  2.3308
 4414SOL     OW24700   2.139   0.215   0.272  0.0386 -0.1221  0.1280
 4414SOL    HW124701   2.216   0.222   0.214 -1.3840 -1.3231 -1.9079
 4414SOL    HW224702   2.173   0.144   0.327  0.2297  1.7214  2.3907
 4415SOL     OW24703   0.418   1.120   1.041  0.0659 -0.2227 -0.3232
 4415SOL    HW124704   0.493   1.107   1.099  1.1878 -0.0973 -1.7559
 4415SOL    HW224705   0.397   1.027   1.027  2.5187 -1.0328  1.3117
 4416SOL     OW24706   2.316   3.840  11.619  0.2315 -0.4772 -0.5640
 4416SOL    HW124707   2.398   3.825  11.666 -1.6660 -1.0016  2.5631
 4416SOL    HW224708   2.340   3.914  11.563  0.9296 -0.3438 -0.0895
 4417SOL     OW24709   3.967   2.282  14.861 -0.1832 -0.3809  0.1036
 4417SOL    HW124710   3.953   2.376  14.872  1.8759  0.2393 -2.6323
 4417SOL    HW224711   3.990   2.264  14.952  0.4557  0.4500  0.1035
 4418SOL     OW24712   0.551   2.577   3.094  0.5052  0.2143 -0.2608
 4418SOL    HW124713   0.564   2.534   3.010 -0.2212 -1.4181  0.4447
 4418SOL    HW224714   0.527   2.662   3.057 -0.2064  0.5892  1.0393
 4419SOL     OW24715   0.463   3.398  14.199 -0.1498 -0.1037  0.0585
 4419SOL    HW124716   0.552   3.431  14.211 -0.5072  0.1261  2.0948
 4419SOL    HW224717   0.484   3.315  14.156  0.6943 -1.0901  2.3452
 4420SOL     OW24718   1.147   3.917   5.915 -0.7519  0.2228  0.0426
 4420SOL    HW124719   1.142   3.832   5.958 -2.3231  0.0303 -0.5004
 4420SOL    HW224720   1.152   3.978   5.989  0.4796 -1.4930  1.3636
 4421SOL     OW24721   4.312   0.635   8.397  0.7623  0.1530  0.1408
 4421SOL    HW124722   4.334   0.546   8.373  0.0244  0.6847 -2.5617
 4421SOL    HW224723   4.345   0.640   8.487  1.6257 -2.5515 -0.0361
 4422SOL     OW24724   2.825   1.440   0.119  0.3732  0.8202  0.3113
 4422SOL    HW124725   2.902   1.457   0.173  0.4144 -1.6400  1.0169
 4422SOL    HW224726   2.817   1.513   0.058  1.0826 -0.6802 -1.5858
 4423SOL     OW24727   2.757   4.697   5.271  0.0236 -0.4368 -0.5446
 4423SOL    HW124728   2.722   0.038   5.331  1.7857 -1.1547  1.2818
 4423SOL    HW224729   2.684   4.694   5.210 -0.3593 -0.1606 -0.0957
 4424SOL     OW24730   4.225   3.130   5.489 -0.2003  0.2469 -0.1356
 4424SOL    HW124731   4.158   3.078   5.533 -0.7045  1.2300  0.2370
 4424SOL    HW224732   4.291   3.129   5.558 -0.0435  0.9845 -0.2748
 4425SOL     OW24733   4.700   2.230  15.760  0.3715 -0.0792 -0.2568
 4425SOL    HW124734   0.041   2.181  15.810  1.1758  0.9790 -0.3093
 4425SOL    HW224735   4.668   2.292  15.826 -2.5624 -0.6795 -1.1048
 4426SOL     OW24736   2.074   1.585   3.859 -0.5031  0.0963 -0.2865
 4426SOL    HW124737   2.014   1.610   3.929 -0.4360  3.2430 -1.3490
 4426SOL    HW224738   2.141   1.532   3.903  1.3905  2.2263 -0.5866
 4427SOL     OW24739   4.681   3.224   8.344 -0.0215 -0.1896  0.7200
 4427SOL    HW124740   0.001   3.189   8.421 -2.9521 -2.6623  1.3125
 4427SOL    HW224741   4.603   3.269   8.376  0.0392 -2.1318  3.6311
 4428SOL     OW24742   4.625   1.217   3.969 -0.4489 -0.5674 -0.4819
 4428SOL    HW124743   4.662   1.236   3.882 -0.0087 -0.5456 -0.2886
 4428SOL    HW224744   4.531   1.236   3.967 -0.6087 -1.4889 -2.0092
 4429SOL     OW24745   1.283   3.830   7.934 -0.4716  0.1311 -0.1909
 4429SOL    HW124746   1.367   3.864   7.965 -0.2479 -0.6551  0.0597
 4429SOL    HW224747   1.228   3.909   7.935  0.4649  0.7697  1.4933
 4430SOL     OW24748   0.246   4.675  15.054  0.0342  0.1590 -0.1463
 4430SOL    HW124749   0.281   4.679  15.144 -1.7029 -0.5345  0.5524
 4430SOL    HW224750   0.261   4.584  15.029 -0.0847  0.3475 -0.8799
 4431SOL     OW24751   2.152   3.273  15.709  0.5599  0.2387 -0.2966
 4431SOL    HW124752   2.117   3.300  15.625 -0.1849  2.2435  0.6609
 4431SOL    HW224753   2.188   3.186  15.689  0.9307  0.1006  0.9732
 4432SOL     OW24754   1.062   1.211   3.419 -0.3521 -0.5785  0.0843
 4432SOL    HW124755   1.136   1.250   3.464 -0.3443 -2.3887  1.6364
 4432SOL    HW224756   0.990   1.268   3.448  0.6589  1.5920 -1.6660
 4433SOL     OW24757   0.573   3.859   9.222  0.0202  0.0006 -0.6755
 4433SOL    HW124758   0.569   3.951   9.248 -0.4102  0.2732 -1.6818
 4433SOL    HW224759   0.607   3.809   9.296  1.7600  0.4080 -1.1871
 4434SOL     OW24760   4.695   1.573   4.229  0.5655 -0.4643 -0.1048
 4434SOL    HW124761   0.023   1.641   4.188  1.1605 -1.0825 -0.3750
 4434SOL    HW224762   0.010   1.490   4.202  0.6380 -0.1392 -0.9912
 4435SOL     OW24763   1.901   2.696  10.539  0.1576  0.6882 -0.1842
 4435SOL    HW124764   1.927   2.771  10.593 -1.6453 -0.6267  2.5294
 4435SOL    HW224765   1.808   2.699  10.563 -0.2836 -0.1357 -1.8010
 4436SOL     OW24766   2.716   1.605  11.422  0.7568  0.0906 -0.3753
 4436SOL    HW124767   2.676   1.645  11.500  2.1465 -0.0041  0.3939
 4436SOL    HW224768   2.637   1.589  11.371  0.1418 -0.2966  0.7004
 4437SOL     OW24769   1.648   3.470  12.992  0.4891  0.0594  0.4106
 4437SOL    HW124770   1.720   3.500  12.938 -0.6631  0.5372 -0.8677
 4437SOL    HW224771   1.576   3.496  12.934  1.5217 -0.3650 -1.0558
 4438SOL     OW24772   3.161   4.435   3.856 -0.3165 -0.5325  0.3270
 4438SOL    HW124773   3.084   4.419   3.910 -1.0511 -0.2341 -0.6332
 4438SOL    HW224774   3.129   4.515   3.815  0.8745  0.4015  1.1812
 4439SOL     OW24775   2.663   2.093  10.800 -0.5635 -0.2378 -0.2896
 4439SOL    HW124776   2.668   2.157  10.871 -0.1844  1.6267 -2.0081
 4439SOL    HW224777   2.692   2.013  10.844 -0.3585 -0.1900 -0.3389
 4440SOL     OW24778   2.136   0.172   4.381  0.0750 -0.1225  0.0839
 4440SOL    HW124779   2.174   0.242   4.329  4.7617 -0.5351  2.9624
 4440SOL    HW224780   2.051   0.162   4.338  0.0629 -2.9214  0.7461
 4441SOL     OW24781   0.535   3.408   8.841  0.1421 -0.4454  0.9539
 4441SOL    HW124782   0.525   3.503   8.843 -3.0719 -0.7868  0.7858
 4441SOL    HW224783   0.599   3.401   8.912  0.3800  1.8658  0.9570
 4442SOL     OW24784   2.119   1.870  13.456 -0.1028  0.5408  0.1180
 4442SOL    HW124785   2.205   1.888  13.494  0.1119  0.4155 -0.3073
 4442SOL    HW224786   2.101   1.948  13.403  1.6598  0.3851 -0.7169
 4443SOL     OW24787   1.907   4.534  10.223  0.1175 -0.2628  0.0314
 4443SOL    HW124788   1.981   4.596  10.217  0.3210 -0.3923  1.1536
 4443SOL    HW224789   1.949   4.464  10.271  1.9685  0.3247 -0.7153
 4444SOL     OW24790   2.159   2.147   5.646 -0.0193 -0.0366 -0.2073
 4444SOL    HW124791   2.181   2.122   5.556 -0.8265 -1.8169  0.0854
 4444SOL    HW224792   2.246   2.135   5.684  0.6848  0.3051 -1.6737
 4445SOL     OW24793   1.588   3.401   4.378 -0.3763 -0.3171  0.4804
 4445SOL    HW124794   1.637   3.338   4.325 -1.5101 -0.9286  0.1642
 4445SOL    HW224795   1.498   3.392   4.347 -0.6914 -1.1878  1.6413
 4446SOL     OW24796   3.127   3.207  16.859 -0.6324  0.3134 -0.0232
 4446SOL    HW124797   3.212   3.165  16.845 -1.6653 -1.6439 -0.4246
 4446SOL    HW224798   3.082   3.188  16.777 -0.5117 -1.4746  0.3301
 4447SOL     OW24799   3.848   4.276  17.689  0.0147 -0.3559  0.4997
 4447SOL    HW124800   3.880   4.201  17.640 -0.8182 -1.4107  1.5651
 4447SOL    HW224801   3.916   4.277   0.056 -0.4266 -0.1142  0.9392
 4448SOL     OW24802   3.435   4.455   2.386 -0.6525  0.5262  0.3106
 4448SOL    HW124803   3.387   4.516   2.443  0.0599  1.2597  0.1190
 4448SOL    HW224804   3.489   4.404   2.446 -2.0744 -0.4110  0.7990
 4449SOL     OW24805   2.701   1.396   9.076 -0.6864  0.0160  0.1052
 4449SOL    HW124806   2.730   1.488   9.078  0.3114 -0.2706 -0.7978
 4449SOL    HW224807   2.708   1.382   9.170  1.1987 -0.8051 -0.1476
 4450SOL     OW24808   2.935   0.609   5.382 -0.3259  0.0278 -0.4364
 4450SOL    HW124809   2.998   0.547   5.418 -2.1880 -1.2476  0.6266
 4450SOL    HW224810   2.943   0.600   5.287 -0.4807  1.6875 -0.6223
 4451SOL     OW24811   1.688   0.988   2.828 -1.1936  0.3182  0.0087
 4451SOL    HW124812   1.689   0.951   2.740 -2.1133 -0.4276  0.3099
 4451SOL    HW224813   1.623   1.055   2.808 -0.8063  1.6137  3.1583
 4452SOL     OW24814   0.194   0.010   5.354 -0.2065  0.0806 -0.2408
 4452SOL    HW124815   0.285   4.710   5.338  0.5264  2.0700  0.7947
 4452SOL    HW224816   0.160   0.013   5.265  1.2717 -1.2941 -0.8750
 4453SOL     OW24817   1.440   3.025  12.118  0.2463  0.1700 -0.0323
 4453SOL    HW124818   1.423   2.935  12.146 -0.0750  0.3176  0.2585
 4453SOL    HW224819   1.499   3.010  12.044 -1.7114  2.8276 -2.1407
 4454SOL     OW24820   1.515   3.162   7.644  0.1438  0.3354  0.4489
 4454SOL    HW124821   1.588   3.162   7.706 -0.2452  0.1258  0.9053
 4454SOL    HW224822   1.517   3.073   7.610 -1.8143  1.0342 -1.5055
 4455SOL     OW24823   3.359   3.150   7.731 -0.3393 -0.1157  0.1268
 4455SOL    HW124824   3.288   3.152   7.794 -0.4946 -2.5060  0.0112
 4455SOL    HW224825   3.428   3.212   7.754  0.4340 -0.6179 -0.8040
 4456SOL     OW24826   1.500   2.911   7.124  0.1813 -0.4927 -0.2886
 4456SOL    HW124827   1.455   2.828   7.139 -0.2388 -0.4584 -1.3235
 4456SOL    HW224828   1.435   2.955   7.069 -1.2834 -0.5537  1.4168
 4457SOL     OW24829   1.112   0.506   3.660 -0.0956  0.3719  0.1010
 4457SOL    HW124830   1.184   0.457   3.620 -2.8486 -1.8863 -2.0923
 4457SOL    HW224831   1.036   0.481   3.607 -0.4608 -0.9289  1.2444
 4458SOL     OW24832   0.913   1.004   0.029  0.4537  0.3114  0.6059
 4458SOL    HW124833   0.991   0.991   0.083  0.8049 -0.5965 -0.1185
 4458SOL    HW224834   0.936   0.939  17.664 -0.1652 -0.6778  1.3671
 4459SOL     OW24835   2.163   2.186   1.230 -0.5087 -0.2629 -0.2540
 4459SOL    HW124836   2.141   2.169   1.322  1.8296 -2.3170 -0.0814
 4459SOL    HW224837   2.092   2.243   1.200  0.7249 -0.1035 -2.9023
 4460SOL     OW24838   4.340   2.433   3.256  0.0004  0.0564 -0.2536
 4460SOL    HW124839   4.363   2.521   3.224  1.3223 -0.7838 -1.5961
 4460SOL    HW224840   4.424   2.393   3.279 -0.8701 -2.5860 -1.6667
 4461SOL     OW24841   2.342   3.189   1.799 -0.4890 -0.3323 -0.0119
 4461SOL    HW124842   2.298   3.122   1.851 -2.7623  1.5570  0.5045
 4461SOL    HW224843   2.273   3.255   1.795 -0.4965 -0.3682 -0.4985
 4462SOL     OW24844   3.942   3.827   1.515  0.2526 -0.6367  0.1085
 4462SOL    HW124845   3.977   3.834   1.604  0.4281  2.1495 -0.1531
 4462SOL    HW224846   3.967   3.738   1.492 -0.2622 -0.5991 -0.6016
 4463SOL     OW24847   3.721   3.820   5.752  0.2511 -0.1485  0.9065
 4463SOL    HW124848   3.648   3.759   5.766  0.4670 -0.8363 -0.9916
 4463SOL    HW224849   3.686   3.894   5.703 -0.6119 -0.6963  0.7057
 4464SOL     OW24850   0.648   3.261  15.102  0.1470  0.7540 -0.2302
 4464SOL    HW124851   0.667   3.347  15.139  0.2850  0.2141  0.9691
 4464SOL    HW224852   0.556   3.253  15.125 -0.8641 -1.6968 -5.1432
 4465SOL     OW24853   1.952   3.662   6.596 -0.0125  0.1036  0.0746
 4465SOL    HW124854   1.861   3.637   6.613 -0.1605 -0.9542 -2.2418
 4465SOL    HW224855   1.951   3.676   6.501 -0.6258 -0.0278  0.0640
 4466SOL     OW24856   3.973   0.112   5.983  0.3075  0.1152 -0.4105
 4466SOL    HW124857   3.982   0.203   6.012  0.7563 -0.5703  1.6340
 4466SOL    HW224858   3.890   0.088   6.024  0.3169  1.4137  0.3571
 4467SOL     OW24859   4.350   2.048   4.576  0.2387  0.0401 -0.5005
 4467SOL    HW124860   4.408   2.124   4.570 -0.4234  0.3900 -2.6479
 4467SOL    HW224861   4.266   2.094   4.586  0.3840 -0.2089  1.8596
 4468SOL     OW24862   3.156   3.592  10.107 -0.1060 -0.1665 -0.4423
 4468SOL    HW124863   3.065   3.603  10.136  0.4054 -0.5163  1.2694
 4468SOL    HW224864   3.141   3.569  10.016  2.4701 -1.4779 -0.5121
 4469SOL     OW24865   0.612   3.325   4.613  0.9830  0.1761 -0.1021
 4469SOL    HW124866   0.575   3.349   4.527 -0.3003 -0.6670  0.2148
 4469SOL    HW224867   0.663   3.245   4.600  0.7674 -0.3631  2.3339
 4470SOL     OW24868   3.465   2.735  16.825  0.0164  0.0212  0.0308
 4470SOL    HW124869   3.485   2.801  16.892 -0.9231 -1.7368  2.0668
 4470SOL    HW224870   3.535   2.743  16.761 -0.7958  3.5368 -0.4061
 4471SOL     OW24871   1.068   1.315  15.474 -0.2488  0.2105 -0.1615
 4471SOL    HW124872   1.048   1.257  15.547 -1.0582  0.6011 -0.0804
 4471SOL    HW224873   1.063   1.249  15.406  0.3497  1.1123 -1.0960
 4472SOL     OW24874   3.475   2.646   0.794 -0.2040 -0.2195  0.4290
 4472SOL    HW124875   3.496   2.556   0.819 -2.3647 -1.0795 -0.8963
 4472SOL    HW224876   3.455   2.642   0.700  0.0717 -2.8513  0.4832
 4473SOL     OW24877   2.604   0.280  11.081 -0.4748 -0.7903 -0.4550
 4473SOL    HW124878   2.661   0.222  11.130 -1.4869 -0.7357  0.7828
 4473SOL    HW224879   2.592   0.231  11.000 -1.5394 -1.9016  0.3904
 4474SOL     OW24880   2.375   0.004   2.801 -0.0504  0.1935 -0.0423
 4474SOL    HW124881   2.396   4.648   2.755 -0.5994  0.6864 -1.1678
 4474SOL    HW224882   2.461   0.044   2.787 -0.6024  0.9102 -1.4339
 4475SOL     OW24883   2.390   2.031   9.251 -0.2283 -0.1747  0.9428
 4475SOL    HW124884   2.426   1.955   9.205  0.9542  2.7470 -2.9252
 4475SOL    HW224885   2.351   1.989   9.328  1.4325 -1.2145  1.2119
 4476SOL     OW24886   4.066   0.068   6.489 -0.2056  0.2147  0.3593
 4476SOL    HW124887   4.065   0.163   6.504  2.3621  0.5096 -1.3411
 4476SOL    HW224888   4.128   0.063   6.417 -0.1432  1.1275  0.3481
 4477SOL     OW24889   3.124   3.441   5.242  0.3229  0.1527 -0.1035
 4477SOL    HW124890   3.159   3.525   5.210 -0.0770  0.9660  1.5984
 4477SOL    HW224891   3.126   3.448   5.337 -1.4438  0.7019 -0.1129
 4478SOL     OW24892   4.335   3.550   3.419 -0.0717  0.2526 -0.2681
 4478SOL    HW124893   4.314   3.561   3.512 -1.7712 -1.2724 -0.5022
 4478SOL    HW224894   4.381   3.466   3.422 -2.7666 -1.2252 -0.6876
 4479SOL     OW24895   0.808   4.577   8.387 -0.2562  0.3149 -0.0626
 4479SOL    HW124896   0.839   4.661   8.419 -0.1424  0.1871  0.1643
 4479SOL    HW224897   0.824   4.522   8.464 -1.7092 -0.2394 -0.1601
 4480SOL     OW24898   0.966   2.160   9.306 -0.7790 -0.3675 -0.0668
 4480SOL    HW124899   0.987   2.113   9.226  0.2899  0.7487 -0.4549
 4480SOL    HW224900   1.004   2.243   9.276 -2.1974  0.4360  0.3336
 4481SOL     OW24901   3.009   3.971   8.461  0.0665 -0.7656  0.1257
 4481SOL    HW124902   2.959   3.928   8.392  0.8763 -0.0411 -0.9205
 4481SOL    HW224903   3.016   3.893   8.514 -2.4872 -3.4894 -3.4969
 4482SOL     OW24904   2.277   4.369   4.903  0.3777  0.1826 -0.2104
 4482SOL    HW124905   2.223   4.291   4.915 -1.8670  1.5086 -1.5931
 4482SOL    HW224906   2.261   4.396   4.813 -3.7958  1.6528  0.9390
 4483SOL     OW24907   1.864   4.000   4.545 -0.9843  0.5766 -0.2456
 4483SOL    HW124908   1.810   3.955   4.609  1.6088 -0.3848  1.2393
 4483SOL    HW224909   1.860   4.085   4.590  1.3256  1.0043 -0.8209
 4484SOL     OW24910   3.006   0.556   5.078  0.1493  0.3435 -0.0900
 4484SOL    HW124911   3.059   0.480   5.054  0.4359  0.4840  0.1102
 4484SOL    HW224912   2.916   0.525   5.090 -0.0333  0.4910 -1.0307
 4485SOL     OW24913   3.056   3.396   4.242  0.0168  0.2450 -0.1638
 4485SOL    HW124914   2.977   3.448   4.224 -0.2835  0.4178  1.6503
 4485SOL    HW224915   3.037   3.328   4.178  0.0415 -0.5111  0.6397
 4486SOL     OW24916   1.717   2.234  11.219  0.0751  0.4346 -0.4408
 4486SOL    HW124917   1.680   2.234  11.131 -1.6272  2.0571  0.2704
 4486SOL    HW224918   1.683   2.316  11.255  1.3042  0.1936  1.3044
 4487SOL     OW24919   3.794   2.174  15.458 -0.2951 -0.1396  0.1529
 4487SOL    HW124920   3.816   2.083  15.478  0.1513 -0.8542 -3.6595
 4487SOL    HW224921   3.708   2.179  15.500 -0.5578  0.5053 -0.4600
 4488SOL     OW24922   1.048   4.419   0.917  0.8788  0.2712 -0.4608
 4488SOL    HW124923   1.021   4.339   0.962 -0.6918  0.6146 -0.7695
 4488SOL    HW224924   1.071   4.390   0.829  0.4975 -2.4476  0.3312
 4489SOL     OW24925   2.928   4.460   4.086 -0.4114 -0.6123 -0.6888
 4489SOL    HW124926   2.917   4.462   4.181 -0.3129 -0.8788 -0.6705
 4489SOL    HW224927   2.897   4.546   4.058  0.5573  0.1954  0.6798
 4490SOL     OW24928   3.049   0.738   9.477 -0.2276  0.1188  0.0901
 4490SOL    HW124929   3.066   0.751   9.383 -1.8716  1.1975 -0.0637
 4490SOL    HW224930   3.080   0.819   9.518 -1.6701 -0.6440  2.6619
 4491SOL     OW24931   3.227   1.925   3.486  0.3446 -0.5145  0.2151
 4491SOL    HW124932   3.181   1.861   3.431  0.2259  1.1458 -1.6299
 4491SOL    HW224933   3.213   1.999   3.426  0.5532  0.5147  1.4219
 4492SOL     OW24934   1.157   0.842   7.693  0.1291  1.0337  0.8273
 4492SOL    HW124935   1.148   0.809   7.782 -2.2713  3.4027  1.4484
 4492SOL    HW224936   1.145   0.763   7.639 -0.8518  1.2624  0.7092
 4493SOL     OW24937   0.723   1.953  16.258 -0.2045 -0.1965 -0.0592
 4493SOL    HW124938   0.802   1.898  16.252  0.3338  0.5983 -0.2709
 4493SOL    HW224939   0.689   1.902  16.332 -1.5403  0.8366  0.0242
 4494SOL     OW24940   1.462   4.710   4.798 -0.0328  0.2232 -0.0057
 4494SOL    HW124941   1.391   4.718   4.734  0.5629  2.2688 -0.4291
 4494SOL    HW224942   1.536   4.722   4.739 -1.5796 -0.2462 -2.0368
 4495SOL     OW24943   0.324   3.527   7.103  0.6941 -0.4287 -0.1118
 4495SOL    HW124944   0.413   3.549   7.127  0.3204 -0.0864  0.9504
 4495SOL    HW224945   0.325   3.525   7.007  0.7134  1.6481 -0.1595
 4496SOL     OW24946   4.345   0.881   7.571  0.0647 -0.2856  0.2185
 4496SOL    HW124947   4.336   0.892   7.476 -1.0225  0.5814  0.4251
 4496SOL    HW224948   4.306   0.964   7.599 -0.6867 -0.4892 -0.2342
 4497SOL     OW24949   1.440   3.284   2.521 -0.1242 -0.6200 -0.1874
 4497SOL    HW124950   1.522   3.305   2.476  0.5135 -0.9760  0.7971
 4497SOL    HW224951   1.394   3.231   2.456  0.7534 -1.5497 -0.0502
 4498SOL     OW24952   3.855   2.143   6.499  0.2309  0.3659 -0.1541
 4498SOL    HW124953   3.893   2.077   6.558  2.0886 -0.2983 -2.0878
 4498SOL    HW224954   3.870   2.213   6.563  2.8970  0.3072 -0.6880
 4499SOL     OW24955   1.835   3.462   5.111  0.1228  0.2211  0.8195
 4499SOL    HW124956   1.773   3.451   5.183 -0.2055  0.0714  0.5118
 4499SOL    HW224957   1.839   3.557   5.098 -1.1118  0.3070  1.0629
 4500SOL     OW24958   3.337   1.294   3.738  0.0459 -0.3351  0.0150
 4500SOL    HW124959   3.349   1.303   3.643  2.0249  2.4604  0.5275
 4500SOL    HW224960   3.362   1.380   3.773  1.1459  0.9964 -3.9230
 4501SOL     OW24961   4.068   2.846  12.591  0.5537  0.0134 -0.3502
 4501SOL    HW124962   4.159   2.847  12.621  0.3331 -0.5913  0.3532
 4501SOL    HW224963   4.046   2.754  12.602  3.0734 -0.7743 -1.9458
 4502SOL     OW24964   1.088   3.581   3.209 -0.1342  0.0943  0.1956
 4502SOL    HW124965   1.175   3.552   3.181 -0.6147 -2.2422  1.0808
 4502SOL    HW224966   1.071   3.516   3.277  0.8502 -1.0715 -0.6611
 4503SOL     OW24967   0.746   4.177   4.568  0.5460  0.1371 -0.0403
 4503SOL    HW124968   0.727   4.192   4.475 -0.2713  1.3059  0.3079
 4503SOL    HW224969   0.730   4.085   4.584 -1.9372  0.6082  0.1466
 4504SOL     OW24970   3.103   1.677   3.869 -0.5994 -0.0789 -0.0935
 4504SOL    HW124971   3.099   1.599   3.926 -0.2192  0.6361  0.9070
 4504SOL    HW224972   3.041   1.741   3.904  1.2410  1.0674  1.1052
 4505SOL     OW24973   0.932   3.023   4.127  0.3652  0.7503  0.0079
 4505SOL    HW124974   0.883   2.994   4.049 -0.9523  0.9891  0.7469
 4505SOL    HW224975   0.863   3.044   4.190  1.6180  3.7443  0.3578
 4506SOL     OW24976   1.456   1.590   9.570 -0.1187 -0.0294 -0.2638
 4506SOL    HW124977   1.418   1.673   9.541 -0.6755 -0.9523 -2.1271
 4506SOL    HW224978   1.546   1.617   9.591  1.0862 -3.1241 -1.4963
 4507SOL     OW24979   4.094   0.559   6.697 -0.2844  0.3822 -0.4002
 4507SOL    HW124980   4.140   0.592   6.774  0.0115 -0.7787 -0.0711
 4507SOL    HW224981   4.087   0.649   6.664  0.0327  0.6891  0.3734
 4508SOL     OW24982   3.090   3.664   4.415 -0.2704  0.1399 -0.5514
 4508SOL    HW124983   3.047   3.703   4.491 -0.6592 -1.3209 -0.0224
 4508SOL    HW224984   3.084   3.574   4.446  0.2028 -0.1335 -1.2471
 4509SOL     OW24985   3.966   3.172   2.165 -0.5779  0.0021 -0.2092
 4509SOL    HW124986   4.019   3.117   2.224 -1.2240 -1.0805 -0.6533
 4509SOL    HW224987   4.031   3.222   2.116 -2.2255  2.3038 -0.0113
 4510SOL     OW24988   3.664   0.136  15.059 -0.2350 -0.5301  0.4929
 4510SOL    HW124989   3.678   0.211  15.001  0.5679  0.5190  2.0418
 4510SOL    HW224990   3.579   0.163  15.093 -1.2050 -0.4171 -1.9674
 4511SOL     OW24991   4.217   1.922   4.283 -0.3372  0.2478 -0.6624
 4511SOL    HW124992   4.129   1.915   4.246 -0.5143  1.2077 -0.4179
 4511SOL    HW224993   4.258   1.853   4.232 -1.7151 -2.3153  1.6947
 4512SOL     OW24994   1.546   1.462   2.641  0.0128 -0.0497  0.2159
 4512SOL    HW124995   1.581   1.409   2.713 -0.4231  0.7282  0.9998
 4512SOL    HW224996   1.581   1.549   2.660  2.3842 -0.5874 -1.6124
 4513SOL     OW24997   3.560   1.028   4.733  0.4388 -0.1271 -0.4180
 4513SOL    HW124998   3.579   1.121   4.743 -0.2946 -0.4140  3.9536
 4513SOL    HW224999   3.587   0.987   4.816  1.5648  0.3233 -0.5622
 4514SOL     OW25000   1.202   0.028  12.680  0.6745 -0.4538  0.0297
 4514SOL    HW125001   1.193   0.057  12.589 -2.1087 -0.7049  0.2349
 4514SOL    HW225002   1.161   0.090  12.740  1.4104  1.5630 -1.5662
 4515SOL     OW25003   3.699   0.567  14.724  0.2293  0.1990 -0.2831
 4515SOL    HW125004   3.648   0.502  14.676  0.0361 -1.6385  2.3589
 4515SOL    HW225005   3.734   0.507  14.790  0.0817 -0.0885 -0.4676
 4516SOL     OW25006   0.515   2.554   6.696  0.7115 -0.7358  0.5372
 4516SOL    HW125007   0.510   2.511   6.611  0.6720 -1.4911  0.9205
 4516SOL    HW225008   0.449   2.624   6.693 -2.6988 -4.0308 -1.2042
 4517SOL     OW25009   4.427   2.600   6.637 -0.5965 -0.6935 -0.0893
 4517SOL    HW125010   4.515   2.592   6.673 -0.6552  2.8593  0.8201
 4517SOL    HW225011   4.377   2.551   6.702 -1.3827  0.2047 -0.0132
 4518SOL     OW25012   3.924   3.521  11.989  0.0897  0.6033  0.0717
 4518SOL    HW125013   3.916   3.589  11.922  1.4895  0.2250 -0.4884
 4518SOL    HW225014   3.947   3.569  12.069  2.9866 -0.6018 -0.0345
 4519SOL     OW25015   2.751   3.695   8.558 -0.1483 -0.0580 -0.3890
 4519SOL    HW125016   2.675   3.637   8.567  0.8431 -1.4912 -1.2936
 4519SOL    HW225017   2.753   3.735   8.471  3.5141  0.7705  0.1055
 4520SOL     OW25018   3.418   4.441   3.065  0.5179 -0.4601  0.0426
 4520SOL    HW125019   3.457   4.413   3.148  1.4471 -0.8312 -0.5203
 4520SOL    HW225020   3.326   4.429   3.092  0.9565  1.4326  2.3810
 4521SOL     OW25021   0.836   3.633   4.241  0.2498 -0.0155  0.4345
 4521SOL    HW125022   0.872   3.716   4.273  1.7809 -1.0450  1.3809
 4521SOL    HW225023   0.892   3.569   4.285  0.1585  0.0553  0.6528
 4522SOL     OW25024   3.501   1.828  17.289 -0.1675  0.4209  0.1385
 4522SOL    HW125025   3.536   1.917  17.286 -1.1800  0.8084 -0.0556
 4522SOL    HW225026   3.428   1.834  17.350  1.7184  0.5628  2.3628
 4523SOL     OW25027   3.533   0.319   8.147 -0.0435  0.4756 -0.5498
 4523SOL    HW125028   3.472   0.286   8.081  0.0969 -1.0679  0.1181
 4523SOL    HW225029   3.606   0.365   8.104 -0.6440  2.8444  0.9321
 4524SOL     OW25030   0.107   0.144   4.937 -0.2586  0.3380 -0.1056
 4524SOL    HW125031   0.103   0.104   5.024  0.1515  1.1811  0.2995
 4524SOL    HW225032   0.055   0.083   4.885 -2.0038 -0.3595  2.4362
 4525SOL     OW25033   2.360   4.668   6.948 -0.2456  0.5659 -0.4447
 4525SOL    HW125034   2.334   4.615   7.023  1.1695 -1.2067 -1.2282
 4525SOL    HW225035   2.446   4.631   6.928  0.5546  1.4641  1.3190
 4526SOL     OW25036   3.615   2.809   7.192 -0.3335  0.0075 -0.1796
 4526SOL    HW125037   3.553   2.743   7.161 -2.1156  1.7026 -0.2848
 4526SOL    HW225038   3.637   2.858   7.113  1.1963  1.5584  1.2189
 4527SOL     OW25039   0.409   1.571   8.463 -0.6879 -0.5414 -0.0090
 4527SOL    HW125040   0.462   1.631   8.411 -0.3367 -1.7155 -1.0147
 4527SOL    HW225041   0.321   1.606   8.452 -0.0072  2.5431  4.5699
 4528SOL     OW25042   3.502   3.488   6.992  0.2773  0.2527  0.3137
 4528SOL    HW125043   3.455   3.497   7.075 -1.1382 -1.7487 -0.2660
 4528SOL    HW225044   3.490   3.578   6.961  0.4139 -0.2335 -1.1329
 4529SOL     OW25045   1.643   4.154  14.553 -0.0303  0.6325  0.0723
 4529SOL    HW125046   1.604   4.067  14.543 -1.1676  1.0301  1.0226
 4529SOL    HW225047   1.679   4.153  14.464  0.6534 -0.9742  0.3734
 4530SOL     OW25048   2.213   0.130  10.431 -0.4458  0.5886 -0.3650
 4530SOL    HW125049   2.282   0.191  10.454  0.4249 -0.2974 -0.6382
 4530SOL    HW225050   2.230   0.064  10.497  0.3574 -0.7918 -1.9453
 4531SOL     OW25051   0.864   0.060  10.660 -0.1966  0.3701 -0.4458
 4531SOL    HW125052   0.819   0.039  10.578  1.4443 -2.6754 -0.5902
 4531SOL    HW225053   0.947   0.012  10.654  0.1275  0.2699  4.7000
 4532SOL     OW25054   2.200   1.338   5.862 -0.3884  0.1207 -0.4890
 4532SOL    HW125055   2.115   1.375   5.884 -0.5208 -1.1823  1.1825
 4532SOL    HW225056   2.258   1.413   5.848  0.7886 -0.8170 -0.6099
 4533SOL     OW25057   3.466   2.373   6.247 -0.0910 -0.4745  0.5828
 4533SOL    HW125058   3.417   2.414   6.176 -0.4279  0.7162  1.5085
 4533SOL    HW225059   3.430   2.406   6.329 -2.4698  1.5007 -1.2608
 4534SOL     OW25060   2.743   0.459   2.890 -0.4198  0.3689 -0.4110
 4534SOL    HW125061   2.778   0.373   2.914  0.2977 -0.1487 -3.2997
 4534SOL    HW225062   2.650   0.449   2.911 -0.6228 -1.2763 -2.1770
 4535SOL     OW25063   4.601   0.079   8.134  0.4786  0.2902 -0.5582
 4535SOL    HW125064   4.640   0.166   8.126  0.0116  0.5655  0.1318
 4535SOL    HW225065   4.609   0.054   8.042  1.6998  0.8014 -0.5841
 4536SOL     OW25066   0.784   0.706   7.894 -0.6373 -0.2625 -0.1012
 4536SOL    HW125067   0.717   0.753   7.845 -0.6301 -1.2226 -1.0400
 4536SOL    HW225068   0.777   0.616   7.861  1.5325 -0.6658  0.5707
 4537SOL     OW25069   0.449   3.314   5.233  0.4484  0.0643 -0.0958
 4537SOL    HW125070   0.522   3.320   5.172  0.5330 -0.0186 -0.0042
 4537SOL    HW225071   0.486   3.262   5.305  2.5049  2.1964  0.3590
 4538SOL     OW25072   3.608   3.961  10.490  0.4515 -0.0585 -0.0299
 4538SOL    HW125073   3.697   3.927  10.480  0.2131 -0.4985 -0.7141
 4538SOL    HW225074   3.617   4.023  10.562 -1.3573 -1.0565  1.0256
 4539SOL     OW25075   2.941   1.177   5.822 -0.1125  0.1149  0.1102
 4539SOL    HW125076   2.860   1.149   5.781  0.0864  0.3597 -0.4400
 4539SOL    HW225077   2.950   1.264   5.785  1.9448 -0.5516 -0.9757
 4540SOL     OW25078   1.684   1.761   8.002 -0.1294  0.2072 -0.6873
 4540SOL    HW125079   1.720   1.673   7.995 -2.4696 -0.8457  0.4837
 4540SOL    HW225080   1.592   1.735   7.996 -0.2477  0.8735 -1.7404
 4541SOL     OW25081   3.660   2.415   7.154  0.0238  0.1445  0.2758
 4541SOL    HW125082   3.690   2.333   7.114 -0.2654  0.3706 -0.3936
 4541SOL    HW225083   3.588   2.440   7.096  0.3951  1.5261  0.4219
 4542SOL     OW25084   4.216   1.829   2.260  0.1345  0.0913  0.2497
 4542SOL    HW125085   4.228   1.744   2.218  0.5084  0.0654  0.4091
 4542SOL    HW225086   4.210   1.878   2.178  2.2237  0.7367  0.4885
 4543SOL     OW25087   4.546   2.044   6.558 -0.3908 -0.2110 -0.4554
 4543SOL    HW125088   4.475   2.106   6.572  0.6011  0.7496  0.2874
 4543SOL    HW225089   4.492   1.969   6.531 -2.0679  1.5511 -1.9348
 4544SOL     OW25090   0.535   3.099  13.534 -0.4439 -0.2277  0.0221
 4544SOL    HW125091   0.503   3.184  13.504  2.1136  0.2067 -1.4540
 4544SOL    HW225092   0.539   3.047  13.453 -1.0122  1.0024 -0.7910
 4545SOL     OW25093   2.395   0.789  16.703  0.2318  0.8677 -0.5285
 4545SOL    HW125094   2.376   0.883  16.705 -2.2889  0.2984  0.9947
 4545SOL    HW225095   2.326   0.752  16.648 -0.6882  1.1095  0.4700
 4546SOL     OW25096   1.051   1.220   6.744 -0.2972 -0.0876  0.1352
 4546SOL    HW125097   0.986   1.275   6.700  0.8720  0.3776 -0.9837
 4546SOL    HW225098   1.112   1.291   6.765  0.8062 -0.0556 -3.1499
 4547SOL     OW25099   3.650   2.705  12.293 -0.4824  0.7263  0.4422
 4547SOL    HW125100   3.689   2.638  12.236  0.2838  1.2854  0.2993
 4547SOL    HW225101   3.585   2.651  12.336  1.0639 -0.6615  1.0191
 4548SOL     OW25102   0.311   1.594   5.913 -0.2696  0.4735  0.3053
 4548SOL    HW125103   0.316   1.573   6.006  0.0251 -0.9233 -0.0257
 4548SOL    HW225104   0.288   1.510   5.874  2.5396  0.0165 -0.3728
 4549SOL     OW25105   1.436   2.560   2.101  0.0275  0.1493 -0.3534
 4549SOL    HW125106   1.352   2.526   2.070 -0.9372  1.1454  1.2120
 4549SOL    HW225107   1.410   2.616   2.174  0.7284  1.2295 -0.9252
 4550SOL     OW25108   1.137   2.681  11.174  0.1967  0.4644 -0.4846
 4550SOL    HW125109   1.162   2.773  11.181 -0.9361  0.7375 -0.0512
 4550SOL    HW225110   1.042   2.692  11.174  0.1038 -0.2544  2.2713
 4551SOL     OW25111   0.408   4.502   1.253  0.8882  0.5677 -0.9723
 4551SOL    HW125112   0.333   4.510   1.313  0.4800  0.2115 -1.4294
 4551SOL    HW225113   0.458   4.440   1.307 -0.4216 -0.7784 -1.2802
 4552SOL     OW25114   0.574   1.807   7.835  0.3330  0.3370 -0.1575
 4552SOL    HW125115   0.624   1.888   7.840  0.8260 -0.0019  0.6160
 4552SOL    HW225116   0.651   1.750   7.828  0.1601  0.1219 -0.3104
 4553SOL     OW25117   4.224   4.329   3.281 -0.0101  0.2110 -0.3135
 4553SOL    HW125118   4.235   4.367   3.194  0.0487  1.1956  0.1250
 4553SOL    HW225119   4.139   4.284   3.274 -0.1618  0.2294  1.4046
 4554SOL     OW25120   3.492   4.087   1.456 -0.0687 -0.5589  0.3753
 4554SOL    HW125121   3.485   4.182   1.462 -1.5880 -0.5337 -1.5703
 4554SOL    HW225122   3.578   4.068   1.419 -0.2180  1.1653 -0.8676
 4555SOL     OW25123   3.621   1.338  14.992  0.1081  0.3222  0.2227
 4555SOL    HW125124   3.659   1.252  14.973  0.4352  1.1470 -2.8283
 4555SOL    HW225125   3.594   1.325  15.083  2.0160 -2.3844  0.4013
 4556SOL     OW25126   2.587   3.126   0.290 -0.1132 -0.3562 -0.2639
 4556SOL    HW125127   2.603   3.047   0.341  2.0175  0.1497 -0.1350
 4556SOL    HW225128   2.678   3.131   0.260  0.5367  1.8874  2.1398
 4557SOL     OW25129   3.888   3.312   7.911  0.0480  0.2717  0.2128
 4557SOL    HW125130   3.957   3.378   7.904  0.7855 -0.6743 -1.3139
 4557SOL    HW225131   3.914   3.284   7.999 -0.4428  1.6737  0.8005
 4558SOL     OW25132   4.593   3.870  11.563  0.2829 -0.0182 -0.2944
 4558SOL    HW125133   4.609   3.776  11.555  0.9173  0.0487  0.1573
 4558SOL    HW225134   4.546   3.881  11.480  0.0371 -0.1097 -0.1658
 4559SOL     OW25135   4.373   1.386  11.179  0.0126  0.4711 -0.3782
 4559SOL    HW125136   4.340   1.368  11.091 -2.1007  0.6668  0.3798
 4559SOL    HW225137   4.319   1.462  11.201 -0.6475 -0.6885  2.0058
 4560SOL     OW25138   0.087   2.457  14.215  0.2572 -0.1142 -0.4733
 4560SOL    HW125139   0.079   2.441  14.309 -1.6008 -1.7070 -0.8881
 4560SOL    HW225140   0.087   2.370  14.175  0.3980  0.7598 -2.3922
 4561SOL     OW25141   3.818   1.497   5.131  0.1551 -0.8238  0.0977
 4561SOL    HW125142   3.785   1.565   5.189  2.0030  1.5130 -1.5969
 4561SOL    HW225143   3.859   1.440   5.196  2.8020  0.6251 -0.3233
 4562SOL     OW25144   0.402   4.300   4.872 -0.5126  0.3296  0.1529
 4562SOL    HW125145   0.474   4.236   4.876 -1.5287 -0.7829  0.7369
 4562SOL    HW225146   0.380   4.293   4.779  1.6224 -4.2508 -0.0226
 4563SOL     OW25147   0.459   3.376   5.735 -0.2618 -0.0017  0.1402
 4563SOL    HW125148   0.502   3.369   5.650 -3.2255 -1.2367 -1.2865
 4563SOL    HW225149   0.428   3.466   5.731 -0.7339 -0.2567 -1.9558
 4564SOL     OW25150   2.213   0.927   8.785  0.3436 -0.7662 -0.5709
 4564SOL    HW125151   2.136   0.876   8.757 -0.4395 -0.8268  1.6885
 4564SOL    HW225152   2.250   0.880   8.859  1.8406  2.1883  0.5145
 4565SOL     OW25153   1.113   3.563   0.921  0.3275 -0.3657 -0.2307
 4565SOL    HW125154   1.066   3.572   0.838 -2.4199 -0.6687  1.2868
 4565SOL    HW225155   1.115   3.656   0.946 -0.7858 -0.9916  2.2058
 4566SOL     OW25156   3.076   0.183  14.626  0.0073  0.0640 -0.4488
 4566SOL    HW125157   3.050   0.275  14.621  0.2052  0.0430 -1.9880
 4566SOL    HW225158   3.019   0.159  14.699  0.2395 -1.6409 -0.8315
 4567SOL     OW25159   2.531   2.815   0.491  0.1344 -0.1373  0.1982
 4567SOL    HW125160   2.479   2.825   0.570  1.9933 -0.3006  1.4513
 4567SOL    HW225161   2.615   2.797   0.534 -1.5094 -1.0880  3.0248
 4568SOL     OW25162   0.477   4.104   3.012  0.2727 -0.0632 -0.5950
 4568SOL    HW125163   0.412   4.173   3.027 -0.8856 -1.3948  0.5152
 4568SOL    HW225164   0.432   4.025   3.041 -1.9608  1.3272 -0.2869
 4569SOL     OW25165   0.206   0.448   8.619 -0.4275  0.3819 -0.8258
 4569SOL    HW125166   0.274   0.383   8.638 -0.0937  2.0937  3.7158
 4569SOL    HW225167   0.259   0.526   8.634  0.6520 -0.5731  0.4018
 4570SOL     OW25168   0.717   2.923   0.948  0.1558  0.2858 -0.2392
 4570SOL    HW125169   0.657   2.989   0.912  0.2233 -0.0296 -0.9435
 4570SOL    HW225170   0.802   2.943   0.909 -0.1275 -0.6385 -1.3577
 4571SOL     OW25171   2.425   4.067   5.763  0.1988  0.4501 -0.1899
 4571SOL    HW125172   2.495   4.006   5.739  0.2940  0.9008 -1.0761
 4571SOL    HW225173   2.360   3.997   5.766  0.7223  0.0657  2.0601
 4572SOL     OW25174   2.158   1.254   6.314  0.4348  0.6723  0.8763
 4572SOL    HW125175   2.221   1.216   6.253  0.3379 -1.5762  2.1785
 4572SOL    HW225176   2.091   1.186   6.321  0.7545  0.4515  1.7661
 4573SOL     OW25177   3.032   2.616   4.364  0.4880 -0.4397 -0.1373
 4573SOL    HW125178   3.128   2.610   4.367  0.5678  0.9416  0.1536
 4573SOL    HW225179   3.004   2.540   4.415  3.4954 -0.2177  1.8625
 4574SOL     OW25180   3.363   2.098  12.408 -0.9340  0.0303  0.0528
 4574SOL    HW125181   3.336   2.131  12.323 -1.4982  1.0029  0.6144
 4574SOL    HW225182   3.331   2.009  12.392  0.2448 -0.5421  0.8750
 4575SOL     OW25183   1.928   1.934   5.186  0.1072 -0.9474  0.0418
 4575SOL    HW125184   2.009   1.985   5.188 -1.7151  1.9098  1.6700
 4575SOL    HW225185   1.861   2.002   5.173 -0.1531 -1.7402 -2.7019
 4576SOL     OW25186   3.756   4.514   7.526  0.2897 -0.1169 -0.1367
 4576SOL    HW125187   3.727   4.557   7.446  0.5045  1.4610  0.6475
 4576SOL    HW225188   3.851   4.522   7.519  0.2965  0.2062  0.3549
 4577SOL     OW25189   0.139   0.059   4.285 -0.4464 -0.0647  1.0020
 4577SOL    HW125190   0.047   0.086   4.277 -0.2958  0.0113 -0.3723
 4577SOL    HW225191   0.174   0.118   4.353  0.5532  1.8906 -1.2204
 4578SOL     OW25192   2.477   1.415  10.970 -0.2935  0.2087 -0.1606
 4578SOL    HW125193   2.560   1.442  11.008  0.1470 -3.5777  1.5223
 4578SOL    HW225194   2.461   1.493  10.917  3.4831  0.7520 -0.5109
 4579SOL     OW25195   3.398   3.096   8.644 -0.1487  0.4641 -0.0525
 4579SOL    HW125196   3.460   3.079   8.574 -0.2013  0.0824 -0.0088
 4579SOL    HW225197   3.438   3.054   8.721 -0.4468  1.6609  0.7441
 4580SOL     OW25198   2.442   2.448  10.000 -0.4542 -0.4712  0.0959
 4580SOL    HW125199   2.394   2.524   9.966 -0.3555 -0.9340 -1.0570
 4580SOL    HW225200   2.454   2.388   9.927 -0.0661 -1.3983  0.9203
 4581SOL     OW25201   1.053   4.544   3.930 -0.1149  0.0074  0.3366
 4581SOL    HW125202   1.063   4.635   3.901  0.3686  0.6124  2.3848
 4581SOL    HW225203   1.058   4.496   3.848  1.6867 -0.0861  0.5018
 4582SOL     OW25204   2.527   1.037   5.418 -0.0355 -0.6194  0.6480
 4582SOL    HW125205   2.454   1.065   5.362 -0.1112 -1.6979  0.2006
 4582SOL    HW225206   2.550   1.116   5.466 -1.5475  0.0311  0.3213
 4583SOL     OW25207   3.143   3.687   7.250 -0.0326  0.6036  0.4078
 4583SOL    HW125208   3.060   3.640   7.245 -0.7177  1.9358 -0.6740
 4583SOL    HW225209   3.134   3.763   7.193 -4.3712 -1.0509 -1.1631
 4584SOL     OW25210   0.369   3.080   5.981 -0.3299 -0.5889 -0.1683
 4584SOL    HW125211   0.445   3.029   6.011 -0.1911 -0.1436  0.2297
 4584SOL    HW225212   0.346   3.029   5.903  0.3389  0.8903 -1.3428
 4585SOL     OW25213   3.047   0.209  11.155 -0.4809 -0.3041  0.7715
 4585SOL    HW125214   3.127   0.165  11.123 -0.3998 -2.7180  4.3069
 4585SOL    HW225215   3.064   0.302  11.142  0.5148 -1.0022 -2.8332
 4586SOL     OW25216   1.234   1.737  14.441 -0.2168 -1.1105  0.0403
 4586SOL    HW125217   1.292   1.702  14.508  0.8208 -1.1470 -0.8676
 4586SOL    HW225218   1.297   1.806  14.420 -0.8890 -0.3290  0.6149
 4587SOL     OW25219   3.127   1.510   4.774 -0.0460  0.0027 -0.0905
 4587SOL    HW125220   3.080   1.583   4.733  1.2669 -0.2001 -1.9431
 4587SOL    HW225221   3.200   1.509   4.712 -0.5356  1.7423 -0.7080
 4588SOL     OW25222   1.143   1.354  12.848  0.1131  0.2831  0.2138
 4588SOL    HW125223   1.061   1.367  12.896 -1.9512 -1.7425 -2.7704
 4588SOL    HW225224   1.178   1.433  12.888  0.3759  0.5664 -0.5665
 4589SOL     OW25225   4.611   2.711   4.063 -0.1044 -0.3503  0.1587
 4589SOL    HW125226   4.629   2.780   4.127  1.2208 -1.2896  0.8226
 4589SOL    HW225227   4.518   2.693   4.075 -0.1601  0.1226  0.4179
 4590SOL     OW25228   4.486   2.259   4.530  0.0845  0.9136  0.3063
 4590SOL    HW125229   4.557   2.292   4.584  0.9599 -1.7485  0.7655
 4590SOL    HW225230   4.445   2.337   4.492  0.3458  0.3292 -1.1913
 4591SOL     OW25231   1.696   1.718  10.840  0.4754 -0.3944  0.1299
 4591SOL    HW125232   1.632   1.647  10.844 -0.4978  0.6765  3.6259
 4591SOL    HW225233   1.718   1.721  10.747 -0.7930  0.2119 -0.1553
 4592SOL     OW25234   4.363   4.584   5.562 -0.7951 -0.1255  0.0451
 4592SOL    HW125235   4.432   4.645   5.535  0.4657 -1.6867 -0.3051
 4592SOL    HW225236   4.288   4.632   5.529 -0.1464  0.5967 -0.3907
 4593SOL     OW25237   3.472   4.444   6.763  0.0026 -0.3858 -0.1916
 4593SOL    HW125238   3.442   4.462   6.674  0.7902 -1.0448 -0.5859
 4593SOL    HW225239   3.524   4.367   6.741  0.1356 -0.0134 -1.1789
 4594SOL     OW25240   2.273   4.562   4.039  0.1988  0.3135 -0.4209
 4594SOL    HW125241   2.192   4.598   4.075  1.6007  2.4921  0.5774
 4594SOL    HW225242   2.250   4.489   3.981  1.4117 -0.3301 -0.1074
 4595SOL     OW25243   2.729   3.080   2.686 -0.2253  0.2543  0.4207
 4595SOL    HW125244   2.646   3.114   2.652  0.5742 -0.0429 -1.7933
 4595SOL    HW225245   2.773   3.042   2.610 -0.9460 -2.4507  1.3344
 4596SOL     OW25246   4.702   3.823   1.924 -0.2291 -0.0558  0.5183
 4596SOL    HW125247   4.683   3.788   2.011  1.3801  1.4400  1.4695
 4596SOL    HW225248   4.621   3.799   1.880  0.0746 -0.4673  0.1860
 4597SOL     OW25249   1.183   3.013   2.617 -0.4503  0.7460 -0.2689
 4597SOL    HW125250   1.176   3.031   2.523  2.8671  0.7430 -0.5248
 4597SOL    HW225251   1.219   2.926   2.634  1.6335  1.7092  0.3544
 4598SOL     OW25252   4.710   0.241  14.359 -0.1273  0.0677  0.3772
 4598SOL    HW125253   0.067   0.254  14.312 -0.4925 -2.5033 -0.9769
 4598SOL    HW225254   4.654   0.214  14.286  0.1852  0.0214  0.1554
 4599SOL     OW25255   2.622   0.691   3.530 -0.0585 -0.0604  0.8669
 4599SOL    HW125256   2.596   0.778   3.499 -0.5716 -0.9746 -1.3127
 4599SOL    HW225257   2.716   0.699   3.509 -0.0947  0.0276  0.7334
 4600SOL     OW25258   0.663   4.226   7.771  0.1278  0.0138 -0.4990
 4600SOL    HW125259   0.675   4.218   7.677 -1.5569  0.7019 -0.7742
 4600SOL    HW225260   0.610   4.306   7.769  0.1696  0.0637  0.2631
 4601SOL     OW25261   3.524   0.658  16.194  0.0083 -0.0707 -0.0776
 4601SOL    HW125262   3.493   0.568  16.188  1.0442 -0.3476 -1.3162
 4601SOL    HW225263   3.619   0.648  16.191 -0.2511 -2.5305  0.0733
 4602SOL     OW25264   1.223   1.066  16.647 -0.3074  0.4163  0.4861
 4602SOL    HW125265   1.199   1.146  16.600 -1.6469 -0.6264 -0.6016
 4602SOL    HW225266   1.237   1.000  16.579 -0.2549  0.1651  0.7457
 4603SOL     OW25267   4.076   4.173   4.014  0.6557 -0.2835 -0.3404
 4603SOL    HW125268   4.001   4.115   4.030  2.2225 -2.0669  0.6029
 4603SOL    HW225269   4.061   4.237   4.084 -0.8290 -2.7566  1.5995
 4604SOL     OW25270   1.550   3.474   8.312 -0.6831 -0.1363 -0.1987
 4604SOL    HW125271   1.533   3.409   8.381 -1.4204  0.0381 -0.2173
 4604SOL    HW225272   1.523   3.548   8.366  1.3855 -0.0700  0.7476
 4605SOL     OW25273   0.098   3.352   3.735  0.2770  0.1956 -0.1081
 4605SOL    HW125274   0.004   3.369   3.731 -0.0556 -1.8296 -0.6501
 4605SOL    HW225275   0.091   3.327   3.827 -0.8641 -1.0644 -0.5355
 4606SOL     OW25276   2.137   2.943   3.873  0.5333 -0.8746 -0.1249
 4606SOL    HW125277   2.136   2.851   3.900 -1.4221 -0.4304  1.3166
 4606SOL    HW225278   2.047   2.968   3.852  0.9308  1.4537  0.9399
 4607SOL     OW25279   4.651   2.969   9.466  0.5054 -0.2473  0.1181
 4607SOL    HW125280   0.010   2.978   9.420  0.8976 -1.9181  0.5256
 4607SOL    HW225281   4.654   3.026   9.543 -1.9543  0.4895 -0.3156
 4608SOL     OW25282   0.595   1.056  10.756  0.0498  0.0804 -0.4088
 4608SOL    HW125283   0.589   1.004  10.836 -0.7083  1.5942  0.5208
 4608SOL    HW225284   0.521   1.115  10.769  1.4086  1.4353  1.2359
 4609SOL     OW25285   0.002   0.477   3.093 -0.8081  1.0950 -0.0401
 4609SOL    HW125286   0.081   0.530   3.100 -0.4266  0.0740  3.0796
 4609SOL    HW225287   4.689   0.505   3.176  1.8802  0.5428  1.3505
 4610SOL     OW25288   4.707   1.650   8.428 -0.0486 -0.1871  0.1253
 4610SOL    HW125289   0.039   1.611   8.494  0.6239 -1.4797 -1.2476
 4610SOL    HW225290   0.012   1.603   8.351  1.7075 -0.7411  1.1468
 4611SOL     OW25291   3.497   4.096  16.345 -0.5528  0.0745 -0.4699
 4611SOL    HW125292   3.573   4.149  16.322  0.9047 -2.3721 -1.4242
 4611SOL    HW225293   3.425   4.144  16.306 -0.4680 -0.1896 -0.9593
 4612SOL     OW25294   3.628   1.366  11.374 -0.7010 -0.4206  0.2336
 4612SOL    HW125295   3.533   1.362  11.383 -0.5772 -0.1861  1.5871
 4612SOL    HW225296   3.674   1.307  11.433  1.0797 -0.9847 -1.7261
 4613SOL     OW25297   4.426   2.922   4.438  0.0508 -0.2478 -0.0296
 4613SOL    HW125298   4.418   3.016   4.423 -0.0753 -0.2519  0.0154
 4613SOL    HW225299   4.500   2.886   4.389  0.4285 -0.7528  0.9044
 4614SOL     OW25300   2.483   4.618   0.540  0.3861 -0.1215  0.2907
 4614SOL    HW125301   2.450   4.569   0.615  0.4193  1.7575  1.5395
 4614SOL    HW225302   2.495   4.550   0.474 -1.8298  0.0774 -0.2990
 4615SOL     OW25303   4.723   0.302   8.552  0.4778 -0.2395 -0.7576
 4615SOL    HW125304   0.055   0.372   8.584  0.6366 -0.0935 -1.3575
 4615SOL    HW225305   0.052   0.241   8.502  0.6581 -0.2077 -0.6040
 4616SOL     OW25306   0.521   1.931  17.667  0.2796 -0.1354 -0.8195
 4616SOL    HW125307   0.525   1.961   0.056 -4.6698  1.7012 -1.2241
 4616SOL    HW225308   0.581   1.856  17.663  0.6679  0.0415  1.8850
 4617SOL     OW25309   0.383   1.378   8.985  0.6866 -0.1948  0.2367
 4617SOL    HW125310   0.307   1.321   8.971 -2.4859  3.8511  0.9004
 4617SOL    HW225311   0.342   1.438   9.047 -0.2080 -0.8141  0.2571
 4618SOL     OW25312   3.199   3.250   7.004 -0.1843 -0.3586 -0.3943
 4618SOL    HW125313   3.218   3.180   6.942  1.3801 -0.4595  0.1984
 4618SOL    HW225314   3.275   3.247   7.062  0.1665  1.0239 -0.7744
 4619SOL     OW25315   1.954   1.041  10.661  0.0562 -0.1018 -0.3265
 4619SOL    HW125316   1.900   0.982  10.713 -0.7248  1.0258  0.1198
 4619SOL    HW225317   1.928   1.010  10.574  0.8517 -0.3161 -0.4910
 4620SOL     OW25318   0.593   2.526  10.686 -0.3475  0.5333 -0.6004
 4620SOL    HW125319   0.655   2.556  10.752 -0.5681 -2.5141  1.0073
 4620SOL    HW225320   0.553   2.449  10.727  1.1271  0.2398  0.2794
 4621SOL     OW25321   3.088   0.108   3.523 -0.0835  0.4231  0.0942
 4621SOL    HW125322   3.169   0.069   3.492 -0.7822 -1.2529  0.3874
 4621SOL    HW225323   3.014   0.070   3.476  1.3557  0.7830 -2.4538
 4622SOL     OW25324   0.185   4.307  11.813 -0.4029 -1.2321 -0.5788
 4622SOL    HW125325   0.197   4.386  11.866  0.8289 -0.4053 -2.1029
 4622SOL    HW225326   0.261   4.298  11.757 -0.8825 -2.0425 -1.1016
 4623SOL     OW25327   3.028   1.841   0.959  0.0320 -0.2203  0.6059
 4623SOL    HW125328   3.010   1.904   0.889 -2.5774 -0.9760  0.6008
 4623SOL    HW225329   2.957   1.860   1.020 -2.6598 -1.0868 -2.2768
 4624SOL     OW25330   3.232   2.548   3.926 -0.4372 -0.5449  0.7647
 4624SOL    HW125331   3.322   2.549   3.894  0.3093 -1.4408  2.8668
 4624SOL    HW225332   3.207   2.636   3.900 -1.0010 -0.8179  0.3896
 4625SOL     OW25333   3.874   4.639  12.683  0.0569 -0.4379 -0.7507
 4625SOL    HW125334   3.888   4.544  12.691 -2.6497 -0.5590  2.4037
 4625SOL    HW225335   3.841   4.661  12.770  3.2032  0.1115  0.3051
 4626SOL     OW25336   3.843   2.134   2.663  0.1509  0.0607  0.3668
 4626SOL    HW125337   3.893   2.054   2.675 -0.2333 -0.1943  0.2657
 4626SOL    HW225338   3.752   2.103   2.657 -0.9191  3.2678 -0.4841
 4627SOL     OW25339   1.116   0.268   1.597  0.2538 -0.3112 -0.1605
 4627SOL    HW125340   1.115   0.241   1.505 -2.8526 -1.1180  0.1371
 4627SOL    HW225341   1.204   0.238   1.621  0.9936  0.9256 -1.2648
 4628SOL     OW25342   4.281   3.772  10.825 -0.0035 -0.2501 -0.2012
 4628SOL    HW125343   4.311   3.769  10.916 -2.6278 -1.4450  0.6266
 4628SOL    HW225344   4.218   3.700  10.817  0.2160 -0.7420  2.4419
 4629SOL     OW25345   2.336   0.403   3.182 -0.3283  0.1694 -0.7338
 4629SOL    HW125346   2.383   0.453   3.249  0.8466 -0.4638 -1.0883
 4629SOL    HW225347   2.269   0.468   3.163 -0.8040 -0.5063 -1.3349
 4630SOL     OW25348   1.222   2.364   3.012  0.3179 -0.1454  0.7189
 4630SOL    HW125349   1.204   2.396   2.923  1.6298  1.6034  1.0728
 4630SOL    HW225350   1.133   2.333   3.029  0.9736 -1.7302  1.2236
 4631SOL     OW25351   2.985   4.503  16.169 -0.7369 -0.0980  0.0074
 4631SOL    HW125352   2.962   4.590  16.136  3.3658  0.6530 -0.8488
 4631SOL    HW225353   3.035   4.523  16.248  0.9569 -1.0616 -0.8204
 4632SOL     OW25354   2.784   1.482   1.296 -0.3659  0.2954  0.3975
 4632SOL    HW125355   2.721   1.425   1.339 -2.2855  0.5690 -2.0290
 4632SOL    HW225356   2.866   1.435   1.312 -0.8173 -0.3091  0.9117
 4633SOL     OW25357   3.539   0.964  15.782  0.2503  0.2195  0.6293
 4633SOL    HW125358   3.460   1.014  15.763  0.8420  0.8836 -0.0809
 4633SOL    HW225359   3.607   1.031  15.785  0.2965  0.2536 -1.3411
 4634SOL     OW25360   1.219   2.865  10.317 -0.0707  0.1326  0.5375
 4634SOL    HW125361   1.247   2.786  10.271  0.9600 -1.0443  3.1598
 4634SOL    HW225362   1.300   2.916  10.325 -0.7686  1.4826 -1.0170
 4635SOL     OW25363   2.578   0.989  11.270  0.3641  0.5306  0.2463
 4635SOL    HW125364   2.547   0.969  11.181  0.9298  2.0006 -0.2924
 4635SOL    HW225365   2.674   0.993  11.263  0.2309 -2.7949 -3.9587
 4636SOL     OW25366   2.898   2.186   3.256  0.2893  0.4096 -0.6296
 4636SOL    HW125367   2.827   2.165   3.316  1.7069 -1.0972  0.5378
 4636SOL    HW225368   2.973   2.161   3.311 -1.1364  2.6354  2.2801
 4637SOL     OW25369   1.921   2.296  15.727 -0.5199 -0.4442  0.0407
 4637SOL    HW125370   2.016   2.302  15.716 -0.7272 -0.1083 -1.5735
 4637SOL    HW225371   1.889   2.383  15.706  1.5775  0.4591  0.5112
 4638SOL     OW25372   3.264   1.908   3.744  0.3001  0.0776  0.1212
 4638SOL    HW125373   3.211   1.836   3.777  2.0145 -1.0981  0.2890
 4638SOL    HW225374   3.245   1.898   3.651 -0.2511 -0.1332  0.2590
 4639SOL     OW25375   2.129   2.800   5.321  0.0816 -0.0810  0.5346
 4639SOL    HW125376   2.157   2.709   5.322 -1.2871 -0.5424 -2.6008
 4639SOL    HW225377   2.075   2.808   5.400 -0.5741 -0.0119  0.0759
 4640SOL     OW25378   2.344   4.039   6.920  0.0723 -0.3846  0.8180
 4640SOL    HW125379   2.308   4.123   6.946 -2.0079 -1.6977  2.1948
 4640SOL    HW225380   2.392   4.019   7.000 -0.0493 -2.1489  0.4537
 4641SOL     OW25381   0.889   0.726   4.950  0.7666  0.8395 -0.0933
 4641SOL    HW125382   0.900   0.720   5.045  0.4087  3.3004  0.0840
 4641SOL    HW225383   0.920   0.637   4.934 -1.7904 -0.0842  0.0487
 4642SOL     OW25384   0.589   3.493   6.203  0.1937  0.1051  0.1505
 4642SOL    HW125385   0.641   3.500   6.123 -0.4782  0.1739 -0.2824
 4642SOL    HW225386   0.612   3.406   6.235 -0.4477  0.1106  0.6313
 4643SOL     OW25387   4.645   2.958   8.863  0.3070  0.3575 -0.2367
 4643SOL    HW125388   4.553   2.985   8.868  0.6965  1.7876 -0.7496
 4643SOL    HW225389   4.673   2.979   8.952 -1.0369  0.1436  0.2422
 4644SOL     OW25390   2.069   4.264   6.361  0.0265  0.5110 -0.1186
 4644SOL    HW125391   2.073   4.339   6.303  0.1499  0.3841 -0.2743
 4644SOL    HW225392   1.993   4.277   6.418 -0.3495  1.8073 -0.9369
 4645SOL     OW25393   4.705   1.771   3.513 -0.1100  0.9881 -0.5352
 4645SOL    HW125394   4.621   1.741   3.480  0.1788  1.4889 -1.7477
 4645SOL    HW225395   4.675   1.778   3.604  1.1314 -1.9148  0.0890
 4646SOL     OW25396   2.794   3.261   4.984 -0.0532 -0.3370  0.2085
 4646SOL    HW125397   2.871   3.301   4.943  1.4040 -2.1945  1.1500
 4646SOL    HW225398   2.734   3.336   4.982  1.1592  0.6982  3.2274
 4647SOL     OW25399   0.437   1.449   2.243  0.2214 -0.0145 -0.4592
 4647SOL    HW125400   0.408   1.527   2.291 -0.4196  0.4374 -1.5710
 4647SOL    HW225401   0.399   1.380   2.298  1.7241 -0.2628  0.2569
 4648SOL     OW25402   3.846   0.873  15.886  0.7972  0.2496 -0.3461
 4648SOL    HW125403   3.815   0.820  15.813  0.1737 -0.7406  0.6499
 4648SOL    HW225404   3.818   0.956  15.846  1.3747 -0.6070 -2.5153
 4649SOL     OW25405   0.944   2.203   4.261 -0.3987  0.4487  0.3558
 4649SOL    HW125406   0.956   2.281   4.207  0.2701 -0.2538 -0.5151
 4649SOL    HW225407   0.851   2.202   4.280 -0.1754 -3.3036  1.2437
 4650SOL     OW25408   2.639   1.902  10.977 -0.4722  0.0983 -0.2264
 4650SOL    HW125409   2.665   1.815  10.946  0.3531  0.4447 -0.5277
 4650SOL    HW225410   2.621   1.893  11.070 -1.6080  0.8910 -0.3675
 4651SOL     OW25411   4.181   1.412   5.030 -0.8948 -0.3275 -0.2056
 4651SOL    HW125412   4.267   1.395   5.069 -1.2014 -1.4380 -0.0303
 4651SOL    HW225413   4.118   1.392   5.100 -0.0050  0.1882  0.7549
 4652SOL     OW25414   0.079   2.856   6.135  0.1025  0.1739  0.0686
 4652SOL    HW125415   0.121   2.855   6.221  0.4369  0.1953 -0.0929
 4652SOL    HW225416   4.716   2.842   6.169 -0.1390  0.6034 -0.3683
 4653SOL     OW25417   3.839   0.616   3.718 -0.4763  0.3123  0.2066
 4653SOL    HW125418   3.831   0.635   3.811  0.3664  0.0433  0.3328
 4653SOL    HW225419   3.923   0.570   3.721 -1.9353 -2.3051  0.4790
 4654SOL     OW25420   1.008   2.228  10.980 -0.2715 -0.6268  0.4111
 4654SOL    HW125421   1.030   2.148  11.026 -2.6139 -2.4325 -1.6361
 4654SOL    HW225422   0.989   2.281  11.057  3.0206 -0.9209  1.4427
 4655SOL     OW25423   0.860   1.398   6.943 -0.2272 -0.3484 -0.5745
 4655SOL    HW125424   0.950   1.425   6.930 -0.9847  2.1089 -0.7508
 4655SOL    HW225425   0.841   1.375   6.851  0.4377 -1.7059 -0.3647
 4656SOL     OW25426   3.595   3.149   7.986  0.1767  0.3214  0.5240
 4656SOL    HW125427   3.688   3.160   8.005  0.1603  1.1638  0.1170
 4656SOL    HW225428   3.580   3.200   7.906  0.1415 -0.7872 -0.1754
 4657SOL     OW25429   1.312   3.611   6.881  0.1076  0.3467  0.2962
 4657SOL    HW125430   1.220   3.585   6.876  0.1920  0.1163 -0.0523
 4657SOL    HW225431   1.332   3.595   6.973  1.5475 -1.6136 -0.3435
 4658SOL     OW25432   3.105   2.836   7.699  0.2932  0.3020 -0.1703
 4658SOL    HW125433   3.089   2.923   7.736  0.5307 -0.3405  1.4407
 4658SOL    HW225434   3.145   2.869   7.619 -2.0833  1.1820 -0.9621
 4659SOL     OW25435   2.229   0.899  10.579 -0.4470  0.2266 -0.2937
 4659SOL    HW125436   2.144   0.915  10.619 -1.8614 -2.5084 -2.2150
 4659SOL    HW225437   2.270   0.986  10.577  0.1817 -0.0452  1.4323
 4660SOL     OW25438   1.148   3.463  12.156  0.7351 -0.1197  0.1275
 4660SOL    HW125439   1.129   3.475  12.249 -1.3395  1.9596 -0.5617
 4660SOL    HW225440   1.203   3.384  12.158  1.6405  0.5666  2.0604
 4661SOL     OW25441   3.707   1.688   8.318 -0.1280  0.4565 -0.2842
 4661SOL    HW125442   3.680   1.615   8.262  1.4938  0.2531 -0.7876
 4661SOL    HW225443   3.758   1.739   8.256 -1.0153 -0.1500 -1.5239
 4662SOL     OW25444   4.272   0.495   7.072  0.0513  0.4281  0.0195
 4662SOL    HW125445   4.327   0.521   7.146  1.1687 -0.5840 -0.4518
 4662SOL    HW225446   4.260   0.577   7.025 -0.1384  1.1245  1.2802
 4663SOL     OW25447   0.436   0.012   2.748 -0.6067 -0.1502 -0.0297
 4663SOL    HW125448   0.429   0.084   2.686 -0.0917 -1.1542 -1.2584
 4663SOL    HW225449   0.346   4.716   2.770 -1.7957  1.7175 -3.0281
 4664SOL     OW25450   0.633   1.709   3.707  0.5557  0.0523  0.1371
 4664SOL    HW125451   0.701   1.707   3.775  0.7630  4.0353  0.0611
 4664SOL    HW225452   0.661   1.785   3.657  0.9267 -0.4092 -0.3598
 4665SOL     OW25453   3.268   3.850  15.173  0.0868  0.4288 -0.4520
 4665SOL    HW125454   3.340   3.913  15.176 -0.2997  0.7223  2.1449
 4665SOL    HW225455   3.202   3.877  15.236  0.0699 -0.2912 -0.1544
 4666SOL     OW25456   2.771   4.681   7.899  0.1200 -0.0911 -0.6454
 4666SOL    HW125457   2.784   4.587   7.908 -1.2070 -0.1778  0.3883
 4666SOL    HW225458   2.808   4.690   7.811 -0.5197 -2.4577 -1.1567
 4667SOL     OW25459   3.597   2.861   8.658  0.1831 -0.0012  0.1902
 4667SOL    HW125460   3.534   2.832   8.723  0.8472 -0.3724  0.6710
 4667SOL    HW225461   3.591   2.788   8.597 -3.3385  0.7292 -0.3373
 4668SOL     OW25462   2.428   3.693   1.635 -0.1562  0.9967  0.3293
 4668SOL    HW125463   2.487   3.622   1.662  0.2651  1.4154  0.5190
 4668SOL    HW225464   2.351   3.639   1.619  0.6754  0.3865 -1.5458
 4669SOL     OW25465   1.039   3.487   6.885 -0.3257  0.4019 -0.1401
 4669SOL    HW125466   0.981   3.553   6.922 -2.5792 -2.9588  2.3548
 4669SOL    HW225467   0.991   3.478   6.803 -1.1827  0.3151  0.3793
 4670SOL     OW25468   3.802   4.271   1.484 -0.0190 -0.2349  0.0607
 4670SOL    HW125469   3.774   4.361   1.470 -0.9665 -0.4954  0.2985
 4670SOL    HW225470   3.809   4.240   1.394  3.4797 -0.7813  0.5198
 4671SOL     OW25471   0.400   0.906   6.840 -0.1638  0.4530 -0.7827
 4671SOL    HW125472   0.423   0.987   6.794 -0.1062  0.6946 -0.3302
 4671SOL    HW225473   0.407   0.937   6.931 -0.0045  2.9116 -1.6452
 4672SOL     OW25474   2.575   3.416   7.618 -0.4866  0.3647 -0.1060
 4672SOL    HW125475   2.659   3.372   7.610 -2.0725 -2.1133 -2.9566
 4672SOL    HW225476   2.518   3.339   7.614  0.2786 -0.3131  1.7708
 4673SOL     OW25477   1.075   2.004   2.480 -0.0627  0.1206  0.4100
 4673SOL    HW125478   1.120   1.954   2.412 -1.4328  1.1869 -1.2638
 4673SOL    HW225479   1.087   2.094   2.450  1.0331  0.2267  1.1558
 4674SOL     OW25480   0.682   0.422   8.576 -0.5248  0.3594  0.0063
 4674SOL    HW125481   0.747   0.430   8.507  1.5142 -0.6219  1.8058
 4674SOL    HW225482   0.728   0.369   8.641 -0.0619  1.4691  0.5888
 4675SOL     OW25483   4.398   1.465   5.211 -0.1304  0.3872 -0.4852
 4675SOL    HW125484   4.464   1.435   5.149 -2.0389 -2.1066 -1.2933
 4675SOL    HW225485   4.424   1.556   5.225 -0.1915  0.2533  0.4864
 4676SOL     OW25486   1.766   0.435   9.541  0.2039  0.5237  0.1916
 4676SOL    HW125487   1.769   0.436   9.637 -0.6917  1.5993  0.2143
 4676SOL    HW225488   1.676   0.406   9.524  1.1874 -1.7624 -1.1432
 4677SOL     OW25489   1.262   0.867   7.092  0.4396  0.2415 -0.2723
 4677SOL    HW125490   1.304   0.865   7.178 -0.3638 -0.4652  0.1062
 4677SOL    HW225491   1.280   0.958   7.069  2.3236 -0.0498  0.0328
 4678SOL     OW25492   0.703   1.220   8.051 -0.1207  0.6808 -0.4228
 4678SOL    HW125493   0.795   1.207   8.072 -0.3426 -1.1822 -0.6124
 4678SOL    HW225494   0.711   1.275   7.974  2.5727 -0.5580 -1.0121
 4679SOL     OW25495   4.037   2.286  15.992  0.4709  0.3311  0.5215
 4679SOL    HW125496   4.106   2.351  16.003  1.9531 -1.1650  0.1593
 4679SOL    HW225497   3.963   2.346  15.999 -0.7745 -1.0815 -0.4212
 4680SOL     OW25498   1.919   2.515   2.996 -0.6728 -0.6995  0.3804
 4680SOL    HW125499   1.989   2.490   2.937  0.3644 -2.4705  2.3780
 4680SOL    HW225500   1.948   2.469   3.075  0.6324 -1.8503 -0.7749
 4681SOL     OW25501   3.315   0.854   0.411  0.0172  0.3468  0.2495
 4681SOL    HW125502   3.277   0.922   0.465  1.2683  1.3546 -0.1368
 4681SOL    HW225503   3.316   0.904   0.330  0.0469  0.4796  0.3327
 4682SOL     OW25504   3.257   4.323   7.842  0.4285 -0.5870 -0.8803
 4682SOL    HW125505   3.197   4.338   7.915  1.0881 -3.6016  0.2948
 4682SOL    HW225506   3.336   4.376   7.851  2.1061 -3.2951  0.2336
 4683SOL     OW25507   3.613   2.068   2.184  0.0074 -0.0078 -0.1902
 4683SOL    HW125508   3.523   2.102   2.188  0.3819  0.7665  1.8632
 4683SOL    HW225509   3.602   1.973   2.187  1.2911 -0.1443  0.0472
 4684SOL     OW25510   3.400   4.149   2.551 -0.0553  0.5998 -0.1699
 4684SOL    HW125511   3.424   4.110   2.468  0.0140 -0.6165  0.4214
 4684SOL    HW225512   3.457   4.224   2.566  0.9535 -0.0852 -0.5726
 4685SOL     OW25513   0.175   4.293   8.514  0.1602 -0.2636 -0.0997
 4685SOL    HW125514   0.121   4.220   8.484  0.4186 -0.1307 -0.8859
 4685SOL    HW225515   0.112   4.324   8.580  0.2722  1.9479 -1.0247
 4686SOL     OW25516   1.036   0.272  14.079  0.0585 -0.1870 -0.2604
 4686SOL    HW125517   1.111   0.328  14.098  0.8190 -1.7931  1.4855
 4686SOL    HW225518   1.000   0.310  13.999  2.5576  4.3066  0.7696
 4687SOL     OW25519   0.010   1.004   7.943  0.7337 -0.1336 -0.1242
 4687SOL    HW125520   4.650   0.960   7.939  0.2924  0.6493  1.0191
 4687SOL    HW225521   0.028   1.003   7.849 -0.7495 -0.1133 -0.4109
 4688SOL     OW25522   1.626   4.278  16.368 -0.4926  0.4741  0.5360
 4688SOL    HW125523   1.576   4.197  16.355 -1.4143  1.2941 -1.0094
 4688SOL    HW225524   1.694   4.267  16.302 -2.0825 -0.2200 -1.0193
 4689SOL     OW25525   4.499   3.327   5.989  0.2511  0.2206  0.5899
 4689SOL    HW125526   4.570   3.389   6.009 -1.0800  1.3509  1.7514
 4689SOL    HW225527   4.512   3.258   6.054 -2.4637 -0.8002  0.0245
 4690SOL     OW25528   3.100   0.139  11.426  0.1632  0.2967 -0.3815
 4690SOL    HW125529   3.097   0.153  11.331 -1.5550 -0.9726 -0.5219
 4690SOL    HW225530   3.194   0.127  11.434  0.2227  1.5658  0.7100
 4691SOL     OW25531   0.374   0.041   2.300  0.0939 -0.0481  0.3026
 4691SOL    HW125532   0.338   0.055   2.387 -1.3926  1.6364 -0.5806
 4691SOL    HW225533   0.297   0.078   2.257 -0.3667 -1.0854  0.2324
 4692SOL     OW25534   0.974   2.644   4.042  0.8690  0.5872 -0.4179
 4692SOL    HW125535   0.912   2.713   4.020  0.0193  0.1756  0.7143
 4692SOL    HW225536   1.043   2.673   3.982  1.0169  0.3640 -0.3577
 4693SOL     OW25537   3.383   0.520  15.316  0.1927  1.1168 -0.4941
 4693SOL    HW125538   3.341   0.560  15.391  1.1242 -0.2071  0.7527
 4693SOL    HW225539   3.309   0.501  15.258  0.3644 -0.0960 -0.3262
 4694SOL     OW25540   0.542   1.210  13.501  0.7314 -0.5207  0.4323
 4694SOL    HW125541   0.542   1.177  13.590  1.4371  0.4662  0.7945
 4694SOL    HW225542   0.611   1.276  13.508  1.0677 -0.9306  1.0172
 4695SOL     OW25543   1.764   4.328  14.735  0.9773  0.3385 -0.4240
 4695SOL    HW125544   1.781   4.403  14.678 -1.2578 -0.2717 -1.9072
 4695SOL    HW225545   1.700   4.281  14.681  0.5761 -0.0229  0.3587
 4696SOL     OW25546   0.163   0.414   4.686  0.0827  0.8127 -0.3661
 4696SOL    HW125547   0.190   0.382   4.772 -2.2458  2.4435  0.9726
 4696SOL    HW225548   0.071   0.390   4.683  0.6599 -1.5115  0.6434
 4697SOL     OW25549   3.566   1.275  16.230 -0.0380  0.4293 -0.0467
 4697SOL    HW125550   3.582   1.351  16.174  0.5698 -0.2099 -0.7283
 4697SOL    HW225551   3.479   1.299  16.264  0.0127 -0.9348  1.0431
 4698SOL     OW25552   3.204   0.644   2.255 -0.0114  0.1946 -0.5884
 4698SOL    HW125553   3.151   0.566   2.239  0.6557 -0.5198  0.6166
 4698SOL    HW225554   3.269   0.644   2.185 -0.8956 -0.3583 -1.4129
 4699SOL     OW25555   0.073   2.479   5.675 -0.5407 -0.0544 -0.2094
 4699SOL    HW125556   0.048   2.396   5.717 -1.0039  0.0735 -0.2391
 4699SOL    HW225557   4.722   2.527   5.707 -0.6157 -1.1486  1.2570
 4700SOL     OW25558   2.310   0.898   7.298  0.0022  0.4757 -0.3479
 4700SOL    HW125559   2.273   0.826   7.349  0.4410  0.6441  0.1989
 4700SOL    HW225560   2.234   0.956   7.300 -0.6217 -0.2694 -2.0578
 4701SOL     OW25561   4.364   2.193   2.013  0.1500 -0.1056  0.5486
 4701SOL    HW125562   4.407   2.155   1.937  0.2977  0.3911  0.3915
 4701SOL    HW225563   4.428   2.236   2.069 -0.3442 -0.0993  1.1209
 4702SOL     OW25564   0.422   4.410   8.425 -0.3286 -0.4584 -0.1694
 4702SOL    HW125565   0.439   4.333   8.371  0.2878 -0.1453 -0.4279
 4702SOL    HW225566   0.367   4.366   8.489  3.4189 -1.5284  2.3073
 4703SOL     OW25567   3.686   0.782  17.592 -0.0351  0.0934  0.0504
 4703SOL    HW125568   3.734   0.706  17.557 -0.1789  0.3774 -0.7719
 4703SOL    HW225569   3.726   0.861  17.556 -0.1496  0.7278  1.3305
 4704SOL     OW25570   2.749   1.421   7.458 -0.2325 -0.2823 -0.0204
 4704SOL    HW125571   2.710   1.458   7.378  1.6526  1.0546 -0.3444
 4704SOL    HW225572   2.725   1.329   7.455  1.6491 -0.7662 -0.6168
 4705SOL     OW25573   1.661   2.608  10.648 -0.0708 -0.7750  0.4309
 4705SOL    HW125574   1.619   2.550  10.584 -0.0384 -0.2947 -0.0219
 4705SOL    HW225575   1.588   2.623  10.708 -0.4767  0.1381 -0.2939
 4706SOL     OW25576   1.182   2.013  14.998  0.0397 -0.4279  0.0960
 4706SOL    HW125577   1.171   2.083  15.061 -1.6801 -0.9391  0.3533
 4706SOL    HW225578   1.122   2.044  14.930 -0.5168 -2.4438 -0.3284
 4707SOL     OW25579   2.510   3.211   0.894  0.1533  0.7206  0.3186
 4707SOL    HW125580   2.533   3.118   0.891  2.1156  1.2300 -0.6796
 4707SOL    HW225581   2.522   3.228   0.801 -2.6182  0.6557 -0.0377
 4708SOL     OW25582   2.939   1.493   4.983  0.5106 -0.3701  0.8756
 4708SOL    HW125583   3.001   1.489   4.911  2.0362  1.2831  2.0882
 4708SOL    HW225584   2.909   1.402   4.974 -0.4665  0.0674 -0.3274
 4709SOL     OW25585   4.501   2.066  15.910 -0.5689 -0.0467  0.9284
 4709SOL    HW125586   4.407   2.087  15.905 -0.9153 -1.3356  2.2647
 4709SOL    HW225587   4.536   2.152  15.888 -0.6762  0.8577  4.3598
 4710SOL     OW25588   1.936   3.532   5.859  0.2089 -0.4619  0.1567
 4710SOL    HW125589   1.855   3.480   5.853  0.9755 -1.3579 -2.2944
 4710SOL    HW225590   1.941   3.573   5.773 -0.2070 -0.6471  0.0395
 4711SOL     OW25591   4.589   4.024   9.220 -0.4088  0.2052 -0.5785
 4711SOL    HW125592   4.552   4.076   9.291  0.3194 -0.6603  0.4202
 4711SOL    HW225593   4.530   4.056   9.151  0.7630 -1.0586 -2.1581
 4712SOL     OW25594   1.818   1.011   5.276  0.5167 -0.4705  0.2078
 4712SOL    HW125595   1.738   0.980   5.319 -0.7343 -1.6192 -2.9351
 4712SOL    HW225596   1.887   0.954   5.310  0.8207  0.0928  0.5394
 4713SOL     OW25597   0.877   1.675   2.968  0.4525 -0.0224 -0.2697
 4713SOL    HW125598   0.822   1.610   3.012 -0.1293  2.0508  2.1272
 4713SOL    HW225599   0.837   1.682   2.882 -1.0096 -1.9060  0.2542
 4714SOL     OW25600   3.946   4.461   3.027  0.0162  0.1835  0.0499
 4714SOL    HW125601   3.928   4.555   3.032  0.9670  0.4169 -0.9178
 4714SOL    HW225602   4.037   4.451   3.001  0.2728  0.7590  0.7144
 4715SOL     OW25603   1.355   0.212   8.970 -0.1695 -0.1131  0.2886
 4715SOL    HW125604   1.357   0.181   8.880 -1.2314 -1.0779  0.5988
 4715SOL    HW225605   1.437   0.259   8.983  0.2668 -1.5643  2.8630
 4716SOL     OW25606   2.971   2.999  12.767 -0.6503  0.0343  0.1436
 4716SOL    HW125607   3.012   3.081  12.740  1.5400 -1.3419 -0.7170
 4716SOL    HW225608   2.935   3.027  12.852  0.0709 -0.9050  0.7581
 4717SOL     OW25609   3.257   2.183  11.586  0.2030  0.1162 -0.6516
 4717SOL    HW125610   3.298   2.147  11.664  0.4622 -1.5169 -1.5299
 4717SOL    HW225611   3.204   2.108  11.560  1.5699 -1.8253  2.2172
 4718SOL     OW25612   3.640   0.887  11.157  0.2645  0.4543  0.3210
 4718SOL    HW125613   3.651   0.891  11.252 -1.8813  0.6131  0.5465
 4718SOL    HW225614   3.730   0.878  11.125  0.0102 -1.8272  0.2920
 4719SOL     OW25615   4.185   2.200   4.291 -0.6772  0.2540  0.3156
 4719SOL    HW125616   4.142   2.206   4.376 -1.8523 -0.3973 -0.2482
 4719SOL    HW225617   4.217   2.110   4.293  0.5672  0.6531 -1.3737
 4720SOL     OW25618   2.384   2.101  14.527 -0.0686  0.2392 -0.4705
 4720SOL    HW125619   2.446   2.156  14.575  0.5401 -0.2234 -0.7163
 4720SOL    HW225620   2.361   2.033  14.590  2.0990 -0.3544 -0.3157
 4721SOL     OW25621   4.601   0.936   9.034  0.1510 -0.1985 -0.1053
 4721SOL    HW125622   4.660   0.944   9.109  0.5858 -0.7201 -0.3902
 4721SOL    HW225623   4.535   0.999   9.064 -0.6244 -0.6640 -0.8276
 4722SOL     OW25624   3.581   2.147   4.783  0.4137  0.3118 -0.3403
 4722SOL    HW125625   3.639   2.152   4.859  1.4748 -0.6427 -1.0825
 4722SOL    HW225626   3.635   2.093   4.725  0.9080  0.8177 -0.3515
 4723SOL     OW25627   1.618   0.964   3.647 -0.5899 -0.4614 -0.3088
 4723SOL    HW125628   1.665   1.006   3.718 -1.2010  0.7604 -0.6289
 4723SOL    HW225629   1.664   1.003   3.573 -0.5959  0.1354  0.0091
 4724SOL     OW25630   1.370   0.490   3.288  0.7051 -0.0887  0.7302
 4724SOL    HW125631   1.454   0.456   3.259 -0.5518 -2.6991  0.0846
 4724SOL    HW225632   1.315   0.465   3.214 -1.2469 -0.9261  2.4469
 4725SOL     OW25633   3.358   0.010   5.757 -0.2420  0.4983 -0.2554
 4725SOL    HW125634   3.418   0.058   5.815 -0.9518  2.5682 -1.2510
 4725SOL    HW225635   3.361   4.653   5.807  1.2732  0.1862 -0.8438
 4726SOL     OW25636   2.874   0.765   3.147  0.4989 -0.3494 -0.3253
 4726SOL    HW125637   2.968   0.786   3.150  0.6589 -1.1776  0.2153
 4726SOL    HW225638   2.868   0.670   3.153 -2.0150 -0.1692  0.0298
 4727SOL     OW25639   2.046   3.045  11.230 -0.1202  0.6103  0.2781
 4727SOL    HW125640   2.029   2.996  11.150  0.9676 -1.4582  1.3095
 4727SOL    HW225641   1.962   3.037  11.275  0.1564 -0.5770  0.6110
 4728SOL     OW25642   4.020   1.401   7.826 -0.5660  0.1814  0.0937
 4728SOL    HW125643   4.085   1.332   7.843 -0.1333  0.9175  1.3641
 4728SOL    HW225644   3.953   1.354   7.775  1.6847 -0.6900 -2.0983
 4729SOL     OW25645   3.770   0.692   8.474  0.1405  0.0521 -0.3388
 4729SOL    HW125646   3.797   0.781   8.495 -2.8685  0.5646  1.3021
 4729SOL    HW225647   3.851   0.650   8.446 -0.2411 -1.5874  0.9599
 4730SOL     OW25648   4.052   1.750   7.797  0.2036 -0.1676  0.3716
 4730SOL    HW125649   3.964   1.722   7.771 -0.0528  1.6995 -0.8310
 4730SOL    HW225650   4.076   1.675   7.851  1.5158 -0.1659 -0.2072
 4731SOL     OW25651   4.247   3.702  11.072 -0.0119 -0.1953 -0.0437
 4731SOL    HW125652   4.291   3.617  11.061  0.9856  0.4612 -1.0113
 4731SOL    HW225653   4.160   3.679  11.105  0.0896  0.1845  0.4924
 4732SOL     OW25654   4.680   0.057   2.230  0.2968 -0.0021 -0.5032
 4732SOL    HW125655   4.657   4.698   2.190 -0.5357  0.1204 -0.2763
 4732SOL    HW225656   4.598   0.076   2.275 -0.3339 -0.3256 -1.5316
 4733SOL     OW25657   0.960   2.298   6.724 -0.0539  0.3153  0.1296
 4733SOL    HW125658   0.993   2.221   6.679 -1.4705  0.8962 -1.8807
 4733SOL    HW225659   0.911   2.256   6.795 -1.2981  1.0249 -0.3063
 4734SOL     OW25660   3.623   4.093  10.710  0.0224  0.0455 -0.1361
 4734SOL    HW125661   3.639   4.109  10.803  0.0070 -2.0399  0.2358
 4734SOL    HW225662   3.590   4.176  10.677 -0.5903 -0.2307 -0.2135
 4735SOL     OW25663   0.731   4.522   6.668  0.0612  0.0148 -0.3765
 4735SOL    HW125664   0.799   4.540   6.603 -2.2660  2.3274 -2.1753
 4735SOL    HW225665   0.781   4.492   6.744  0.4761  0.5851 -0.4161
 4736SOL     OW25666   4.573   1.423   3.513  0.3409  0.1974 -0.1844
 4736SOL    HW125667   4.509   1.485   3.478  2.4499  1.3438 -2.0082
 4736SOL    HW225668   4.588   1.459   3.600  1.5777 -1.0335  0.1048
 4737SOL     OW25669   2.442   2.004  14.274  0.4059  0.0617  0.1288
 4737SOL    HW125670   2.501   1.961  14.337 -1.8241 -1.5251  1.1480
 4737SOL    HW225671   2.388   2.062  14.327  0.2284  0.0353 -0.0259
 4738SOL     OW25672   0.029   3.070   9.089 -0.3505  0.2287 -0.6103
 4738SOL    HW125673   0.079   3.032   9.161  1.5630  1.5090 -1.2591
 4738SOL    HW225674   0.081   3.148   9.066 -0.2525  0.6238  0.9656
 4739SOL     OW25675   0.204   4.620   6.793 -0.4057  0.2492 -0.2638
 4739SOL    HW125676   0.143   4.681   6.834  0.0576  0.2053  0.4766
 4739SOL    HW225677   0.199   4.656   6.704  0.4508  1.7813  0.3092
 4740SOL     OW25678   3.957   3.894  16.613  0.1847 -0.0592  0.2208
 4740SOL    HW125679   3.883   3.864  16.665 -0.4331 -0.9320 -1.1615
 4740SOL    HW225680   4.025   3.864  16.674  0.2706  1.0307  0.6794
 4741SOL     OW25681   1.778   0.877   3.339  0.3593  0.0953 -0.0175
 4741SOL    HW125682   1.711   0.823   3.381 -0.2466 -0.0897 -1.2174
 4741SOL    HW225683   1.753   0.958   3.382 -0.6186 -0.2326  0.0237
 4742SOL     OW25684   3.384   1.675   4.254  0.0251  0.0554 -0.0350
 4742SOL    HW125685   3.376   1.741   4.323 -2.2690 -0.9542  0.6860
 4742SOL    HW225686   3.292   1.674   4.227  0.4603 -0.8329 -1.5225
 4743SOL     OW25687   3.635   4.464   5.740  0.2107  0.4644 -0.9982
 4743SOL    HW125688   3.621   4.554   5.712  1.8909  0.9768 -0.1675
 4743SOL    HW225689   3.667   4.423   5.659 -0.1010  0.5592 -1.1722
 4744SOL     OW25690   3.594   2.092   5.924  0.3585 -0.3454  0.0909
 4744SOL    HW125691   3.572   1.999   5.928  0.0761 -0.2522  0.6607
 4744SOL    HW225692   3.546   2.126   5.849 -1.8735 -2.4430  0.5731
 4745SOL     OW25693   3.772   3.980   4.142 -0.5790 -0.1915 -0.7377
 4745SOL    HW125694   3.681   4.010   4.142 -0.1139  1.2095 -3.1587
 4745SOL    HW225695   3.780   3.995   4.048 -0.9577 -2.1145 -1.0774
 4746SOL     OW25696   3.851   2.723   1.514  0.2665  0.1709  0.1990
 4746SOL    HW125697   3.842   2.813   1.545 -0.0899  0.2123 -0.0323
 4746SOL    HW225698   3.893   2.728   1.428  0.6372 -0.8894  0.3170
 4747SOL     OW25699   0.059   1.716  15.916  0.1358  0.3339  0.0013
 4747SOL    HW125700   0.042   1.704  16.009  1.4108  0.5815  0.2625
 4747SOL    HW225701   0.149   1.747  15.909  0.3307 -0.3027 -0.3651
 4748SOL     OW25702   0.808   1.755   3.881 -0.2449  0.4461  0.1278
 4748SOL    HW125703   0.854   1.714   3.954  2.8953 -1.7629 -3.0238
 4748SOL    HW225704   0.873   1.806   3.833 -2.7393  1.3027 -2.3817
 4749SOL     OW25705   1.696   4.562  14.541  0.1864 -0.0845  0.0094
 4749SOL    HW125706   1.666   4.593  14.626 -0.8294  1.3303 -0.8755
 4749SOL    HW225707   1.619   4.582  14.488  0.9539  0.4279 -0.9270
 4750SOL     OW25708   3.891   0.963   4.715 -0.2975 -0.0934 -0.0681
 4750SOL    HW125709   3.982   0.938   4.733 -0.4270 -1.3987 -1.2433
 4750SOL    HW225710   3.896   1.056   4.697  0.3817 -0.7691 -3.3043
 4751SOL     OW25711   2.880   3.552   7.261 -0.5007  0.1058 -0.1476
 4751SOL    HW125712   2.804   3.543   7.203  1.1549 -0.9993 -2.1818
 4751SOL    HW225713   2.909   3.461   7.264  0.6588  0.4449 -1.1502
 4752SOL     OW25714   4.670   2.345   1.983 -0.2456  0.2322 -0.3465
 4752SOL    HW125715   4.637   2.290   1.912  0.1365  1.8198 -1.7501
 4752SOL    HW225716   0.014   2.397   1.942 -2.1997  3.6653  0.7406
 4753SOL     OW25717   0.342   0.757   2.892 -0.3177  0.2210  0.3280
 4753SOL    HW125718   0.333   0.680   2.836  1.5452 -0.4363  0.9168
 4753SOL    HW225719   0.332   0.835   2.837  3.5350  0.7733  0.3803
 4754SOL     OW25720   0.937   3.107   1.208 -0.1712  0.1715 -0.2070
 4754SOL    HW125721   0.969   3.017   1.205 -1.4215 -0.2521 -1.0870
 4754SOL    HW225722   1.011   3.167   1.211 -0.6750  0.7574  0.5391
 4755SOL     OW25723   0.102   3.095   7.207 -0.0039 -0.0661  0.3507
 4755SOL    HW125724   0.105   3.107   7.112  1.6744  0.2482  0.4410
 4755SOL    HW225725   0.007   3.093   7.218 -0.4245  1.2019 -3.1202
 4756SOL     OW25726   1.950   1.058  11.468  0.4293 -0.2011 -0.1412
 4756SOL    HW125727   1.910   0.996  11.530 -1.6361  0.3064 -0.9625
 4756SOL    HW225728   2.041   1.037  11.488  0.7247  0.9497 -0.2475
 4757SOL     OW25729   3.086   1.004   4.315  0.4682 -0.2385 -0.0639
 4757SOL    HW125730   2.993   1.012   4.332 -0.3459 -2.2258 -3.5881
 4757SOL    HW225731   3.119   0.966   4.396 -0.6931  1.4092  1.1751
 4758SOL     OW25732   0.576   3.506   7.201 -0.1249 -0.0337 -0.3225
 4758SOL    HW125733   0.652   3.454   7.225 -1.7833 -2.5766 -0.5372
 4758SOL    HW225734   0.583   3.571   7.271 -1.1080  1.3335 -1.4807
 4759SOL     OW25735   1.160   4.022   5.456  0.0579 -0.5021  0.1045
 4759SOL    HW125736   1.220   3.994   5.525 -0.5358 -1.2694  0.3090
 4759SOL    HW225737   1.079   4.025   5.506  0.9662  2.2065  1.3735
 4760SOL     OW25738   4.547   0.342   7.784 -0.3914 -0.7887  0.2446
 4760SOL    HW125739   4.455   0.339   7.758 -0.5208  1.6704  0.4403
 4760SOL    HW225740   4.564   0.436   7.795 -1.7129 -0.3650 -1.3394
 4761SOL     OW25741   1.909   2.138   8.346 -0.2146 -0.6642 -0.3916
 4761SOL    HW125742   1.823   2.098   8.359  0.0279 -0.6455  1.2888
 4761SOL    HW225743   1.897   2.221   8.393 -0.0581 -0.9485  0.1570
 4762SOL     OW25744   4.498   4.156   7.137 -0.1986  0.3828 -0.1008
 4762SOL    HW125745   4.439   4.227   7.163  2.9479  3.1342 -0.5771
 4762SOL    HW225746   4.449   4.078   7.111  3.9437 -1.8383 -1.1824
 4763SOL     OW25747   0.845   3.972   7.224  1.1539 -0.0980  0.2978
 4763SOL    HW125748   0.796   4.003   7.148  2.2080  1.7158  0.3472
 4763SOL    HW225749   0.912   3.909   7.199  2.0882  2.1663 -2.8620
 4764SOL     OW25750   1.849   4.070   3.234 -0.0946 -0.0142  0.2294
 4764SOL    HW125751   1.845   4.160   3.204  1.2281  0.6095  1.9353
 4764SOL    HW225752   1.879   4.075   3.325 -0.6748  0.8709  0.3687
 4765SOL     OW25753   0.290   3.486  17.420 -0.1060  0.0715 -0.3555
 4765SOL    HW125754   0.329   3.399  17.426 -1.0171 -0.3830 -1.0130
 4765SOL    HW225755   0.276   3.493  17.326  1.4220 -2.9029 -0.7732
 4766SOL     OW25756   3.362   1.508  14.322 -0.2247 -0.5733 -0.5185
 4766SOL    HW125757   3.309   1.552  14.256 -0.5844 -2.5721 -1.5564
 4766SOL    HW225758   3.331   1.566  14.391 -0.6528 -1.5244  0.0998
 4767SOL     OW25759   1.585   3.921   6.916 -0.2606 -0.1949 -0.2828
 4767SOL    HW125760   1.649   3.982   6.952 -0.2718 -1.1368  1.3075
 4767SOL    HW225761   1.640   3.846   6.892  1.2138  1.3740 -1.8032
 4768SOL     OW25762   0.976   3.015   5.544 -0.5199  0.1708  0.2596
 4768SOL    HW125763   0.976   3.044   5.635 -0.6177 -0.7006  0.5410
 4768SOL    HW225764   0.882   3.003   5.528 -0.8198  1.2382  1.1992
 4769SOL     OW25765   2.963   0.321   4.750 -0.3858 -0.0843 -0.6930
 4769SOL    HW125766   2.899   0.262   4.790 -0.9345  1.7464  1.1465
 4769SOL    HW225767   3.031   0.327   4.818 -4.4761  1.5234  3.2483
 4770SOL     OW25768   0.020   3.369  15.843 -0.1009  0.0034 -0.4556
 4770SOL    HW125769   0.027   3.412  15.757  0.2566  1.2142  0.1745
 4770SOL    HW225770   0.108   3.394  15.872 -1.0548  2.0572  0.7054
 4771SOL     OW25771   0.856   3.641   5.744  0.2103 -0.5997 -0.0658
 4771SOL    HW125772   0.816   3.652   5.658  0.4650 -2.0989 -0.3771
 4771SOL    HW225773   0.873   3.733   5.765 -1.4783 -0.4227  0.5231
 4772SOL     OW25774   3.788   0.673   4.001 -0.1431  0.1238  0.2946
 4772SOL    HW125775   3.763   0.765   4.005 -2.6347 -0.4485 -2.1790
 4772SOL    HW225776   3.702   0.631   4.008 -0.1210  0.1063  0.4773
 4773SOL     OW25777   4.052   0.961   4.258  0.0428  0.1052  0.5163
 4773SOL    HW125778   3.961   0.984   4.275  0.0071  1.0874 -0.9511
 4773SOL    HW225779   4.038   0.913   4.176 -1.8657  0.6791  0.5244
 4774SOL     OW25780   0.217   2.748   0.603  0.5014 -0.2725  0.6189
 4774SOL    HW125781   0.214   2.785   0.691 -1.1411  0.1124  0.4075
 4774SOL    HW225782   0.312   2.738   0.603  0.5325  0.0819  0.0405
 4775SOL     OW25783   4.334   2.318  15.660  0.2943 -0.0791  0.0323
 4775SOL    HW125784   4.353   2.269  15.740  1.7683 -1.1244 -0.9644
 4775SOL    HW225785   4.337   2.245  15.599  0.5354  0.7398 -0.9351
 4776SOL     OW25786   1.547   0.219   8.420 -0.0050  0.3738 -0.2351
 4776SOL    HW125787   1.498   0.167   8.484 -0.8387  1.1382 -0.2598
 4776SOL    HW225788   1.479   0.278   8.390  1.0215  2.2791  1.1568
 4777SOL     OW25789   3.775   2.961  10.448 -0.3178  0.2231  0.5674
 4777SOL    HW125790   3.705   2.896  10.454 -1.1105  1.0689  0.4509
 4777SOL    HW225791   3.781   2.962  10.352 -0.9212 -1.0726  0.5188
 4778SOL     OW25792   4.423   0.037   3.513 -0.1908 -0.1014 -0.1501
 4778SOL    HW125793   4.517   0.055   3.505 -0.9423  2.6863 -2.5045
 4778SOL    HW225794   4.427   4.670   3.487  1.3713 -0.3937  1.1724
 4779SOL     OW25795   0.767   4.172   1.759  0.4069  0.0196  0.2668
 4779SOL    HW125796   0.691   4.117   1.744 -0.7785  0.9559  2.8419
 4779SOL    HW225797   0.796   4.188   1.669 -1.4870 -2.1229 -0.7152
 4780SOL     OW25798   4.440   0.154   0.337 -0.3978 -0.1776 -0.2541
 4780SOL    HW125799   4.388   0.082   0.301  1.1896 -1.2228 -0.4425
 4780SOL    HW225800   4.371   0.177   0.399  0.9245  1.2869  0.6779
 4781SOL     OW25801   4.086   3.251  15.295  0.3606  0.1475 -0.6722
 4781SOL    HW125802   4.048   3.188  15.356  1.2227 -0.1468 -0.4451
 4781SOL    HW225803   4.164   3.205  15.263 -0.5623 -0.0528 -2.6693
 4782SOL     OW25804   4.585   3.496   4.103  0.0409 -0.6327  0.4427
 4782SOL    HW125805   4.642   3.500   4.179  1.7333  1.4147 -0.9487
 4782SOL    HW225806   4.505   3.466   4.146  0.4128 -0.6109  1.1508
 4783SOL     OW25807   1.369   2.649   2.850 -0.1237  0.1127  0.2884
 4783SOL    HW125808   1.449   2.597   2.850  1.3045  2.3435  0.9788
 4783SOL    HW225809   1.305   2.580   2.830 -2.1755  2.0277  0.3242
 4784SOL     OW25810   4.491   0.143   9.038 -0.9753  0.1638  0.1515
 4784SOL    HW125811   4.556   0.138   8.969  1.6486 -0.4007  2.6543
 4784SOL    HW225812   4.534   0.093   9.108  0.0291  0.6897 -0.0942
 4785SOL     OW25813   2.259   3.383  14.658 -0.8638 -0.4004 -0.5653
 4785SOL    HW125814   2.276   3.297  14.697 -0.5335  0.3306  0.8926
 4785SOL    HW225815   2.165   3.384  14.644 -0.6303  1.9047 -1.9047
 4786SOL     OW25816   0.708   3.021   8.638 -0.5875 -0.1693 -0.0127
 4786SOL    HW125817   0.647   3.089   8.609  0.4582  0.7660 -0.0100
 4786SOL    HW225818   0.662   2.973   8.708 -0.5922  1.0888  0.8554
 4787SOL     OW25819   2.488   3.875   2.155  0.2471  0.5238  0.2042
 4787SOL    HW125820   2.479   3.802   2.094  1.2422  0.9777 -0.5004
 4787SOL    HW225821   2.399   3.903   2.175  0.8255  1.1156  1.9101
 4788SOL     OW25822   3.356   2.828   1.845  0.3486 -0.0775 -0.4230
 4788SOL    HW125823   3.298   2.758   1.817  1.2435 -0.5548 -1.0755
 4788SOL    HW225824   3.413   2.839   1.769  0.8313  0.8426  0.0637
 4789SOL     OW25825   0.319   3.860   3.477  0.4738 -0.1971 -0.5180
 4789SOL    HW125826   0.254   3.925   3.450 -2.2513 -3.0783 -0.9825
 4789SOL    HW225827   0.263   3.802   3.530  0.7748  1.0908  1.1949
 4790SOL     OW25828   2.400   2.020  10.888  0.2188 -0.1540 -0.5482
 4790SOL    HW125829   2.493   1.996  10.899  0.2523  1.4654  2.5104
 4790SOL    HW225830   2.384   2.066  10.970  2.1313 -2.4888  1.1337
 4791SOL     OW25831   2.020   1.316  11.410 -0.0796 -0.6001  0.8987
 4791SOL    HW125832   1.997   1.222  11.412  1.9403 -1.0820  0.9011
 4791SOL    HW225833   1.934   1.353  11.389  0.1764 -0.5822 -0.0942
 4792SOL     OW25834   1.817   3.970  11.883  0.1162 -0.1683  0.1622
 4792SOL    HW125835   1.827   3.964  11.978  0.2065  0.4839  0.1895
 4792SOL    HW225836   1.784   4.059  11.877 -0.5155 -0.3806  0.4819
 4793SOL     OW25837   3.056   4.016  17.191  0.3240 -0.6302 -0.2087
 4793SOL    HW125838   2.986   4.076  17.165  0.6120 -0.9346 -1.6623
 4793SOL    HW225839   3.002   3.937  17.195  1.2476 -1.1346  2.7708
 4794SOL     OW25840   3.924   3.730  11.846 -0.5568  0.1004 -0.8582
 4794SOL    HW125841   3.956   3.806  11.895  0.4828 -0.0045 -1.3588
 4794SOL    HW225842   4.002   3.717  11.791 -0.0367 -0.8198  0.0995
 4795SOL     OW25843   0.111   0.454   2.040  0.2537  0.2802 -0.5417
 4795SOL    HW125844   0.018   0.436   2.029  0.1672  0.7968 -0.6541
 4795SOL    HW225845   0.134   0.372   2.084 -0.5033  0.6243  0.4940
 4796SOL     OW25846   0.357   3.599  16.919  0.1478 -0.7366  0.1982
 4796SOL    HW125847   0.409   3.678  16.930 -1.5748  0.5581 -1.0646
 4796SOL    HW225848   0.386   3.584  16.829 -1.0626 -3.4910  0.2434
 4797SOL     OW25849   0.548   1.869  13.268  0.6117 -0.3974 -0.6449
 4797SOL    HW125850   0.643   1.876  13.271  0.4439  1.2274  0.6206
 4797SOL    HW225851   0.530   1.894  13.177  1.0285 -1.2448 -0.9640
 4798SOL     OW25852   0.637   3.969   2.059  0.3633  0.0303 -0.4317
 4798SOL    HW125853   0.543   3.981   2.075  0.5008 -0.6169  0.8876
 4798SOL    HW225854   0.628   3.895   1.999  0.4649 -0.4140  0.1092
 4799SOL     OW25855   2.012   1.440   5.245  0.6873 -0.6408 -0.0078
 4799SOL    HW125856   1.978   1.525   5.215 -2.5335 -1.6915  0.6523
 4799SOL    HW225857   1.925   1.401   5.236  1.0629 -1.3646 -0.4342
 4800SOL     OW25858   4.685   1.180   7.450 -0.3462 -0.6326 -0.4783
 4800SOL    HW125859   4.698   1.085   7.442 -0.4257 -0.6017 -1.0090
 4800SOL    HW225860   4.632   1.184   7.530  1.1715  1.4112  0.4159
 4801SOL     OW25861   1.560   1.148   7.563 -0.0495 -0.6623 -0.1721
 4801SOL    HW125862   1.536   1.080   7.625  0.3446 -0.3211  0.3527
 4801SOL    HW225863   1.526   1.222   7.613  2.0083  0.5064 -0.4872
 4802SOL     OW25864   2.287   3.362   5.557 -0.3492  0.1712 -0.7926
 4802SOL    HW125865   2.267   3.270   5.540 -1.5602  0.5507 -1.4408
 4802SOL    HW225866   2.236   3.372   5.637 -0.3247 -0.9441 -0.6419
 4803SOL     OW25867   0.001   0.983  13.350 -0.0135 -0.3196  0.1747
 4803SOL    HW125868   0.012   1.013  13.260 -1.6758 -1.1984 -0.3345
 4803SOL    HW225869   4.632   1.003  13.359  0.2384  0.9291  0.0057
 4804SOL     OW25870   1.848   3.030  11.411 -0.1211 -0.4023  0.3732
 4804SOL    HW125871   1.848   2.935  11.423 -2.4628 -0.0660  3.0329
 4804SOL    HW225872   1.754   3.044  11.422  0.1215  1.1971  0.3871
 4805SOL     OW25873   0.673   2.558   1.829  0.4904 -0.2451  0.0807
 4805SOL    HW125874   0.744   2.611   1.794  0.1950  0.0910 -0.0063
 4805SOL    HW225875   0.708   2.470   1.814 -0.1267 -0.3524 -0.7647
 4806SOL     OW25876   3.366   2.285   3.480 -0.0594  0.0888  0.0072
 4806SOL    HW125877   3.400   2.366   3.442  1.0382  0.5504  1.9661
 4806SOL    HW225878   3.445   2.257   3.527  1.1947 -0.0747 -2.1687
 4807SOL     OW25879   1.889   2.790   3.243 -0.3227  0.7141  0.3202
 4807SOL    HW125880   1.927   2.782   3.155 -0.8999 -0.9261  0.2167
 4807SOL    HW225881   1.812   2.735   3.230  2.5136 -3.3632  0.8506
 4808SOL     OW25882   4.692   1.665  17.070  0.2291 -0.5011  0.1051
 4808SOL    HW125883   4.604   1.641  17.041 -0.3295 -0.2051  1.5491
 4808SOL    HW225884   4.679   1.757  17.094  2.9255 -0.4389  1.2713
 4809SOL     OW25885   3.261   4.039  16.614 -0.0430 -0.7492  0.1121
 4809SOL    HW125886   3.301   4.046  16.528 -1.1067  0.7981 -0.2565
 4809SOL    HW225887   3.281   4.128  16.643  2.1421 -0.2523 -2.9132
 4810SOL     OW25888   1.768   3.636   4.302  0.1173  0.6491 -0.1220
 4810SOL    HW125889   1.838   3.621   4.238  0.3371 -1.5027  0.6510
 4810SOL    HW225890   1.721   3.707   4.258 -1.1715  0.6116  1.1948
 4811SOL     OW25891   0.990   3.461  17.385  0.4840  0.3208 -0.5108
 4811SOL    HW125892   1.068   3.454  17.441  0.9768  2.3373 -0.9587
 4811SOL    HW225893   1.013   3.413  17.305  1.6583  0.6410 -0.3723
 4812SOL     OW25894   1.037   3.731   8.917 -0.0582 -0.1012  0.1585
 4812SOL    HW125895   1.024   3.676   8.840  1.5875  3.0718 -2.3575
 4812SOL    HW225896   0.988   3.806   8.882 -1.5227  0.1712  2.8083
 4813SOL     OW25897   3.752   1.494  10.086  0.1794  0.2298 -0.5361
 4813SOL    HW125898   3.674   1.489  10.141  1.3095  0.1937  1.0977
 4813SOL    HW225899   3.722   1.551  10.016  0.0820 -0.8509 -1.3686
 4814SOL     OW25900   2.944   0.947  16.935  0.0918 -0.4983  0.2255
 4814SOL    HW125901   2.967   1.019  16.994 -1.3619  0.8419 -0.8431
 4814SOL    HW225902   3.009   0.881  16.959  1.6435  1.0308  0.2273
 4815SOL     OW25903   2.063   3.605   2.952  0.2796  0.5102  0.3662
 4815SOL    HW125904   2.033   3.652   3.030 -0.4481  0.9371 -0.1695
 4815SOL    HW225905   2.002   3.636   2.885 -2.0754 -1.7248  1.4658
 4816SOL     OW25906   4.697   3.956   6.404 -0.0163  0.4198  0.2730
 4816SOL    HW125907   0.049   3.991   6.449  0.2544  0.1074  0.0539
 4816SOL    HW225908   4.635   3.966   6.477 -0.2464  0.6830  0.0425
 4817SOL     OW25909   4.459   3.189  17.382 -0.2970 -0.4375 -0.0253
 4817SOL    HW125910   4.481   3.282  17.378 -1.0055 -0.3109 -0.9433
 4817SOL    HW225911   4.545   3.150  17.399 -0.9892 -1.3181  1.4666
 4818SOL     OW25912   0.230   1.237   0.341 -1.0157  0.0563  0.8187
 4818SOL    HW125913   0.194   1.309   0.289 -0.9514  0.0128  0.7135
 4818SOL    HW225914   0.155   1.179   0.355 -1.8640  1.3788  1.7328
 4819SOL     OW25915   2.294   1.971   8.116  0.1499  0.3245 -0.3211
 4819SOL    HW125916   2.213   1.959   8.066  0.9246 -0.7387 -1.3071
 4819SOL    HW225917   2.258   2.023   8.188 -0.0599  2.0453 -1.6356
 4820SOL     OW25918   4.040   0.613   8.412 -0.3762  0.3771  0.5345
 4820SOL    HW125919   4.066   0.545   8.473 -3.4633 -1.1762  0.1298
 4820SOL    HW225920   4.128   0.647   8.396 -0.5086  1.2555  1.6872
 4821SOL     OW25921   1.865   0.587   7.937  0.5957  0.2235  0.3376
 4821SOL    HW125922   1.957   0.596   7.962  0.3735  0.4856  1.0528
 4821SOL    HW225923   1.851   0.494   7.952  2.0367  0.2166  1.6212
 4822SOL     OW25924   1.574   2.645   3.281 -0.9180 -0.6697 -0.2193
 4822SOL    HW125925   1.586   2.563   3.234  1.8118 -0.4484  0.0950
 4822SOL    HW225926   1.587   2.709   3.211 -0.6627  0.7097  1.0865
 4823SOL     OW25927   2.472   0.413  11.858 -0.0700  0.7632 -0.0475
 4823SOL    HW125928   2.398   0.451  11.905 -0.3645 -0.7100  0.6717
 4823SOL    HW225929   2.459   0.432  11.765  0.0557  3.5510  0.5138
 4824SOL     OW25930   1.718   2.092   6.795  0.7376 -0.1947 -0.2600
 4824SOL    HW125931   1.770   2.014   6.774  0.9749 -0.7481  2.3295
 4824SOL    HW225932   1.700   2.089   6.889  1.7727 -1.2200 -0.0864
 4825SOL     OW25933   3.914   2.484   6.340  0.0173  0.5361 -0.6678
 4825SOL    HW125934   3.863   2.430   6.279 -1.0306  1.3971 -0.5455
 4825SOL    HW225935   4.005   2.474   6.311  1.1764  1.1908  2.7525
 4826SOL     OW25936   4.421   0.080   5.028 -0.0553  0.0229  0.2231
 4826SOL    HW125937   4.463   0.020   4.966  0.9668 -0.0686  0.9993
 4826SOL    HW225938   4.431   0.162   4.979 -0.6623  0.0049  0.0675
 4827SOL     OW25939   0.331   4.668  11.691  0.0622  0.2017  0.0484
 4827SOL    HW125940   0.378   4.724  11.629 -1.1445  0.8133 -0.2991
 4827SOL    HW225941   0.285   0.002  11.750 -0.8466 -1.9724  1.5356
 4828SOL     OW25942   1.571   1.226  15.505  0.0537  0.3919  0.5616
 4828SOL    HW125943   1.663   1.236  15.481  0.6846  0.0183  2.8444
 4828SOL    HW225944   1.573   1.241  15.600 -0.8779  0.3373  0.5897
 4829SOL     OW25945   2.713   1.029  14.016  0.2029  0.6372 -0.1274
 4829SOL    HW125946   2.697   0.972  13.942  1.4065 -0.5750  0.5467
 4829SOL    HW225947   2.641   1.091  14.020 -0.4756 -0.1538 -0.1419
 4830SOL     OW25948   3.615   2.000  12.867  0.3819  0.1773  0.8412
 4830SOL    HW125949   3.629   1.909  12.892  0.2982  0.2392  1.1161
 4830SOL    HW225950   3.558   1.975  12.795  1.8934  1.6112 -0.8507
 4831SOL     OW25951   0.817   0.561   2.810 -0.0858  0.0424 -0.0537
 4831SOL    HW125952   0.765   0.640   2.821 -0.4573 -0.2187  0.0706
 4831SOL    HW225953   0.759   0.501   2.763  1.3628 -1.0521 -0.4403
 4832SOL     OW25954   3.102   1.467  17.547 -0.1001  0.3806 -0.4943
 4832SOL    HW125955   3.129   1.508  17.465  0.0470 -0.3805 -0.8358
 4832SOL    HW225956   3.179   1.475  17.604  0.6933 -2.7412 -1.0771
 4833SOL     OW25957   1.089   0.683   7.924 -0.2666  0.3722  0.5537
 4833SOL    HW125958   1.115   0.701   8.015  1.0470 -0.0630  0.2577
 4833SOL    HW225959   0.995   0.666   7.925  0.0504 -1.3578 -0.6481
 4834SOL     OW25960   2.317   3.766   6.892 -0.1070  0.1583  0.1549
 4834SOL    HW125961   2.287   3.713   6.966 -1.2240 -1.5879 -1.5650
 4834SOL    HW225962   2.303   3.859   6.905  3.4262  0.4756  1.9384
 4835SOL     OW25963   0.323   0.158   3.338 -0.2715  0.3997 -0.7256
 4835SOL    HW125964   0.339   0.171   3.432  1.5518 -1.4279 -0.8025
 4835SOL    HW225965   0.393   0.210   3.298  0.5100 -0.0932  0.0029
 4836SOL     OW25966   3.080   1.153   1.557 -0.0869 -0.0453 -0.4484
 4836SOL    HW125967   3.124   1.102   1.624  2.5223  1.3121 -1.1471
 4836SOL    HW225968   3.117   1.112   1.479 -0.3744  0.8044 -1.0425
 4837SOL     OW25969   2.218   2.417   6.234 -0.3043 -0.5676  0.2644
 4837SOL    HW125970   2.241   2.505   6.202 -1.1931 -0.0225  1.1366
 4837SOL    HW225971   2.136   2.439   6.277 -0.5861 -1.5140  0.1982
 4838SOL     OW25972   0.457   4.545   4.624 -0.1078  0.8526  0.4213
 4838SOL    HW125973   0.491   4.544   4.714 -0.0843 -1.3499  0.3743
 4838SOL    HW225974   0.478   4.453   4.614 -1.3944  0.7611 -1.4054
 4839SOL     OW25975   2.270   0.447  12.169  0.4019  0.0370 -0.0092
 4839SOL    HW125976   2.268   0.486  12.082  0.5355  2.0064  0.8594
 4839SOL    HW225977   2.191   0.393  12.163  0.2581  0.1846  0.5721
 4840SOL     OW25978   2.685   3.833   4.051  0.1499 -0.8315  0.3396
 4840SOL    HW125979   2.742   3.781   4.107  1.1034  0.0244  0.1588
 4840SOL    HW225980   2.638   3.887   4.114  2.1558  0.9624  0.2981
 4841SOL     OW25981   3.331   3.894   3.670  0.6833 -0.1357 -0.2169
 4841SOL    HW125982   3.371   3.935   3.747 -0.0209  0.1315  0.0069
 4841SOL    HW225983   3.249   3.865   3.709  0.6806 -1.5075 -1.2688
 4842SOL     OW25984   2.391   0.751   2.732 -0.1388 -0.5181  0.1442
 4842SOL    HW125985   2.337   0.823   2.700  0.0713  0.2725  1.6036
 4842SOL    HW225986   2.472   0.754   2.681 -0.0170  1.1267  0.4414
 4843SOL     OW25987   1.148   4.091   7.618  0.1379 -0.1170  0.0979
 4843SOL    HW125988   1.200   4.144   7.558 -1.9567  2.6366  0.6988
 4843SOL    HW225989   1.069   4.145   7.612  0.3249 -0.0377 -1.5438
 4844SOL     OW25990   2.216   2.353  15.773  0.2268  0.2591 -0.5103
 4844SOL    HW125991   2.300   2.308  15.759 -0.1191 -1.2053  2.1019
 4844SOL    HW225992   2.221   2.442  15.739  3.4673  1.1574  2.2761
 4845SOL     OW25993   1.003   1.825  14.568  0.9050  0.0237  0.2881
 4845SOL    HW125994   1.018   1.844  14.661 -1.8585  1.2287  0.4942
 4845SOL    HW225995   1.081   1.775  14.543  1.2165  0.4094  0.4764
 4846SOL     OW25996   3.302   0.517   8.578  0.0039 -0.3048 -0.0368
 4846SOL    HW125997   3.230   0.506   8.640 -1.0555  2.1826 -0.8168
 4846SOL    HW225998   3.371   0.519   8.645  0.1870  1.1285 -0.2718
 4847SOL     OW25999   2.085   1.031   7.854  0.2884 -0.6477 -0.4898
 4847SOL    HW126000   1.998   1.069   7.869  1.2595  0.7935  1.4667
 4847SOL    HW226001   2.129   1.059   7.934  0.2071  1.9013 -1.3259
 4848SOL     OW26002   0.786   2.309   6.051 -0.2277 -0.5951  0.4418
 4848SOL    HW126003   0.727   2.315   5.975 -2.5030  0.4874  2.3001
 4848SOL    HW226004   0.851   2.241   6.031  0.8110  0.1328  1.3533
 4849SOL     OW26005   3.647   3.289  16.933 -0.0577  0.2749  0.5211
 4849SOL    HW126006   3.609   3.260  16.850 -2.1102  1.9851  0.8447
 4849SOL    HW226007   3.726   3.237  16.946 -0.3149 -0.8179 -2.2972
 4850SOL     OW26008   1.149   3.641   6.537  0.0560  0.0137 -0.3821
 4850SOL    HW126009   1.100   3.647   6.619  0.1496  1.7978 -0.4683
 4850SOL    HW226010   1.101   3.701   6.479 -2.1997 -2.7071 -1.3726
 4851SOL     OW26011   4.562   3.349   3.489 -0.1668 -0.0337 -0.0038
 4851SOL    HW126012   4.629   3.413   3.465 -0.1797  0.0135  0.0855
 4851SOL    HW226013   4.591   3.320   3.575  1.4187 -1.1462 -0.9199
 4852SOL     OW26014   0.205   2.536   4.809  0.2322  0.0290 -0.0066
 4852SOL    HW126015   0.229   2.526   4.717  0.3121  1.5852 -0.1616
 4852SOL    HW226016   0.214   2.631   4.816  2.6787 -0.0717 -1.9822
 4853SOL     OW26017   0.750   1.520   4.664 -0.5626 -0.0339 -0.1338
 4853SOL    HW126018   0.698   1.448   4.627 -0.1477 -1.1412  1.4341
 4853SOL    HW226019   0.684   1.553   4.725  2.6982  1.9136  2.3509
 4854SOL     OW26020   2.141   3.290   7.116 -0.2544  0.3187  0.0716
 4854SOL    HW126021   2.218   3.245   7.150 -0.3933  1.2513  1.6141
 4854SOL    HW226022   2.092   3.304   7.197 -0.5208  0.8880 -0.1849
 4855SOL     OW26023   0.034   0.064  16.303 -0.0394  0.0533  0.1179
 4855SOL    HW126024   0.099   0.085  16.236 -1.3505 -3.2231 -2.1732
 4855SOL    HW226025   0.093   0.001  16.344 -1.3510 -1.5788 -0.5301
 4856SOL     OW26026   4.721   2.807   1.783 -0.2813 -0.5344 -0.5850
 4856SOL    HW126027   4.653   2.845   1.840  0.4776 -2.3267  1.5212
 4856SOL    HW226028   0.008   2.887   1.731 -0.4773  2.2340  3.5967
 4857SOL     OW26029   1.654   4.129  16.648 -0.1723  0.4659  0.0574
 4857SOL    HW126030   1.639   4.195  16.580  0.5021  0.9336  0.3602
 4857SOL    HW226031   1.731   4.089  16.608 -1.5714 -1.6596 -0.4632
 4858SOL     OW26032   2.213   3.428  15.019 -0.2217 -0.3576 -0.1301
 4858SOL    HW126033   2.301   3.395  14.998  0.1515  0.1553  0.5988
 4858SOL    HW226034   2.163   3.360  14.975  0.0166 -2.6371  3.1747
 4859SOL     OW26035   1.478   2.983  13.962  0.2185  0.1480 -0.5444
 4859SOL    HW126036   1.528   3.060  13.990  0.5917 -0.8123  1.4536
 4859SOL    HW226037   1.517   2.974  13.875  1.5620  0.1289  0.0572
 4860SOL     OW26038   3.683   1.186  11.625 -0.8038 -0.5887 -0.4458
 4860SOL    HW126039   3.609   1.126  11.630 -0.1701 -1.2114  1.3188
 4860SOL    HW226040   3.757   1.135  11.657 -1.0751 -1.8077 -1.7794
 4861SOL     OW26041   3.870   1.665  17.145 -0.0122 -0.2000  0.2404
 4861SOL    HW126042   3.897   1.717  17.069 -1.1460 -1.4477 -1.0171
 4861SOL    HW226043   3.949   1.612  17.150  0.7019  0.9124  0.7646
 4862SOL     OW26044   1.146   2.715  11.564 -0.5037 -0.1037  0.8742
 4862SOL    HW126045   1.091   2.643  11.592 -0.1715 -0.1661  1.3575
 4862SOL    HW226046   1.172   2.749  11.650  1.2851  0.2013  0.2207
 4863SOL     OW26047   0.628   0.373   2.709  0.5807  0.5107 -0.0399
 4863SOL    HW126048   0.680   0.293   2.717  0.2813  0.1934 -1.3081
 4863SOL    HW226049   0.609   0.376   2.615 -1.9702 -0.0090  0.4808
 4864SOL     OW26050   3.906   2.717   0.984 -1.0193 -0.1183 -0.1435
 4864SOL    HW126051   3.878   2.625   0.986  0.2888 -0.5332 -1.2755
 4864SOL    HW226052   3.831   2.767   0.951  1.2091  2.3891 -1.3483
 4865SOL     OW26053   3.793   1.028   4.304  0.0073  0.2137  0.4983
 4865SOL    HW126054   3.704   0.992   4.301 -1.5346  3.9673  1.8699
 4865SOL    HW226055   3.770   1.090   4.373 -3.0008  0.7688 -1.0003
 4866SOL     OW26056   4.375   1.058   0.816 -0.4948  0.9367  0.1663
 4866SOL    HW126057   4.386   1.146   0.779  2.3155  1.1147  1.4085
 4866SOL    HW226058   4.283   1.064   0.840  0.0972 -0.4349  2.7755
 4867SOL     OW26059   3.954   1.311  10.032 -0.3722 -0.1743 -0.0228
 4867SOL    HW126060   3.890   1.256  10.077  1.9001 -1.5958  1.4909
 4867SOL    HW226061   3.896   1.386  10.026  0.4742  0.4530 -0.2981
 4868SOL     OW26062   3.971   1.647  15.407  0.2335  0.0355 -0.1077
 4868SOL    HW126063   3.893   1.605  15.444 -0.0635  0.1022 -0.6605
 4868SOL    HW226064   4.029   1.592  15.459  2.4434  0.0369 -2.5640
 4869SOL     OW26065   1.772   0.970   2.327  0.5467 -0.3109  0.4884
 4869SOL    HW126066   1.826   0.892   2.314  1.7703  0.8422 -1.3542
 4869SOL    HW226067   1.691   0.942   2.285 -1.0545  0.7096  2.9435
 4870SOL     OW26068   4.206   1.950   3.683 -0.1587  0.3538  0.0812
 4870SOL    HW126069   4.201   1.946   3.588  0.2516  0.3557  0.0622
 4870SOL    HW226070   4.291   1.993   3.690 -1.3566  2.6503  0.8625
 4871SOL     OW26071   2.995   1.922   5.755  0.5597 -0.2420 -0.1334
 4871SOL    HW126072   2.937   1.980   5.805  2.0329  0.1416  1.1551
 4871SOL    HW226073   2.969   1.943   5.666  1.4247 -2.5112 -0.9276
 4872SOL     OW26074   1.468   3.594   4.801  0.0084  0.4695 -0.2571
 4872SOL    HW126075   1.415   3.622   4.726 -1.7580 -2.4854 -0.1162
 4872SOL    HW226076   1.555   3.634   4.804 -0.3186  1.1543  0.0586
 4873SOL     OW26077   0.931   4.628   2.096  0.3140  0.2495  0.2761
 4873SOL    HW126078   1.005   4.688   2.100 -0.9331  1.7165  1.1515
 4873SOL    HW226079   0.876   4.668   2.029 -0.4609 -2.4622 -0.6997
 4874SOL     OW26080   1.522   4.316  11.626 -0.7444  0.5734 -0.5011
 4874SOL    HW126081   1.609   4.292  11.594 -0.6646  1.8879 -1.2886
 4874SOL    HW226082   1.483   4.330  11.539 -0.3079 -1.0607 -0.9617
 4875SOL     OW26083   1.199   0.084   7.324  0.0928  0.5316 -0.6474
 4875SOL    HW126084   1.151   0.165   7.303 -1.9076 -0.6661 -0.7216
 4875SOL    HW226085   1.252   0.121   7.394  1.1421  0.9643 -1.6775
 4876SOL     OW26086   0.837   0.194   0.702  0.1498 -0.0360 -0.5472
 4876SOL    HW126087   0.753   0.237   0.720 -0.5502 -0.5193 -2.6555
 4876SOL    HW226088   0.803   0.126   0.645 -0.8533 -0.4955  0.5873
 4877SOL     OW26089   3.866   1.242   0.767  0.3101 -0.1413 -0.2592
 4877SOL    HW126090   3.957   1.250   0.794  0.2511  1.7268 -0.6119
 4877SOL    HW226091   3.836   1.324   0.806 -3.4377 -1.4738 -0.3072
 4878SOL     OW26092   4.426   1.631   0.902 -0.0221  0.2122 -0.5231
 4878SOL    HW126093   4.457   1.595   0.819  0.1876  0.1235 -0.4063
 4878SOL    HW226094   4.408   1.547   0.946 -1.8531 -0.6014 -2.8258
 4879SOL     OW26095   2.408   4.634   1.935 -0.1454  0.3375  0.4089
 4879SOL    HW126096   2.421   0.001   1.958  1.5750  0.2356 -0.1405
 4879SOL    HW226097   2.346   4.598   1.999  0.7059  0.6375  1.4113
 4880SOL     OW26098   3.472   4.480   7.999 -0.1267  0.1016 -0.0547
 4880SOL    HW126099   3.521   4.497   7.919 -0.3802 -0.9339 -0.4397
 4880SOL    HW226100   3.537   4.423   8.041  0.0477  1.1354  1.0734
 4881SOL     OW26101   3.237   0.946   2.667 -0.5976  0.0040 -0.3685
 4881SOL    HW126102   3.275   0.989   2.590  0.9403 -1.2394 -0.2990
 4881SOL    HW226103   3.275   0.861   2.646  1.6196  0.1157  3.2239
 4882SOL     OW26104   3.249   3.979  16.943 -0.1017 -0.0233  0.3828
 4882SOL    HW126105   3.341   4.005  16.939  0.3323 -1.5787  0.2955
 4882SOL    HW226106   3.222   4.014  17.028 -0.3348 -0.6981  0.5830
 4883SOL     OW26107   3.822   2.051  14.925  0.2283  0.4934  0.0174
 4883SOL    HW126108   3.829   2.058  15.020 -0.5786  4.2133 -0.1755
 4883SOL    HW226109   3.875   2.128  14.901  1.3307 -1.2468 -3.1087
 4884SOL     OW26110   1.701   4.355   3.604  0.4376  0.2333 -0.0111
 4884SOL    HW126111   1.773   4.411   3.633  0.9509  0.8759 -2.5084
 4884SOL    HW226112   1.745   4.294   3.545  2.6293  1.8751 -0.0736
 4885SOL     OW26113   4.192   3.812  12.388 -0.3953 -0.3586  0.2989
 4885SOL    HW126114   4.121   3.832  12.449 -0.4252  1.1035 -0.2070
 4885SOL    HW226115   4.151   3.738  12.343 -2.6535  0.6933  0.6143
 4886SOL     OW26116   0.332   2.348   3.776 -0.6423  0.7465  0.0394
 4886SOL    HW126117   0.391   2.288   3.822 -0.8910 -0.2834 -0.9985
 4886SOL    HW226118   0.370   2.432   3.801  1.3013 -0.6332  1.6768
 4887SOL     OW26119   0.233   3.113  17.490  0.2219 -0.0801 -0.2620
 4887SOL    HW126120   0.267   3.172  17.422  1.0758  1.2521  1.2951
 4887SOL    HW226121   0.241   3.165  17.570  0.3416  1.1160 -1.0456
 4888SOL     OW26122   2.289   2.433  10.503  0.0099 -0.7439  0.0460
 4888SOL    HW126123   2.233   2.476  10.567 -0.8963  0.2618 -1.4220
 4888SOL    HW226124   2.375   2.464  10.532  0.1198 -0.5861 -0.4455
 4889SOL     OW26125   2.294   0.321   4.193  0.6335  0.5557 -0.5409
 4889SOL    HW126126   2.372   0.362   4.229 -1.0613  0.5298  3.2222
 4889SOL    HW226127   2.334   0.292   4.112  0.4545  0.9307 -0.7657
 4890SOL     OW26128   0.512   0.034  17.612 -0.1662 -0.0776  0.8764
 4890SOL    HW126129   0.547   4.713  17.688  2.4051  1.2841  0.5139
 4890SOL    HW226130   0.557   4.710  17.543  0.2721 -0.9571  1.7845
 4891SOL     OW26131   0.029   0.981   8.818 -0.2573  0.5440  0.0386
 4891SOL    HW126132   0.116   0.952   8.845 -1.1374 -1.1681  1.0151
 4891SOL    HW226133   4.704   0.953   8.895 -3.6022  2.8640 -1.2541
 4892SOL     OW26134   1.969   4.506  15.092 -0.2926 -0.5051 -0.3658
 4892SOL    HW126135   1.912   4.446  15.140  0.9800 -0.9498  0.6129
 4892SOL    HW226136   2.002   4.557  15.166 -0.4598  1.4265 -1.6215
 4893SOL     OW26137   1.961   4.665  14.465  0.2169  0.2908  0.4482
 4893SOL    HW126138   1.889   4.607  14.490 -0.0593  0.2672 -0.3907
 4893SOL    HW226139   1.900   0.012  14.445  0.5556  0.3289 -0.4633
 4894SOL     OW26140   3.431   2.774   4.474  0.1498  0.0130  0.2032
 4894SOL    HW126141   3.374   2.706   4.438  0.1433  0.0126  0.2142
 4894SOL    HW226142   3.391   2.854   4.441 -1.9549 -0.9148  0.5142
 4895SOL     OW26143   0.612   4.417  13.728  0.0457 -0.5448  0.5397
 4895SOL    HW126144   0.527   4.373  13.723  0.1191 -0.4860 -1.0855
 4895SOL    HW226145   0.668   4.363  13.783  3.4050  1.6805 -0.7102
 4896SOL     OW26146   4.653   1.618   7.581 -0.3509  0.0502  0.0959
 4896SOL    HW126147   4.563   1.604   7.611 -0.8699  1.3570 -0.8361
 4896SOL    HW226148   4.699   1.661   7.653 -2.4809  0.8818  0.9500
 4897SOL     OW26149   3.437   0.583   6.950  0.2980 -0.0319  0.3133
 4897SOL    HW126150   3.434   0.663   7.003  0.1888  0.3722 -0.3040
 4897SOL    HW226151   3.368   0.612   6.891  0.4330 -1.2109 -0.4181
 4898SOL     OW26152   2.987   4.393   7.447  0.0774  0.4815  0.3254
 4898SOL    HW126153   3.013   4.359   7.361  0.3144  0.6861  0.3137
 4898SOL    HW226154   3.057   4.366   7.507 -0.2909 -0.3947  0.3455
 4899SOL     OW26155   0.321   3.658  16.002 -0.0627  0.1546 -1.0565
 4899SOL    HW126156   0.332   3.569  15.971  1.8960  0.0376 -0.0820
 4899SOL    HW226157   0.259   3.698  15.941  1.4736  2.7248 -0.9394
 4900SOL     OW26158   3.992   3.557   2.691  0.1132 -0.2542 -0.4259
 4900SOL    HW126159   4.005   3.646   2.658 -2.0679  0.9799  2.0670
 4900SOL    HW226160   4.073   3.506   2.694 -1.0386 -1.9693  1.2279
 4901SOL     OW26161   3.456   4.066   2.302  0.0291  0.4000  0.5365
 4901SOL    HW126162   3.471   3.998   2.236  1.9125  0.9197  0.4258
 4901SOL    HW226163   3.533   4.122   2.292  0.6942 -0.5510  0.3190
 4902SOL     OW26164   4.635   2.626   8.388 -0.2280 -0.1742  0.5451
 4902SOL    HW126165   4.575   2.663   8.452  0.5104  2.3668 -0.2415
 4902SOL    HW226166   4.621   2.532   8.398  2.7061 -0.8204 -1.4337
 4903SOL     OW26167   0.965   0.166  14.969  0.2819 -0.0716  0.0049
 4903SOL    HW126168   0.896   0.196  14.910  0.4358 -1.3359 -0.8209
 4903SOL    HW226169   0.924   0.084  14.995  1.2031 -0.3715  0.5155
 4904SOL     OW26170   3.572   4.341   2.585  0.2166  0.3017 -0.6457
 4904SOL    HW126171   3.607   4.382   2.664  0.9067  0.4091 -0.9987
 4904SOL    HW226172   3.645   4.331   2.524 -0.2929  1.8578 -1.5198
 4905SOL     OW26173   3.902   0.011   2.219  0.1701  0.3471 -0.0376
 4905SOL    HW126174   3.864   0.084   2.171 -1.3719 -1.3905 -1.4481
 4905SOL    HW226175   3.828   4.715   2.275 -0.5601 -0.6557 -1.3689
 4906SOL     OW26176   3.944   1.974  13.920  0.7500  0.2318 -0.2084
 4906SOL    HW126177   3.996   1.978  14.000 -0.1589 -0.2135  0.4093
 4906SOL    HW226178   3.870   1.919  13.945  1.1172  0.2210  0.8301
 4907SOL     OW26179   1.024   2.701   2.511  0.0730 -0.6003  0.1081
 4907SOL    HW126180   0.989   2.787   2.535 -0.0196 -1.0131  1.4092
 4907SOL    HW226181   1.116   2.724   2.520 -0.7619  2.2778  1.1813
 4908SOL     OW26182   1.267   1.093   7.707  0.3937 -0.3330 -0.6740
 4908SOL    HW126183   1.338   1.028   7.701  0.1210 -0.3804 -3.3958
 4908SOL    HW226184   1.187   1.050   7.676 -1.3247  2.8714 -0.6744
 4909SOL     OW26185   0.832   3.129   7.492 -0.2772  0.4938 -0.3055
 4909SOL    HW126186   0.867   3.064   7.432  0.2610  0.7827 -0.3009
 4909SOL    HW226187   0.919   3.152   7.524 -0.7713 -0.5874  1.7860
 4910SOL     OW26188   3.546   4.587  12.461 -0.5114  0.1425 -0.2806
 4910SOL    HW126189   3.534   4.567  12.554  0.4267  0.4089 -0.0957
 4910SOL    HW226190   3.480   4.531  12.422 -0.3571  0.7324 -1.3838
 4911SOL     OW26191   1.744   2.112   0.304  0.3860 -0.7977  0.2444
 4911SOL    HW126192   1.680   2.147   0.366  1.7531 -0.5685  1.5264
 4911SOL    HW226193   1.818   2.170   0.325 -1.4495  1.1194  1.3890
 4912SOL     OW26194   2.108   3.534  10.432  0.2193  0.0610 -0.1007
 4912SOL    HW126195   2.086   3.441  10.430  3.1257 -0.5807 -1.5635
 4912SOL    HW226196   2.087   3.566  10.345  0.3613 -2.4299 -1.0283
 4913SOL     OW26197   0.972   3.827   8.518 -0.0529 -0.0947 -0.6478
 4913SOL    HW126198   0.889   3.780   8.533  0.0225  0.3347  1.0681
 4913SOL    HW226199   0.986   3.874   8.600  0.2611 -0.1714 -0.6601
 4914SOL     OW26200   2.990   2.463   6.592 -0.6932 -0.1069 -0.0267
 4914SOL    HW126201   3.053   2.446   6.662 -3.7541 -3.0284  2.0464
 4914SOL    HW226202   3.031   2.405   6.528  1.8064  1.3745  0.2252
 4915SOL     OW26203   4.120   3.738   3.422 -0.0468 -0.4740  0.1791
 4915SOL    HW126204   4.204   3.698   3.445  0.3958  0.3463 -0.0155
 4915SOL    HW226205   4.109   3.691   3.339 -2.3157 -0.0066  0.2159
 4916SOL     OW26206   1.594   2.399   7.784 -0.3364  0.2691 -0.1283
 4916SOL    HW126207   1.504   2.416   7.759 -0.6570 -0.9716  0.1894
 4916SOL    HW226208   1.589   2.304   7.773 -2.1902  0.3463  0.1146
 4917SOL     OW26209   1.203   1.170   2.411 -0.7926  0.2401  0.6694
 4917SOL    HW126210   1.123   1.181   2.361 -1.1469 -0.5666  1.0569
 4917SOL    HW226211   1.174   1.220   2.487  1.2495  2.0777  0.2633
 4918SOL     OW26212   4.549   3.672   5.541 -0.6105 -0.0566  0.1581
 4918SOL    HW126213   4.579   3.743   5.597  2.1788 -1.4178  0.3737
 4918SOL    HW226214   4.496   3.619   5.602 -0.5236 -0.7652 -0.3736
 4919SOL     OW26215   4.126   4.109   6.470  0.4347 -0.2994  0.3227
 4919SOL    HW126216   4.178   4.076   6.396  3.0395  2.6001  0.8575
 4919SOL    HW226217   4.181   4.185   6.492  0.1747 -0.8870  2.9370
 4920SOL     OW26218   3.144   0.817   6.217  0.4060  0.0561  0.1973
 4920SOL    HW126219   3.143   0.837   6.310  0.4902  1.3744 -0.0824
 4920SOL    HW226220   3.059   0.774   6.213  0.1854  0.4311  0.9668
 4921SOL     OW26221   3.658   2.542   5.599  0.0481 -0.0638 -0.3612
 4921SOL    HW126222   3.705   2.594   5.664 -1.8283  0.6144  0.4676
 4921SOL    HW226223   3.642   2.596   5.521 -2.8478  1.3991  1.2351
 4922SOL     OW26224   0.038   3.648  13.359  0.2392 -0.0118 -0.2944
 4922SOL    HW126225   0.035   3.719  13.295 -1.9450 -0.4431 -0.6611
 4922SOL    HW226226   4.682   3.603  13.334  0.8565 -0.3305 -1.7428
 4923SOL     OW26227   2.711   1.231  10.824  0.0831  0.3846 -0.8021
 4923SOL    HW126228   2.658   1.153  10.843  0.7154  0.0165 -0.5490
 4923SOL    HW226229   2.732   1.212  10.732  0.3459  1.5764 -0.9857
 4924SOL     OW26230   3.676   3.035  15.738 -0.1302 -0.1122  0.6866
 4924SOL    HW126231   3.644   3.067  15.822  1.4668 -1.0680  1.6529
 4924SOL    HW226232   3.599   2.990  15.705  0.2894 -2.0873  2.4320
 4925SOL     OW26233   4.282   4.701   3.252  0.5183 -0.0550 -0.6356
 4925SOL    HW126234   4.301   4.620   3.299  3.0023  0.4782 -0.6742
 4925SOL    HW226235   4.346   0.024   3.305 -1.6185  1.2150  0.7597
 4926SOL     OW26236   4.705   3.495  10.477  0.3662  0.4406 -0.0992
 4926SOL    HW126237   0.066   3.536  10.487  0.1656  0.3626  2.0108
 4926SOL    HW226238   4.660   3.570  10.438 -1.6919 -0.6406  0.2174
 4927SOL     OW26239   2.016   0.465   5.113  0.0495 -0.1556  0.1446
 4927SOL    HW126240   1.932   0.440   5.073  0.0807 -1.6776  1.0490
 4927SOL    HW226241   2.061   0.381   5.103  0.4409  0.2713 -1.6984
 4928SOL     OW26242   2.766   0.704  15.644  0.0911  0.0095 -0.5209
 4928SOL    HW126243   2.834   0.763  15.611  1.5331 -0.8298  0.9989
 4928SOL    HW226244   2.810   0.673  15.723 -0.0265  1.0082 -0.0692
 4929SOL     OW26245   4.724   1.498   9.162 -0.4850  0.0762  0.0029
 4929SOL    HW126246   0.092   1.520   9.157 -0.6849  0.7056 -0.9020
 4929SOL    HW226247   4.679   1.576   9.130 -1.6930  0.2210  2.0238
 4930SOL     OW26248   2.250   2.155   7.898  0.2287 -0.4831 -0.4203
 4930SOL    HW126249   2.161   2.119   7.898  1.1465 -2.7334 -1.1145
 4930SOL    HW226250   2.257   2.201   7.982 -0.1402  1.5241 -1.5010
 4931SOL     OW26251   0.858   3.487   1.035 -0.0112 -0.8595  0.3339
 4931SOL    HW126252   0.794   3.530   0.978 -0.8127 -0.1274  1.7813
 4931SOL    HW226253   0.941   3.506   0.991 -0.5123 -3.4977 -1.7699
 4932SOL     OW26254   3.636   0.670  15.050  0.0605 -0.7149  0.5825
 4932SOL    HW126255   3.626   0.746  15.107 -0.5314  0.9527 -1.7501
 4932SOL    HW226256   3.702   0.698  14.986 -0.1871  1.6360  1.3740
 4933SOL     OW26257   4.565   2.071   3.373 -0.1828 -0.5098 -0.1506
 4933SOL    HW126258   4.489   2.052   3.428  0.7516 -0.2654  1.2376
 4933SOL    HW226259   4.521   2.122   3.306  0.1881  1.4340  1.0787
 4934SOL     OW26260   1.841   3.584  15.514 -0.2006  0.1921 -0.6345
 4934SOL    HW126261   1.932   3.585  15.485 -0.5056 -3.3553 -1.7802
 4934SOL    HW226262   1.799   3.585  15.427  1.2817  0.5842 -1.3533
 4935SOL     OW26263   2.540   2.274   4.654  0.0727  0.4438  0.1997
 4935SOL    HW126264   2.578   2.357   4.627 -0.8858  0.9399  0.3652
 4935SOL    HW226265   2.553   2.223   4.574 -1.0310 -1.0177  0.9461
 4936SOL     OW26266   3.320   1.143   4.262  0.4930  0.1223  0.4735
 4936SOL    HW126267   3.339   1.123   4.354  1.4300  0.0121  0.2639
 4936SOL    HW226268   3.238   1.096   4.251  0.3219  0.3489  0.7968
 4937SOL     OW26269   0.022   1.497   7.216 -0.4972 -0.5002  0.0890
 4937SOL    HW126270   4.700   1.475   7.297  0.1148 -0.3682  0.4810
 4937SOL    HW226271   0.043   1.589   7.234 -0.5962 -0.9055  2.3137
 4938SOL     OW26272   0.926   0.666   6.119  0.1732 -0.1027 -0.0617
 4938SOL    HW126273   0.890   0.742   6.165 -0.7508 -1.0186  0.7541
 4938SOL    HW226274   1.019   0.685   6.125  0.1023 -0.6148  3.1079
 4939SOL     OW26275   0.232   3.894  13.232  0.0784 -0.2135 -0.2404
 4939SOL    HW126276   0.215   3.909  13.139 -2.0962 -2.6916 -0.2560
 4939SOL    HW226277   0.210   3.981  13.263  0.4034  0.2273 -1.2577
 4940SOL     OW26278   4.135   0.717   6.951 -0.1466 -0.5060 -0.0781
 4940SOL    HW126279   4.055   0.768   6.948  1.1839  1.5806 -0.0160
 4940SOL    HW226280   4.208   0.775   6.927 -1.1949  0.6053 -0.5400
 4941SOL     OW26281   4.175   1.610  14.666  0.4240 -0.0327  0.1101
 4941SOL    HW126282   4.200   1.701  14.648  0.7758  0.0271  0.8928
 4941SOL    HW226283   4.224   1.572  14.593  1.3877  3.0100 -0.8136
 4942SOL     OW26284   3.487   4.051  15.164 -0.1047 -0.0539 -0.7250
 4942SOL    HW126285   3.469   4.089  15.078 -1.9839  0.2935 -0.1765
 4942SOL    HW226286   3.534   3.971  15.138  3.1718  2.0434 -1.2806
 4943SOL     OW26287   3.028   2.043   1.703  0.2644  0.2147 -0.7626
 4943SOL    HW126288   2.983   1.981   1.761  0.8307 -1.7761 -2.4720
 4943SOL    HW226289   3.099   2.069   1.761 -1.1879  0.3078  0.9814
 4944SOL     OW26290   1.532   4.478   3.247 -0.1275  0.0944  0.7565
 4944SOL    HW126291   1.470   4.542   3.283 -1.2966 -1.1060  0.8475
 4944SOL    HW226292   1.511   4.407   3.307 -0.4654 -1.7921 -1.6124
 4945SOL     OW26293   4.420   3.231  12.920 -0.2291  0.1926 -0.2157
 4945SOL    HW126294   4.398   3.204  12.831 -0.1823  1.7076 -0.6711
 4945SOL    HW226295   4.346   3.286  12.944  0.3230  0.6503  0.4661
 4946SOL     OW26296   1.279   2.562  11.991  0.6046  0.0627 -0.6010
 4946SOL    HW126297   1.335   2.494  11.955 -0.8650 -0.2567 -2.2799
 4946SOL    HW226298   1.196   2.517  12.000  0.6778 -0.2688 -1.5910
 4947SOL     OW26299   3.984   3.274  14.322 -0.1746  0.0253  0.0989
 4947SOL    HW126300   4.042   3.294  14.248 -1.8159  1.1599 -0.8631
 4947SOL    HW226301   3.929   3.212  14.276  1.9345 -1.5065 -0.3570
 4948SOL     OW26302   2.838   3.302   3.620  0.0750 -0.1198  0.4543
 4948SOL    HW126303   2.798   3.216   3.633 -0.3914 -0.4277 -2.9218
 4948SOL    HW226304   2.760   3.345   3.582 -0.0682  0.6977  1.6793
 4949SOL     OW26305   3.306   2.731   2.091  0.0371 -0.1159 -0.1487
 4949SOL    HW126306   3.334   2.773   2.010 -0.7020 -0.8108 -0.7659
 4949SOL    HW226307   3.357   2.778   2.157  1.3621  0.5417 -1.6258
 4950SOL     OW26308   3.543   0.062   7.160 -0.2065 -1.2038  0.4480
 4950SOL    HW126309   3.527   0.150   7.195 -0.8834 -0.6828 -1.1491
 4950SOL    HW226310   3.454   0.025   7.155 -1.2406  1.3616 -0.3270
 4951SOL     OW26311   0.891   1.890   7.704  0.2531  0.5897  0.1281
 4951SOL    HW126312   0.959   1.823   7.710  1.0569  1.3677 -0.3135
 4951SOL    HW226313   0.833   1.840   7.647 -0.4124  2.6798 -1.0328
 4952SOL     OW26314   3.241   3.061  17.135 -0.1420 -0.8139 -0.6694
 4952SOL    HW126315   3.256   2.968  17.120  0.3130 -1.0001  1.0230
 4952SOL    HW226316   3.326   3.099  17.157  0.2832 -1.7711 -0.6672
 4953SOL     OW26317   2.211   0.428   2.841  0.4627 -0.3908  0.0224
 4953SOL    HW126318   2.175   0.340   2.854 -0.1440  0.0904  1.5215
 4953SOL    HW226319   2.137   0.478   2.875 -1.4734 -1.6546 -2.2949
 4954SOL     OW26320   4.384   3.200   4.771  0.2673  0.0043 -0.0391
 4954SOL    HW126321   4.406   3.291   4.792  0.4680 -0.5356  2.0944
 4954SOL    HW226322   4.315   3.194   4.837  0.9299  0.0086  0.6572
 4955SOL     OW26323   1.624   2.522   5.249 -0.1580  0.0979 -0.2680
 4955SOL    HW126324   1.670   2.458   5.194 -0.9031 -0.9806  0.3641
 4955SOL    HW226325   1.702   2.577   5.257  0.1654 -0.5218  0.7362
 4956SOL     OW26326   3.248   2.930   5.441  0.5195  0.5446 -0.6255
 4956SOL    HW126327   3.225   3.004   5.384 -0.9883  1.7185  1.4893
 4956SOL    HW226328   3.340   2.956   5.441  0.5437  0.4584 -1.8778
 4957SOL     OW26329   4.452   3.663   9.155  0.2040 -0.6395  0.7791
 4957SOL    HW126330   4.463   3.632   9.244 -0.4686 -1.8871  0.4203
 4957SOL    HW226331   4.543   3.655   9.125  0.4666  0.6449  1.2137
 4958SOL     OW26332   3.468   2.502   8.076 -0.6399  0.0871  0.3305
 4958SOL    HW126333   3.385   2.454   8.083  0.1188 -1.7942 -3.7544
 4958SOL    HW226334   3.530   2.452   8.128 -1.0478  0.8413  1.5389
 4959SOL     OW26335   3.495   4.075   5.709  0.1719 -0.5356 -0.5307
 4959SOL    HW126336   3.553   4.041   5.640  1.3984  1.5208 -0.4823
 4959SOL    HW226337   3.421   4.096   5.652 -0.0171 -1.2050 -0.5343
 4960SOL     OW26338   1.401   4.661   7.166  0.5908 -0.2090 -0.3762
 4960SOL    HW126339   1.402   4.681   7.073  1.4697  0.3530 -0.2415
 4960SOL    HW226340   1.333   4.716   7.203  0.4919  0.2027 -1.1691
 4961SOL     OW26341   0.677   1.402   7.132 -0.1802  0.1199  0.1584
 4961SOL    HW126342   0.702   1.388   7.224 -0.5062 -0.1988  0.2003
 4961SOL    HW226343   0.761   1.398   7.086 -0.0271  2.0767  0.2660
 4962SOL     OW26344   4.130   3.928   4.852  0.2677  0.3663 -0.3760
 4962SOL    HW126345   4.077   3.989   4.904 -1.4856 -3.6864  2.6371
 4962SOL    HW226346   4.089   3.913   4.767  1.2165 -0.9164 -0.6118
 4963SOL     OW26347   2.884   1.566   3.204 -0.3219 -0.5476  0.5335
 4963SOL    HW126348   2.875   1.493   3.265 -0.8134 -0.6075  0.3937
 4963SOL    HW226349   2.876   1.650   3.249  0.7006  0.4818 -1.1947
 4964SOL     OW26350   0.562   4.706   0.203 -0.4326 -0.4267 -0.1366
 4964SOL    HW126351   0.469   4.721   0.188 -0.9689  0.9633  4.5858
 4964SOL    HW226352   0.542   4.619   0.238  1.6026 -0.6337  0.5435
 4965SOL     OW26353   4.272   2.123   3.455  0.3394  0.0441  0.0711
 4965SOL    HW126354   4.299   2.190   3.517 -1.9686 -1.8873  3.1598
 4965SOL    HW226355   4.219   2.186   3.406 -1.4002 -1.4728 -0.0293
 4966SOL     OW26356   1.967   1.757  14.607  0.4135  0.3917  0.8894
 4966SOL    HW126357   1.941   1.757  14.699  1.5692 -0.4567  1.2182
 4966SOL    HW226358   2.050   1.805  14.607 -1.0294  2.9350 -3.3967
 4967SOL     OW26359   0.914   0.990   3.610 -0.9239  0.1574  0.2732
 4967SOL    HW126360   0.928   0.936   3.688 -1.8791  2.7346  2.2241
 4967SOL    HW226361   0.857   1.060   3.639 -0.2845  0.6149  0.4305
 4968SOL     OW26362   0.249   0.419  17.468  0.1657 -0.7119 -0.0912
 4968SOL    HW126363   0.268   0.486  17.404 -1.7689  0.6475  0.7796
 4968SOL    HW226364   0.242   0.474  17.546  0.3983 -1.7740  0.6839
 4969SOL     OW26365   1.894   1.443  10.799  0.0727  0.1105 -0.1100
 4969SOL    HW126366   1.910   1.513  10.735  0.8659 -0.1545 -0.2003
 4969SOL    HW226367   1.969   1.391  10.771  0.7785  1.7165 -1.2537
 4970SOL     OW26368   0.334   0.594  11.111 -0.3518  0.2363  0.5101
 4970SOL    HW126369   0.333   0.579  11.017 -1.5767 -1.3250  0.7761
 4970SOL    HW226370   0.274   0.530  11.150 -0.5999  0.0912 -0.1227
 4971SOL     OW26371   2.724   4.618   2.548  0.3587  0.0021 -0.0844
 4971SOL    HW126372   2.734   4.580   2.635 -1.2884 -0.5278 -0.1162
 4971SOL    HW226373   2.761   4.552   2.489  1.3270  1.0866 -0.6851
 4972SOL     OW26374   1.747   2.504   8.699 -0.1568  0.2069  1.0997
 4972SOL    HW126375   1.782   2.513   8.610 -0.7388 -0.4968  0.7960
 4972SOL    HW226376   1.687   2.433   8.677 -2.1529  2.2888 -0.1340
 4973SOL     OW26377   1.234   4.585  15.188 -0.5669  0.3663 -0.0567
 4973SOL    HW126378   1.150   4.579  15.143 -1.8736  0.2617  2.3641
 4973SOL    HW226379   1.235   4.681  15.196  0.5806  0.3522  0.0761
 4974SOL     OW26380   2.041   1.822   4.615 -0.1020 -0.1142 -0.3783
 4974SOL    HW126381   2.113   1.760   4.626 -0.3971 -0.2967  0.5164
 4974SOL    HW226382   2.084   1.908   4.613  0.5413 -0.4896 -2.1676
 4975SOL     OW26383   3.593   1.130   8.329 -0.0596  0.5041 -0.5306
 4975SOL    HW126384   3.676   1.142   8.282  0.4878 -0.7601  0.1166
 4975SOL    HW226385   3.586   1.034   8.331  1.5708  0.3619 -1.1674
 4976SOL     OW26386   3.626   3.593  17.635  0.2812  0.6558  0.1213
 4976SOL    HW126387   3.716   3.599  17.666  0.1256 -1.5892  0.9794
 4976SOL    HW226388   3.654   3.580  17.544  1.7244 -0.0142  0.6756
 4977SOL     OW26389   4.400   2.961   5.313  0.1227 -0.4865  0.1143
 4977SOL    HW126390   4.486   2.944   5.352 -0.9907 -4.0025  1.0443
 4977SOL    HW226391   4.357   3.005   5.387  0.3062  2.1558 -1.3250
 4978SOL     OW26392   2.946   0.820   5.093 -0.3679 -0.4175  0.2897
 4978SOL    HW126393   2.982   0.734   5.074  1.9790  0.6731 -0.2787
 4978SOL    HW226394   3.026   0.866   5.118  1.1868 -1.6419 -2.3909
 4979SOL     OW26395   1.004   1.797   6.106 -0.2632  0.1585 -0.0249
 4979SOL    HW126396   0.969   1.801   6.017 -0.3426  1.4552  0.0696
 4979SOL    HW226397   1.083   1.748   6.083 -0.4627 -0.1965  0.0425
 4980SOL     OW26398   3.358   3.539   1.869  0.2983 -0.1260 -0.3418
 4980SOL    HW126399   3.330   3.526   1.778  0.7209 -0.5220 -0.4096
 4980SOL    HW226400   3.358   3.448   1.899 -0.3214 -0.6261 -1.8625
 4981SOL     OW26401   4.385   4.383   4.926  0.1196  0.4018 -0.0055
 4981SOL    HW126402   4.299   4.355   4.895  0.8963 -1.7413 -0.2009
 4981SOL    HW226403   4.445   4.383   4.851  0.7646  1.0372  0.5057
 4982SOL     OW26404   2.719   0.828   9.128  0.1577 -0.0739 -0.2065
 4982SOL    HW126405   2.743   0.772   9.054  1.3105 -0.5471  0.5154
 4982SOL    HW226406   2.626   0.846   9.118 -0.1379  0.2330  3.1394
 4983SOL     OW26407   0.624   0.042  10.796 -0.2665  0.3457  1.5375
 4983SOL    HW126408   0.690   0.006  10.736 -0.1170  0.4466  1.6437
 4983SOL    HW226409   0.550   4.707  10.785  1.2881 -1.1690 -1.0767
 4984SOL     OW26410   2.219   1.149  12.891 -0.3296 -0.1354  0.0994
 4984SOL    HW126411   2.292   1.113  12.941 -2.1231  0.3734  3.0311
 4984SOL    HW226412   2.200   1.074  12.834 -0.3765 -0.2305  0.2426
 4985SOL     OW26413   0.370   1.864  16.249  0.2381  0.6991  0.3597
 4985SOL    HW126414   0.373   1.956  16.272  1.5461  0.7501 -0.0401
 4985SOL    HW226415   0.369   1.826  16.337 -0.4474 -3.0215 -1.2571
 4986SOL     OW26416   2.339   1.172  10.745 -0.2192  0.0908 -0.1926
 4986SOL    HW126417   2.407   1.239  10.745 -0.7764  0.6519 -0.4462
 4986SOL    HW226418   2.386   1.104  10.794  0.1008  0.5904  0.1794
 4987SOL     OW26419   0.512   3.086   2.240 -0.3247  0.4846 -0.3346
 4987SOL    HW126420   0.434   3.120   2.283 -0.6298 -0.0680 -0.4638
 4987SOL    HW226421   0.477   3.018   2.183  0.5049  0.6348 -1.0338
 4988SOL     OW26422   1.713   3.710   8.982  0.3022  0.3596 -0.0529
 4988SOL    HW126423   1.750   3.798   8.993  1.4270 -0.3708  2.0081
 4988SOL    HW226424   1.626   3.721   9.021  0.7459 -1.3040  1.3869
 4989SOL     OW26425   2.048   3.906   7.390  0.0396 -0.3158 -0.1774
 4989SOL    HW126426   1.965   3.865   7.365  0.7347 -2.1313  0.5265
 4989SOL    HW226427   2.030   3.998   7.372 -1.5091 -0.7594 -0.9251
 4990SOL     OW26428   4.302   0.967   7.290 -0.4617 -0.1504  0.9836
 4990SOL    HW126429   4.312   1.061   7.275  2.1113 -0.6961 -0.7247
 4990SOL    HW226430   4.376   0.933   7.241 -1.4300 -1.8008  0.6609
 4991SOL     OW26431   4.333   1.880   6.476 -0.2141  0.1924  0.1333
 4991SOL    HW126432   4.270   1.834   6.531 -0.7535 -0.1852 -0.8024
 4991SOL    HW226433   4.311   1.855   6.386 -0.2066  1.3517 -0.1827
 4992SOL     OW26434   0.211   0.757  16.967 -0.0440 -0.1930 -0.5004
 4992SOL    HW126435   0.202   0.676  17.017 -1.1163 -0.3323 -0.9097
 4992SOL    HW226436   0.288   0.726  16.919  0.8517 -1.3331  1.7101
 4993SOL     OW26437   2.476   3.435   1.799  0.2451  0.1123  0.3186
 4993SOL    HW126438   2.429   3.352   1.802  0.3046  0.0598 -0.3696
 4993SOL    HW226439   2.566   3.408   1.816 -0.2923 -1.6569  0.3891
 4994SOL     OW26440   3.458   1.381   6.536  0.1019 -0.0050  0.4595
 4994SOL    HW126441   3.529   1.381   6.472  1.5646 -0.3949  2.0955
 4994SOL    HW226442   3.392   1.414   6.475  1.6989  1.5394 -0.4384
 4995SOL     OW26443   2.951   4.641   9.120  0.5569  0.3018 -0.1728
 4995SOL    HW126444   2.997   4.676   9.044 -0.7207  3.5013  0.5259
 4995SOL    HW226445   3.015   4.604   9.180  2.6422  0.6767 -2.1833
 4996SOL     OW26446   2.428   2.197   3.689  0.0999  0.4737  0.0167
 4996SOL    HW126447   2.343   2.157   3.673 -0.0077  0.7240 -0.0406
 4996SOL    HW226448   2.481   2.143   3.630  1.0575  2.3916 -0.8692
 4997SOL     OW26449   0.827   2.408   8.557  0.5590  0.0871 -0.3136
 4997SOL    HW126450   0.772   2.349   8.609  3.7033 -1.9707  0.6864
 4997SOL    HW226451   0.803   2.486   8.607 -0.7715 -0.8339  0.4866
 4998SOL     OW26452   4.067   2.977   6.161  0.3192 -0.0447  0.0993
 4998SOL    HW126453   4.031   2.932   6.238 -1.2169 -0.5333 -0.8880
 4998SOL    HW226454   3.985   3.010   6.124 -0.0778  0.3016  1.2806
 4999SOL     OW26455   4.601   0.869   6.655 -0.2574 -0.5022 -0.5116
 4999SOL    HW126456   4.632   0.896   6.742 -0.3281 -0.6126 -0.4525
 4999SOL    HW226457   4.641   0.783   6.644  0.5642 -0.3430  1.1039
 5000SOL     OW26458   2.640   2.873   6.186 -0.3752 -0.3817 -0.2791
 5000SOL    HW126459   2.730   2.877   6.152  0.3172 -0.5888  1.5557
 5000SOL    HW226460   2.673   2.878   6.276 -0.4872 -0.6620 -0.2246
 5001SOL     OW26461   1.089   1.914  14.260  0.1167 -0.0410  0.4550
 5001SOL    HW126462   1.094   1.851  14.332 -1.8000 -0.0002  0.6211
 5001SOL    HW226463   1.051   1.990  14.303 -0.0699  1.0779 -1.6975
 5002SOL     OW26464   3.506   2.649  17.180  0.2426  0.6618  0.3207
 5002SOL    HW126465   3.442   2.696  17.233  1.7440  3.4354 -0.3407
 5002SOL    HW226466   3.531   2.714  17.115  1.6763 -0.7259 -0.5266
 5003SOL     OW26467   3.475   3.273  15.601  0.3220  0.5590  0.1591
 5003SOL    HW126468   3.462   3.289  15.507 -1.3685  0.9558  0.4579
 5003SOL    HW226469   3.457   3.360  15.637  0.5804  1.2452 -1.3524
 5004SOL     OW26470   3.248   1.086   6.333  0.2235 -0.1613  0.4405
 5004SOL    HW126471   3.204   1.031   6.269 -0.7480  0.8267  0.2679
 5004SOL    HW226472   3.174   1.097   6.393  0.8610 -2.1764  1.6050
 5005SOL     OW26473   4.293   1.741  17.176 -0.1490 -0.1611 -0.1435
 5005SOL    HW126474   4.320   1.811  17.118 -3.7004 -0.4438 -2.1520
 5005SOL    HW226475   4.252   1.789  17.248  1.5156  1.0013  0.0169
 5006SOL     OW26476   1.820   3.767   6.867 -0.4220 -0.6709  0.1955
 5006SOL    HW126477   1.845   3.721   6.787  0.3629  1.2123 -0.6538
 5006SOL    HW226478   1.856   3.704   6.929  1.4610 -1.7321 -2.0144
 5007SOL     OW26479   3.241   4.421   2.172 -0.0588  0.1757  0.1184
 5007SOL    HW126480   3.324   4.398   2.213 -0.5418 -0.9987  0.4451
 5007SOL    HW226481   3.234   4.356   2.102 -1.8650  0.5487 -0.0490
 5008SOL     OW26482   2.945   3.776   0.821 -0.1457 -0.2449 -0.0866
 5008SOL    HW126483   2.998   3.810   0.893 -0.5197  0.7998 -0.3063
 5008SOL    HW226484   2.856   3.776   0.856 -0.0603  3.2172  0.1627
 5009SOL     OW26485   0.663   2.220  16.378  0.3281 -0.4884 -0.1575
 5009SOL    HW126486   0.655   2.151  16.444  0.4428 -0.0437  0.3105
 5009SOL    HW226487   0.671   2.169  16.297  0.6532  0.9501 -1.0165
 5010SOL     OW26488   1.379   0.714  13.799 -0.0931  0.0430  0.4115
 5010SOL    HW126489   1.386   0.799  13.755 -2.9072  0.0775  0.0385
 5010SOL    HW226490   1.465   0.682  13.772  0.1640  0.5720  0.5964
 5011SOL     OW26491   0.937   2.545   0.902  0.4537  0.1229  0.1553
 5011SOL    HW126492   0.997   2.594   0.847  0.1739  1.7452  1.3126
 5011SOL    HW226493   0.887   2.492   0.840 -3.0031  2.6542  0.7608
 5012SOL     OW26494   4.343   2.520  14.239  0.1540 -0.2045 -0.4847
 5012SOL    HW126495   4.408   2.454  14.215  0.5588  0.5979 -1.6026
 5012SOL    HW226496   4.260   2.476  14.218 -0.3760 -0.2122  1.6146
 5013SOL     OW26497   0.331   0.313   9.697  0.5047  0.3170  0.2610
 5013SOL    HW126498   0.400   0.253   9.725 -0.5119  0.0380  2.1603
 5013SOL    HW226499   0.333   0.385   9.760 -2.1521  0.8780 -0.2998
 5014SOL     OW26500   4.643   4.719   0.430 -0.8383 -0.0691 -0.0390
 5014SOL    HW126501   4.572   0.058   0.419 -1.2058 -0.8572 -2.2411
 5014SOL    HW226502   4.609   4.648   0.484 -2.0849 -0.9814 -2.0298
 5015SOL     OW26503   1.357   0.051   2.934  0.6496 -0.6024  0.6350
 5015SOL    HW126504   1.353   0.102   3.014  1.1765 -1.7680  1.4008
 5015SOL    HW226505   1.282   4.717   2.939  0.6300 -0.8132 -1.6922
 5016SOL     OW26506   2.660   0.319   5.751 -0.4414  0.4570 -0.0024
 5016SOL    HW126507   2.739   0.361   5.786  0.1794 -0.0760 -0.7638
 5016SOL    HW226508   2.615   0.300   5.833  0.1346  0.3507  0.2871
 5017SOL     OW26509   2.382   0.439  10.729 -0.0945  0.1739 -0.3462
 5017SOL    HW126510   2.383   0.393  10.645 -2.5128  0.0074 -0.2763
 5017SOL    HW226511   2.477   0.450  10.740  0.1377  0.6231 -2.8634
 5018SOL     OW26512   0.584   1.367   4.501 -0.4294  0.0928  0.8100
 5018SOL    HW126513   0.604   1.281   4.462  0.5128  2.8796 -4.8859
 5018SOL    HW226514   0.530   1.339   4.575 -1.6522  1.9824  0.6412
 5019SOL     OW26515   2.681   4.150   7.233 -0.4731 -0.3342 -0.4271
 5019SOL    HW126516   2.726   4.191   7.159  2.3179  0.4071  1.6828
 5019SOL    HW226517   2.633   4.224   7.269  0.9735 -0.2420  1.3576
 5020SOL     OW26518   0.812   1.732   2.339  0.0414  0.4744  0.1821
 5020SOL    HW126519   0.766   1.794   2.282 -0.3665 -1.2257 -1.3464
 5020SOL    HW226520   0.752   1.657   2.333 -1.5062  1.4978  2.9884
 5021SOL     OW26521   1.850   2.822   1.256 -0.3885 -0.0686 -0.0397
 5021SOL    HW126522   1.902   2.902   1.265  1.3401 -1.3235  1.1573
 5021SOL    HW226523   1.916   2.760   1.224 -0.3265  1.0385 -2.0602
 5022SOL     OW26524   3.076   0.980  17.550 -0.1578 -0.1936 -0.2743
 5022SOL    HW126525   3.102   1.070  17.569  1.2258 -0.9506  1.3017
 5022SOL    HW226526   3.014   0.966  17.622  0.0564  0.1819 -0.0246
 5023SOL     OW26527   4.295   2.647   0.928  0.6592  0.1976  0.3640
 5023SOL    HW126528   4.297   2.554   0.950  0.7509 -0.0934 -0.9217
 5023SOL    HW226529   4.320   2.655   0.836  0.5341  1.2381  0.4120
 5024SOL     OW26530   2.969   4.001   5.773 -0.1653 -0.5282 -0.6881
 5024SOL    HW126531   2.940   3.936   5.837 -0.2216  0.0102 -0.1639
 5024SOL    HW226532   3.055   4.032   5.804 -0.2729 -0.7991 -0.1151
 5025SOL     OW26533   0.826   4.512   1.659  0.6318 -0.2253 -0.3229
 5025SOL    HW126534   0.907   4.545   1.621  0.1896  0.6451 -0.5050
 5025SOL    HW226535   0.859   4.424   1.677  2.9664  0.5616 -0.7917
 5026SOL     OW26536   4.074   3.866   5.548 -0.0836 -0.0180 -0.2642
 5026SOL    HW126537   4.103   3.942   5.600 -2.2883 -0.4982  1.6902
 5026SOL    HW226538   4.144   3.865   5.483  0.8574  0.8769  0.7227
 5027SOL     OW26539   1.098   0.148   2.006 -0.4898  0.0409 -0.5017
 5027SOL    HW126540   1.052   0.228   1.982 -2.5689 -1.3101 -0.9354
 5027SOL    HW226541   1.180   0.179   2.046 -1.0018 -1.3977  1.6131
 5028SOL     OW26542   1.399   0.971   8.902  0.0562 -0.2837  0.6067
 5028SOL    HW126543   1.304   0.983   8.893  0.0649  1.2568  2.5698
 5028SOL    HW226544   1.425   1.058   8.930  0.6304 -1.9761  5.2536
 5029SOL     OW26545   3.609   0.700  11.564 -0.0649  0.2592 -0.3938
 5029SOL    HW126546   3.537   0.706  11.627  0.1938 -1.4847  0.0570
 5029SOL    HW226547   3.650   0.620  11.597 -0.1655  0.5073  0.3356
 5030SOL     OW26548   1.815   0.348  15.182 -0.1463 -0.3306  0.3276
 5030SOL    HW126549   1.890   0.406  15.167 -0.7832  0.4229  0.0543
 5030SOL    HW226550   1.793   0.369  15.273 -1.0652  1.1858 -0.2425
 5031SOL     OW26551   2.875   3.477   4.665  0.0426  0.7318 -0.0312
 5031SOL    HW126552   2.897   3.476   4.758 -1.0605 -0.2994  0.2278
 5031SOL    HW226553   2.915   3.560   4.642  2.2121 -0.8122 -1.8278
 5032SOL     OW26554   4.059   0.240   4.049  0.1814 -0.1387 -0.3380
 5032SOL    HW126555   4.134   0.300   4.057  1.6306 -2.0343  0.3680
 5032SOL    HW226556   3.991   0.306   4.060  0.5513  0.1474  0.2065
 5033SOL     OW26557   0.212   1.428   3.091 -0.6127 -0.7830  0.1511
 5033SOL    HW126558   0.287   1.487   3.079 -1.7372  1.0959  2.5471
 5033SOL    HW226559   0.140   1.475   3.049 -0.5281 -1.2775 -0.5465
 5034SOL     OW26560   2.572   2.960   0.902 -0.4678  0.0030 -0.6153
 5034SOL    HW126561   2.557   2.905   0.979  0.5500  0.4585 -0.0844
 5034SOL    HW226562   2.500   2.934   0.844 -1.4037 -2.7806  1.7858
 5035SOL     OW26563   0.115   1.638   9.993  0.1920  0.1695 -0.1488
 5035SOL    HW126564   0.195   1.590  10.015  0.1924  0.1400 -0.2160
 5035SOL    HW226565   0.145   1.716   9.948 -2.5548 -0.6145 -3.3388
 5036SOL     OW26566   0.510   3.242   0.574  0.2678 -0.4361 -0.3289
 5036SOL    HW126567   0.547   3.159   0.544  1.0159 -0.6154  1.0538
 5036SOL    HW226568   0.581   3.282   0.624 -1.0004 -0.5895  1.6302
 5037SOL     OW26569   3.609   3.764   0.681 -0.2507  0.4938  0.0242
 5037SOL    HW126570   3.596   3.770   0.586  1.7300  2.2316 -0.1340
 5037SOL    HW226571   3.525   3.799   0.710  0.0431  0.1537  1.2569
 5038SOL     OW26572   4.184   1.691   3.848  0.0882  0.1356 -0.2293
 5038SOL    HW126573   4.169   1.712   3.940 -1.4276 -0.2488 -0.3934
 5038SOL    HW226574   4.174   1.776   3.805 -0.0359 -0.2558 -0.9760
 5039SOL     OW26575   0.230   3.920   8.206  0.3153  0.4497 -0.4596
 5039SOL    HW126576   0.206   3.901   8.296 -2.0230 -1.9173 -1.5776
 5039SOL    HW226577   0.291   3.847   8.193 -0.1509 -0.3670  2.0578
 5040SOL     OW26578   2.334   1.037   4.958 -0.0243  0.3288 -0.0468
 5040SOL    HW126579   2.340   1.013   5.051 -1.2587  0.2327  0.0056
 5040SOL    HW226580   2.243   1.015   4.939  0.3715  0.2524 -1.7864
 5041SOL     OW26581   0.431   1.391   8.676  0.5244 -0.6246 -0.2212
 5041SOL    HW126582   0.376   1.314   8.661  1.2328 -0.9175 -1.3507
 5041SOL    HW226583   0.409   1.451   8.604  0.3823  1.2986  1.4202
 5042SOL     OW26584   4.584   2.632   5.818  0.4068  0.5422  0.5201
 5042SOL    HW126585   4.599   2.573   5.891  3.1024  0.5599 -0.0239
 5042SOL    HW226586   4.647   2.700   5.843 -0.2036  1.9165 -1.6334
 5043SOL     OW26587   3.400   1.936   8.076  0.6305  0.1578  0.1842
 5043SOL    HW126588   3.400   2.031   8.066  0.9872  0.1629  0.2524
 5043SOL    HW226589   3.492   1.926   8.099  0.6487  3.6877  1.5289
 5044SOL     OW26590   1.389   3.023   3.157 -0.3692 -0.0571  0.0522
 5044SOL    HW126591   1.300   3.057   3.145 -0.5081 -0.2055  0.6790
 5044SOL    HW226592   1.392   3.040   3.251 -2.9689 -0.2204  0.1762
 5045SOL     OW26593   4.493   3.856   9.587  0.0049  0.4422  0.3001
 5045SOL    HW126594   4.425   3.914   9.554 -0.9191  0.3674  2.0357
 5045SOL    HW226595   4.497   3.790   9.518 -0.4426 -0.2851  0.9748
 5046SOL     OW26596   1.587   0.486   4.344 -0.0489  0.2337 -0.0539
 5046SOL    HW126597   1.605   0.445   4.429  0.4285 -2.8204 -1.6424
 5046SOL    HW226598   1.670   0.476   4.297  2.4452  0.3304  4.2794
 5047SOL     OW26599   2.789   0.277  17.012  0.1885 -0.3668  0.1005
 5047SOL    HW126600   2.864   0.329  16.983  2.4496 -2.2110  2.6169
 5047SOL    HW226601   2.714   0.333  16.994  2.0783  2.6207  1.6288
 5048SOL     OW26602   2.667   3.471   5.629 -0.7882 -0.1728  0.1319
 5048SOL    HW126603   2.757   3.483   5.658 -0.5992  0.3889 -0.7096
 5048SOL    HW226604   2.645   3.380   5.647 -0.6500 -0.9116 -3.5884
 5049SOL     OW26605   1.819   0.093   0.845  0.1804  0.7501 -0.3225
 5049SOL    HW126606   1.903   0.133   0.866 -0.3666  1.4036  0.6344
 5049SOL    HW226607   1.857   0.021   0.794  0.4670  0.6127  0.0854
 5050SOL     OW26608   1.101   1.299   4.401  0.0042 -0.1512 -0.3357
 5050SOL    HW126609   1.116   1.294   4.307 -0.1898 -1.0405 -0.3220
 5050SOL    HW226610   1.041   1.224   4.402  0.1371 -0.2513  0.1611
 5051SOL     OW26611   3.700   3.110   4.739  0.1436  0.0502  0.1276
 5051SOL    HW126612   3.746   3.185   4.702 -1.8129  1.0993 -0.1616
 5051SOL    HW226613   3.670   3.072   4.656  0.9121 -4.0342  1.6862
 5052SOL     OW26614   1.764   1.375   3.913 -0.0339 -0.0633 -0.4049
 5052SOL    HW126615   1.730   1.355   4.001  0.8348 -2.5831 -0.6612
 5052SOL    HW226616   1.848   1.331   3.924  0.4640  0.5540 -1.8225
 5053SOL     OW26617   1.480   3.595   3.319 -0.2481  0.1423  0.6750
 5053SOL    HW126618   1.543   3.536   3.361  0.9175 -0.7603 -2.4009
 5053SOL    HW226619   1.536   3.647   3.262 -1.7632  0.6638 -0.3243
 5054SOL     OW26620   2.725   4.439   5.347  0.0403  1.0768  0.1417
 5054SOL    HW126621   2.727   4.529   5.314 -2.6251 -0.0832 -3.2187
 5054SOL    HW226622   2.813   4.431   5.383 -0.4859  0.1766  1.2182
 5055SOL     OW26623   0.421   1.740  12.159 -0.2768  0.2905 -0.0788
 5055SOL    HW126624   0.379   1.765  12.241  1.9624  0.8429  0.9138
 5055SOL    HW226625   0.500   1.691  12.183 -0.5696 -0.2121 -0.1418
 5056SOL     OW26626   1.423   0.558   6.961  0.2331  0.3784  0.0620
 5056SOL    HW126627   1.366   0.562   7.038  0.0135  1.0321 -0.1315
 5056SOL    HW226628   1.506   0.547   7.007  0.0682 -0.1563  0.2312
 5057SOL     OW26629   3.999   1.098   9.526  0.0191 -0.5249  0.0483
 5057SOL    HW126630   3.904   1.088   9.517  0.2490 -0.0784 -2.7588
 5057SOL    HW226631   4.037   1.031   9.470  0.0990  1.2099 -1.9939
 5058SOL     OW26632   0.888   0.166   1.345  0.4997 -0.3950  0.4943
 5058SOL    HW126633   0.975   0.206   1.353  0.4371  0.0485 -1.0294
 5058SOL    HW226634   0.907   0.081   1.385  1.0976 -1.7051 -2.5895
 5059SOL     OW26635   4.184   1.252   8.501 -0.5825 -0.2339 -0.3919
 5059SOL    HW126636   4.265   1.212   8.532 -0.7202  0.9096  1.4399
 5059SOL    HW226637   4.185   1.335   8.548 -0.7257  0.0130 -0.8223
 5060SOL     OW26638   4.136   2.259   4.556  0.2005  0.2289  0.3709
 5060SOL    HW126639   4.088   2.229   4.634 -0.2325  0.0426  0.0377
 5060SOL    HW226640   4.139   2.353   4.572 -1.1647  0.1514  1.1419
 5061SOL     OW26641   3.450   2.324  14.033  0.1980 -0.1025 -0.2474
 5061SOL    HW126642   3.421   2.352  14.120 -1.0291  0.7821 -0.9465
 5061SOL    HW226643   3.540   2.355  14.030  0.4010 -0.6795 -0.2159
 5062SOL     OW26644   0.319   2.379  11.278 -0.5769 -0.0189  0.4604
 5062SOL    HW126645   0.322   2.286  11.301 -0.6560 -0.8028 -2.6274
 5062SOL    HW226646   0.226   2.379  11.255 -0.4421 -4.1305 -0.1284
 5063SOL     OW26647   1.740   4.423   8.017  0.2839 -0.3949  0.5347
 5063SOL    HW126648   1.715   4.333   8.037  2.0143 -0.7437  1.0563
 5063SOL    HW226649   1.712   4.471   8.094 -1.8991  1.5162 -1.4387
 5064SOL     OW26650   1.487   3.872  16.424 -0.4825 -0.4193  0.0507
 5064SOL    HW126651   1.478   3.955  16.377 -1.0188 -0.8058 -0.5284
 5064SOL    HW226652   1.409   3.826  16.394 -0.2016  0.1882 -1.6076
 5065SOL     OW26653   2.847   3.327   8.136  0.5971  0.4957  0.6447
 5065SOL    HW126654   2.937   3.345   8.110  0.1924 -0.4229 -1.4085
 5065SOL    HW226655   2.840   3.354   8.228  0.2157 -0.4899  0.9048
 5066SOL     OW26656   4.161   0.935   6.376  0.0544 -0.2009 -0.0196
 5066SOL    HW126657   4.202   1.018   6.354  0.0893 -0.4861 -1.0582
 5066SOL    HW226658   4.112   0.964   6.452 -2.2302 -1.4665 -0.9874
 5067SOL     OW26659   1.298   3.430   9.006  0.1405 -0.3068 -0.0674
 5067SOL    HW126660   1.383   3.451   9.045  0.8964 -0.3841 -1.6544
 5067SOL    HW226661   1.288   3.506   8.948 -0.1689 -0.3157 -0.0240
 5068SOL     OW26662   3.383   0.758  12.392  0.4628 -0.0492  0.6096
 5068SOL    HW126663   3.416   0.670  12.407  0.8039 -0.1267 -0.6887
 5068SOL    HW226664   3.455   0.798  12.344  0.8370 -0.1145  1.1201
 5069SOL     OW26665   0.681   2.654   0.997 -0.5041  0.1728 -0.4856
 5069SOL    HW126666   0.762   2.646   0.946 -0.6770  3.3408 -1.2264
 5069SOL    HW226667   0.663   2.747   0.985 -1.4436  0.1630  0.8157
 5070SOL     OW26668   2.797   3.611  15.615  0.1896 -0.0650 -0.5697
 5070SOL    HW126669   2.851   3.550  15.565  3.1353  2.5039 -0.5312
 5070SOL    HW226670   2.726   3.625  15.553 -0.4290 -3.0345 -0.5514
 5071SOL     OW26671   3.482   0.351   7.214  0.0118  0.1938 -0.1526
 5071SOL    HW126672   3.567   0.387   7.188  1.2466 -0.6578  2.6240
 5071SOL    HW226673   3.460   0.388   7.299  0.8899  0.1401  0.1062
 5072SOL     OW26674   1.429   3.229   8.886  0.0094  0.0984 -0.4258
 5072SOL    HW126675   1.377   3.149   8.894  1.1440 -0.4586  1.4787
 5072SOL    HW226676   1.375   3.289   8.937  0.9550 -0.1193  0.8291
 5073SOL     OW26677   1.264   2.985  11.655 -0.0102 -0.0609  0.0102
 5073SOL    HW126678   1.217   2.936  11.723 -1.4518  2.0871  0.5668
 5073SOL    HW226679   1.200   2.978  11.584 -1.5226  0.0629  1.3501
 5074SOL     OW26680   1.770   0.669   7.000 -0.6986  0.0144 -0.3666
 5074SOL    HW126681   1.728   0.584   7.009 -1.5577  0.4018 -0.7715
 5074SOL    HW226682   1.699   0.723   7.034 -0.5134  0.4432 -0.6583
 5075SOL     OW26683   2.061   4.610   1.198  0.0056  0.1940  0.1603
 5075SOL    HW126684   2.122   4.555   1.247 -0.1313 -1.7286 -1.8673
 5075SOL    HW226685   1.987   4.584   1.253  0.3549 -0.2352  0.4288
 5076SOL     OW26686   4.154   2.630   3.780 -0.1392 -0.5644  0.2411
 5076SOL    HW126687   4.211   2.634   3.704  1.2490  0.0231  1.3193
 5076SOL    HW226688   4.188   2.551   3.821  0.8277  0.7350  1.9649
 5077SOL     OW26689   0.514   2.146   0.973 -0.4810  0.1404  0.0547
 5077SOL    HW126690   0.441   2.191   1.016 -1.1471  1.3153 -2.2719
 5077SOL    HW226691   0.584   2.186   1.024 -1.3742  3.1751 -1.0613
 5078SOL     OW26692   4.275   0.456  13.563  0.0290 -0.4187 -0.0804
 5078SOL    HW126693   4.298   0.483  13.474  0.9053 -0.8366  0.0173
 5078SOL    HW226694   4.250   0.369  13.529  0.7300 -0.2744 -0.9746
 5079SOL     OW26695   1.096   0.366   7.023  0.3251  0.1397  0.0170
 5079SOL    HW126696   1.021   0.350   7.080  2.0085  2.2521  2.7989
 5079SOL    HW226697   1.104   0.462   7.026  0.3168  0.2010 -1.8107
 5080SOL     OW26698   3.898   3.924   6.929 -0.3159 -0.1792 -0.0121
 5080SOL    HW126699   3.929   3.849   6.980 -2.1123 -1.2561 -0.4791
 5080SOL    HW226700   3.869   3.982   6.999  1.1845 -0.7752  1.1017
 5081SOL     OW26701   2.943   3.112  16.666  0.1052 -0.4296  0.8626
 5081SOL    HW126702   2.974   3.029  16.703 -0.3761 -0.7003  0.6631
 5081SOL    HW226703   2.852   3.084  16.655  0.4359 -1.0511 -0.2856
 5082SOL     OW26704   2.419   2.897   1.903 -0.1862 -0.1928 -0.3196
 5082SOL    HW126705   2.473   2.976   1.895  1.7528 -1.6474 -1.7051
 5082SOL    HW226706   2.328   2.926   1.893 -0.1794 -0.7378 -2.0076
 5083SOL     OW26707   1.615   2.533   4.047  0.4260 -0.1571 -0.0713
 5083SOL    HW126708   1.689   2.543   3.987 -0.4121  1.4211 -0.8148
 5083SOL    HW226709   1.557   2.477   3.995  1.3444 -0.1450 -1.1097
 5084SOL     OW26710   3.919   3.653   5.598  0.1388  0.1459  0.3246
 5084SOL    HW126711   3.888   3.720   5.658 -1.1231 -0.4484  0.3318
 5084SOL    HW226712   3.990   3.703   5.559  0.9943 -0.8484  0.5850
 5085SOL     OW26713   4.548   1.133  11.162  0.2252  0.5870  0.6021
 5085SOL    HW126714   4.586   1.148  11.076 -1.5352  1.8783  0.0453
 5085SOL    HW226715   4.468   1.091  11.130  0.5197  1.1674 -0.9019
 5086SOL     OW26716   1.170   3.441   0.045  0.0690 -0.3880 -0.0431
 5086SOL    HW126717   1.237   3.412   0.107 -2.0393 -2.3299  1.3217
 5086SOL    HW226718   1.165   3.375  17.677  2.7668 -0.9185  0.2610
 5087SOL     OW26719   0.399   4.674   8.423  0.7445  0.6474  1.0359
 5087SOL    HW126720   0.426   4.583   8.419 -0.4120  0.2480  2.1366
 5087SOL    HW226721   0.446   4.700   8.344 -3.8118  3.5033 -0.7430
 5088SOL     OW26722   0.640   0.066   1.483  0.1182 -0.2997  0.5040
 5088SOL    HW126723   0.593   0.023   1.412  0.0726  0.4783  0.0665
 5088SOL    HW226724   0.686   0.128   1.427  2.0636 -2.4955 -0.3393
 5089SOL     OW26725   1.603   2.462   6.561  0.0240 -0.2953 -0.1101
 5089SOL    HW126726   1.697   2.448   6.569  0.2580  2.5778  1.9069
 5089SOL    HW226727   1.569   2.374   6.546 -1.5059  0.5024 -1.3348
 5090SOL     OW26728   3.510   1.046   6.306  0.0616 -0.0176  0.1537
 5090SOL    HW126729   3.550   1.107   6.244 -1.4467 -1.6771 -2.4222
 5090SOL    HW226730   3.418   1.072   6.300 -0.2629 -1.8046 -2.5690
 5091SOL     OW26731   4.520   2.803   9.288  0.6116  0.0425 -0.1288
 5091SOL    HW126732   4.587   2.767   9.230  1.4189 -1.5801  1.7785
 5091SOL    HW226733   4.571   2.841   9.359  0.7096 -0.0646 -0.1411
 5092SOL     OW26734   0.983   1.010   7.039 -0.0820 -0.2257  0.6756
 5092SOL    HW126735   0.923   1.069   7.084  1.2833  0.9747  0.9302
 5092SOL    HW226736   1.053   0.996   7.104  0.8246  0.9078 -0.0522
 5093SOL     OW26737   3.435   2.300  11.839  0.2283  0.2376  0.2086
 5093SOL    HW126738   3.408   2.210  11.858 -1.0379 -0.0767 -3.0518
 5093SOL    HW226739   3.523   2.282  11.806 -0.0598 -0.8571  0.0450
 5094SOL     OW26740   3.018   0.818  12.398  0.0962  0.5227  0.2452
 5094SOL    HW126741   3.035   0.731  12.362  0.2488  0.7536 -0.2443
 5094SOL    HW226742   2.922   0.810  12.396  0.0932  0.2289  1.4312
 5095SOL     OW26743   1.156   1.773   2.986  0.1434  0.7114  0.1981
 5095SOL    HW126744   1.064   1.759   3.008  0.2737  0.8681  0.8357
 5095SOL    HW226745   1.154   1.774   2.890 -2.3144  0.5323  0.2334
 5096SOL     OW26746   2.517   0.125  10.831 -0.0147  0.3436  0.1935
 5096SOL    HW126747   2.500   0.041  10.788 -1.0048 -0.2095  1.6825
 5096SOL    HW226748   2.574   0.158  10.762 -1.3573 -1.9476 -2.0147
 5097SOL     OW26749   1.996   4.054  11.698  0.5810 -0.4209 -0.2047
 5097SOL    HW126750   2.068   4.017  11.648  1.5369  0.0505  0.8314
 5097SOL    HW226751   1.960   3.984  11.754 -0.4548  0.7659  0.6208
 5098SOL     OW26752   4.526   3.482  10.705 -0.1061  0.1132  0.2567
 5098SOL    HW126753   4.559   3.454  10.620  2.2120  3.5819 -0.0086
 5098SOL    HW226754   4.565   3.416  10.762 -0.5469  0.9613  1.5572
 5099SOL     OW26755   0.402   2.840  16.491  0.7814  0.2758  0.1803
 5099SOL    HW126756   0.444   2.925  16.500  3.6616 -1.1428  0.1901
 5099SOL    HW226757   0.309   2.862  16.485  0.3387 -1.2624  1.3275
 5100SOL     OW26758   4.334   2.286   5.222  0.3691  0.5948 -0.1062
 5100SOL    HW126759   4.351   2.273   5.129  0.1835  1.8754 -0.3116
 5100SOL    HW226760   4.406   2.343   5.250  0.1772  0.9416 -0.3321
 5101SOL     OW26761   2.200   1.659   2.372 -0.2112 -0.2110  0.8273
 5101SOL    HW126762   2.273   1.660   2.434  3.5016  2.3693 -3.5356
 5101SOL    HW226763   2.176   1.566   2.375 -1.0485 -0.0591 -1.0532
 5102SOL     OW26764   2.843   3.858   3.656  0.3771  0.7333  0.1415
 5102SOL    HW126765   2.826   3.764   3.646 -0.8680  1.0137 -0.4680
 5102SOL    HW226766   2.754   3.893   3.663 -1.1154 -3.1835  0.5439
 5103SOL     OW26767   0.047   3.334   6.795 -0.0511  0.7390  1.0034
 5103SOL    HW126768   4.713   3.296   6.860 -1.0113 -0.5857 -0.6277
 5103SOL    HW226769   4.717   3.399   6.752  0.5369  1.2925  1.1020
 5104SOL     OW26770   3.181   0.159   0.726 -0.1934  0.8047  0.0214
 5104SOL    HW126771   3.189   0.164   0.630 -0.1459 -5.6686 -0.2897
 5104SOL    HW226772   3.198   0.252   0.741 -0.3302  0.8698 -0.2196
 5105SOL     OW26773   4.409   3.017   8.459 -0.3469 -0.2086 -0.0554
 5105SOL    HW126774   4.335   2.979   8.412 -0.2093 -2.8637  1.8496
 5105SOL    HW226775   4.426   2.937   8.508  0.4839 -0.1362 -0.2273
 5106SOL     OW26776   0.912   3.704   3.882 -0.0395  0.7338 -0.5510
 5106SOL    HW126777   0.995   3.656   3.879  1.3497  3.1002 -0.9345
 5106SOL    HW226778   0.850   3.632   3.891  0.7469  0.4336  2.5813
 5107SOL     OW26779   1.427   4.513   8.507 -0.1069 -0.1976 -0.1209
 5107SOL    HW126780   1.487   4.588   8.507  0.7496 -0.8772  1.4780
 5107SOL    HW226781   1.485   4.437   8.512 -1.1979 -0.9952  0.4606
 5108SOL     OW26782   4.389   1.681  15.306  0.3108  0.0552  0.2080
 5108SOL    HW126783   4.394   1.767  15.348 -1.6167 -0.3532  1.2565
 5108SOL    HW226784   4.454   1.702  15.239  1.1405 -1.2897  0.5931
 5109SOL     OW26785   2.779   1.582   2.601 -0.6694 -0.6041  0.2368
 5109SOL    HW126786   2.818   1.507   2.557  1.8145  0.9423 -0.1612
 5109SOL    HW226787   2.797   1.653   2.538  1.2256 -0.3597  1.0785
 5110SOL     OW26788   3.684   2.643  12.577 -0.4328  0.0960 -0.5294
 5110SOL    HW126789   3.713   2.634  12.486 -0.2137  2.6340 -0.6963
 5110SOL    HW226790   3.763   2.616  12.623 -1.2309 -1.3196  0.0314
 5111SOL     OW26791   2.500   2.289   6.049 -0.3865 -0.2138 -0.4209
 5111SOL    HW126792   2.528   2.359   6.109 -0.3529 -0.5384 -0.0528
 5111SOL    HW226793   2.468   2.339   5.974  0.3363  0.6071 -0.1890
 5112SOL     OW26794   1.318   2.817   2.196  0.2060  0.0684  0.4263
 5112SOL    HW126795   1.343   2.874   2.123 -0.9308 -0.5617 -0.4441
 5112SOL    HW226796   1.226   2.840   2.208 -0.7249 -1.6258 -3.5265
 5113SOL     OW26797   0.157   0.738   9.681  0.4357  0.7784 -0.0974
 5113SOL    HW126798   0.159   0.741   9.777 -1.0128  0.0967 -0.0388
 5113SOL    HW226799   0.245   0.725   9.648  0.4563 -2.4890  1.2450
 5114SOL     OW26800   1.640   2.447   4.558 -0.3183  0.3459  0.3832
 5114SOL    HW126801   1.544   2.451   4.557 -0.3715 -1.2111  0.3005
 5114SOL    HW226802   1.663   2.504   4.631 -1.0506  1.7759 -0.4987
 5115SOL     OW26803   2.052   0.109   2.000 -0.1393  0.8169 -0.3587
 5115SOL    HW126804   2.036   0.200   1.976  0.7805  0.7888 -1.0801
 5115SOL    HW226805   2.105   0.125   2.078 -1.8723 -0.7048  1.1368
 5116SOL     OW26806   1.218   3.339  13.943 -0.0240  0.0295  0.1857
 5116SOL    HW126807   1.187   3.282  13.873 -3.1697  1.5494  0.3788
 5116SOL    HW226808   1.248   3.414  13.892 -0.7581  0.3172  0.1893
 5117SOL     OW26809   4.412   1.704   7.913 -0.2373  0.2254 -0.2740
 5117SOL    HW126810   4.390   1.796   7.928 -1.1350 -0.0977  0.4297
 5117SOL    HW226811   4.386   1.686   7.823  0.0198  0.1904 -0.3429
 5118SOL     OW26812   3.876   3.751  12.913  0.2109  0.3454  0.2999
 5118SOL    HW126813   3.833   3.765  12.829 -0.8437  1.6570  1.0591
 5118SOL    HW226814   3.968   3.742  12.890 -0.1251 -0.3093 -0.7605
 5119SOL     OW26815   1.467   0.457   9.275  0.4717 -0.4028 -0.6808
 5119SOL    HW126816   1.447   0.545   9.245 -0.2171 -0.0235  0.8715
 5119SOL    HW226817   1.471   0.416   9.189  4.7998 -1.2327 -0.1163
 5120SOL     OW26818   3.059   1.150   8.178  0.4377 -0.2495 -0.0997
 5120SOL    HW126819   3.026   1.194   8.100  3.2962  1.3217 -0.4592
 5120SOL    HW226820   2.980   1.146   8.231  0.7609  0.1306  0.4184
 5121SOL     OW26821   2.534   0.101   3.294  0.3429  0.0779 -0.1989
 5121SOL    HW126822   2.472   0.111   3.222 -0.6089 -1.7842  0.3762
 5121SOL    HW226823   2.613   0.142   3.259 -1.0180  1.4380 -1.6709
 5122SOL     OW26824   3.040   1.120  10.925  0.3819 -0.2103 -0.2180
 5122SOL    HW126825   3.113   1.102  10.983 -1.1850 -2.6729  0.9830
 5122SOL    HW226826   3.001   1.196  10.969 -0.5247 -1.5399  1.2592
 5123SOL     OW26827   3.855   0.117  15.289  0.8772  0.1147 -0.2690
 5123SOL    HW126828   3.859   0.211  15.308  0.3368  0.4712 -1.8565
 5123SOL    HW226829   3.817   0.123  15.201  0.1276 -1.1759 -0.0299
 5124SOL     OW26830   0.152   0.223   2.217  0.1584  0.2059  0.9171
 5124SOL    HW126831   0.074   0.167   2.207  2.3358 -2.3355 -1.7743
 5124SOL    HW226832   0.134   0.251   2.307  1.7815 -0.5796  1.4804
 5125SOL     OW26833   1.115   2.171  10.401  0.3234 -0.0189  0.3768
 5125SOL    HW126834   1.047   2.162  10.334 -0.4566 -0.8953  1.2908
 5125SOL    HW226835   1.128   2.077  10.413 -1.8086 -0.0659  2.3097
 5126SOL     OW26836   0.255   4.371   5.648  0.1307 -0.0359  0.3172
 5126SOL    HW126837   0.339   4.339   5.614  0.9048  1.1534  1.1105
 5126SOL    HW226838   0.280   4.455   5.688  0.6436 -0.2399  0.4191
 5127SOL     OW26839   3.756   4.040   8.337 -0.0823  0.0912 -0.1474
 5127SOL    HW126840   3.663   4.060   8.326  0.2810  0.5455 -2.4924
 5127SOL    HW226841   3.740   3.946   8.347 -1.5478  0.3735  0.2174
 5128SOL     OW26842   3.450   1.572   2.406 -0.7266  0.0698 -0.3875
 5128SOL    HW126843   3.523   1.633   2.393  0.9432 -1.5781  1.2338
 5128SOL    HW226844   3.384   1.634   2.435  0.1063  0.3546  0.8982
 5129SOL     OW26845   1.932   3.343   8.835  0.2297 -0.4333  0.1875
 5129SOL    HW126846   1.899   3.376   8.918  0.5936 -0.1530  0.2198
 5129SOL    HW226847   1.852   3.296   8.809  0.5540 -0.3244 -0.9951
 5130SOL     OW26848   1.713   1.460  16.198 -1.3844 -0.0145  0.0187
 5130SOL    HW126849   1.628   1.417  16.207 -0.4702 -2.1188 -1.3947
 5130SOL    HW226850   1.770   1.423  16.265 -1.1884  2.5461  1.2489
 5131SOL     OW26851   2.222   1.961  10.465 -0.2010 -0.2443 -0.3124
 5131SOL    HW126852   2.162   2.018  10.417 -0.3931 -0.5538 -0.4431
 5131SOL    HW226853   2.309   1.996  10.448 -1.4336  2.2214 -1.6171
 5132SOL     OW26854   1.741   1.180  13.291  0.2479  0.3567 -0.0453
 5132SOL    HW126855   1.680   1.126  13.242 -0.6785  0.1471  1.3511
 5132SOL    HW226856   1.814   1.120  13.304 -1.2867 -1.3706  0.5571
 5133SOL     OW26857   0.296   0.870   2.655 -0.1875 -0.5555  0.0010
 5133SOL    HW126858   0.374   0.923   2.641 -0.7632  0.9482  2.4788
 5133SOL    HW226859   0.275   0.829   2.571 -1.7892  2.2215 -0.9687
 5134SOL     OW26860   2.797   1.316   5.406  0.0817 -0.4709  0.1788
 5134SOL    HW126861   2.826   1.241   5.354  1.3031  0.6459 -0.7590
 5134SOL    HW226862   2.746   1.267   5.471  1.2764 -0.6676  0.9727
 5135SOL     OW26863   4.266   3.426  12.362  0.3304 -0.0691  0.0703
 5135SOL    HW126864   4.278   3.420  12.267  1.0826  1.1614  0.0921
 5135SOL    HW226865   4.190   3.370  12.377  1.1440 -0.9309  0.9857
 5136SOL     OW26866   1.755   2.608   5.690  0.3443  0.3012  0.1602
 5136SOL    HW126867   1.821   2.542   5.669 -0.9004 -0.5577 -1.0468
 5136SOL    HW226868   1.672   2.570   5.720 -1.0622  2.5403 -0.8762
 5137SOL     OW26869   3.690   4.517   6.326  0.4318 -0.1033 -0.2711
 5137SOL    HW126870   3.735   4.584   6.378 -2.6346 -0.4939  2.8091
 5137SOL    HW226871   3.768   4.468   6.298  0.1063 -2.1668  2.5219
 5138SOL     OW26872   3.293   1.995   5.828 -0.4915 -0.0405  0.0875
 5138SOL    HW126873   3.244   2.069   5.864 -0.3221  1.0361 -1.8872
 5138SOL    HW226874   3.217   1.949   5.791 -0.1475 -0.4365 -0.1261
 5139SOL     OW26875   3.752   1.994   3.901  0.3519  0.1959  0.1585
 5139SOL    HW126876   3.761   2.041   3.984 -0.7931  1.2630 -0.3316
 5139SOL    HW226877   3.818   2.037   3.846  0.0563  0.0736 -0.2903
 5140SOL     OW26878   2.306   3.677  14.694 -0.3202 -0.3744  0.0515
 5140SOL    HW126879   2.329   3.686  14.786  0.0662  0.2286 -0.1020
 5140SOL    HW226880   2.273   3.587  14.685  0.8421 -0.8095  0.2273
 5141SOL     OW26881   4.550   1.715   4.971 -0.2349  0.7575 -0.1806
 5141SOL    HW126882   4.637   1.725   4.932 -1.5913  0.2009 -3.3755
 5141SOL    HW226883   4.505   1.682   4.893 -0.3250 -0.2037  0.2695
 5142SOL     OW26884   2.295   4.364  15.400 -0.0276  0.0404 -0.3082
 5142SOL    HW126885   2.331   4.298  15.341  1.7506  1.7517 -1.1462
 5142SOL    HW226886   2.336   4.448  15.378 -1.0891  1.3134  2.5475
 5143SOL     OW26887   3.331   2.210   5.303  0.5849  0.0212  0.2420
 5143SOL    HW126888   3.397   2.172   5.245  0.1910 -2.0136  1.1319
 5143SOL    HW226889   3.387   2.266   5.356  1.7199 -0.4769 -0.4336
 5144SOL     OW26890   3.973   3.531  14.436  0.6519  0.1063  0.1535
 5144SOL    HW126891   3.986   3.498  14.525 -0.7861  0.0956  0.3503
 5144SOL    HW226892   3.974   3.445  14.393 -0.9188  0.1631  0.0211
 5145SOL     OW26893   2.612   1.646  13.613 -0.3136 -0.7994 -0.1431
 5145SOL    HW126894   2.549   1.673  13.680 -0.8037  1.7626 -1.6571
 5145SOL    HW226895   2.693   1.690  13.640 -0.4361 -1.9304  2.1079
 5146SOL     OW26896   3.569   3.699  12.823  0.0515 -0.7426 -0.2339
 5146SOL    HW126897   3.588   3.616  12.867  0.8833 -0.9697 -1.0255
 5146SOL    HW226898   3.476   3.712  12.843  0.5243  1.6267  0.3615
 5147SOL     OW26899   3.615   1.017   1.444  0.1912 -0.1479  0.1613
 5147SOL    HW126900   3.549   0.980   1.385 -0.4934 -0.7247  1.2716
 5147SOL    HW226901   3.692   0.975   1.406  0.7202 -0.5609  1.6827
 5148SOL     OW26902   1.662   3.788   1.994 -0.1432 -0.6952 -0.4159
 5148SOL    HW126903   1.689   3.877   2.016  0.5772 -0.4095 -2.4620
 5148SOL    HW226904   1.571   3.790   2.022 -0.3102 -1.6098 -0.9079
 5149SOL     OW26905   4.252   1.417  14.475 -0.3984  0.0799 -0.2662
 5149SOL    HW126906   4.190   1.361  14.522 -0.0674  0.7018  0.9299
 5149SOL    HW226907   4.283   1.357  14.408  1.3593  0.6041  0.0619
 5150SOL     OW26908   0.906   0.100   8.466 -0.1903 -0.0147  0.2474
 5150SOL    HW126909   0.944   0.187   8.454  0.5960 -0.3693  0.1781
 5150SOL    HW226910   0.829   0.119   8.520  0.4255 -0.8787  1.4161
 5151SOL     OW26911   2.663   3.481   5.226  0.2248  0.0906 -0.1170
 5151SOL    HW126912   2.618   3.399   5.206 -1.5290  1.0476 -0.1494
 5151SOL    HW226913   2.602   3.520   5.290 -1.5258 -1.9455 -0.5580
 5152SOL     OW26914   1.506   2.365   5.682  0.3037 -0.0268  0.4387
 5152SOL    HW126915   1.516   2.365   5.586  1.1772 -0.6270  0.5227
 5152SOL    HW226916   1.586   2.322   5.712 -0.9697 -0.7429  2.7986
 5153SOL     OW26917   2.429   3.776   3.222  0.3399 -0.1664 -0.3912
 5153SOL    HW126918   2.489   3.702   3.229  2.5722  1.5332 -1.6311
 5153SOL    HW226919   2.449   3.795   3.131  0.5234 -1.4321 -0.6196
 5154SOL     OW26920   2.096   1.660   5.609 -0.2494  0.0833  0.1784
 5154SOL    HW126921   2.071   1.713   5.685  0.8241  1.1871 -0.2363
 5154SOL    HW226922   2.029   1.688   5.546  1.1241  1.5980 -0.6265
 5155SOL     OW26923   2.537   2.609   5.756  0.4381 -0.4372 -0.4049
 5155SOL    HW126924   2.495   2.673   5.698 -0.9790 -0.1855  0.8739
 5155SOL    HW226925   2.587   2.565   5.688 -0.1554 -0.1802 -1.0134
 5156SOL     OW26926   3.262   2.035   6.171 -0.2517  0.5315  0.8276
 5156SOL    HW126927   3.212   2.116   6.156  0.0698  0.2920 -1.5937
 5156SOL    HW226928   3.300   2.034   6.083  0.4221 -1.7123  1.1578
 5157SOL     OW26929   3.801   1.924  16.761  0.2066  0.5853  0.5070
 5157SOL    HW126930   3.787   1.931  16.855 -1.2163 -3.7073  0.6290
 5157SOL    HW226931   3.875   1.984  16.754  1.4597 -1.1575 -1.2485
 5158SOL     OW26932   2.691   4.506  15.474 -0.7609 -0.2209 -0.6055
 5158SOL    HW126933   2.762   4.566  15.450 -1.9548  0.6649 -1.9868
 5158SOL    HW226934   2.734   4.447  15.534 -1.1974 -0.2790 -0.3467
 5159SOL     OW26935   2.903   0.175   5.484  0.1054  0.4537  0.1034
 5159SOL    HW126936   2.818   0.198   5.446 -0.2402 -0.9355  0.0394
 5159SOL    HW226937   2.926   0.262   5.518  0.5402  0.5753 -0.5010
 5160SOL     OW26938   4.367   1.024  16.396 -0.2017  0.2009  0.0080
 5160SOL    HW126939   4.372   1.027  16.300  2.3168 -5.0996 -0.0576
 5160SOL    HW226940   4.372   0.930  16.414 -0.6400  0.5197  1.7750
 5161SOL     OW26941   2.085   3.537  15.270 -0.2122 -0.2663  0.2239
 5161SOL    HW126942   2.118   3.521  15.181  1.3495 -0.3150  0.8151
 5161SOL    HW226943   2.101   3.452  15.312  1.0945 -0.2743 -0.3024
 5162SOL     OW26944   2.393   2.419   8.081  0.5509 -0.4964 -0.1075
 5162SOL    HW126945   2.434   2.446   8.163 -0.7371  0.6570  0.1565
 5162SOL    HW226946   2.474   2.393   8.036 -0.1879 -2.5661 -0.2292
 5163SOL     OW26947   0.836   2.126   0.841  0.5139  0.1789  0.0414
 5163SOL    HW126948   0.824   2.033   0.860 -1.3758  0.6478  1.1266
 5163SOL    HW226949   0.833   2.158   0.931 -2.2498 -0.1947  0.0814
 5164SOL     OW26950   0.321   3.381   4.510  0.0018 -0.1492 -0.2174
 5164SOL    HW126951   0.321   3.476   4.523  0.9356 -0.2304  0.3751
 5164SOL    HW226952   0.246   3.369   4.569  0.7160  1.2896  0.9929
 5165SOL     OW26953   1.005   3.497   0.471  0.8080  0.1218  0.1161
 5165SOL    HW126954   0.954   3.420   0.446  1.1113 -0.3142  0.8627
 5165SOL    HW226955   1.095   3.468   0.455  0.4250 -0.0693 -1.6687
 5166SOL     OW26956   1.714   1.209   2.559  0.5888  0.2424 -0.2858
 5166SOL    HW126957   1.694   1.125   2.519 -0.4404  0.2647  0.1872
 5166SOL    HW226958   1.627   1.244   2.540  0.8390  0.0937 -1.6923
 5167SOL     OW26959   3.308   0.223   4.629 -0.7003  0.4040 -0.0372
 5167SOL    HW126960   3.355   0.252   4.708 -1.4882  2.6923 -0.4310
 5167SOL    HW226961   3.271   0.141   4.662 -0.8015  0.4474 -0.0453
 5168SOL     OW26962   2.272   4.477   8.761 -0.0148  0.1636  0.3319
 5168SOL    HW126963   2.326   4.551   8.792  1.6105 -0.3950 -1.1588
 5168SOL    HW226964   2.198   4.468   8.821  0.0314  1.8270  0.6574
 5169SOL     OW26965   1.727   3.546   0.917 -0.0901 -0.0902 -0.6337
 5169SOL    HW126966   1.807   3.580   0.877 -0.8438  1.8592 -0.4790
 5169SOL    HW226967   1.739   3.567   1.010  1.1120  1.0804 -1.0525
 5170SOL     OW26968   3.809   0.100   3.136  0.0081  0.5353 -0.6346
 5170SOL    HW126969   3.871   0.071   3.203 -0.2897 -0.4697 -0.7976
 5170SOL    HW226970   3.738   0.038   3.150 -1.2616  1.4225 -3.1902
 5171SOL     OW26971   4.373   1.063   5.564  0.0399 -0.1948  0.1791
 5171SOL    HW126972   4.376   1.125   5.491  1.2077  0.9764  1.2191
 5171SOL    HW226973   4.403   0.979   5.530  1.9099  0.3948  0.3609
 5172SOL     OW26974   0.172   0.295  15.911 -0.2089  0.4239 -0.4744
 5172SOL    HW126975   0.128   0.338  15.984 -0.6852 -0.0298 -0.4953
 5172SOL    HW226976   0.106   0.268  15.847  1.6393 -1.6190 -1.5035
 5173SOL     OW26977   3.334   0.070   1.273  0.7857 -0.7377  0.2532
 5173SOL    HW126978   3.275   0.139   1.305 -1.3435 -1.7252 -1.5008
 5173SOL    HW226979   3.357   0.117   1.193  0.5772  1.0206  1.2353
 5174SOL     OW26980   1.612   2.586   9.324 -0.0328  0.0361  0.5316
 5174SOL    HW126981   1.604   2.498   9.363 -0.2320 -0.2813 -0.2209
 5174SOL    HW226982   1.520   2.612   9.321  0.4671  1.7282  0.0900
 5175SOL     OW26983   4.242   0.866  15.047 -0.1447 -0.8873 -0.2539
 5175SOL    HW126984   4.178   0.802  15.016 -0.3224 -1.9004  2.2110
 5175SOL    HW226985   4.212   0.899  15.132 -1.1414 -1.7053 -0.2966
 5176SOL     OW26986   0.245   4.216   0.755 -0.2778  0.1722  0.0609
 5176SOL    HW126987   0.239   4.189   0.847  2.1252  1.0912  0.4759
 5176SOL    HW226988   0.219   4.137   0.708  0.4264  1.0946 -1.9123
 5177SOL     OW26989   4.070   3.417   7.467  0.1399  0.2842  0.4741
 5177SOL    HW126990   4.043   3.388   7.380  0.9067 -1.3764  0.7882
 5177SOL    HW226991   4.086   3.338   7.518  0.7363  0.6962  0.9322
 5178SOL     OW26992   4.128   0.408   3.489 -0.7281 -0.3011 -0.1275
 5178SOL    HW126993   4.092   0.431   3.574 -0.9011  0.7182 -0.4755
 5178SOL    HW226994   4.221   0.427   3.502 -0.9182 -1.5290  2.8770
 5179SOL     OW26995   0.826   2.825   6.802 -0.4511  0.2200 -0.7490
 5179SOL    HW126996   0.890   2.840   6.872  0.0263 -1.5318 -0.8034
 5179SOL    HW226997   0.836   2.731   6.790  0.4799  0.2363 -0.1700
 5180SOL     OW26998   4.183   1.347  17.393 -0.7883  0.0970  0.2468
 5180SOL    HW126999   4.260   1.291  17.405 -2.6230 -2.2846  0.7893
 5180SOL    HW227000   4.170   1.371  17.485  1.2407  1.2168  0.2390
 5181SOL     OW27001   1.025   1.176   2.219 -0.2863 -0.2016  0.2082
 5181SOL    HW127002   1.035   1.245   2.154  0.8025 -1.4138 -0.9004
 5181SOL    HW227003   1.011   1.109   2.153  2.7814 -0.1108 -0.5318
 5182SOL     OW27004   1.123   2.673   4.591 -0.2753  0.3520  0.2574
 5182SOL    HW127005   1.088   2.675   4.502  0.4955 -0.0213 -0.0548
 5182SOL    HW227006   1.111   2.766   4.608 -2.8138  0.6318 -3.1144
 5183SOL     OW27007   3.811   3.894   6.466  0.0347 -0.2075 -0.2421
 5183SOL    HW127008   3.779   3.809   6.495 -1.4686  1.2569  2.4174
 5183SOL    HW227009   3.858   3.879   6.384 -1.2816  0.7432 -1.1699
 5184SOL     OW27010   0.415   2.612   3.881  0.1138  0.1862  0.0643
 5184SOL    HW127011   0.396   2.571   3.966 -1.4620 -0.4694 -0.6092
 5184SOL    HW227012   0.363   2.692   3.890  0.0356  0.3832 -2.1727
 5185SOL     OW27013   3.211   2.478   0.863  0.1561  0.3961  0.4088
 5185SOL    HW127014   3.159   2.410   0.906  1.0667 -0.9603 -0.6735
 5185SOL    HW227015   3.192   2.450   0.774  1.4746 -1.0272  0.5963
 5186SOL     OW27016   2.639   4.428   4.874  0.2938 -0.2526  0.0233
 5186SOL    HW127017   2.670   4.363   4.937  1.2993 -0.9609 -1.2205
 5186SOL    HW227018   2.547   4.434   4.903  0.8767  0.6599  1.7225
 5187SOL     OW27019   2.203   1.669   6.670  0.5946 -0.0539  0.6073
 5187SOL    HW127020   2.204   1.574   6.659  0.3325 -0.1693  1.5798
 5187SOL    HW227021   2.292   1.675   6.705  1.0642  0.7029 -0.7518
 5188SOL     OW27022   3.402   4.008   0.433  0.7006 -0.2051 -0.4122
 5188SOL    HW127023   3.415   4.056   0.515  0.4903 -1.0493  0.1184
 5188SOL    HW227024   3.316   4.046   0.417  0.4761 -0.7198 -0.4079
 5189SOL     OW27025   3.787   2.368   2.797  0.2302  0.1925 -0.4622
 5189SOL    HW127026   3.814   2.283   2.763  0.2152  0.1124 -0.2740
 5189SOL    HW227027   3.833   2.384   2.879 -0.3672 -0.2333 -0.0398
 5190SOL     OW27028   3.995   0.282   0.946 -0.5407 -0.8812  0.5829
 5190SOL    HW127029   4.075   0.244   0.908  0.0806  1.6155 -0.6212
 5190SOL    HW227030   3.969   0.331   0.867  0.5085 -0.0513  0.7501
 5191SOL     OW27031   3.587   1.276   8.769 -0.0434 -0.0105  0.2697
 5191SOL    HW127032   3.673   1.307   8.741  0.3340 -2.5123 -1.3321
 5191SOL    HW227033   3.600   1.182   8.757  2.1003  0.4098 -0.5982
 5192SOL     OW27034   3.331   0.078   1.666 -0.7412 -0.2043  0.1733
 5192SOL    HW127035   3.252   0.128   1.686 -0.8532 -0.8574  1.3495
 5192SOL    HW227036   3.387   0.095   1.741  1.0685 -0.9477 -1.0012
 5193SOL     OW27037   3.858   2.670  17.146 -0.2390 -0.3324  0.4179
 5193SOL    HW127038   3.835   2.749  17.099 -0.7859 -0.6044  0.2256
 5193SOL    HW227039   3.893   2.700  17.230 -0.7735 -0.7515  0.7911
 5194SOL     OW27040   3.015   1.360   1.293 -0.0646  0.0872  0.3547
 5194SOL    HW127041   3.085   1.338   1.232 -0.9305 -2.1728  0.1876
 5194SOL    HW227042   3.020   1.279   1.345  0.1200  0.4168  0.8563
 5195SOL     OW27043   3.699   0.283   8.356  0.3809 -0.1328 -0.1354
 5195SOL    HW127044   3.770   0.234   8.315 -0.1675  0.0926 -1.3541
 5195SOL    HW227045   3.648   0.304   8.278 -0.9541 -1.7963  0.3027
 5196SOL     OW27046   0.778   1.635   7.913 -0.3094 -0.3849  0.1998
 5196SOL    HW127047   0.850   1.585   7.876 -1.4128 -0.3724 -1.9351
 5196SOL    HW227048   0.788   1.613   8.006  0.3719  1.8018  0.6537
 5197SOL     OW27049   3.940   2.366   7.732  0.3394  0.3053  0.1501
 5197SOL    HW127050   3.975   2.382   7.644  0.1088 -0.7400 -0.1284
 5197SOL    HW227051   3.940   2.455   7.768 -1.4742  0.5775 -0.5081
 5198SOL     OW27052   2.808   2.992   9.421 -0.1441  0.3034 -0.4477
 5198SOL    HW127053   2.821   3.075   9.375  1.1424  0.4172  0.1129
 5198SOL    HW227054   2.857   3.003   9.503 -1.8171  2.3370  0.2785
 5199SOL     OW27055   0.477   2.285   1.530 -0.4985  1.2013 -0.5464
 5199SOL    HW127056   0.395   2.254   1.567 -0.1104  4.3635  2.9071
 5199SOL    HW227057   0.456   2.378   1.527 -1.9940  0.8282 -1.7540
 5200SOL     OW27058   4.248   1.312  10.894  0.0013  0.3281 -0.9052
 5200SOL    HW127059   4.216   1.230  10.931  2.0658 -0.6119 -1.1850
 5200SOL    HW227060   4.253   1.302  10.799  1.0487  1.3095 -0.9637
 5201SOL     OW27061   2.479   1.425   7.671 -0.0651 -0.7051 -0.6290
 5201SOL    HW127062   2.454   1.350   7.617 -1.0260  1.1615 -2.7857
 5201SOL    HW227063   2.413   1.493   7.656  0.5185 -0.4108 -1.8729
 5202SOL     OW27064   1.347   1.141   6.104 -0.0587 -0.3838 -0.1549
 5202SOL    HW127065   1.362   1.079   6.033 -0.2595 -1.4181  0.7152
 5202SOL    HW227066   1.344   1.078   6.176 -1.7559 -0.9593 -0.7432
 5203SOL     OW27067   2.955   2.164   6.480  0.0446  0.2901 -0.1087
 5203SOL    HW127068   2.885   2.211   6.436 -0.3310  0.5856  0.8048
 5203SOL    HW227069   3.031   2.218   6.457  0.0840 -0.0288 -0.7261
 5204SOL     OW27070   3.296   3.889  17.473  0.7969  0.1855  0.1857
 5204SOL    HW127071   3.236   3.830  17.426  2.1264 -0.5338 -0.6171
 5204SOL    HW227072   3.255   3.886  17.559  0.3888  2.3417  0.0568
 5205SOL     OW27073   1.581   0.796  11.364  0.0299 -0.9425  0.2053
 5205SOL    HW127074   1.591   0.888  11.339 -0.8103 -0.9483 -0.1429
 5205SOL    HW227075   1.486   0.787  11.370  0.1159  1.2308  5.1736
 5206SOL     OW27076   0.412   2.291  10.911  0.1027 -0.0528 -0.8535
 5206SOL    HW127077   0.373   2.321  10.829 -0.7826 -0.5724 -0.6240
 5206SOL    HW227078   0.489   2.246  10.877  0.2157 -0.4112 -0.1314
 5207SOL     OW27079   0.216   0.057   8.776  0.2449 -0.0651  0.7593
 5207SOL    HW127080   0.250   4.710   8.829  0.8946  0.4107  0.9915
 5207SOL    HW227081   0.139   0.022   8.732 -0.8038  1.3532  1.4632
 5208SOL     OW27082   1.841   1.426   2.712  0.4328 -0.0564  0.8407
 5208SOL    HW127083   1.865   1.338   2.683 -2.2813 -0.7288  0.6323
 5208SOL    HW227084   1.850   1.462   2.624 -1.5371 -2.0457 -0.1771
 5209SOL     OW27085   0.893   1.333   4.827  0.2536 -0.1859 -0.1480
 5209SOL    HW127086   0.958   1.351   4.760 -0.4310  1.7255 -0.2823
 5209SOL    HW227087   0.816   1.379   4.795  0.1762 -0.3527 -0.2053
 5210SOL     OW27088   3.737   2.603   6.721  0.3045 -0.2189 -0.3208
 5210SOL    HW127089   3.684   2.644   6.653  0.7595 -1.5664 -1.4912
 5210SOL    HW227090   3.761   2.681   6.771 -0.9927 -1.4870  2.3220
 5211SOL     OW27091   4.055   4.125  17.456  0.3049 -0.4228  0.3464
 5211SOL    HW127092   4.077   4.122  17.363 -0.6061  0.1332  0.1089
 5211SOL    HW227093   3.980   4.068  17.469 -0.2721  0.0351 -1.0406
 5212SOL     OW27094   2.104   0.775   3.946 -0.3100 -0.2476  0.5266
 5212SOL    HW127095   2.077   0.703   3.889  0.5537 -0.5782  0.5326
 5212SOL    HW227096   2.075   0.841   3.883  1.9717  1.5085  1.3369
 5213SOL     OW27097   4.206   2.729   2.638 -0.0240  0.6145  0.1286
 5213SOL    HW127098   4.284   2.677   2.659 -0.6633 -1.0175 -1.4926
 5213SOL    HW227099   4.190   2.759   2.727 -1.2736 -0.8436  0.3972
 5214SOL     OW27100   3.896   3.150  16.854 -0.0368 -0.2398 -0.1342
 5214SOL    HW127101   3.989   3.129  16.855 -0.7357 -3.4884 -2.4020
 5214SOL    HW227102   3.880   3.128  16.762 -1.1517  2.9411 -0.6785
 5215SOL     OW27103   3.928   1.616   4.915  0.0789 -0.2306 -0.1254
 5215SOL    HW127104   3.889   1.556   4.979 -1.6012 -1.4412 -2.2929
 5215SOL    HW227105   3.858   1.677   4.890 -0.6307 -0.8853  0.2782
 5216SOL     OW27106   3.783   0.960   4.023 -0.8548  0.1845 -0.1456
 5216SOL    HW127107   3.707   1.019   4.021  0.3172  1.7186  1.4597
 5216SOL    HW227108   3.815   1.004   4.101  1.2747 -2.0643  0.2476
 5217SOL     OW27109   2.432   4.317   4.501 -0.3587  0.5340 -0.0610
 5217SOL    HW127110   2.405   4.349   4.415  0.4604 -0.3296 -0.6377
 5217SOL    HW227111   2.360   4.264   4.535 -0.3653  0.5271 -0.0858
 5218SOL     OW27112   3.679   0.620   2.326 -0.0266 -0.1228  0.0399
 5218SOL    HW127113   3.703   0.604   2.234  0.6252  3.0926 -0.3354
 5218SOL    HW227114   3.626   0.699   2.316 -0.2475 -0.2798 -0.0535
 5219SOL     OW27115   2.821   3.509   4.132 -0.1811 -0.2676 -0.0471
 5219SOL    HW127116   2.726   3.517   4.142 -0.4896 -0.8172 -2.6725
 5219SOL    HW227117   2.837   3.443   4.065 -1.7639 -0.4928 -0.1866
 5220SOL     OW27118   2.544   2.296   2.052 -0.0566 -0.2285 -0.0502
 5220SOL    HW127119   2.499   2.344   2.122 -1.7594  0.7013 -1.7853
 5220SOL    HW227120   2.502   2.210   2.050  0.3875 -0.4383 -0.3565
 5221SOL     OW27121   1.559   3.337   0.664 -0.2213  0.4564  0.1562
 5221SOL    HW127122   1.608   3.282   0.602 -1.2805  0.4305 -0.6730
 5221SOL    HW227123   1.480   3.283   0.658  0.0863 -0.1150  1.2186
 5222SOL     OW27124   1.431   1.789  17.383  0.3332 -0.3322  0.1871
 5222SOL    HW127125   1.487   1.735  17.438  1.6463 -0.5520 -1.3633
 5222SOL    HW227126   1.437   1.874  17.426  1.1031 -1.3912  2.1809
 5223SOL     OW27127   0.153   0.263   2.973 -0.3576  0.1823  0.0893
 5223SOL    HW127128   0.090   0.323   3.014 -1.1145  0.9604 -2.2243
 5223SOL    HW227129   0.231   0.318   2.972  1.5197 -2.4322  3.8213
 5224SOL     OW27130   0.039   3.905   9.605  0.1285 -0.5115  0.3759
 5224SOL    HW127131   0.057   3.900   9.699 -0.9059  2.6702  0.7529
 5224SOL    HW227132   4.669   3.891   9.607 -0.1379  1.1657 -0.6717
 5225SOL     OW27133   4.355   4.080   8.349 -0.4891 -0.3883 -0.1960
 5225SOL    HW127134   4.314   4.025   8.416 -0.4018 -1.0909 -0.7160
 5225SOL    HW227135   4.416   4.131   8.402  0.4251 -1.9793  0.2905
 5226SOL     OW27136   2.609   2.211   7.388  0.0636  0.7844  0.4213
 5226SOL    HW127137   2.683   2.272   7.386 -0.7912  1.9257  2.9889
 5226SOL    HW227138   2.623   2.162   7.469 -4.1281  0.8335  1.2292
 5227SOL     OW27139   1.713   0.538  10.450  0.4113 -0.2343  0.2673
 5227SOL    HW127140   1.754   0.514  10.533 -0.3649 -1.6780  0.2490
 5227SOL    HW227141   1.752   0.473  10.391 -0.4277  0.0192 -0.5672
 5228SOL     OW27142   0.139   1.044   3.919 -0.5297  0.0548  0.0562
 5228SOL    HW127143   0.139   1.138   3.935  0.6671  0.3294 -1.5593
 5228SOL    HW227144   0.124   1.043   3.824 -0.7435  1.9744  0.0616
 5229SOL     OW27145   2.517   1.797   9.163 -0.1251  0.4552  0.2775
 5229SOL    HW127146   2.589   1.744   9.128  2.1150  3.0578  0.8880
 5229SOL    HW227147   2.463   1.732   9.208 -0.8382  1.1370  0.3889
 5230SOL     OW27148   0.774   1.204   2.324  0.0967  0.2158  0.0085
 5230SOL    HW127149   0.786   1.214   2.419 -0.2642  1.1368 -0.0433
 5230SOL    HW227150   0.862   1.185   2.292  0.5953  1.4844  0.6254
 5231SOL     OW27151   2.241   4.445  10.779  0.0190  0.0957 -0.5331
 5231SOL    HW127152   2.168   4.497  10.813  0.4295  0.4841 -0.2456
 5231SOL    HW227153   2.295   4.508  10.730 -1.4463 -1.2554 -3.8805
 5232SOL     OW27154   2.996   3.840  16.108 -0.2107 -0.3388 -0.2868
 5232SOL    HW127155   2.940   3.807  16.037 -0.3592  1.7087 -1.1260
 5232SOL    HW227156   2.937   3.833  16.183  0.1619  1.3643  0.1678
 5233SOL     OW27157   3.520   1.401   1.891  0.1626  0.1138 -0.1934
 5233SOL    HW127158   3.572   1.365   1.819 -1.2563  1.7526 -2.0586
 5233SOL    HW227159   3.568   1.482   1.907  5.0465 -3.0674  1.0351
 5234SOL     OW27160   2.852   2.104  10.077 -0.0495  0.0154  0.1562
 5234SOL    HW127161   2.921   2.115  10.143 -0.7253 -0.1705  0.8965
 5234SOL    HW227162   2.793   2.044  10.122 -0.7966  1.7241  1.4465
 5235SOL     OW27163   2.354   1.561   4.831 -0.4016 -0.0679  0.6423
 5235SOL    HW127164   2.364   1.497   4.902 -1.6788 -1.6626 -0.6055
 5235SOL    HW227165   2.430   1.607   4.866 -0.1235  1.1456 -1.5507
 5236SOL     OW27166   4.311   3.868   9.264 -0.3772 -0.1916 -0.0410
 5236SOL    HW127167   4.277   3.929   9.199  0.3207 -2.1266 -2.2456
 5236SOL    HW227168   4.360   3.813   9.203 -1.7069  0.9527 -2.1216
 5237SOL     OW27169   3.982   1.064  15.057 -0.6460 -0.6891  0.1536
 5237SOL    HW127170   4.045   1.056  15.128  0.5246  0.0307 -0.8017
 5237SOL    HW227171   3.966   1.158  15.053  2.6322 -0.1766 -0.9771
 5238SOL     OW27172   4.378   3.369   9.620  0.0858 -0.6323 -0.5335
 5238SOL    HW127173   4.369   3.413   9.705 -0.0063 -0.1443 -0.7913
 5238SOL    HW227174   4.467   3.333   9.626 -0.2424 -1.1469  1.4427
 5239SOL     OW27175   1.688   3.743   8.652  0.0126  0.2837 -0.1471
 5239SOL    HW127176   1.624   3.685   8.693  1.4372 -0.7194  0.6602
 5239SOL    HW227177   1.761   3.685   8.633  1.3362  1.6978  0.6424
 5240SOL     OW27178   1.580   0.655  17.141 -0.0593  0.5993  1.0068
 5240SOL    HW127179   1.497   0.629  17.182  0.1887 -1.9279 -0.1030
 5240SOL    HW227180   1.632   0.676  17.219 -0.3584  1.5996  0.9335
 5241SOL     OW27181   3.716   3.589   3.537  0.5212 -0.1819  0.0923
 5241SOL    HW127182   3.623   3.599   3.557  0.1947 -1.4192 -0.8359
 5241SOL    HW227183   3.718   3.628   3.449  1.2658 -2.1062 -0.7358
 5242SOL     OW27184   3.741   1.502   4.644  0.0827  0.9800 -0.2080
 5242SOL    HW127185   3.797   1.541   4.577  0.9574 -1.4190 -0.8827
 5242SOL    HW227186   3.731   1.576   4.703 -1.7644  1.8107 -1.5532
 5243SOL     OW27187   1.387   3.812  13.962  0.8443  0.0042  1.0248
 5243SOL    HW127188   1.377   3.785  14.053  0.8347 -1.7958  0.4842
 5243SOL    HW227189   1.428   3.894  13.990  0.8822  0.5950 -0.7396
 5244SOL     OW27190   1.427   0.656   6.685  0.0771 -0.1390 -0.1666
 5244SOL    HW127191   1.479   0.597   6.630  1.3517  0.1804  0.7043
 5244SOL    HW227192   1.434   0.614   6.771 -0.1151 -1.7574 -0.9346
 5245SOL     OW27193   3.462   0.023   6.465 -0.4000  0.0280 -0.3188
 5245SOL    HW127194   3.405   4.671   6.466  1.5069 -1.3551  0.7349
 5245SOL    HW227195   3.520   0.006   6.538 -0.9812 -0.1057  0.1100
 5246SOL     OW27196   3.155   0.059   7.457 -0.5107  0.7957 -0.6273
 5246SOL    HW127197   3.140   0.153   7.443  2.0225  1.3587  0.5969
 5246SOL    HW227198   3.071   0.019   7.434  0.4285 -0.8668 -1.1740
 5247SOL     OW27199   4.700   3.900   3.293 -0.4503 -0.3401  0.2303
 5247SOL    HW127200   4.723   3.959   3.221 -1.0856  0.2452  0.5081
 5247SOL    HW227201   0.002   3.952   3.369  1.0377  0.6884 -1.0011
 5248SOL     OW27202   3.697   3.778   2.808 -0.0851  0.0242 -0.4335
 5248SOL    HW127203   3.612   3.818   2.827  0.1192 -0.1356  0.8299
 5248SOL    HW227204   3.743   3.847   2.759  1.5099 -0.0770  0.9354
 5249SOL     OW27205   2.375   4.520   0.778  0.2053 -0.0158  0.1150
 5249SOL    HW127206   2.357   4.426   0.785  0.1956  0.1451  2.1779
 5249SOL    HW227207   2.293   4.557   0.810  0.6744  1.7050 -0.6847
 5250SOL     OW27208   0.691   1.745   5.357  0.3391 -0.0229  0.1638
 5250SOL    HW127209   0.695   1.654   5.326 -0.6573  0.1598 -0.5008
 5250SOL    HW227210   0.778   1.774   5.328  0.4431  0.5356  1.0602
 5251SOL     OW27211   1.179   0.152   1.039  0.6677  0.7346  0.1678
 5251SOL    HW127212   1.161   0.188   1.126 -0.6123 -0.8064  0.5452
 5251SOL    HW227213   1.120   0.199   0.981  0.2259 -0.2830 -0.2091
 5252SOL     OW27214   3.257   4.442   5.214 -0.1381  0.5333  0.8167
 5252SOL    HW127215   3.267   4.407   5.125 -0.2196 -1.7389  1.7096
 5252SOL    HW227216   3.348   4.469   5.229  0.0290  0.6172 -0.3109
 5253SOL     OW27217   2.355   1.158   1.360 -0.1169  0.4157  0.4092
 5253SOL    HW127218   2.403   1.171   1.278 -1.3937 -1.1939 -0.5987
 5253SOL    HW227219   2.343   1.251   1.380  4.4013  0.7044  1.8518
 5254SOL     OW27220   3.379   4.002   4.758 -0.4708  0.2066 -0.5987
 5254SOL    HW127221   3.468   4.035   4.769 -1.0452  1.2950  0.8049
 5254SOL    HW227222   3.336   4.084   4.733  0.5140  0.9069  0.0263
 5255SOL     OW27223   2.343   0.116   5.898  0.2726 -0.1306 -0.0036
 5255SOL    HW127224   2.327   0.027   5.867 -0.7887  0.1522 -0.2919
 5255SOL    HW227225   2.314   0.116   5.989 -0.9104  1.7178 -0.3721
 5256SOL     OW27226   1.784   0.807   8.166 -0.1715  0.1417 -0.1028
 5256SOL    HW127227   1.742   0.722   8.152  2.0148 -1.3379  2.1322
 5256SOL    HW227228   1.753   0.819   8.256  0.7527  0.0387  0.2377
 5257SOL     OW27229   1.275   4.250   4.243  0.1934 -0.1759 -0.2786
 5257SOL    HW127230   1.199   4.286   4.198 -0.5219 -1.7074 -0.2878
 5257SOL    HW227231   1.338   4.246   4.170  0.5955  1.2786 -0.0277
 5258SOL     OW27232   3.506   4.360   1.489  0.4021 -0.3032 -0.2870
 5258SOL    HW127233   3.589   4.402   1.471  0.2767 -0.3732 -1.0057
 5258SOL    HW227234   3.485   4.398   1.575 -0.1978 -0.6120 -0.2910
 5259SOL     OW27235   4.001   3.224   4.938 -0.7033  0.3025 -0.4028
 5259SOL    HW127236   3.955   3.297   4.980  1.0288  1.5203 -0.5964
 5259SOL    HW227237   4.087   3.235   4.980 -2.2047  0.1596  2.7062
 5260SOL     OW27238   0.980   4.333  17.458  0.3362  0.0363 -0.0844
 5260SOL    HW127239   1.043   4.289  17.515 -2.8860 -0.2668  3.2529
 5260SOL    HW227240   0.930   4.255  17.431  3.0573 -1.6382 -0.3021
 5261SOL     OW27241   1.144   0.016   6.057 -0.0735 -0.1845 -0.1370
 5261SOL    HW127242   1.166   0.008   6.149 -0.7123 -1.0049 -0.0595
 5261SOL    HW227243   1.083   0.090   6.058 -0.0143 -0.1394  0.0367
 5262SOL     OW27244   0.210   2.693   7.918 -0.8475  0.0587 -0.1311
 5262SOL    HW127245   0.293   2.735   7.941 -0.1697  0.1857 -2.8460
 5262SOL    HW227246   0.160   2.692   7.999  2.8624  2.7208  2.1966
 5263SOL     OW27247   4.333   0.960  11.448  0.0387 -0.0633  0.4903
 5263SOL    HW127248   4.331   0.984  11.356  0.8825  0.6672  0.6551
 5263SOL    HW227249   4.424   0.929  11.450  0.1748  0.2247 -2.1132
 5264SOL     OW27250   0.864   1.949   7.199 -0.5528  0.0278 -0.2513
 5264SOL    HW127251   0.775   1.914   7.208 -0.4569 -0.6521 -1.9634
 5264SOL    HW227252   0.849   2.021   7.259 -1.5698 -0.9904  0.7248
 5265SOL     OW27253   0.914   1.607   4.087 -0.3609  0.0626  0.2341
 5265SOL    HW127254   0.913   1.619   4.182 -0.1795  3.1030 -0.1540
 5265SOL    HW227255   0.864   1.526   4.081  0.1600 -0.2849  0.5752
 5266SOL     OW27256   2.169   0.207   2.518  0.1262  0.0091 -0.2636
 5266SOL    HW127257   2.141   0.291   2.556  0.6200  0.2357 -0.3963
 5266SOL    HW227258   2.255   0.211   2.560 -0.3684  0.1923  0.7245
 5267SOL     OW27259   1.294   2.301   1.585 -0.0711  0.4107  0.1598
 5267SOL    HW127260   1.349   2.223   1.591 -1.1181 -0.3856 -0.4633
 5267SOL    HW227261   1.208   2.265   1.605  0.5091  0.0300  1.8880
 5268SOL     OW27262   3.069   3.998   6.700 -0.4209  0.9097 -0.4416
 5268SOL    HW127263   3.143   3.948   6.734 -1.6136  0.4353  1.4555
 5268SOL    HW227264   3.098   4.076   6.747 -1.8032  1.2029 -0.0704
 5269SOL     OW27265   3.367   3.398  16.168 -0.4970  0.2377  0.2023
 5269SOL    HW127266   3.394   3.441  16.087 -0.8375  0.0502 -0.0071
 5269SOL    HW227267   3.452   3.409  16.211  0.2176  0.0452 -1.1669
 5270SOL     OW27268   0.215   4.633   4.630 -0.3199  1.0024 -0.6662
 5270SOL    HW127269   0.303   4.598   4.617 -0.2070  0.6535  1.0917
 5270SOL    HW227270   0.240   0.000   4.637  1.6095  0.2306  2.3529
 5271SOL     OW27271   4.119   1.742   6.585  0.5240  0.2979  0.1083
 5271SOL    HW127272   4.028   1.721   6.566  0.2515  1.3369  0.2333
 5271SOL    HW227273   4.134   1.676   6.652 -1.6974  0.5255  0.8276
 5272SOL     OW27274   3.741   1.516  15.476  0.7747 -0.3692 -0.1565
 5272SOL    HW127275   3.689   1.515  15.396  0.5359 -0.2750 -0.0037
 5272SOL    HW227276   3.671   1.535  15.539  0.5833 -0.5609 -0.3156
 5273SOL     OW27277   4.426   2.267  13.748  0.5364 -0.3934 -0.3059
 5273SOL    HW127278   4.379   2.308  13.676 -0.2844 -0.6931  0.0658
 5273SOL    HW227279   4.378   2.185  13.750  2.5518 -1.6079 -1.8017
 5274SOL     OW27280   2.067   3.816  15.953 -0.6317 -0.1097  0.3416
 5274SOL    HW127281   2.077   3.757  16.028 -1.2720 -1.1331 -0.3799
 5274SOL    HW227282   1.975   3.835  15.973 -0.3569 -1.3502  2.7737
 5275SOL     OW27283   4.641   3.566   8.032  0.1827  0.1778  0.0858
 5275SOL    HW127284   4.636   3.623   8.109  1.8531  0.0280  0.2855
 5275SOL    HW227285   4.563   3.582   7.978  1.1638  0.6696 -1.1674
 5276SOL     OW27286   3.771   2.446   9.600  0.0817 -0.0218 -0.0298
 5276SOL    HW127287   3.831   2.518   9.580 -1.5531  0.9457 -1.4204
 5276SOL    HW227288   3.710   2.452   9.526 -0.1865  0.9539  0.2726
 5277SOL     OW27289   1.481   4.267   7.811  0.3093  0.2430  0.2058
 5277SOL    HW127290   1.424   4.258   7.888 -1.3914  1.4301 -0.9251
 5277SOL    HW227291   1.517   4.355   7.827  2.9302 -0.7062 -0.5464
 5278SOL     OW27292   2.453   3.945   8.801  0.1307 -0.1708  0.1774
 5278SOL    HW127293   2.411   4.027   8.775  0.5647  0.7011  2.2717
 5278SOL    HW227294   2.540   3.971   8.829  0.5030 -3.2604  1.9354
 5279SOL     OW27295   4.172   0.937  13.425 -0.3226 -0.0315  0.5879
 5279SOL    HW127296   4.086   0.899  13.408  0.5658 -1.4459 -0.8252
 5279SOL    HW227297   4.142   1.017  13.468 -1.7881 -0.9731  1.3353
 5280SOL     OW27298   2.250   2.279   5.398  0.2503  0.4020  0.2282
 5280SOL    HW127299   2.308   2.215   5.440 -2.2441  0.1412  3.3403
 5280SOL    HW227300   2.301   2.277   5.318 -0.3970 -0.6597 -0.1673
 5281SOL     OW27301   0.162   1.338   6.442  0.3408  0.2363  0.5182
 5281SOL    HW127302   0.106   1.415   6.454  0.3229  0.4873 -1.1423
 5281SOL    HW227303   0.227   1.370   6.504 -0.3633 -0.5027  1.6201
 5282SOL     OW27304   4.116   4.127   5.641 -0.0025 -0.3694  0.2265
 5282SOL    HW127305   4.201   4.172   5.645  0.2815 -0.9284  0.5264
 5282SOL    HW227306   4.084   4.127   5.731  0.0375  0.0969  0.2396
 5283SOL     OW27307   0.861   4.675   2.357 -0.2208 -0.2984  0.5232
 5283SOL    HW127308   0.890   4.602   2.410  2.7333  0.1732 -0.4261
 5283SOL    HW227309   0.905   4.660   2.273 -0.4151 -0.9360  0.5389
 5284SOL     OW27310   3.756   3.139   1.460 -0.0432 -0.1337 -0.5479
 5284SOL    HW127311   3.726   3.056   1.423 -0.8457  0.4834 -1.2833
 5284SOL    HW227312   3.685   3.194   1.426 -0.4699 -1.0812 -1.1666
 5285SOL     OW27313   3.617   0.108  14.445  0.0974 -0.1245  0.8121
 5285SOL    HW127314   3.629   0.041  14.513  0.5024 -0.4240  0.4384
 5285SOL    HW227315   3.522   0.116  14.438  0.1479  1.0344  1.4288
 5286SOL     OW27316   0.346   2.101  16.386 -0.8583  0.0226 -0.2620
 5286SOL    HW127317   0.353   2.129  16.477  3.0974 -0.3615 -0.4462
 5286SOL    HW227318   0.350   2.187  16.344 -1.6657  0.1568 -0.0623
 5287SOL     OW27319   1.735   4.506  11.373 -0.3485 -0.3610  0.4193
 5287SOL    HW127320   1.750   4.535  11.463  1.0436  1.8527 -0.5380
 5287SOL    HW227321   1.653   4.457  11.377  0.0569 -1.1172 -0.6790
 5288SOL     OW27322   0.336   3.373  16.736  0.1337  0.0402 -0.7295
 5288SOL    HW127323   0.388   3.313  16.791 -1.2334 -1.4123 -1.0316
 5288SOL    HW227324   0.406   3.427  16.698 -1.2222  0.8936 -1.9882
 5289SOL     OW27325   4.583   1.457   7.926  0.2028  0.0666 -0.5657
 5289SOL    HW127326   4.522   1.524   7.894  1.0830  1.4557  0.6376
 5289SOL    HW227327   4.627   1.511   7.991 -3.2919  0.4838  1.4340
 5290SOL     OW27328   1.798   0.533   7.509 -0.3180 -0.4185  0.3244
 5290SOL    HW127329   1.862   0.515   7.440 -1.3015 -1.7656 -0.2331
 5290SOL    HW227330   1.848   0.492   7.579  1.2292 -0.5692 -0.8630
 5291SOL     OW27331   3.721   2.484  17.282  0.2458  0.0813  0.5298
 5291SOL    HW127332   3.793   2.532  17.241  0.4852  0.2753  1.1832
 5291SOL    HW227333   3.646   2.529  17.244  0.2825 -0.5013 -0.2441
 5292SOL     OW27334   2.284   1.016   9.313 -0.2356 -0.2046 -0.3781
 5292SOL    HW127335   2.201   0.969   9.309 -1.5153  2.1752 -1.7718
 5292SOL    HW227336   2.265   1.078   9.383  1.7941  1.0692 -0.9596
 5293SOL     OW27337   2.738   4.330   3.755  0.1165 -0.0933  0.0916
 5293SOL    HW127338   2.796   4.305   3.827 -0.7776  1.2499  1.2497
 5293SOL    HW227339   2.708   4.247   3.717 -2.0624  1.0090 -0.5749
 5294SOL     OW27340   2.389   3.134  14.743 -0.5733 -0.1317  0.1738
 5294SOL    HW127341   2.369   3.044  14.766  1.8022 -0.7677 -0.1655
 5294SOL    HW227342   2.401   3.135  14.648 -0.7463 -1.8951  0.1346
 5295SOL     OW27343   0.807   3.985  16.255 -0.3878 -0.5171  0.7944
 5295SOL    HW127344   0.890   4.025  16.230 -0.3160 -2.2373 -1.8300
 5295SOL    HW227345   0.757   4.055  16.296  0.1000  1.6578 -2.3408
 5296SOL     OW27346   1.855   2.819   6.563 -0.3749  0.1185  0.2675
 5296SOL    HW127347   1.803   2.744   6.590  0.4558  0.1674  2.0042
 5296SOL    HW227348   1.798   2.887   6.599 -0.1730  0.2039  0.4242
 5297SOL     OW27349   4.289   3.449  15.153  0.3008  0.0856 -0.8285
 5297SOL    HW127350   4.212   3.430  15.101  0.2982 -0.5140 -0.6074
 5297SOL    HW227351   4.344   3.372  15.163 -1.1042 -0.6575  1.2028
 5298SOL     OW27352   3.844   2.147   3.123  0.2023  0.0226 -0.5691
 5298SOL    HW127353   3.938   2.148   3.105  0.4552 -0.6163  0.7121
 5298SOL    HW227354   3.840   2.053   3.109 -0.7800 -0.5078  3.4223
 5299SOL     OW27355   3.519   0.088   3.497 -0.0172  0.3094 -0.1416
 5299SOL    HW127356   3.520   0.142   3.418  3.8981  1.2225  0.5336
 5299SOL    HW227357   3.507   0.152   3.568 -0.4903  0.7432 -0.6177
 5300SOL     OW27358   4.447   0.459  12.747 -0.3133 -0.0918  0.0340
 5300SOL    HW127359   4.512   0.394  12.776 -1.0467 -0.1477  1.6118
 5300SOL    HW227360   4.491   0.480  12.666 -1.6157  1.1188 -0.3464
 5301SOL     OW27361   2.150   1.153   3.713 -0.4437  0.7534  0.2449
 5301SOL    HW127362   2.176   1.066   3.683 -0.2531  0.5494  0.9949
 5301SOL    HW227363   2.235   1.198   3.710  0.8863 -1.5607  2.3367
 5302SOL     OW27364   0.424   2.640  16.329  0.4861 -0.1340  0.4801
 5302SOL    HW127365   0.445   2.707  16.394 -3.1909  1.0331  0.4603
 5302SOL    HW227366   0.395   2.688  16.252  1.6089 -2.3373 -1.3374
 5303SOL     OW27367   1.288   2.682  10.542  0.9303  0.0503 -0.7645
 5303SOL    HW127368   1.348   2.610  10.523  0.0359 -0.1707 -2.7424
 5303SOL    HW227369   1.239   2.687  10.460 -0.8190  1.5682  0.3782
 5304SOL     OW27370   1.697   3.218   8.804 -0.8836 -0.2505  0.2015
 5304SOL    HW127371   1.606   3.221   8.834 -0.5284  0.4458  1.1894
 5304SOL    HW227372   1.725   3.128   8.820 -2.1704 -0.4899  1.1369
 5305SOL     OW27373   3.269   1.636   2.926  0.1109 -0.6523  0.5320
 5305SOL    HW127374   3.338   1.651   2.862 -0.3115 -3.4052 -0.5591
 5305SOL    HW227375   3.233   1.556   2.886 -3.8070  1.5551 -0.3089
 5306SOL     OW27376   4.278   0.307   7.315  0.1790  0.5416  0.3780
 5306SOL    HW127377   4.335   0.336   7.244  1.0431 -0.1450  0.7850
 5306SOL    HW227378   4.229   0.234   7.276  2.0578 -0.3387 -0.3310
 5307SOL     OW27379   3.913   1.597   3.485 -0.1897 -0.1669 -0.1965
 5307SOL    HW127380   3.885   1.688   3.475  1.6171  0.2696 -1.2984
 5307SOL    HW227381   3.839   1.547   3.449 -0.0285 -0.4627 -0.1170
 5308SOL     OW27382   2.530   3.620   2.720  0.8594  0.1167  0.1113
 5308SOL    HW127383   2.461   3.596   2.783  0.8019 -0.8579 -0.3181
 5308SOL    HW227384   2.487   3.700   2.689 -0.1683 -0.4298  0.1117
 5309SOL     OW27385   2.880   1.760   6.730  0.4310 -0.5950 -0.0516
 5309SOL    HW127386   2.915   1.731   6.814 -1.3758  1.6732  1.5140
 5309SOL    HW227387   2.898   1.854   6.730  2.3933 -0.9809 -0.3993
 5310SOL     OW27388   3.160   2.562   1.785  0.2236 -0.3841 -0.0049
 5310SOL    HW127389   3.199   2.526   1.706 -0.0565  1.1007 -0.8193
 5310SOL    HW227390   3.071   2.527   1.783  0.2869 -0.6859  2.1408
 5311SOL     OW27391   3.312   0.239  17.449  0.1866  0.4373 -0.2247
 5311SOL    HW127392   3.336   0.321  17.492 -0.8811  0.1787  0.8634
 5311SOL    HW227393   3.401   0.202  17.447 -0.7129 -1.7626  0.9994
 5312SOL     OW27394   4.701   1.192   6.933  0.2504  0.2767  0.0562
 5312SOL    HW127395   0.015   1.128   6.873  0.4152 -0.0625  0.5223
 5312SOL    HW227396   0.059   1.218   6.973 -0.4411  1.2249  0.8341
 5313SOL     OW27397   4.464   4.046  15.487 -0.3617 -0.1977 -0.1691
 5313SOL    HW127398   4.445   4.079  15.575 -1.6216 -3.0741  0.6389
 5313SOL    HW227399   4.391   4.075  15.433 -1.4781 -0.6535  1.1056
 5314SOL     OW27400   4.040   2.009   3.916  0.4962  0.9329 -0.1876
 5314SOL    HW127401   4.094   1.980   3.843  3.5840  0.6208  2.1877
 5314SOL    HW227402   4.083   2.083   3.960  0.0625  1.6309 -0.9452
 5315SOL     OW27403   2.889   1.780   7.033 -0.2847 -0.2061  0.0591
 5315SOL    HW127404   2.929   1.773   7.120  0.0510 -0.1485 -0.0889
 5315SOL    HW227405   2.800   1.770   7.066 -0.8473  0.1430 -1.3901
 5316SOL     OW27406   2.973   2.137   9.050 -0.4390 -0.3188 -0.2382
 5316SOL    HW127407   3.046   2.124   9.111 -1.2745  0.7869  0.9869
 5316SOL    HW227408   2.906   2.180   9.103  0.7046 -1.1203  1.8639
 5317SOL     OW27409   0.698   2.408   5.755  0.2883 -0.3299 -0.4850
 5317SOL    HW127410   0.702   2.321   5.716  2.5334 -0.5409  0.2299
 5317SOL    HW227411   0.736   2.462   5.686  2.0617 -0.6106  0.2628
 5318SOL     OW27412   4.162   1.835   6.253  0.2917  0.2751  0.2519
 5318SOL    HW127413   4.140   1.923   6.284  1.6251  0.7094 -0.0649
 5318SOL    HW227414   4.073   1.800   6.264  0.6715  0.8770  5.0949
 5319SOL     OW27415   1.862   3.636   7.654  0.3791  0.1154 -0.2498
 5319SOL    HW127416   1.824   3.636   7.742  2.7612 -1.0105  0.7707
 5319SOL    HW227417   1.895   3.547   7.643 -1.2914 -0.1582 -3.0305
 5320SOL     OW27418   3.536   2.727  10.966 -0.5063  0.4524  0.0858
 5320SOL    HW127419   3.593   2.761  11.035  1.1759 -0.7238 -0.6948
 5320SOL    HW227420   3.515   2.806  10.918  0.4495  0.6830  0.0526
 5321SOL     OW27421   3.554   3.939   9.164 -0.4157 -0.0489  0.4098
 5321SOL    HW127422   3.609   3.947   9.242  0.2922  0.2198 -0.1131
 5321SOL    HW227423   3.486   3.880   9.195 -0.5659  0.0040  0.1849
 5322SOL     OW27424   3.134   0.618   5.965 -0.2883 -0.1137  0.1655
 5322SOL    HW127425   3.189   0.695   5.983 -0.0454 -0.2728  0.1093
 5322SOL    HW227426   3.052   0.660   5.939 -0.9461 -1.6222 -0.1908
 5323SOL     OW27427   3.998   1.322   5.317 -0.1774  0.2333  0.0649
 5323SOL    HW127428   4.037   1.250   5.367 -0.8232 -0.4580 -0.4330
 5323SOL    HW227429   3.930   1.357   5.374 -1.3093 -0.4347 -0.8792
 5324SOL     OW27430   0.662   3.091   2.752 -0.0807 -0.3227 -0.5007
 5324SOL    HW127431   0.710   3.161   2.798 -0.9810  1.7404 -2.7140
 5324SOL    HW227432   0.736   3.032   2.742 -0.4261 -0.5436 -1.6769
 5325SOL     OW27433   1.683   3.089  15.130  0.3528  0.0837  0.4327
 5325SOL    HW127434   1.626   3.142  15.075  2.2505  0.2937 -1.3266
 5325SOL    HW227435   1.652   3.000  15.115 -0.0152 -0.0005  1.6626
 5326SOL     OW27436   0.709   0.484   5.318  0.2627  0.4849 -0.2585
 5326SOL    HW127437   0.632   0.428   5.308 -0.0981  0.3625  3.3443
 5326SOL    HW227438   0.664   0.568   5.327  1.3786  1.1972 -1.3717
 5327SOL     OW27439   2.307   2.728   6.413  0.1312 -0.0477  0.1821
 5327SOL    HW127440   2.270   2.787   6.348 -1.0062 -0.1535  0.7353
 5327SOL    HW227441   2.237   2.665   6.428 -1.3764  1.6481  0.2835
 5328SOL     OW27442   0.264   3.388   8.658  0.0198 -0.2824  0.7506
 5328SOL    HW127443   0.277   3.465   8.714 -0.0733 -0.9211  1.6523
 5328SOL    HW227444   0.184   3.356   8.701 -1.6797  0.2944 -1.9970
 5329SOL     OW27445   0.333   4.092   6.396 -0.1695  0.1596 -0.1429
 5329SOL    HW127446   0.267   4.106   6.327 -0.6675  0.0308  0.3055
 5329SOL    HW227447   0.305   4.159   6.458  1.1383  0.5843 -0.0130
 5330SOL     OW27448   4.139   1.034   6.628  0.4729 -0.0660  0.2218
 5330SOL    HW127449   4.078   1.015   6.699  0.4255 -1.2633 -0.1362
 5330SOL    HW227450   4.147   1.128   6.646  0.0700  0.0579 -0.2515
 5331SOL     OW27451   0.320   0.361   7.132  0.0945 -0.1858 -0.2539
 5331SOL    HW127452   0.382   0.330   7.066  1.8134 -2.4064  2.3713
 5331SOL    HW227453   0.342   0.296   7.199 -1.1800 -0.4311 -0.0756
 5332SOL     OW27454   2.023   1.219   3.054 -0.0513 -0.2398  0.8409
 5332SOL    HW127455   1.937   1.179   3.067 -0.2789  0.3361  1.1249
 5332SOL    HW227456   2.049   1.227   2.963  0.8042  0.4076  1.1410
 5333SOL     OW27457   1.797   2.981   6.814 -0.2258 -0.3809  0.3497
 5333SOL    HW127458   1.745   2.901   6.817 -1.0021  0.2257  3.7165
 5333SOL    HW227459   1.772   3.033   6.891 -3.2739  2.6542 -2.7174
 5334SOL     OW27460   1.225   0.797  10.078  0.2910  0.0403 -0.3462
 5334SOL    HW127461   1.171   0.859  10.028 -0.5257 -0.1481  0.3016
 5334SOL    HW227462   1.204   0.721  10.024  0.0496 -0.4069  0.3726
 5335SOL     OW27463   1.778   3.489   1.413  0.4771 -0.0350  0.1193
 5335SOL    HW127464   1.769   3.544   1.336  2.5069  1.0667  0.6656
 5335SOL    HW227465   1.711   3.536   1.463  2.2585  1.6908  0.8823
 5336SOL     OW27466   4.231   3.559   0.303  0.3285  0.1854 -0.5211
 5336SOL    HW127467   4.172   3.588   0.373  0.6180  0.5925 -0.4503
 5336SOL    HW227468   4.276   3.641   0.282 -0.6818  0.7920 -0.3260
 5337SOL     OW27469   0.843   4.171   8.537 -0.1347 -0.0033  0.4932
 5337SOL    HW127470   0.752   4.148   8.523 -0.2719  0.9554 -0.1698
 5337SOL    HW227471   0.835   4.266   8.551  0.3322 -0.1408  1.7273
 5338SOL     OW27472   2.270   3.630   0.420  0.6210  0.1561 -0.0009
 5338SOL    HW127473   2.360   3.653   0.441  0.8986  0.4079 -1.4640
 5338SOL    HW227474   2.281   3.543   0.381 -1.5138 -0.8984  1.7186
 5339SOL     OW27475   1.494   3.614  10.109  0.0787  0.1952 -0.4165
 5339SOL    HW127476   1.550   3.563  10.050  0.1340 -0.7003  0.4024
 5339SOL    HW227477   1.553   3.669  10.160 -0.2571  0.1300  0.0422
 5340SOL     OW27478   3.599   1.617   6.589  0.4600 -0.1936  0.1511
 5340SOL    HW127479   3.580   1.524   6.575  0.4594  0.1038 -1.7416
 5340SOL    HW227480   3.569   1.665   6.511 -1.1616  0.0398  0.9034
 5341SOL     OW27481   0.885   1.400   3.458  0.2969  0.1824 -0.0579
 5341SOL    HW127482   0.799   1.436   3.482  0.4587  1.8263 -1.9798
 5341SOL    HW227483   0.896   1.446   3.375  0.9564 -0.3381 -0.2547
 5342SOL     OW27484   3.300   4.482   3.571  0.4613 -0.3109 -0.5206
 5342SOL    HW127485   3.376   4.487   3.629  0.2481  2.3198 -0.4478
 5342SOL    HW227486   3.259   4.398   3.592  0.3451  0.3930  2.0506
 5343SOL     OW27487   3.589   0.340   2.616 -0.2256 -0.0009 -0.1281
 5343SOL    HW127488   3.614   0.373   2.702 -1.2238  2.2620 -0.7082
 5343SOL    HW227489   3.657   0.277   2.592 -1.7382 -1.1301 -1.4300
 5344SOL     OW27490   3.217   2.828  10.244 -0.3558  0.4803  0.1560
 5344SOL    HW127491   3.302   2.847  10.204  0.3963 -0.4004  1.3339
 5344SOL    HW227492   3.209   2.916  10.280  0.2421  0.7203 -0.2840
 5345SOL     OW27493   2.924   2.208  16.525  0.6802  0.4142  0.4042
 5345SOL    HW127494   2.862   2.273  16.558 -0.1558  0.7263 -1.7395
 5345SOL    HW227495   2.908   2.213  16.430  0.3168 -0.2132  0.4294
 5346SOL     OW27496   0.678   2.041   4.128 -0.2107  0.4266  0.2381
 5346SOL    HW127497   0.649   1.984   4.199  0.3366 -0.0211  0.1005
 5346SOL    HW227498   0.677   2.128   4.168 -0.8694 -0.1289  1.4443
 5347SOL     OW27499   1.846   0.372   6.396 -0.3654 -0.1017 -0.1286
 5347SOL    HW127500   1.839   0.409   6.309  0.3852 -0.5027 -0.3614
 5347SOL    HW227501   1.822   0.280   6.387 -1.0274 -0.1192  1.6768
 5348SOL     OW27502   0.562   4.206   8.901 -0.1586 -0.2745 -0.3753
 5348SOL    HW127503   0.616   4.205   8.980  0.5962 -0.1389 -0.9009
 5348SOL    HW227504   0.617   4.266   8.851 -0.6506  2.6218  2.5794
 5349SOL     OW27505   2.236   3.028   4.576  0.1560 -0.2638 -0.0653
 5349SOL    HW127506   2.207   3.092   4.641 -1.2394  0.5567 -1.4884
 5349SOL    HW227507   2.291   2.965   4.621  1.7990  0.7467 -0.6304
 5350SOL     OW27508   4.151   2.516  15.729 -0.0555 -0.6732 -0.2909
 5350SOL    HW127509   4.069   2.481  15.696  0.8464 -1.1592 -2.0407
 5350SOL    HW227510   4.217   2.459  15.689  0.5463  0.3889 -0.8382
 5351SOL     OW27511   2.421   4.672   6.625  0.1243  0.6686  0.3366
 5351SOL    HW127512   2.385   4.688   6.538  2.1046 -1.2470 -0.8121
 5351SOL    HW227513   2.355   4.636   6.685 -0.3790  0.1045 -0.5614
 5352SOL     OW27514   2.995   0.607  17.173 -1.1292 -0.4262 -0.2785
 5352SOL    HW127515   3.007   0.648  17.087 -1.4861  0.3768  0.0566
 5352SOL    HW227516   2.970   0.516  17.158 -0.0020 -0.7564 -0.1694
 5353SOL     OW27517   2.291   1.010   8.099 -0.2581  0.6582  0.2716
 5353SOL    HW127518   2.316   1.068   8.172  2.3637 -1.2826  0.9187
 5353SOL    HW227519   2.235   0.944   8.140  0.5852  0.1076  0.5533
 5354SOL     OW27520   0.304   3.553   5.242  0.0597 -0.0229 -0.5259
 5354SOL    HW127521   0.344   3.467   5.248  2.3651  1.0533 -0.2531
 5354SOL    HW227522   0.275   3.563   5.333 -0.4455 -0.1356 -0.6736
 5355SOL     OW27523   1.510   1.302  16.275 -0.8229 -0.3089  0.4553
 5355SOL    HW127524   1.508   1.289  16.369 -0.4197  0.4862  0.5775
 5355SOL    HW227525   1.460   1.227  16.244  0.1530 -0.5204 -0.5929
 5356SOL     OW27526   2.728   0.370   2.509  0.5074 -0.4671 -0.1409
 5356SOL    HW127527   2.820   0.394   2.500 -0.4875  3.1903 -0.4908
 5356SOL    HW227528   2.724   0.281   2.474 -1.3595 -1.6842  3.2239
 5357SOL     OW27529   2.254   1.963   4.699 -0.4706 -0.7398  0.2048
 5357SOL    HW127530   2.255   2.058   4.692  0.2937 -0.7693 -0.1023
 5357SOL    HW227531   2.314   1.937   4.629  0.2032 -1.7466  1.1461
 5358SOL     OW27532   4.287   0.771   6.637  0.2364 -0.4580 -0.2528
 5358SOL    HW127533   4.319   0.798   6.723  1.1220 -0.2930 -0.6404
 5358SOL    HW227534   4.257   0.855   6.601  0.4523  0.9402  2.8613
 5359SOL     OW27535   1.927   0.470  14.129  0.1545 -0.4802  0.4541
 5359SOL    HW127536   1.890   0.382  14.134  0.7521 -0.7733 -0.1775
 5359SOL    HW227537   1.999   0.446  14.070 -0.8435 -0.4033 -0.7806
 5360SOL     OW27538   0.758   1.269  17.210 -0.1278 -0.0952 -0.2754
 5360SOL    HW127539   0.834   1.237  17.162  0.9643 -0.5298  1.7088
 5360SOL    HW227540   0.682   1.225  17.171 -0.8888 -0.2795  1.4085
 5361SOL     OW27541   2.037   0.656   7.083 -0.4478  0.0184 -0.4422
 5361SOL    HW127542   1.960   0.654   7.026 -0.6840  2.0158 -0.1832
 5361SOL    HW227543   1.982   0.654   7.162  1.5416 -0.7605  0.9257
 5362SOL     OW27544   2.887   2.053   7.272  0.0981 -0.2718  0.0811
 5362SOL    HW127545   2.932   1.968   7.266 -0.9850 -0.6919 -1.8012
 5362SOL    HW227546   2.816   2.034   7.333 -1.6101  0.7721 -1.5989
 5363SOL     OW27547   1.662   1.650  11.249 -0.3988 -0.6243 -0.0596
 5363SOL    HW127548   1.593   1.607  11.199 -2.4689  0.2009  2.0417
 5363SOL    HW227549   1.643   1.735  11.209  1.9787 -0.6552 -1.2563
 5364SOL     OW27550   2.062   3.208   5.203  0.2977 -0.5452 -0.1398
 5364SOL    HW127551   2.028   3.130   5.247 -1.2958 -0.6474 -1.5565
 5364SOL    HW227552   1.997   3.216   5.134 -2.0252 -1.5743  1.9328
 5365SOL     OW27553   2.172   2.951   7.026  0.0275 -0.4933 -0.7944
 5365SOL    HW127554   2.206   3.039   7.016 -0.9030 -0.2927 -2.2594
 5365SOL    HW227555   2.247   2.899   6.998  1.0372  0.5101  0.1066
 5366SOL     OW27556   4.679   1.193   2.819  0.4646  0.2152  0.3901
 5366SOL    HW127557   4.707   1.140   2.744 -1.0760  0.4166 -0.3435
 5366SOL    HW227558   0.023   1.160   2.876 -0.3057 -0.7951  0.7444
 5367SOL     OW27559   0.484   2.325   8.092 -0.0562 -0.4438  0.5834
 5367SOL    HW127560   0.490   2.412   8.053  0.8479 -0.6019  0.3879
 5367SOL    HW227561   0.537   2.332   8.172  2.3752  0.9508 -1.1803
 5368SOL     OW27562   1.282   4.294   8.021 -0.2782  0.1326  0.3126
 5368SOL    HW127563   1.281   4.219   8.080 -1.6035  1.3932  1.8985
 5368SOL    HW227564   1.311   4.360   8.084  0.4209  0.0768  0.0496
 5369SOL     OW27565   3.046   3.902   4.845  0.4907 -0.3190 -0.6477
 5369SOL    HW127566   3.067   3.986   4.887 -3.6806  0.5035 -0.2244
 5369SOL    HW227567   3.120   3.851   4.877 -0.7363 -1.2989  0.5968
 5370SOL     OW27568   4.678   0.387   7.234  0.4809 -0.0020 -0.0928
 5370SOL    HW127569   4.718   0.377   7.148 -0.7103  2.6876 -0.9796
 5370SOL    HW227570   4.725   0.324   7.289 -0.6288 -1.4488 -0.8128
 5371SOL     OW27571   0.894   2.443   7.256 -0.1084 -0.1042  0.2968
 5371SOL    HW127572   0.981   2.403   7.256  0.1840  0.5300 -0.1739
 5371SOL    HW227573   0.893   2.494   7.175  0.3933 -0.0410  0.3329
 5372SOL     OW27574   4.467   0.577   7.242  0.0375 -0.1260 -1.0698
 5372SOL    HW127575   4.538   0.515   7.229 -1.4941 -2.1451  0.0994
 5372SOL    HW227576   4.485   0.601   7.333  0.5163 -1.6078 -0.7665
 5373SOL     OW27577   3.900   4.475   5.113 -0.1072  0.1524 -0.2422
 5373SOL    HW127578   3.968   4.509   5.055  0.7765 -0.3323  0.5135
 5373SOL    HW227579   3.865   4.556   5.151  0.3562  0.7291 -1.0338
 5374SOL     OW27580   1.032   3.882   5.231  0.1079 -0.0210  0.5898
 5374SOL    HW127581   1.050   3.937   5.307  1.4155 -1.4466  1.2966
 5374SOL    HW227582   1.109   3.905   5.178  0.5304  0.7295  1.5359
 5375SOL     OW27583   4.348   0.631   7.777 -0.1903  0.8288 -0.2098
 5375SOL    HW127584   4.293   0.696   7.733 -0.5612  1.3125  0.9518
 5375SOL    HW227585   4.287   0.579   7.828  1.3625 -0.9210 -0.1398
 5376SOL     OW27586   0.950   0.455   4.868 -0.4745  1.1681 -0.1132
 5376SOL    HW127587   0.855   0.441   4.873 -0.3578  0.8052  1.0678
 5376SOL    HW227588   0.985   0.371   4.839 -0.3521  1.4334 -0.7341
 5377SOL     OW27589   3.240   2.340   6.601 -0.5534 -0.4165  0.2540
 5377SOL    HW127590   3.291   2.259   6.614 -2.1713 -1.5653 -0.5367
 5377SOL    HW227591   3.207   2.341   6.691  0.3014  1.9091  0.5303
 5378SOL     OW27592   3.717   1.030   7.905  0.6086 -0.1757 -1.0054
 5378SOL    HW127593   3.646   1.048   7.967  1.7034  0.5200  0.0524
 5378SOL    HW227594   3.706   0.936   7.887 -2.8742 -0.1440  0.8907
 5379SOL     OW27595   3.209   3.008   9.459 -0.4883 -0.4128  0.2225
 5379SOL    HW127596   3.260   2.927   9.449 -1.2885 -0.9368  0.4599
 5379SOL    HW227597   3.119   2.977   9.468  0.3005 -1.9870  2.5164
 5380SOL     OW27598   2.278   3.049   0.932  0.1356 -0.3912 -0.3728
 5380SOL    HW127599   2.341   3.120   0.947 -1.5129  1.2035 -1.0915
 5380SOL    HW227600   2.220   3.100   0.877 -0.4560  2.3235  2.7980
 5381SOL     OW27601   3.410   0.753  16.431 -0.0413 -0.3385  0.6829
 5381SOL    HW127602   3.447   0.710  16.355 -0.9747  1.6521 -0.9087
 5381SOL    HW227603   3.448   0.839  16.412  0.7595 -0.2671  2.5976
 5382SOL     OW27604   3.206   2.860   2.811 -0.0667  0.1971 -0.1464
 5382SOL    HW127605   3.242   2.942   2.777  0.6466  0.0564  0.2640
 5382SOL    HW227606   3.126   2.898   2.848  0.0351  0.3308 -0.0634
 5383SOL     OW27607   3.543   3.614  13.235  0.6919  0.3457  0.3121
 5383SOL    HW127608   3.631   3.630  13.200  0.2768 -1.1673 -1.4651
 5383SOL    HW227609   3.549   3.648  13.324 -2.2325  1.5642  0.0336
 5384SOL     OW27610   3.599   2.742   6.500  0.3792 -0.1147  0.7246
 5384SOL    HW127611   3.542   2.666   6.487  0.4313  0.1623 -1.1961
 5384SOL    HW227612   3.562   2.800   6.433 -1.2944 -2.7015 -0.5964
 5385SOL     OW27613   3.658   0.614   5.417  0.1484  0.1435 -0.2905
 5385SOL    HW127614   3.615   0.619   5.502 -0.8576  1.6332 -0.8772
 5385SOL    HW227615   3.577   0.596   5.368 -0.7548  2.4818  0.3228
 5386SOL     OW27616   3.447   1.428  10.313  0.3419  0.3834 -0.7616
 5386SOL    HW127617   3.442   1.353  10.253 -0.0609  0.5230 -0.9012
 5386SOL    HW227618   3.474   1.490  10.246 -1.4929 -0.4303 -2.2617
 5387SOL     OW27619   2.153   2.642   0.268  0.1152 -0.6122 -0.5386
 5387SOL    HW127620   2.132   2.685   0.186 -2.9088 -0.2220  0.4190
 5387SOL    HW227621   2.130   2.551   0.250 -0.8318 -0.4223 -0.3067
 5388SOL     OW27622   1.120   4.531  16.957 -0.1745  0.2658 -0.2133
 5388SOL    HW127623   1.050   4.595  16.968 -0.5421 -0.1739  0.0570
 5388SOL    HW227624   1.193   4.582  16.922 -0.0572 -0.1962 -0.6410
 5389SOL     OW27625   2.810   2.376   4.129 -0.6163 -0.2323 -0.3949
 5389SOL    HW127626   2.771   2.326   4.057  0.0192  0.1198 -0.9819
 5389SOL    HW227627   2.858   2.438   4.073 -0.6866 -1.2097 -1.5331
 5390SOL     OW27628   4.155   1.227   0.576 -0.1943 -0.2284  0.2941
 5390SOL    HW127629   4.157   1.216   0.671  2.2078 -1.4952  0.0948
 5390SOL    HW227630   4.209   1.306   0.566 -1.7068  0.7514 -0.1620
 5391SOL     OW27631   4.291   2.814   1.140  0.3975  0.0167  0.0601
 5391SOL    HW127632   4.297   2.755   1.065  0.8419  1.1880 -0.8426
 5391SOL    HW227633   4.222   2.875   1.110 -0.4872 -0.5787  0.8745
 5392SOL     OW27634   4.507   4.148   9.973  0.3103 -0.1619  0.1720
 5392SOL    HW127635   4.415   4.160   9.952  0.7691  0.4853 -1.5031
 5392SOL    HW227636   4.537   4.239   9.973  0.5178 -0.2498  3.1100
 5393SOL     OW27637   2.486   3.647   8.519  0.2805 -0.2473 -0.6819
 5393SOL    HW127638   2.485   3.679   8.429  1.9510  1.8486  0.0620
 5393SOL    HW227639   2.392   3.657   8.536  0.8047  2.8938  0.2835
 5394SOL     OW27640   3.174   4.284   9.641  0.0798 -0.2001  0.0142
 5394SOL    HW127641   3.266   4.292   9.666  0.1490 -1.2940  0.1091
 5394SOL    HW227642   3.165   4.190   9.628  3.1494 -0.3850 -0.6974
 5395SOL     OW27643   1.032   1.562   9.853  0.2554  0.1078  0.1234
 5395SOL    HW127644   1.060   1.516   9.773  0.7506 -0.4288  0.6058
 5395SOL    HW227645   0.955   1.609   9.822 -0.1024 -0.8801 -0.4894
 5396SOL     OW27646   3.972   0.591  15.476 -0.3362  0.0470  0.4865
 5396SOL    HW127647   3.939   0.669  15.432  0.8692  0.0307 -0.4434
 5396SOL    HW227648   4.052   0.623  15.516  0.4956 -2.0415  0.5211
 5397SOL     OW27649   1.237   0.865   6.660 -0.7517  0.2730 -0.0329
 5397SOL    HW127650   1.263   0.932   6.723  1.7935 -0.6260 -0.1261
 5397SOL    HW227651   1.304   0.800   6.684 -0.6877  0.3260 -0.0664
 5398SOL     OW27652   2.949   0.238  10.478  0.7570 -0.1292 -0.5296
 5398SOL    HW127653   2.876   0.287  10.440  0.3141 -0.3286  0.0681
 5398SOL    HW227654   3.028   0.265  10.430  1.0097 -1.9831 -1.1698
 5399SOL     OW27655   3.486   2.498   6.784 -0.3873  0.4740  0.1963
 5399SOL    HW127656   3.506   2.417   6.832  0.7016  0.1832 -0.7574
 5399SOL    HW227657   3.574   2.524   6.758  0.7440 -2.5977  0.8731
 5400SOL     OW27658   2.153   0.229   5.084 -0.5127 -0.3364 -0.2829
 5400SOL    HW127659   2.114   0.202   5.167 -0.7293  1.2813  0.1328
 5400SOL    HW227660   2.247   0.215   5.095 -0.6886  0.8513  2.7545
 5401SOL     OW27661   4.400   3.490   4.833 -0.0016 -0.4568  0.0497
 5401SOL    HW127662   4.397   3.468   4.926  0.5773  0.4723  0.2874
 5401SOL    HW227663   4.443   3.574   4.822 -1.1914  0.1984  0.3897
 5402SOL     OW27664   3.455   1.014   7.451 -0.1618  0.3306 -0.5298
 5402SOL    HW127665   3.364   1.042   7.445 -1.0167 -1.4155  4.6721
 5402SOL    HW227666   3.474   1.015   7.357  0.1293 -1.7488 -0.4916
 5403SOL     OW27667   2.624   1.436   9.584 -0.3360 -0.1063 -0.6050
 5403SOL    HW127668   2.547   1.423   9.639  0.8504 -2.0075  0.6407
 5403SOL    HW227669   2.684   1.492   9.633 -1.1018 -1.2345  1.6270
 5404SOL     OW27670   0.921   1.794  15.942 -0.4199 -0.8309  0.0615
 5404SOL    HW127671   0.992   1.736  15.914  0.2606  0.1267 -0.2095
 5404SOL    HW227672   0.904   1.844  15.862  0.7697  3.7646  2.6709
 5405SOL     OW27673   2.857   2.577   7.638 -0.2641 -0.5103  0.0845
 5405SOL    HW127674   2.942   2.595   7.597 -0.5543 -0.0634 -0.3156
 5405SOL    HW227675   2.892   2.549   7.722  2.2179 -1.1476 -1.1597
 5406SOL     OW27676   2.542   0.889   9.828  0.5127  0.0618 -0.2465
 5406SOL    HW127677   2.636   0.880   9.848  1.0336  0.4112 -2.5447
 5406SOL    HW227678   2.533   0.978   9.795  1.1937  0.8026  1.5715
 5407SOL     OW27679   2.360   3.037  17.527  0.4596 -0.2373 -0.3105
 5407SOL    HW127680   2.371   3.045  17.621  4.2026 -0.7111 -0.7302
 5407SOL    HW227681   2.330   2.947  17.519 -0.2196 -0.1463  1.2080
 5408SOL     OW27682   4.173   2.141  10.739  0.0093 -0.7875  0.6349
 5408SOL    HW127683   4.256   2.185  10.721 -2.8082  3.1946 -2.6170
 5408SOL    HW227684   4.178   2.113  10.831 -0.5713  1.6684  1.3983
 5409SOL     OW27685   3.126   2.121   8.170  0.8469 -0.3918 -0.2992
 5409SOL    HW127686   3.153   2.152   8.256  0.0178  2.7335 -1.1380
 5409SOL    HW227687   3.124   2.025   8.168 -1.6774 -0.3579  1.7596
 5410SOL     OW27688   1.892   1.110  10.073  0.1711 -0.2978  0.1916
 5410SOL    HW127689   1.950   1.165  10.125  0.0551 -1.9326  2.0498
 5410SOL    HW227690   1.824   1.170  10.045 -0.0830 -0.0409  1.3387
 5411SOL     OW27691   3.299   1.672   5.018  0.5777  0.3441  0.2606
 5411SOL    HW127692   3.285   1.763   4.989  1.9183 -0.0362 -1.5942
 5411SOL    HW227693   3.210   1.638   5.031  0.9443 -0.6676  0.0664
 5412SOL     OW27694   2.910   2.578   2.404  0.2144 -0.2011 -0.0923
 5412SOL    HW127695   2.996   2.619   2.396 -0.4922  1.5845  1.4478
 5412SOL    HW227696   2.867   2.635   2.340  1.1448  0.6904  0.0724
 5413SOL     OW27697   3.604   1.487   3.478 -0.2514  0.1713 -0.3373
 5413SOL    HW127698   3.544   1.554   3.510 -1.3251 -0.5748 -0.7973
 5413SOL    HW227699   3.607   1.421   3.548 -2.5329 -0.5832 -0.9471
 5414SOL     OW27700   2.912   3.304   4.015  0.5781  0.3137 -1.0805
 5414SOL    HW127701   2.984   3.266   3.965 -0.7102 -0.1889 -2.5596
 5414SOL    HW227702   2.858   3.227   4.033  2.2446 -0.2310  1.6631
 5415SOL     OW27703   1.282   3.874   8.673  0.5316  0.1195  0.4558
 5415SOL    HW127704   1.278   3.800   8.612  0.6028 -1.3208  2.2055
 5415SOL    HW227705   1.222   3.935   8.630  0.4932 -1.5584 -1.8784
 5416SOL     OW27706   3.570   2.275  12.464  0.2043  0.0214  0.1067
 5416SOL    HW127707   3.510   2.204  12.441 -0.4183 -0.0952  2.0482
 5416SOL    HW227708   3.523   2.347  12.422  1.2489  2.0842  2.4880
 5417SOL     OW27709   0.331   1.779   3.652 -0.2553  0.1605  0.5339
 5417SOL    HW127710   0.376   1.863   3.660 -1.8113  1.0502  0.0996
 5417SOL    HW227711   0.242   1.816   3.654  0.7061  2.5115 -0.0931
 5418SOL     OW27712   0.094   1.993   3.372  0.1441 -0.5107  0.5040
 5418SOL    HW127713   0.084   1.908   3.416 -0.1869 -0.2771  0.8784
 5418SOL    HW227714   0.003   2.018   3.362  0.2119 -0.1190  0.8621
 5419SOL     OW27715   2.212   2.029   0.071 -0.5957 -0.2030 -0.4203
 5419SOL    HW127716   2.283   2.056   0.013  0.3580  2.5093  2.0347
 5419SOL    HW227717   2.186   1.944   0.036 -0.7387  0.2214 -1.3481
 5420SOL     OW27718   1.637   1.614   8.818 -0.3680 -0.2687  0.5977
 5420SOL    HW127719   1.599   1.532   8.787  0.2843 -0.1478 -0.5196
 5420SOL    HW227720   1.556   1.664   8.832 -0.0046 -0.1424  2.2348
 5421SOL     OW27721   3.094   1.655  10.697 -0.4285  0.6618 -0.1334
 5421SOL    HW127722   3.099   1.740  10.652 -1.0965  0.7021 -0.1268
 5421SOL    HW227723   3.121   1.672  10.788  0.6048 -2.7746  0.1893
 5422SOL     OW27724   1.977   0.978  13.912  0.0779 -0.2767 -0.3438
 5422SOL    HW127725   1.967   1.070  13.889 -0.9410 -0.9079 -2.4191
 5422SOL    HW227726   2.028   0.944  13.838  0.0437 -1.4491  0.1602
 5423SOL     OW27727   3.907   4.441   3.498 -0.1417 -0.6607 -0.8382
 5423SOL    HW127728   3.966   4.510   3.469  0.5523 -0.6808  0.5053
 5423SOL    HW227729   3.853   4.501   3.550  0.4024  1.3834 -2.6023
 5424SOL     OW27730   3.640   3.508   0.757 -0.0097  0.2594 -0.0403
 5424SOL    HW127731   3.734   3.523   0.768  0.1379  0.1392 -1.0655
 5424SOL    HW227732   3.613   3.592   0.720 -0.7312 -0.1209 -0.3742
 5425SOL     OW27733   2.364   3.134   0.519  0.1273 -0.1607  0.1749
 5425SOL    HW127734   2.334   3.061   0.465  0.3501 -0.3587  0.3167
 5425SOL    HW227735   2.343   3.105   0.607 -0.4126 -0.6254 -0.1081
 5426SOL     OW27736   3.397   1.086   2.489  0.2241  0.1975 -0.4948
 5426SOL    HW127737   3.443   1.170   2.488 -3.4227  2.2030  0.3677
 5426SOL    HW227738   3.467   1.022   2.503 -0.7883 -0.7400  0.2531
 5427SOL     OW27739   2.231   0.003   3.466  0.1677 -0.0369  0.5338
 5427SOL    HW127740   2.277   4.683   3.537  0.0401 -0.8303  0.1197
 5427SOL    HW227741   2.293   4.720   3.393  1.1064 -1.0846  1.4421
 5428SOL     OW27742   4.526   2.480   6.982 -0.2838 -0.1621 -0.1751
 5428SOL    HW127743   4.471   2.449   6.910 -0.1301 -0.0248 -0.3515
 5428SOL    HW227744   4.599   2.506   6.927 -0.2232 -2.6624 -1.2871
 5429SOL     OW27745   3.917   2.538  11.373 -0.0271  0.5710  0.2102
 5429SOL    HW127746   3.835   2.516  11.417  0.6499 -0.1063  1.1182
 5429SOL    HW227747   3.887   2.561  11.284  2.5565  0.1345 -0.7632
 5430SOL     OW27748   3.854   0.615   4.283 -0.6412  0.0464  0.1886
 5430SOL    HW127749   3.839   0.604   4.189 -1.5965  1.5043  0.1796
 5430SOL    HW227750   3.826   0.703   4.307 -1.1321  0.1809 -0.8785
 5431SOL     OW27751   1.896   4.665   3.587  0.4932  0.3225  0.5047
 5431SOL    HW127752   1.966   4.713   3.630  0.7389 -0.2976  0.8031
 5431SOL    HW227753   1.928   4.578   3.611  1.0757  0.3367 -0.2296
 5432SOL     OW27754   0.862   1.500   6.107  0.7786  0.0603 -0.6169
 5432SOL    HW127755   0.858   1.541   6.193 -0.6217  1.2136 -1.2223
 5432SOL    HW227756   0.957   1.505   6.101  0.7594  2.1486  0.8434
 5433SOL     OW27757   2.537   3.710   3.872  0.0416 -0.4906  1.0688
 5433SOL    HW127758   2.527   3.645   3.942  1.0834 -1.2153  0.5332
 5433SOL    HW227759   2.591   3.773   3.919  0.5846 -1.5559  1.8968
 5434SOL     OW27760   0.366   3.048   7.889  0.1864  0.5669  0.2140
 5434SOL    HW127761   0.309   3.069   7.815  1.8587  0.4044 -1.1119
 5434SOL    HW227762   0.399   2.961   7.868  1.9368  0.8694  1.6838
 5435SOL     OW27763   3.355   0.491   3.804  0.8576 -0.0241  0.9978
 5435SOL    HW127764   3.260   0.487   3.816  0.7272 -1.9894 -0.6661
 5435SOL    HW227765   3.344   0.561   3.739 -0.9508 -0.8183  0.4612
 5436SOL     OW27766   3.921   3.640   6.360 -0.6195  0.2755 -0.0885
 5436SOL    HW127767   3.833   3.644   6.397 -0.9588  2.6586 -1.1743
 5436SOL    HW227768   3.949   3.553   6.388  0.1848 -0.6151 -3.7038
 5437SOL     OW27769   0.979   1.465   5.086  0.1385  0.3065  0.2886
 5437SOL    HW127770   0.988   1.429   4.998 -2.1843  0.1761  0.1133
 5437SOL    HW227771   1.061   1.438   5.128  0.9821  0.0521 -1.5171
 5438SOL     OW27772   2.950   1.050   2.613  0.4223  0.2540 -0.0056
 5438SOL    HW127773   2.918   1.129   2.655  0.2884  0.2143 -0.0328
 5438SOL    HW227774   3.045   1.062   2.621 -0.1729  4.8227 -0.1932
 5439SOL     OW27775   0.722   1.202  14.912  0.0300 -0.1924 -0.3677
 5439SOL    HW127776   0.719   1.294  14.885 -1.7451 -0.6808 -1.8790
 5439SOL    HW227777   0.777   1.207  14.990 -0.3199  1.2710 -0.2202
 5440SOL     OW27778   2.661   0.911   4.606 -0.0837 -0.1256  0.0303
 5440SOL    HW127779   2.709   0.879   4.682  0.7176  1.5356  0.2297
 5440SOL    HW227780   2.726   0.972   4.571 -1.4797  1.3326 -0.0722
 5441SOL     OW27781   2.355   3.968   3.631  0.0680 -0.3696  0.4292
 5441SOL    HW127782   2.338   3.937   3.719  2.6908 -0.3247  0.9460
 5441SOL    HW227783   2.284   4.029   3.611 -0.1769 -0.5270  0.8360
 5442SOL     OW27784   3.567   2.665   3.111  0.2618  0.1083  0.6121
 5442SOL    HW127785   3.506   2.607   3.156  0.5039 -1.5569 -1.2366
 5442SOL    HW227786   3.523   2.749   3.130 -2.2851 -0.9673 -0.5092
 5443SOL     OW27787   0.236   0.246   4.460  0.1803 -0.0582  0.2344
 5443SOL    HW127788   0.248   0.198   4.542 -0.1968 -0.7329 -0.1045
 5443SOL    HW227789   0.200   0.329   4.495 -0.0143  1.3271 -3.3042
 5444SOL     OW27790   4.348   1.066  13.882 -0.0139  0.3300 -0.4732
 5444SOL    HW127791   4.290   1.092  13.954  1.5250  2.7895 -0.1192
 5444SOL    HW227792   4.412   1.137  13.877 -0.2553  0.5815  0.0168
 5445SOL     OW27793   3.723   4.651   3.583  0.6178  0.0125  0.1224
 5445SOL    HW127794   3.771   0.003   3.616  2.7006 -1.0340 -0.4496
 5445SOL    HW227795   3.634   4.685   3.592  1.1407  1.0174  1.5792
 5446SOL     OW27796   0.490   0.221   6.130  0.1714 -0.8229  0.3597
 5446SOL    HW127797   0.477   0.316   6.134 -0.9717 -0.8113 -3.2331
 5446SOL    HW227798   0.425   0.205   6.062  0.3158 -0.7241  0.1995
 5447SOL     OW27799   3.608   3.001   6.972 -0.3396 -0.3048 -0.3267
 5447SOL    HW127800   3.649   3.087   6.978  0.5383 -0.6291 -1.5194
 5447SOL    HW227801   3.521   3.036   6.954  1.1089  2.6170 -1.6815
 5448SOL     OW27802   0.154   0.356   6.314  0.4432  0.3587  0.2564
 5448SOL    HW127803   0.189   0.390   6.232 -0.1232  1.9941  0.6995
 5448SOL    HW227804   0.084   0.295   6.288 -0.8272  2.1779 -0.6203
 5449SOL     OW27805   1.479   0.055   7.993  0.6456  0.2696  0.0899
 5449SOL    HW127806   1.499   4.715   7.927 -1.0529 -0.2122  0.0358
 5449SOL    HW227807   1.468   4.714   8.061  1.8560 -0.8079 -0.7792
 5450SOL     OW27808   0.581   1.079   7.584  0.1459  0.0219  0.0941
 5450SOL    HW127809   0.667   1.050   7.554  1.0067  1.8533  0.8517
 5450SOL    HW227810   0.579   1.059   7.677 -0.9603 -0.1254  0.0406
 5451SOL     OW27811   0.872   1.285   4.015 -0.0550 -0.1436  0.7469
 5451SOL    HW127812   0.931   1.265   4.088 -0.8227 -2.9348  0.6121
 5451SOL    HW227813   0.790   1.246   4.048  0.4802 -2.3250 -0.5065
 5452SOL     OW27814   4.602   3.442  13.079  0.4850  0.0203 -0.3783
 5452SOL    HW127815   4.692   3.411  13.073  1.2361  2.4517 -1.6366
 5452SOL    HW227816   4.547   3.371  13.045 -0.3954  1.6115 -2.3295
 5453SOL     OW27817   2.155   4.595  16.735 -0.0980  0.0831 -0.4402
 5453SOL    HW127818   2.081   4.569  16.681 -1.3667 -0.4727  1.5458
 5453SOL    HW227819   2.117   4.674  16.775  1.7662  0.6384  0.2587
 5454SOL     OW27820   2.370   0.124   9.391 -0.5090  0.2899 -0.2830
 5454SOL    HW127821   2.293   0.104   9.444  0.7120  1.2003  1.8104
 5454SOL    HW227822   2.394   0.032   9.379  2.1578  1.0916 -1.0025
 5455SOL     OW27823   2.564   0.912  10.623  0.2509  0.2871  0.2335
 5455SOL    HW127824   2.527   0.839  10.573 -1.3048  0.7424  0.7170
 5455SOL    HW227825   2.634   0.952  10.572 -0.1208  0.5820 -0.0378
 5456SOL     OW27826   4.384   4.471   8.421  0.0807  0.1543 -0.1167
 5456SOL    HW127827   4.459   4.529   8.407 -1.3666  1.7467 -1.1930
 5456SOL    HW227828   4.337   4.484   8.339 -0.9162 -0.4954  0.3589
 5457SOL     OW27829   2.921   3.884   2.420 -0.4528  0.3056 -0.2594
 5457SOL    HW127830   2.833   3.855   2.394  0.5373 -1.4865 -1.5933
 5457SOL    HW227831   2.969   3.906   2.341 -0.9282 -0.6089 -0.8029
 5458SOL     OW27832   0.310   3.143   5.076 -0.2747 -0.1328  0.1724
 5458SOL    HW127833   0.238   3.111   5.130 -0.6898  1.2307  0.4167
 5458SOL    HW227834   0.346   3.214   5.129 -0.7483  1.6008 -1.8229
 5459SOL     OW27835   1.519   3.061   7.929  0.4676  0.3630 -0.3671
 5459SOL    HW127836   1.442   3.028   7.881  1.0900  1.2296 -1.9339
 5459SOL    HW227837   1.478   3.124   7.987  2.1643  0.4964  0.6744
 5460SOL     OW27838   1.257   1.611  15.702 -0.5482 -0.0078  0.5506
 5460SOL    HW127839   1.307   1.672  15.648 -0.1473 -1.9256 -1.2044
 5460SOL    HW227840   1.284   1.529  15.662 -0.8986 -0.0638  0.4260
 5461SOL     OW27841   1.885   2.124  15.940  0.2529  0.3559 -0.5721
 5461SOL    HW127842   1.892   2.157  15.851  0.1223  1.3076 -0.2270
 5461SOL    HW227843   1.956   2.169  15.985  1.7677 -1.7628 -0.8462
 5462SOL     OW27844   4.464   1.172  16.587  0.6411  0.4680  0.2918
 5462SOL    HW127845   4.419   1.127  16.659  0.3323 -1.2260 -0.9684
 5462SOL    HW227846   4.429   1.131  16.509  0.4143  2.5656 -0.7114
 5463SOL     OW27847   3.451   1.045  11.692 -0.0494 -0.2103  0.4079
 5463SOL    HW127848   3.397   0.983  11.742  1.4364 -1.7424  0.1413
 5463SOL    HW227849   3.436   1.114  11.756  1.7725 -0.8411  1.4976
 5464SOL     OW27850   0.848   4.406   6.894 -0.3935 -1.0086  0.3724
 5464SOL    HW127851   0.878   4.316   6.898  0.9401 -0.5850  0.0027
 5464SOL    HW227852   0.914   4.449   6.949 -0.8032  0.7710 -0.5207
 5465SOL     OW27853   3.027   2.172   3.494 -0.2016 -0.2040  0.3984
 5465SOL    HW127854   2.959   2.111   3.523  0.3302  0.2058  2.5097
 5465SOL    HW227855   3.085   2.178   3.570  2.5135  0.4533 -1.7354
 5466SOL     OW27856   1.400   2.616   5.771  0.4340 -0.2023 -0.3642
 5466SOL    HW127857   1.445   2.537   5.743  1.6965  0.1598  0.6369
 5466SOL    HW227858   1.312   2.605   5.735  0.2271 -0.7859  0.3266
 5467SOL     OW27859   4.139   1.319   6.704 -0.0169 -0.5262 -0.0011
 5467SOL    HW127860   4.153   1.373   6.782 -0.6956 -1.1143  0.5215
 5467SOL    HW227861   4.210   1.366   6.659 -0.1213  1.2167  1.6770
 5468SOL     OW27862   0.368   0.523   3.276  0.0956 -0.3700  0.4779
 5468SOL    HW127863   0.299   0.570   3.229  0.8951 -1.4924 -1.7920
 5468SOL    HW227864   0.436   0.522   3.209 -2.3549 -1.5160 -1.9681
 5469SOL     OW27865   0.002   3.680   2.164 -0.1022  0.0079 -0.1159
 5469SOL    HW127866   4.672   3.611   2.200 -2.6339  0.2520 -3.5201
 5469SOL    HW227867   0.081   3.634   2.135  0.9545  0.3206  2.2592
 5470SOL     OW27868   3.136   0.823   7.031  0.3701 -0.4852  0.4400
 5470SOL    HW127869   3.179   0.796   6.950 -3.8987  0.7964 -2.2614
 5470SOL    HW227870   3.216   0.821   7.084 -0.4761  0.4275  1.7568
 5471SOL     OW27871   1.395   2.756  17.372  0.5923 -0.1719  0.1414
 5471SOL    HW127872   1.402   2.701  17.294 -3.8071 -2.2275  1.1721
 5471SOL    HW227873   1.309   2.720  17.393  0.5426  0.8012  1.5928
 5472SOL     OW27874   4.094   3.637   3.134  0.6949  0.3665  0.1723
 5472SOL    HW127875   4.154   3.662   3.064  1.0524  1.4073  0.8568
 5472SOL    HW227876   4.006   3.657   3.101 -0.4700 -2.4102  1.5661
 5473SOL     OW27877   1.176   1.780   7.566 -0.1320 -0.1858  0.4360
 5473SOL    HW127878   1.174   1.839   7.491  1.4891 -0.3594  0.2544
 5473SOL    HW227879   1.220   1.698   7.543 -0.7889  0.0763 -1.6997
 5474SOL     OW27880   2.729   1.674   4.634  0.2214 -0.4400  0.2082
 5474SOL    HW127881   2.738   1.755   4.584 -0.9904 -1.4614 -1.6217
 5474SOL    HW227882   2.765   1.696   4.720  1.9213 -0.7552 -0.4099
 5475SOL     OW27883   1.207   4.338   3.346  0.6188  0.4119 -0.1052
 5475SOL    HW127884   1.301   4.346   3.365  0.3423 -1.7809  2.0393
 5475SOL    HW227885   1.185   4.418   3.297 -0.5148  0.1022 -0.0882
 5476SOL     OW27886   2.856   4.480   1.460  0.3212  0.0745 -0.2086
 5476SOL    HW127887   2.905   4.444   1.385 -0.6365  4.6964 -3.0128
 5476SOL    HW227888   2.922   4.529   1.510  0.3895  1.2287 -1.4335
 5477SOL     OW27889   0.721   1.606  12.772 -0.8488  0.1097 -0.0311
 5477SOL    HW127890   0.626   1.597  12.777 -0.7569  0.2462  1.9940
 5477SOL    HW227891   0.732   1.695  12.738  0.5567 -0.2065 -0.3849
 5478SOL     OW27892   1.744   1.966  10.853  0.3996  0.3766 -0.2965
 5478SOL    HW127893   1.669   2.019  10.826  1.1457  0.7371 -1.6574
 5478SOL    HW227894   1.710   1.877  10.857 -1.0984  1.0012  0.8828
 5479SOL     OW27895   4.191   1.603  11.230 -0.0972 -0.3169 -0.8543
 5479SOL    HW127896   4.145   1.636  11.308  1.1589 -3.1091  1.0670
 5479SOL    HW227897   4.188   1.685  11.181  1.5087 -0.5057 -1.2795
 5480SOL     OW27898   2.825   1.365   3.389 -0.1461 -0.0901 -0.2322
 5480SOL    HW127899   2.895   1.318   3.434  0.8951 -0.3365 -2.0803
 5480SOL    HW227900   2.775   1.293   3.349  0.6451 -0.2820 -0.8793
 5481SOL     OW27901   0.259   1.933   6.702 -0.3006 -0.1814 -0.3959
 5481SOL    HW127902   0.284   1.872   6.633  0.7225 -1.3567  1.0153
 5481SOL    HW227903   0.180   1.887   6.732 -0.7598 -0.1943 -1.6122
 5482SOL     OW27904   4.045   1.387  11.175  0.0641 -0.1150 -0.1295
 5482SOL    HW127905   4.062   1.328  11.248  1.3793 -0.8611 -1.0586
 5482SOL    HW227906   4.114   1.449  11.197 -0.2212 -0.2250  1.0886
 5483SOL     OW27907   2.471   0.861  12.281 -0.1997 -0.2764 -0.7345
 5483SOL    HW127908   2.481   0.769  12.305 -2.8178 -1.1001 -2.8359
 5483SOL    HW227909   2.528   0.903  12.346 -0.2794 -2.1830  0.5719
 5484SOL     OW27910   3.059   1.388   6.855  0.1945 -0.9118  0.4086
 5484SOL    HW127911   3.086   1.441   6.780 -1.0773 -0.6594  0.1163
 5484SOL    HW227912   3.041   1.307   6.808  2.5412 -0.9872 -0.3486
 5485SOL     OW27913   0.544   0.919   2.446  0.2242 -0.1669  0.4212
 5485SOL    HW127914   0.532   0.840   2.393 -2.1404  0.3495  0.2086
 5485SOL    HW227915   0.621   0.900   2.500 -1.0186 -1.2536  1.8340
 5486SOL     OW27916   0.399   0.184  15.010 -0.0617 -0.3409 -0.2631
 5486SOL    HW127917   0.375   0.193  14.918 -1.4114  0.7401  0.1954
 5486SOL    HW227918   0.351   0.105  15.032 -2.2822  0.4956 -2.1297
 5487SOL     OW27919   3.395   2.530   6.507 -0.1928  0.2438 -0.0988
 5487SOL    HW127920   3.301   2.514   6.501 -0.3477  0.6102  1.2137
 5487SOL    HW227921   3.417   2.465   6.574  0.2584  0.4165 -0.0742
 5488SOL     OW27922   2.504   2.357  14.547  0.2943  0.2736 -0.0076
 5488SOL    HW127923   2.583   2.356  14.601  0.1439 -0.0778  0.2055
 5488SOL    HW227924   2.465   2.443  14.562  0.2509 -0.0642  1.9343
 5489SOL     OW27925   1.298   2.073   2.189 -0.5290  0.0346 -0.2373
 5489SOL    HW127926   1.243   2.025   2.127 -1.1714  0.5336 -0.0486
 5489SOL    HW227927   1.277   2.157   2.148  1.1711  1.3994  1.6987
 5490SOL     OW27928   2.113   4.470   5.503  0.1397  0.7104  0.9305
 5490SOL    HW127929   2.046   4.430   5.447 -1.4995  0.2037  3.2768
 5490SOL    HW227930   2.145   4.392   5.548  3.0273  1.3257 -0.0550
 5491SOL     OW27931   1.741   3.046  14.717 -0.1415  0.2298 -0.1192
 5491SOL    HW127932   1.738   2.979  14.649 -1.1491 -1.2339  1.3497
 5491SOL    HW227933   1.823   3.027  14.763  0.9597  2.2820 -1.2600
 5492SOL     OW27934   2.747   0.605   7.301  0.2688  0.3402  0.2795
 5492SOL    HW127935   2.652   0.616   7.295  0.6985  3.0946 -0.9612
 5492SOL    HW227936   2.775   0.665   7.233 -2.0195 -1.2784 -2.1306
 5493SOL     OW27937   0.439   0.928   6.024 -0.1432  0.7055 -0.0541
 5493SOL    HW127938   0.362   0.955   6.073  1.5150  2.1678  1.6877
 5493SOL    HW227939   0.400   0.856   5.973 -1.3231  1.1542  0.2155
 5494SOL     OW27940   2.105   3.373   6.220 -0.4785 -0.0840  0.0817
 5494SOL    HW127941   2.053   3.367   6.139  1.0884  1.0016 -0.9966
 5494SOL    HW227942   2.174   3.311   6.197  0.5345  1.4030 -0.9040
 5495SOL     OW27943   0.824   0.436   6.211 -0.2839 -0.2389 -0.4740
 5495SOL    HW127944   0.731   0.454   6.204 -0.1897  0.2798 -0.3787
 5495SOL    HW227945   0.854   0.519   6.172  0.9299  0.4366  1.8661
 5496SOL     OW27946   2.417   0.039   6.152 -0.4492 -0.0199 -0.2244
 5496SOL    HW127947   2.494   4.719   6.188 -0.5142 -0.9462 -1.2504
 5496SOL    HW227948   2.351   0.025   6.220 -0.8599  0.9738 -0.4223
 5497SOL     OW27949   3.232   3.613   5.990  0.1184 -0.3358  0.2387
 5497SOL    HW127950   3.307   3.572   5.947 -0.7486 -1.6922  0.0063
 5497SOL    HW227951   3.277   3.675   6.048 -1.0690  1.7146 -1.0451
 5498SOL     OW27952   1.215   4.253   5.336 -0.5646 -0.1440  0.8157
 5498SOL    HW127953   1.188   4.171   5.379  2.8037 -1.8209 -0.2427
 5498SOL    HW227954   1.253   4.238   5.249 -0.6673  0.8290  0.6066
 5499SOL     OW27955   1.717   3.907   6.231 -0.7419 -0.3854 -0.1428
 5499SOL    HW127956   1.795   3.861   6.263  0.5883 -0.7718 -3.9793
 5499SOL    HW227957   1.753   3.995   6.240 -1.7500  0.1500 -1.3368
 5500SOL     OW27958   2.412   4.290  17.339 -0.5237  0.5602  0.0106
 5500SOL    HW127959   2.351   4.271  17.411  1.6866  0.0971  1.7496
 5500SOL    HW227960   2.364   4.256  17.264  1.0853 -0.4232 -0.5739
 5501SOL     OW27961   4.461   2.038  14.025  0.6949 -0.0377 -0.0706
 5501SOL    HW127962   4.438   1.957  14.072  2.5358  0.3210  1.4533
 5501SOL    HW227963   4.553   2.025  14.002  0.4830  0.3249 -1.0812
 5502SOL     OW27964   3.612   1.535   4.190 -0.4841 -0.5855  0.3657
 5502SOL    HW127965   3.532   1.585   4.207 -0.5209 -1.0430  1.5782
 5502SOL    HW227966   3.620   1.489   4.274 -0.5564 -0.4698  0.4355
 5503SOL     OW27967   1.856   2.501   2.478 -0.1155  0.2954 -0.0795
 5503SOL    HW127968   1.874   2.460   2.562  0.0503  0.2913 -0.1161
 5503SOL    HW227969   1.949   2.511   2.456 -0.4646  2.2409 -0.6628
 5504SOL     OW27970   2.396   3.755  15.490  0.2850  0.1990 -0.1377
 5504SOL    HW127971   2.327   3.808  15.453 -0.6578 -1.3261 -0.5550
 5504SOL    HW227972   2.414   3.799  15.573  0.1853  0.0146 -0.0182
 5505SOL     OW27973   1.220   0.296  13.341 -0.1992  0.2722  0.9358
 5505SOL    HW127974   1.258   0.345  13.268 -0.7220 -0.8550 -0.0771
 5505SOL    HW227975   1.184   0.218  13.299  1.8017 -0.4827  0.6603
 5506SOL     OW27976   1.001   4.340  14.885  0.0484 -0.3057 -0.1148
 5506SOL    HW127977   0.990   4.431  14.857 -0.9149 -0.9196 -1.7744
 5506SOL    HW227978   1.092   4.327  14.860  0.7336  1.4988  1.4376
 5507SOL     OW27979   4.145   1.264   0.869  0.0134  0.9124 -0.3869
 5507SOL    HW127980   4.159   1.261   0.964  0.6749 -1.9484 -0.5572
 5507SOL    HW227981   4.186   1.347   0.843 -0.0748  0.4163 -2.0784
 5508SOL     OW27982   1.300   0.932   2.492  0.3368 -0.0595 -0.1712
 5508SOL    HW127983   1.258   1.012   2.461  0.8867  1.1874  2.3218
 5508SOL    HW227984   1.317   0.953   2.584 -1.1846  1.8128 -0.3180
 5509SOL     OW27985   4.267   4.303  10.246 -0.1361  0.1855 -0.1458
 5509SOL    HW127986   4.198   4.358  10.207  1.0160  1.1245 -0.8790
 5509SOL    HW227987   4.284   4.248  10.169  2.8352  0.4379  0.3292
 5510SOL     OW27988   3.757   3.307   6.710  0.6351  0.2548 -0.1626
 5510SOL    HW127989   3.702   3.377   6.675 -0.3094 -1.5527 -2.2764
 5510SOL    HW227990   3.728   3.237   6.652 -0.0760  0.4114  0.0113
 5511SOL     OW27991   2.874   0.578  15.052  0.1362  0.3076  0.3242
 5511SOL    HW127992   2.920   0.588  15.135  1.4370 -0.1170 -0.3493
 5511SOL    HW227993   2.788   0.560  15.089  0.0353 -0.7410 -0.4291
 5512SOL     OW27994   0.325   1.639   2.363  0.1535 -0.4809 -0.3102
 5512SOL    HW127995   0.258   1.703   2.390  0.1780 -0.3657 -0.5209
 5512SOL    HW227996   0.382   1.672   2.432  1.5143 -0.4650 -1.4404
 5513SOL     OW27997   3.498   3.292  16.625  0.3559 -0.3149  0.2104
 5513SOL    HW127998   3.439   3.234  16.673  0.9795  0.8240  2.3728
 5513SOL    HW227999   3.449   3.281  16.543 -0.3157 -2.4952  0.9096
 5514SOL     OW28000   3.142   3.949  12.451 -0.7131  0.1196  0.7783
 5514SOL    HW128001   3.214   3.976  12.395 -0.1843 -0.8345  1.0112
 5514SOL    HW228002   3.091   4.030  12.461 -1.3359 -0.2453  0.5263
 5515SOL     OW28003   4.454   0.593   9.112 -0.1049 -0.1031 -0.6965
 5515SOL    HW128004   4.427   0.505   9.136 -1.3347  0.7027  0.8445
 5515SOL    HW228005   4.544   0.588   9.147 -0.3048  1.2326  0.0194
 5516SOL     OW28006   2.957   2.657  16.107 -0.7965  0.5067 -0.0100
 5516SOL    HW128007   3.013   2.600  16.159  0.2332  0.6254 -0.9842
 5516SOL    HW228008   2.893   2.589  16.088 -0.4316  0.4803 -1.1495
 5517SOL     OW28009   3.244   0.987   3.079  0.3492 -0.3179 -0.2436
 5517SOL    HW128010   3.222   0.894   3.079 -0.8630 -0.0343  1.5024
 5517SOL    HW228011   3.309   0.986   3.149  0.5764 -2.6596 -0.4756
 5518SOL     OW28012   4.556   3.413   6.435  0.1015  0.0197  0.1079
 5518SOL    HW128013   4.520   3.432   6.522  1.7217  0.0486  0.7810
 5518SOL    HW228014   4.584   3.497   6.399  0.8415 -1.4156 -2.6544
 5519SOL     OW28015   4.544   1.191   7.672  0.2232 -0.4178  0.3332
 5519SOL    HW128016   4.453   1.174   7.647  1.0481 -1.8354 -1.7460
 5519SOL    HW228017   4.532   1.181   7.766 -1.4584  0.5109  0.2230
 5520SOL     OW28018   3.089   4.147   2.699  0.0172 -0.2834 -0.6178
 5520SOL    HW128019   3.026   4.083   2.730  1.4029 -0.5643  1.5802
 5520SOL    HW228020   3.148   4.155   2.773 -0.3587 -3.4344  0.0239
 5521SOL     OW28021   3.199   3.072   1.975  0.0522 -0.0636 -0.2420
 5521SOL    HW128022   3.232   2.985   1.954 -0.2196 -0.0701 -0.6376
 5521SOL    HW228023   3.177   3.047   2.065  0.9366  2.7294  0.7676
 5522SOL     OW28024   4.499   2.586   2.673 -0.1342  0.1993 -0.0725
 5522SOL    HW128025   4.447   2.506   2.677  1.1081 -0.5183  2.1419
 5522SOL    HW228026   4.535   2.594   2.762 -1.0106 -0.3198  0.3236
 5523SOL     OW28027   3.415   4.040   5.196 -0.4812 -0.2088  0.6017
 5523SOL    HW128028   3.380   4.107   5.138  1.6657  1.2956  1.0169
 5523SOL    HW228029   3.484   4.090   5.240 -1.1429 -0.0317  1.4519
 5524SOL     OW28030   3.839   3.680  15.716 -0.3192 -0.5874  0.1290
 5524SOL    HW128031   3.755   3.715  15.687  0.6771  0.0019 -2.0328
 5524SOL    HW228032   3.862   3.627  15.640  0.2993  1.9334 -1.4406
 5525SOL     OW28033   0.585   4.182   0.852 -0.2067  0.5224 -0.3385
 5525SOL    HW128034   0.523   4.164   0.781  1.4816  0.8336 -1.9074
 5525SOL    HW228035   0.672   4.159   0.819  0.1798  0.0924  0.9724
 5526SOL     OW28036   2.629   3.576  13.804 -0.4119 -0.3248 -0.1948
 5526SOL    HW128037   2.560   3.575  13.738  0.3359  0.5254 -0.9954
 5526SOL    HW228038   2.708   3.560  13.751  0.2758  1.1545  0.3758
 5527SOL     OW28039   3.722   0.399   3.573 -0.5238 -0.2092  0.1227
 5527SOL    HW128040   3.663   0.363   3.640 -0.3465 -0.8517 -0.0698
 5527SOL    HW228041   3.757   0.476   3.618  0.1343  0.0261 -0.7971
 5528SOL     OW28042   3.530   1.655  11.240  0.7436  0.1022 -0.1554
 5528SOL    HW128043   3.468   1.722  11.212  1.1213  0.9460  1.0170
 5528SOL    HW228044   3.462   1.592  11.264  0.1692  0.2807 -1.3445
 5529SOL     OW28045   0.258   3.789   5.924  0.1339 -0.2041 -0.1225
 5529SOL    HW128046   0.196   3.850   5.884 -0.1540 -0.3621  0.0837
 5529SOL    HW228047   0.231   3.795   6.015 -1.6750 -2.4349 -0.5041
 5530SOL     OW28048   3.441   1.838  15.179  0.4539  0.2105 -0.2143
 5530SOL    HW128049   3.453   1.926  15.214  2.7362  0.0199 -0.5210
 5530SOL    HW228050   3.371   1.812  15.239 -2.6018  2.4216 -2.8249
 5531SOL     OW28051   2.692   0.528   6.480  0.2587  0.2530  0.2363
 5531SOL    HW128052   2.663   0.608   6.524 -2.2054 -0.0372 -0.8602
 5531SOL    HW228053   2.631   0.460   6.509  0.6147 -0.6525 -1.1361
 5532SOL     OW28054   1.951   1.404   0.824  0.1282  0.0615 -0.1117
 5532SOL    HW128055   2.023   1.421   0.884 -1.1944  1.2904  1.1134
 5532SOL    HW228056   2.001   1.380   0.746  2.0901  4.7466 -0.2858
 5533SOL     OW28057   1.291   2.289   4.120  0.1392  0.2800  0.0508
 5533SOL    HW128058   1.199   2.314   4.113  0.7140  2.5140  0.4771
 5533SOL    HW228059   1.282   2.194   4.124  1.4785  0.2151  1.5222
 5534SOL     OW28060   3.458   1.324   2.323 -0.1671 -0.2193  0.0465
 5534SOL    HW128061   3.429   1.338   2.233 -1.9338  0.5702  0.7531
 5534SOL    HW228062   3.445   1.412   2.357  0.4344  0.0522 -0.4307
 5535SOL     OW28063   2.210   1.759   4.061  0.1973  0.0395  0.0172
 5535SOL    HW128064   2.240   1.674   4.029 -1.3805  0.5229 -2.7532
 5535SOL    HW228065   2.170   1.716   4.137  0.9202 -0.1088  0.3116
 5536SOL     OW28066   1.722   0.934   4.210 -0.1561  0.4156 -0.2931
 5536SOL    HW128067   1.660   0.864   4.232 -2.5444  2.0864 -1.6932
 5536SOL    HW228068   1.802   0.884   4.226  0.2536  1.8050  2.0135
 5537SOL     OW28069   3.809   3.237   7.648 -0.1110 -0.4002 -0.1643
 5537SOL    HW128070   3.883   3.176   7.637  0.2927  0.6027 -2.9905
 5537SOL    HW228071   3.815   3.278   7.734  1.1292 -2.5640  0.7801
 5538SOL     OW28072   0.078   2.217  14.105 -0.1156  0.0496  0.2899
 5538SOL    HW128073   0.048   2.164  14.032  1.8501 -1.2442  0.4157
 5538SOL    HW228074   0.051   2.159  14.176 -2.1556  1.3844  0.6123
 5539SOL     OW28075   3.689   0.770  13.628  0.2072  0.1105 -0.2539
 5539SOL    HW128076   3.676   0.702  13.562 -1.1616  1.1436 -1.0557
 5539SOL    HW228077   3.643   0.847  13.593 -1.5565 -0.7799  0.1207
 5540SOL     OW28078   2.067   2.285   2.309 -0.1022  0.3350 -0.2608
 5540SOL    HW128079   2.118   2.349   2.358 -0.4508  1.8716 -1.9203
 5540SOL    HW228080   2.130   2.213   2.309  1.0688  1.3595  0.7679
 5541SOL     OW28081   2.131   3.112   0.713 -0.2384 -0.1278  0.3546
 5541SOL    HW128082   2.097   3.201   0.720 -0.8397 -0.4759  1.8208
 5541SOL    HW228083   2.101   3.076   0.630 -1.9676  0.9008  0.5238
 5542SOL     OW28084   4.444   3.017  11.252 -0.3502  0.1934  0.0376
 5542SOL    HW128085   4.520   2.959  11.263 -2.5723 -2.7525  0.0357
 5542SOL    HW228086   4.414   2.993  11.164  0.3398  0.2250 -0.2106
 5543SOL     OW28087   2.914   4.127   3.562 -0.0685 -0.0953 -0.9590
 5543SOL    HW128088   2.869   4.133   3.478 -0.5213  0.3411 -0.6830
 5543SOL    HW228089   2.901   4.041   3.602  1.0420  0.6680  1.0496
 5544SOL     OW28090   4.245   3.113  17.541  0.6051 -0.7556  0.5237
 5544SOL    HW128091   4.316   3.128  17.479  0.9599  0.0467  1.1274
 5544SOL    HW228092   4.296   3.132  17.620  1.0101 -0.3841  0.1693
 5545SOL     OW28093   4.131   2.385  14.157 -0.0557 -0.3126  0.2579
 5545SOL    HW128094   4.042   2.391  14.192 -0.1742  1.5368 -0.3184
 5545SOL    HW228095   4.155   2.293  14.165  3.3833  0.7941  2.7460
 5546SOL     OW28096   3.605   0.911  12.287  0.0632 -0.5337 -0.0462
 5546SOL    HW128097   3.611   0.997  12.329 -1.5449  0.7457 -2.4491
 5546SOL    HW228098   3.648   0.935  12.205 -0.8728  1.8277  0.1457
 5547SOL     OW28099   0.841   2.778  12.818 -0.5159 -0.0199  0.1937
 5547SOL    HW128100   0.897   2.702  12.803 -0.5443  0.1681 -0.8356
 5547SOL    HW228101   0.853   2.848  12.753  0.9901 -0.3573  0.0909
 5548SOL     OW28102   3.569   3.351   9.977  0.3202 -0.0268  0.0393
 5548SOL    HW128103   3.513   3.372  10.052  1.0276  2.3446 -0.1149
 5548SOL    HW228104   3.567   3.438   9.939  0.5167 -0.6654 -1.4195
 5549SOL     OW28105   1.020   3.836   4.289  0.8147 -0.0673 -0.2637
 5549SOL    HW128106   1.095   3.777   4.289  0.7594 -0.1395 -2.1692
 5549SOL    HW228107   1.062   3.895   4.351 -0.6572  0.4423  0.2424
 5550SOL     OW28108   2.833   1.811   5.328 -0.0386 -0.0700 -0.1866
 5550SOL    HW128109   2.885   1.829   5.250  2.0824 -0.9401  1.0252
 5550SOL    HW228110   2.770   1.751   5.287  1.1754 -0.8342 -0.9247
 5551SOL     OW28111   1.661   1.771   3.112 -0.3828  0.0830 -0.2841
 5551SOL    HW128112   1.728   1.821   3.068  0.9626 -1.3247  0.1460
 5551SOL    HW228113   1.585   1.798   3.060 -0.2881 -2.6353 -1.8813
 5552SOL     OW28114   0.178   0.084  16.570  0.0489 -0.7736  0.0487
 5552SOL    HW128115   0.221   0.149  16.515 -1.2489 -0.7464 -0.9228
 5552SOL    HW228116   0.096   0.076  16.522  0.1045  0.9972 -0.3479
 5553SOL     OW28117   4.157   1.404   4.257 -0.1608 -0.3290  0.0392
 5553SOL    HW128118   4.250   1.425   4.252 -0.2293 -0.1654 -0.4707
 5553SOL    HW228119   4.147   1.420   4.351 -1.3962 -2.6721  0.3032
 5554SOL     OW28120   3.485   1.993   0.132 -0.1582 -0.1159  0.9852
 5554SOL    HW128121   3.451   2.081   0.151  0.5321  0.4603 -0.3943
 5554SOL    HW228122   3.407   1.938   0.132  0.1685 -0.5757  0.7403
 5555SOL     OW28123   1.058   3.463   5.266 -0.0427  0.2364 -0.3101
 5555SOL    HW128124   1.145   3.502   5.253  0.8973 -1.4331  0.8716
 5555SOL    HW228125   1.058   3.389   5.206 -2.4980  0.5541 -0.6991
 5556SOL     OW28126   3.190   2.406   5.129  0.5317  0.0892 -0.1781
 5556SOL    HW128127   3.242   2.349   5.185 -1.3155 -1.8378 -0.4175
 5556SOL    HW228128   3.240   2.487   5.122  0.4636  0.1048 -0.5212
 5557SOL     OW28129   3.245   2.700   7.877  0.0186  0.0208 -0.0404
 5557SOL    HW128130   3.202   2.757   7.814 -1.0349  0.7625  1.3602
 5557SOL    HW228131   3.187   2.624   7.873  1.1847 -0.7652 -1.8944
 5558SOL     OW28132   2.386   3.801   0.795 -0.2203  0.2754  0.3938
 5558SOL    HW128133   2.427   3.823   0.711  0.0302  1.8784  0.9290
 5558SOL    HW228134   2.425   3.720   0.827 -1.0466  0.3648  1.6272
 5559SOL     OW28135   1.602   2.081  16.906  0.5010 -0.0433 -0.2985
 5559SOL    HW128136   1.681   2.067  16.958  0.8379  1.2239 -0.4733
 5559SOL    HW228137   1.553   2.141  16.963  0.4063 -0.9345  0.5562
 5560SOL     OW28138   1.676   1.586   3.374 -0.5754 -1.2007 -0.1381
 5560SOL    HW128139   1.712   1.639   3.445 -0.1552  2.0321 -2.8193
 5560SOL    HW228140   1.616   1.643   3.326 -0.7474  0.3091  1.8921
 5561SOL     OW28141   1.918   0.055   5.212 -0.2771  0.0957 -0.3167
 5561SOL    HW128142   1.842   0.091   5.166 -2.2613 -1.4735  1.7715
 5561SOL    HW228143   1.950   0.135   5.254 -0.7251  0.8528 -1.4121
 5562SOL     OW28144   1.633   4.700  17.362 -0.0088 -0.4512 -0.3525
 5562SOL    HW128145   1.705   4.691  17.424  1.5312  2.4322 -1.7416
 5562SOL    HW228146   1.640   4.620  17.310 -4.5594  0.0571 -1.8324
 5563SOL     OW28147   2.538   2.002   9.725 -0.0922  0.2340 -0.0728
 5563SOL    HW128148   2.583   1.935   9.672 -0.6096 -0.1400 -0.0392
 5563SOL    HW228149   2.454   2.016   9.683  0.6760 -0.5425 -1.8435
 5564SOL     OW28150   0.654   1.114   7.263  0.2710  0.6821 -0.3063
 5564SOL    HW128151   0.583   1.082   7.319 -1.8211  2.2132 -2.0564
 5564SOL    HW228152   0.726   1.122   7.325 -2.3034  0.5291  2.7175
 5565SOL     OW28153   2.911   2.592   2.918 -0.1491 -0.0116 -0.2781
 5565SOL    HW128154   2.930   2.582   2.824 -1.3446 -1.9909 -0.3076
 5565SOL    HW228155   2.894   2.506   2.955  0.2845  0.3062  0.6442
 5566SOL     OW28156   0.601   3.068   5.040  0.0711  0.5409 -0.0794
 5566SOL    HW128157   0.573   3.134   4.976  3.0521  1.7226 -0.1659
 5566SOL    HW228158   0.515   3.030   5.058  0.5113  0.1543  1.1736
 5567SOL     OW28159   1.733   1.369   2.294  0.1431 -0.2544  0.2749
 5567SOL    HW128160   1.696   1.444   2.248 -1.3344 -2.5824 -2.3667
 5567SOL    HW228161   1.653   1.317   2.305  0.5304 -1.3104 -1.7441
 5568SOL     OW28162   0.656   4.263   3.173  0.5657 -0.1510 -0.0408
 5568SOL    HW128163   0.604   4.342   3.164 -0.3791 -0.7266  0.3314
 5568SOL    HW228164   0.595   4.194   3.146 -0.2794  0.7656 -0.4447
 5569SOL     OW28165   3.810   0.576   2.565  0.2419  0.0858 -0.2612
 5569SOL    HW128166   3.827   0.484   2.542  2.3047  0.3633  0.1350
 5569SOL    HW228167   3.780   0.617   2.484  0.4814  0.6752 -0.0494
 5570SOL     OW28168   3.539   4.521   0.319 -0.2079  0.0123  0.6691
 5570SOL    HW128169   3.507   4.523   0.409  1.8747 -1.0509  1.4318
 5570SOL    HW228170   3.488   4.590   0.278 -2.1443 -3.5517 -2.9424
 5571SOL     OW28171   2.718   1.517   8.413  0.1261  0.3621  0.4457
 5571SOL    HW128172   2.639   1.568   8.394  0.3606  1.4799  2.4178
 5571SOL    HW228173   2.688   1.448   8.354  0.6733  0.0131  0.5694
 5572SOL     OW28174   1.170   4.142   1.743  0.2192 -0.0766 -0.1145
 5572SOL    HW128175   1.132   4.111   1.825 -2.8652 -0.5402 -1.7235
 5572SOL    HW228176   1.263   4.128   1.763  0.0077  0.7448  1.4633
 5573SOL     OW28177   3.190   4.104   5.910  0.1773  0.1126  0.0225
 5573SOL    HW128178   3.280   4.093   5.941  0.3122  2.8429  0.6579
 5573SOL    HW228179   3.152   4.172   5.966 -0.6078  0.4253 -0.8961
 5574SOL     OW28180   4.222   2.216  14.508 -0.5293  0.5538 -0.1784
 5574SOL    HW128181   4.191   2.188  14.422  0.7997 -0.4207 -0.3426
 5574SOL    HW228182   4.316   2.199  14.506 -0.5604  0.2291  1.0121
 5575SOL     OW28183   1.041   1.684   8.433  0.4046 -0.1890 -0.2138
 5575SOL    HW128184   1.088   1.743   8.492  0.0576 -0.5644  0.4348
 5575SOL    HW228185   0.950   1.699   8.455  0.2398 -3.5805  1.4617
 5576SOL     OW28186   2.345   2.541   9.140 -0.0570  0.0878  0.2470
 5576SOL    HW128187   2.382   2.567   9.224 -0.6093  1.2311  0.1489
 5576SOL    HW228188   2.306   2.626   9.117  1.2943  0.8294  0.7223
 5577SOL     OW28189   0.594   4.665   8.212 -0.8412 -0.0554  0.0934
 5577SOL    HW128190   0.628   0.030   8.206 -0.3433 -0.2865 -0.5829
 5577SOL    HW228191   0.667   4.625   8.260  1.5382  0.3419 -3.1814
 5578SOL     OW28192   4.085   0.236   8.302  0.6667  0.4359  0.4518
 5578SOL    HW128193   4.106   0.269   8.389 -0.9022  1.7309  0.3468
 5578SOL    HW228194   4.167   0.198   8.271 -0.1268 -1.0872  0.1956
 5579SOL     OW28195   4.142   1.727   5.057  0.2573 -0.3856  0.8342
 5579SOL    HW128196   4.067   1.692   5.009 -1.0708  1.4753  1.5840
 5579SOL    HW228197   4.189   1.645   5.074  0.3933 -1.2927 -3.6962
 5580SOL     OW28198   2.404   3.918  11.267 -0.1609 -0.7857  0.2209
 5580SOL    HW128199   2.342   3.846  11.280  1.3305 -1.9454  0.9712
 5580SOL    HW228200   2.461   3.891  11.194 -1.6385  0.5137 -1.4010
 5581SOL     OW28201   2.549   2.870   7.380  0.6276 -0.3258  0.5232
 5581SOL    HW128202   2.503   2.898   7.301  0.9801  2.0637  1.1563
 5581SOL    HW228203   2.581   2.782   7.359 -0.1346  0.1176 -2.4989
 5582SOL     OW28204   2.303   3.732   5.394  0.0398  0.1021  0.3048
 5582SOL    HW128205   2.352   3.653   5.419 -3.4322 -1.1999  3.0664
 5582SOL    HW228206   2.332   3.799   5.456  1.0890  0.9721 -1.1474
 5583SOL     OW28207   2.170   2.562  16.874  1.0957  0.2414 -0.6850
 5583SOL    HW128208   2.114   2.577  16.798  2.2364 -0.5244 -1.6828
 5583SOL    HW228209   2.099   2.552  16.937 -0.8673  1.5338 -2.6614
 5584SOL     OW28210   0.642   4.050   7.022  0.6180 -0.0482  0.1233
 5584SOL    HW128211   0.597   4.012   6.946  0.9244  0.5900 -0.3853
 5584SOL    HW228212   0.568   4.053   7.081 -0.4230  0.5220 -1.1948
 5585SOL     OW28213   4.709   1.130  16.383  0.1482 -0.3744  0.2795
 5585SOL    HW128214   0.003   1.101  16.472 -1.4377 -1.0101  0.4208
 5585SOL    HW228215   4.618   1.158  16.397  0.1629  0.9703 -2.2786
 5586SOL     OW28216   3.065   4.670   3.755  0.0773 -0.0220 -0.4068
 5586SOL    HW128217   2.973   4.677   3.781  0.1265  1.8702 -0.7472
 5586SOL    HW228218   3.077   0.014   3.690 -0.8063  0.4694 -0.0433
 5587SOL     OW28219   3.528   4.189   7.132 -0.2629  0.7248 -0.0627
 5587SOL    HW128220   3.591   4.185   7.204 -1.6850 -2.0454  1.0433
 5587SOL    HW228221   3.444   4.180   7.176  1.3030 -0.0805  2.7298
 5588SOL     OW28222   1.649   0.915   7.096 -0.2116  0.1477  0.0327
 5588SOL    HW128223   1.609   0.979   7.038 -0.8026 -1.2626 -1.1179
 5588SOL    HW228224   1.604   0.915   7.181 -0.3732 -2.4464 -0.0580
 5589SOL     OW28225   0.841   0.747   8.382  0.6857  0.6696 -0.5993
 5589SOL    HW128226   0.812   0.797   8.306 -1.0402 -1.3018 -1.2497
 5589SOL    HW228227   0.758   0.727   8.426  0.2218  0.9207 -1.3691
 5590SOL     OW28228   2.536   4.227  11.589  0.1757 -0.0730 -0.2646
 5590SOL    HW128229   2.582   4.151  11.624 -1.5972 -0.6059  0.8371
 5590SOL    HW228230   2.481   4.189  11.520 -0.1576  0.5386 -0.3360
 5591SOL     OW28231   0.908   0.336  12.155  0.0833 -0.1821  0.3446
 5591SOL    HW128232   0.954   0.266  12.201  1.2245  0.3635  0.0333
 5591SOL    HW228233   0.904   0.312  12.062  1.1120  2.3190 -0.3612
 5592SOL     OW28234   2.147   1.317   4.809 -0.1421  0.2632  0.6382
 5592SOL    HW128235   2.164   1.380   4.740 -1.5599  0.8262  0.8030
 5592SOL    HW228236   2.060   1.328   4.847 -0.3830  1.4001 -0.2576
 5593SOL     OW28237   4.517   2.643   5.547  0.0654 -0.2155 -0.1665
 5593SOL    HW128238   4.570   2.721   5.530  0.9208 -1.1825 -1.9083
 5593SOL    HW228239   4.553   2.634   5.635  0.9885  0.9153 -0.4275
 5594SOL     OW28240   1.471   4.282   3.423 -0.0275 -0.2805  0.3556
 5594SOL    HW128241   1.528   4.301   3.498  0.9827 -1.1442 -0.2003
 5594SOL    HW228242   1.494   4.194   3.394  2.2771  0.8708 -1.3207
 5595SOL     OW28243   0.354   0.317  12.709 -0.2266 -0.0046  0.2057
 5595SOL    HW128244   0.438   0.319  12.665 -0.4236 -1.7690 -0.2456
 5595SOL    HW228245   0.328   0.229  12.682 -1.5763  0.4963 -0.1209
 5596SOL     OW28246   3.011   4.708   6.371  0.4670  0.4786 -0.0958
 5596SOL    HW128247   3.023   4.639   6.306  2.4682  1.5182 -0.8692
 5596SOL    HW228248   3.048   0.064   6.335  0.2104 -0.2161 -1.9201
 5597SOL     OW28249   0.619   3.681   8.882 -0.1246 -0.0378 -0.0258
 5597SOL    HW128250   0.680   3.683   8.808 -0.8048  3.2328 -0.4740
 5597SOL    HW228251   0.604   3.775   8.879 -2.6747 -0.4308  0.0901
 5598SOL     OW28252   3.136   2.964   3.575  0.3985 -0.1122 -0.0178
 5598SOL    HW128253   3.077   2.956   3.500 -0.5003 -1.5731  0.8454
 5598SOL    HW228254   3.186   3.043   3.557 -0.7952  0.5317 -0.4887
 5599SOL     OW28255   0.138   1.824  12.109  0.4486  0.2848 -0.0649
 5599SOL    HW128256   0.233   1.827  12.098  0.0521  0.1413 -3.6014
 5599SOL    HW228257   0.138   1.857  12.199  1.6952  0.3190 -0.0806
 5600SOL     OW28258   3.488   3.619   9.934  0.2949  1.0004 -0.3829
 5600SOL    HW128259   3.402   3.649   9.964  0.4850 -0.5326  1.6421
 5600SOL    HW228260   3.523   3.706   9.915  1.5068  0.6144  0.0958
 5601SOL     OW28261   3.798   4.345   4.022 -0.3290 -0.9716  0.5150
 5601SOL    HW128262   3.774   4.366   3.932 -1.9758 -0.6484  1.0228
 5601SOL    HW228263   3.736   4.274   4.039 -1.2831 -0.3748 -0.4954
 5602SOL     OW28264   0.023   2.230   5.799 -0.2911 -0.6419  0.2480
 5602SOL    HW128265   0.021   2.181   5.881  3.4309 -1.1281  0.0738
 5602SOL    HW228266   0.054   2.163   5.738 -0.3609 -0.1415 -0.3353
 5603SOL     OW28267   2.686   0.862   7.664  0.6144  0.1126  0.0631
 5603SOL    HW128268   2.758   0.837   7.606  1.3274  0.0591  0.9790
 5603SOL    HW228269   2.607   0.857   7.609 -0.3384  0.7976  1.3776
 5604SOL     OW28270   0.118   2.066   5.486  0.9456  0.6982  0.0420
 5604SOL    HW128271   0.178   2.072   5.412  1.5031 -1.4197  0.3016
 5604SOL    HW228272   0.182   2.083   5.555 -1.6528 -1.3384  2.9777
 5605SOL     OW28273   3.314   2.925   5.126  0.3321  0.0633  0.9668
 5605SOL    HW128274   3.357   2.974   5.196 -1.0178 -0.2591  2.0196
 5605SOL    HW228275   3.344   2.974   5.049 -1.2100 -1.0514 -0.3465
 5606SOL     OW28276   3.736   1.404   5.715  0.1723 -0.9492  0.4486
 5606SOL    HW128277   3.668   1.430   5.778  0.2909 -3.3403  1.5965
 5606SOL    HW228278   3.810   1.458   5.741  0.2386 -0.5617 -0.5611
 5607SOL     OW28279   0.141   1.000   6.799 -0.7187 -0.5098  0.0760
 5607SOL    HW128280   0.220   0.947   6.795 -0.9058 -0.7887  0.0285
 5607SOL    HW228281   0.143   1.043   6.713 -0.1899 -0.6824  0.0047
 5608SOL     OW28282   3.121   2.587   8.419 -0.0215 -0.1881 -0.4645
 5608SOL    HW128283   3.032   2.557   8.439  0.6004 -1.5431  0.3311
 5608SOL    HW228284   3.103   2.658   8.358 -2.4027  1.8461  2.5787
 5609SOL     OW28285   3.957   3.489   4.313 -0.5014 -0.1971  0.1636
 5609SOL    HW128286   3.965   3.417   4.250  0.9680 -0.3529  0.5294
 5609SOL    HW228287   3.886   3.534   4.269 -2.2037 -1.0104  2.0952
 5610SOL     OW28288   0.517   1.524   2.844  0.4069 -0.6364  0.2343
 5610SOL    HW128289   0.434   1.531   2.796 -0.0182 -2.3938  0.6859
 5610SOL    HW228290   0.571   1.498   2.769  0.4271 -1.9689  0.7030
 5611SOL     OW28291   2.991   3.774   8.640 -0.0651 -0.1016 -0.0281
 5611SOL    HW128292   2.901   3.745   8.624 -1.3139  3.3769  0.8362
 5611SOL    HW228293   3.035   3.697   8.603 -0.7200 -0.1723 -0.6631
 5612SOL     OW28294   3.502   0.575   6.631 -0.6987  0.4197  0.1856
 5612SOL    HW128295   3.489   0.552   6.539  0.8415 -1.5477  0.4444
 5612SOL    HW228296   3.542   0.494   6.663  0.5175  1.1627  0.5467
 5613SOL     OW28297   1.947   3.263   2.091 -0.2266  0.9892 -0.1471
 5613SOL    HW128298   1.962   3.335   2.029  1.0357  1.9280  1.2402
 5613SOL    HW228299   1.965   3.310   2.172  0.2266 -1.2190  1.0137
 5614SOL     OW28300   4.379   2.331   3.612  0.5653  0.2966  0.3302
 5614SOL    HW128301   4.400   2.347   3.704  0.6309 -0.1901  0.3987
 5614SOL    HW228302   4.362   2.417   3.572  1.7348 -0.0510 -0.9156
 5615SOL     OW28303   4.233   3.351   5.348  0.6396  0.0654 -0.3357
 5615SOL    HW128304   4.257   3.390   5.432  2.1635 -1.5970 -0.0096
 5615SOL    HW228305   4.240   3.260   5.376 -0.5170  0.0352 -0.1394
 5616SOL     OW28306   3.219   3.782   7.489 -0.0779 -0.2445 -0.5883
 5616SOL    HW128307   3.194   3.694   7.518  0.3471  0.0806  0.7599
 5616SOL    HW228308   3.208   3.759   7.397 -2.9271  1.3499 -0.6668
 5617SOL     OW28309   1.286   3.652   8.491 -0.1505 -0.4981 -0.3466
 5617SOL    HW128310   1.226   3.629   8.420 -1.4682 -0.0475  0.6358
 5617SOL    HW228311   1.245   3.600   8.559 -0.9309  2.5285  1.4806
 5618SOL     OW28312   0.721   1.242   8.553  0.1245  0.1657 -0.2124
 5618SOL    HW128313   0.714   1.317   8.611 -0.8881  0.3026 -0.5071
 5618SOL    HW228314   0.658   1.181   8.590  0.1811  1.8242  2.5587
 5619SOL     OW28315   0.267   2.556   6.931  0.5535 -0.6770 -0.4555
 5619SOL    HW128316   0.285   2.626   6.869  0.4666  0.3818  0.7200
 5619SOL    HW228317   0.255   2.484   6.869  0.1096 -2.0256  1.1991
 5620SOL     OW28318   3.680   1.229   3.662 -0.5323 -0.2025  0.5710
 5620SOL    HW128319   3.724   1.146   3.645  1.5395  0.8372  0.8848
 5620SOL    HW228320   3.760   1.272   3.694  1.8246 -3.7751 -0.4883
 5621SOL     OW28321   1.662   3.455   9.961  0.0881  0.0918  0.0878
 5621SOL    HW128322   1.602   3.380   9.963  0.5508 -0.3150 -1.1266
 5621SOL    HW228323   1.723   3.427  10.030  3.2135  3.2927 -1.4204
 5622SOL     OW28324   3.287   0.057   3.135 -0.0633 -0.3201 -0.1198
 5622SOL    HW128325   3.192   0.062   3.121 -0.2006 -3.1032 -0.0656
 5622SOL    HW228326   3.306   0.014   3.218 -1.1814  0.1973  0.4077
 5623SOL     OW28327   0.980   2.585   1.166 -0.6723 -0.1916  0.1313
 5623SOL    HW128328   0.929   2.512   1.201 -2.0266 -0.0762 -1.5752
 5623SOL    HW228329   0.954   2.578   1.074 -0.4544 -0.7735  0.1163
 5624SOL     OW28330   3.433   1.473   8.667 -0.3431  0.1711  0.0513
 5624SOL    HW128331   3.479   1.411   8.724 -2.1017 -2.4404 -1.3665
 5624SOL    HW228332   3.461   1.437   8.583 -0.2580 -0.0461  0.1713
 5625SOL     OW28333   0.161   2.020   0.552 -0.0040 -0.4125  0.5612
 5625SOL    HW128334   0.214   2.008   0.473  0.1325 -1.1992  0.7683
 5625SOL    HW228335   0.099   1.948   0.539  0.2722 -0.6517  0.5619
 5626SOL     OW28336   3.050   3.023   7.211 -0.3476 -0.2356 -0.5186
 5626SOL    HW128337   2.968   3.061   7.243 -0.9541 -0.3983 -1.8617
 5626SOL    HW228338   3.054   2.937   7.251  0.4844  0.7551  1.5398
 5627SOL     OW28339   3.428   0.253  15.162 -0.0152  1.1986  0.1062
 5627SOL    HW128340   3.358   0.189  15.172  0.8386  0.1021 -0.8175
 5627SOL    HW228341   3.399   0.326  15.215  1.6173  2.0036 -0.0961
 5628SOL     OW28342   4.209   3.425   4.431  0.0419 -0.0297 -0.4494
 5628SOL    HW128343   4.184   3.356   4.492 -0.5489  1.5369  1.0949
 5628SOL    HW228344   4.124   3.428   4.385  0.2757  0.2755 -0.8640
 5629SOL     OW28345   2.400   3.667  10.816 -0.2412  0.3343  0.5825
 5629SOL    HW128346   2.450   3.658  10.897  0.9719 -1.1513 -0.3276
 5629SOL    HW228347   2.401   3.578  10.780  0.4508  0.4013  0.4371
 5630SOL     OW28348   2.702   2.531   4.375 -0.2261 -0.0080  0.5721
 5630SOL    HW128349   2.716   2.484   4.293  0.5394  1.5751 -0.1904
 5630SOL    HW228350   2.736   2.617   4.352  1.0849 -0.6121  0.2420
 5631SOL     OW28351   1.547   0.222  11.967  0.3909  0.2876 -0.0134
 5631SOL    HW128352   1.585   0.139  11.938 -0.7842  0.1306 -1.1185
 5631SOL    HW228353   1.553   0.224  12.063 -0.2875  0.4834  0.0313
 5632SOL     OW28354   2.047   1.863   0.263  0.3506  0.2804 -0.0847
 5632SOL    HW128355   2.102   1.787   0.278 -0.4003 -0.4444 -0.9128
 5632SOL    HW228356   2.052   1.879   0.168  1.2299  2.9602  0.4274
 5633SOL     OW28357   1.678   1.001  14.095  0.0968 -0.1191  0.3972
 5633SOL    HW128358   1.615   0.997  14.023  0.1095 -0.0062  0.3790
 5633SOL    HW228359   1.632   0.994  14.179  1.3352  0.2541  1.1073
 5634SOL     OW28360   3.376   4.646   4.628 -0.9635 -0.0019 -0.0655
 5634SOL    HW128361   3.385   4.636   4.533 -0.6217  1.9656 -0.2325
 5634SOL    HW228362   3.468   4.665   4.643 -1.0219  0.5065 -0.3585
 5635SOL     OW28363   2.025   3.376   3.530 -0.4650  0.1148  0.4472
 5635SOL    HW128364   2.083   3.329   3.590  0.1859  0.2487 -0.0763
 5635SOL    HW228365   1.943   3.336   3.559 -0.4726  1.9776  2.9823
 5636SOL     OW28366   4.407   4.193   3.475 -0.7111 -0.1151 -0.0320
 5636SOL    HW128367   4.443   4.121   3.423  2.5561  1.0892  0.5575
 5636SOL    HW228368   4.348   4.239   3.416 -1.3308  0.8669  1.3356
 5637SOL     OW28369   3.950   1.355  16.290 -0.2373 -0.0247  0.4914
 5637SOL    HW128370   4.032   1.352  16.240  0.0853 -1.9497  1.1173
 5637SOL    HW228371   3.955   1.437  16.338  1.4157  0.1700  0.0186
 5638SOL     OW28372   2.032   0.753   5.839  0.3203 -0.3418 -0.3297
 5638SOL    HW128373   2.040   0.673   5.788 -3.3003  0.0226 -1.4066
 5638SOL    HW228374   2.011   0.710   5.922 -0.9003 -0.2398 -0.5948
 5639SOL     OW28375   4.593   2.965   6.947  0.3984 -0.4716 -0.2247
 5639SOL    HW128376   4.562   3.055   6.960 -1.0393 -0.9562 -0.3204
 5639SOL    HW228377   4.593   2.928   7.035  0.0345  1.6111  0.6705
 5640SOL     OW28378   3.488   4.478   3.970  0.0492 -0.0632 -0.2218
 5640SOL    HW128379   3.452   4.402   3.925  0.1575  0.3643 -1.0283
 5640SOL    HW228380   3.414   4.486   4.029  1.3383 -0.8092  1.4873
 5641SOL     OW28381   1.325   4.154  11.983  0.9226  0.5946  0.6019
 5641SOL    HW128382   1.409   4.140  11.940  1.1303 -0.2005  1.2882
 5641SOL    HW228383   1.318   4.081  12.044  0.7758 -0.6006 -0.8358
 5642SOL     OW28384   0.037   1.714   5.490 -0.3878 -0.4561 -0.3877
 5642SOL    HW128385   0.126   1.711   5.526 -0.1088  0.6920 -0.9751
 5642SOL    HW228386   0.043   1.765   5.409 -0.1810  0.1133 -0.0186
 5643SOL     OW28387   0.556   3.255   4.864  0.0873  0.4034  0.5413
 5643SOL    HW128388   0.464   3.277   4.874  0.1735  1.1386 -0.3573
 5643SOL    HW228389   0.576   3.298   4.781  0.0273 -0.5171  0.0545
 5644SOL     OW28390   2.804   0.190   4.905 -0.4011 -0.2823 -0.5750
 5644SOL    HW128391   2.786   0.096   4.909 -0.1549 -0.3080 -0.0816
 5644SOL    HW228392   2.729   0.233   4.864  0.4047 -0.7252 -2.5096
 5645SOL     OW28393   4.067   4.633   4.220 -0.2402  0.3977 -0.0882
 5645SOL    HW128394   4.072   4.660   4.128 -1.6082  0.0851 -0.2665
 5645SOL    HW228395   3.989   4.677   4.253 -0.6893 -0.5714  0.1479
 5646SOL     OW28396   2.485   1.839  10.394  0.3144  0.1321  0.4787
 5646SOL    HW128397   2.405   1.803  10.432 -0.2047  0.2959 -0.4731
 5646SOL    HW228398   2.554   1.806  10.451  0.2869  0.0222  0.4470
 5647SOL     OW28399   2.282   3.636   4.887  0.0983  0.5788  0.1760
 5647SOL    HW128400   2.247   3.663   4.972 -1.7569 -0.0203 -0.4015
 5647SOL    HW228401   2.205   3.595   4.848  1.0173  0.6758 -1.6986
 5648SOL     OW28402   3.374   4.265  16.946  1.2709 -0.0035 -0.0170
 5648SOL    HW128403   3.458   4.298  16.979  1.1876 -0.1453  0.3345
 5648SOL    HW228404   3.328   4.251  17.029  2.1867 -1.3097  0.2728
 5649SOL     OW28405   4.532   2.287   2.258 -1.1617  0.5108  0.5458
 5649SOL    HW128406   4.482   2.363   2.288  1.5851  2.0313  1.1995
 5649SOL    HW228407   4.608   2.326   2.216 -0.4454  0.1516  1.4986
 5650SOL     OW28408   1.113   3.865  17.550 -0.1728 -0.4655 -0.1880
 5650SOL    HW128409   1.107   3.771  17.534  1.3355 -0.4082 -1.0653
 5650SOL    HW228410   1.018   3.881  17.548 -0.1559 -0.3311  0.1004
 5651SOL     OW28411   3.187   2.271   0.331 -0.0562 -0.1834 -0.3218
 5651SOL    HW128412   3.185   2.361   0.299  1.0973 -0.1274 -0.2420
 5651SOL    HW228413   3.207   2.219   0.253  1.2794  2.0762 -1.4683
 5652SOL     OW28414   0.596   0.323  15.403  0.0488 -0.1325 -0.4665
 5652SOL    HW128415   0.504   0.334  15.377 -0.1216  2.0751  1.0764
 5652SOL    HW228416   0.630   0.339  15.315  1.5546  1.0597  0.3436
 5653SOL     OW28417   1.203   3.562  10.242 -0.2473  0.2203 -0.1657
 5653SOL    HW128418   1.210   3.585  10.149 -1.5189 -1.2056 -0.6050
 5653SOL    HW228419   1.116   3.600  10.256 -0.8162 -1.2266  0.1430
 5654SOL     OW28420   1.781   0.876  10.812 -0.6568  0.7636  0.9950
 5654SOL    HW128421   1.847   0.815  10.847 -0.4095  1.2805  1.4226
 5654SOL    HW228422   1.791   0.941  10.882  0.3589  0.0561  1.5245
 5655SOL     OW28423   0.904   4.292  17.016  0.0269 -0.7745  0.4182
 5655SOL    HW128424   0.963   4.219  17.036 -0.0000 -1.1360 -0.7995
 5655SOL    HW228425   0.972   4.349  16.981 -0.4288 -1.0949 -0.9981
 5656SOL     OW28426   1.110   1.087  11.603 -0.8052  0.0437  0.6090
 5656SOL    HW128427   1.141   1.122  11.687  3.3845 -2.2877  0.0411
 5656SOL    HW228428   1.017   1.112  11.604 -0.8751 -0.2047  0.2746
 5657SOL     OW28429   4.558   1.980   1.941  0.3186 -0.0928 -0.3316
 5657SOL    HW128430   4.632   1.919   1.938  0.1338 -0.2934 -0.9007
 5657SOL    HW228431   4.503   1.943   2.010  0.8262  0.0696  0.1493
 5658SOL     OW28432   3.990   4.149   4.987  0.5985 -0.5250 -0.5180
 5658SOL    HW128433   3.997   4.172   5.080  1.6335 -2.0622 -0.2012
 5658SOL    HW228434   3.894   4.147   4.983  0.5869 -0.2854 -0.3615
 5659SOL     OW28435   1.357   3.991   2.640 -0.0200 -0.1199 -0.2458
 5659SOL    HW128436   1.444   4.029   2.641  0.5180 -1.3307 -1.0630
 5659SOL    HW228437   1.308   4.070   2.663  1.3366  0.2811  1.2441
 5660SOL     OW28438   4.663   4.416  12.271 -0.5959 -0.4095 -0.2089
 5660SOL    HW128439   4.589   4.476  12.267  1.1703  1.7795 -0.5854
 5660SOL    HW228440   4.714   4.434  12.192 -1.8995 -1.1898 -1.2185
 5661SOL     OW28441   3.639   2.430   5.903  0.2973  0.5649  0.0594
 5661SOL    HW128442   3.684   2.434   5.987 -0.7896 -0.4848  0.6968
 5661SOL    HW228443   3.695   2.474   5.839  0.7805  0.3231  0.3135
 5662SOL     OW28444   3.780   1.096  15.755 -0.0588 -0.1089 -0.0736
 5662SOL    HW128445   3.812   1.155  15.824 -1.1432 -0.8232  1.0447
 5662SOL    HW228446   3.823   1.131  15.677  1.6950 -1.3118  0.3480
 5663SOL     OW28447   4.237   3.781   1.527  0.2757 -0.4600 -0.3008
 5663SOL    HW128448   4.194   3.862   1.500  1.6650  0.9180  1.6014
 5663SOL    HW228449   4.265   3.746   1.443  1.2002 -0.2597 -0.0716
 5664SOL     OW28450   3.677   3.384   0.521 -0.1464  0.5369 -0.0177
 5664SOL    HW128451   3.635   3.416   0.601  1.5874 -1.4034  1.7013
 5664SOL    HW228452   3.735   3.316   0.557  0.5618  1.3735  0.4386
 5665SOL     OW28453   3.964   2.539   4.448 -0.0510  0.2459  0.0260
 5665SOL    HW128454   3.897   2.471   4.446 -0.5161  0.7021  0.1204
 5665SOL    HW228455   3.992   2.531   4.539 -0.9030 -1.4544  0.1402
 5666SOL     OW28456   4.284   0.911  12.925  0.0239 -0.3902 -0.2465
 5666SOL    HW128457   4.213   0.898  12.988  0.7745  1.8720  1.0641
 5666SOL    HW228458   4.243   0.882  12.844 -1.4098  0.2376  0.2626
 5667SOL     OW28459   3.784   3.242  15.609 -0.1114 -0.1359 -0.3833
 5667SOL    HW128460   3.751   3.172  15.665  1.9636 -0.3448  0.5896
 5667SOL    HW228461   3.704   3.294  15.607  0.4685  0.8192  1.4664
 5668SOL     OW28462   0.914   0.178  17.041 -0.9865 -0.2092  0.4969
 5668SOL    HW128463   0.914   0.193  16.946 -1.9972  1.4012  0.7552
 5668SOL    HW228464   0.904   0.268  17.069  1.0053  0.4206 -0.8027
 5669SOL     OW28465   3.199   0.633  17.688 -0.4064  0.2054  0.1037
 5669SOL    HW128466   3.277   0.686  17.672  0.5509 -0.5426  2.2384
 5669SOL    HW228467   3.152   0.645  17.606  1.0975  0.6495 -0.6779
 5670SOL     OW28468   4.294   0.421  17.423  0.0255 -0.0964 -0.4478
 5670SOL    HW128469   4.386   0.394  17.427 -0.0623 -0.6654 -2.2533
 5670SOL    HW228470   4.244   0.367  17.484 -0.5136  0.8700 -0.0397
 5671SOL     OW28471   2.316   1.628   8.139  0.2817  0.3159 -0.1619
 5671SOL    HW128472   2.306   1.708   8.089 -0.6956  0.4998  0.3251
 5671SOL    HW228473   2.275   1.568   8.076  0.8276  1.9352 -2.0357
 5672SOL     OW28474   3.386   3.218   4.452 -0.3702  0.2313 -0.0006
 5672SOL    HW128475   3.475   3.193   4.478 -1.3884 -2.4663  0.8669
 5672SOL    HW228476   3.345   3.134   4.433 -0.6087  0.1230  0.9980
 5673SOL     OW28477   4.083   0.492   8.136  0.7032  0.2865 -0.0223
 5673SOL    HW128478   4.093   0.446   8.219  0.5132 -1.3829 -0.9252
 5673SOL    HW228479   4.061   0.580   8.167 -4.4681 -0.8087 -0.5607
 5674SOL     OW28480   2.611   2.036   6.062 -0.4680  0.4079  0.1939
 5674SOL    HW128481   2.576   2.125   6.060 -0.9382  0.1558 -2.2773
 5674SOL    HW228482   2.579   2.018   6.150 -0.3510 -1.2078 -0.0916
 5675SOL     OW28483   3.264   2.904   1.541  0.2516  0.2274 -0.0949
 5675SOL    HW128484   3.353   2.880   1.565  0.3133  0.9533  0.4099
 5675SOL    HW228485   3.271   2.974   1.476 -1.7473  0.2337 -0.3084
 5676SOL     OW28486   3.849   0.034   5.500  0.1155  0.7260 -0.0902
 5676SOL    HW128487   3.776   0.028   5.562 -1.9701 -0.5293 -2.7016
 5676SOL    HW228488   3.874   0.124   5.523 -1.3870  1.4085 -1.1803
 5677SOL     OW28489   0.814   2.878  10.727  0.6498 -0.3985 -0.0443
 5677SOL    HW128490   0.802   2.916  10.639 -0.6988 -0.9075 -0.0807
 5677SOL    HW228491   0.765   2.940  10.781 -0.4109  0.5112 -2.0175
 5678SOL     OW28492   4.325   3.295   9.188  0.3064 -0.6382 -0.5256
 5678SOL    HW128493   4.397   3.245   9.228  2.0227  0.4638 -2.2995
 5678SOL    HW228494   4.278   3.224   9.143 -1.1849 -0.8914  1.3699
 5679SOL     OW28495   1.137   1.207   5.428 -0.2958  0.2829  0.0918
 5679SOL    HW128496   1.155   1.200   5.334 -0.5244 -0.8479  0.1339
 5679SOL    HW228497   1.062   1.148   5.435  0.7385 -0.9519  0.8306
 5680SOL     OW28498   2.259   0.299   6.161  0.5009 -0.3916 -0.0492
 5680SOL    HW128499   2.200   0.265   6.229  0.2630 -1.9767 -1.0327
 5680SOL    HW228500   2.316   0.351   6.216  0.3260  0.7723 -0.9796
 5681SOL     OW28501   1.115   0.371   6.746 -0.2403  0.0852  0.2649
 5681SOL    HW128502   1.111   0.276   6.732 -0.5464  0.1782 -0.2745
 5681SOL    HW228503   1.126   0.362   6.840  1.5483  0.4318  0.0754
 5682SOL     OW28504   3.056   3.945   2.998 -0.3733  0.3127  0.0276
 5682SOL    HW128505   3.143   3.973   3.027 -0.3851  1.1939 -0.7742
 5682SOL    HW228506   3.069   3.851   2.993 -2.6140  0.2150 -4.7244
 5683SOL     OW28507   0.343   2.260   4.339  0.0100  0.0006 -0.1876
 5683SOL    HW128508   0.383   2.188   4.389  0.3736 -0.7529 -1.5690
 5683SOL    HW228509   0.396   2.263   4.259 -0.0155  2.6739 -0.0952
 5684SOL     OW28510   1.410   1.843   7.735  0.2276  0.1485  0.1325
 5684SOL    HW128511   1.495   1.804   7.718  1.2022  1.5393  1.7443
 5684SOL    HW228512   1.348   1.810   7.670 -1.2431  1.1871  1.0036
 5685SOL     OW28513   0.025   3.967  16.944 -0.1440 -0.0868  0.4443
 5685SOL    HW128514   0.073   3.957  16.862  0.8900 -0.9488  1.1434
 5685SOL    HW228515   4.664   3.948  16.908  0.7805 -0.1786 -1.7081
 5686SOL     OW28516   3.045   2.026  11.453 -0.1568  0.0564 -0.3902
 5686SOL    HW128517   3.034   2.041  11.359 -0.5183  0.1664 -0.3314
 5686SOL    HW228518   2.968   2.062  11.498  1.2030  1.9576  0.3729
 5687SOL     OW28519   3.394   3.184   2.393  0.2988 -0.2884  0.2695
 5687SOL    HW128520   3.443   3.266   2.390  0.8541 -0.6140  0.4424
 5687SOL    HW228521   3.302   3.210   2.380  0.0014 -1.4314  0.0958
 5688SOL     OW28522   0.882   2.736   2.933  1.3016  0.6267 -0.3595
 5688SOL    HW128523   0.833   2.793   2.991 -0.2287  0.9663 -1.9717
 5688SOL    HW228524   0.956   2.793   2.912  0.6612  1.7552  0.5189
 5689SOL     OW28525   4.248   3.515   9.031  0.0452  0.3845 -0.0514
 5689SOL    HW128526   4.267   3.435   9.080  1.5282 -0.0244 -1.3123
 5689SOL    HW228527   4.324   3.562   9.064 -0.2163  0.1865  0.8325
 5690SOL     OW28528   2.625   2.483   6.220 -0.2245 -0.0585  0.3253
 5690SOL    HW128529   2.637   2.515   6.130  0.3179 -0.1754  0.3530
 5690SOL    HW228530   2.578   2.555   6.262  0.0961  1.3111 -1.6554
 5691SOL     OW28531   1.807   3.190  17.069 -0.3651  0.2957  0.2953
 5691SOL    HW128532   1.770   3.256  17.010 -0.2140 -1.8585 -2.1875
 5691SOL    HW228533   1.787   3.108  17.024 -0.9341 -0.1619  1.3874
 5692SOL     OW28534   4.706   4.084   8.373  0.1832  0.9109  0.1638
 5692SOL    HW128535   4.631   4.072   8.431 -1.4167  0.4659 -1.9745
 5692SOL    HW228536   0.046   4.026   8.414 -1.2181 -1.2654 -0.6700
 5693SOL     OW28537   0.644   2.645   5.197  0.0554  0.1403 -0.1380
 5693SOL    HW128538   0.576   2.577   5.188 -0.8783  0.8091  1.7151
 5693SOL    HW228539   0.695   2.613   5.272 -0.8460 -0.7474  0.1036
 5694SOL     OW28540   2.611   2.600   7.532  0.0458  0.1928 -0.1665
 5694SOL    HW128541   2.564   2.565   7.607  0.5463  0.5873  0.3281
 5694SOL    HW228542   2.702   2.576   7.551  0.3792 -0.4130 -2.5343
 5695SOL     OW28543   4.619   0.167   3.174  0.3374 -0.2353  0.1798
 5695SOL    HW128544   4.549   0.224   3.204  0.4591  1.6886 -3.1027
 5695SOL    HW228545   4.678   0.171   3.249 -0.0738 -0.2688  0.4976
 5696SOL     OW28546   3.310   1.686   8.079 -0.5162 -0.2952 -0.1888
 5696SOL    HW128547   3.370   1.641   8.138  0.5721  0.3551 -0.8083
 5696SOL    HW228548   3.348   1.774   8.077  0.4215 -0.6793  0.9394
 5697SOL     OW28549   1.256   3.265  10.372  0.3183 -0.0761 -0.1424
 5697SOL    HW128550   1.338   3.215  10.371  1.4478  1.7909 -1.8201
 5697SOL    HW228551   1.288   3.350  10.402  2.1345 -0.5078 -0.8670
 5698SOL     OW28552   4.350   1.861   8.516 -0.1393  0.2787 -0.0298
 5698SOL    HW128553   4.411   1.788   8.502  2.4266  2.2799  0.6334
 5698SOL    HW228554   4.287   1.820   8.575  1.9801 -1.9857  0.6665
 5699SOL     OW28555   4.155   2.033   7.264 -0.6368  0.1955 -0.3947
 5699SOL    HW128556   4.189   1.995   7.183 -1.5067 -0.7741 -0.3046
 5699SOL    HW228557   4.176   1.960   7.322  0.0455 -0.1595 -1.0962
 5700SOL     OW28558   2.487   3.228   8.276 -0.2804  0.1152 -0.0027
 5700SOL    HW128559   2.508   3.320   8.286  2.2696 -0.7859  2.9825
 5700SOL    HW228560   2.443   3.218   8.361 -0.1154  0.1224  0.0826
 5701SOL     OW28561   1.297   1.443  16.699 -0.0018 -0.1248 -0.3165
 5701SOL    HW128562   1.240   1.399  16.761  0.3251 -1.0708 -0.6885
 5701SOL    HW228563   1.331   1.511  16.757 -0.9147 -0.3595  0.4876
 5702SOL     OW28564   0.460   3.345   3.528 -0.1815 -0.2422  0.1582
 5702SOL    HW128565   0.465   3.438   3.505  0.7958 -0.7114 -1.5129
 5702SOL    HW228566   0.372   3.330   3.563  0.1453  1.3435  1.6518
 5703SOL     OW28567   3.029   1.349   3.110 -0.2515  0.0958 -0.5301
 5703SOL    HW128568   2.971   1.423   3.127 -1.5957 -0.8876 -0.8740
 5703SOL    HW228569   3.063   1.330   3.197 -1.5629  0.8322  0.1440
 5704SOL     OW28570   1.024   0.754   5.629  0.2132  0.5318 -0.7005
 5704SOL    HW128571   1.041   0.670   5.586  1.0729  0.1702  0.3510
 5704SOL    HW228572   0.955   0.727   5.689 -1.9649  1.6053 -2.7134
 5705SOL     OW28573   2.814   4.674  13.048 -0.1940  0.2081  0.2705
 5705SOL    HW128574   2.865   4.711  13.120  0.3876 -1.6744  0.8231
 5705SOL    HW228575   2.868   4.595  13.037 -1.9414 -0.9096 -0.2467
 5706SOL     OW28576   1.501   0.386   8.105  0.5916 -0.8275 -0.2961
 5706SOL    HW128577   1.467   0.449   8.041 -1.4226 -2.4983 -0.8787
 5706SOL    HW228578   1.533   0.307   8.062  0.5790 -1.8413  1.5329
 5707SOL     OW28579   4.241   1.983   8.046 -0.1653  0.4615 -0.3866
 5707SOL    HW128580   4.172   2.004   8.109  0.3946  0.4511  0.2302
 5707SOL    HW228581   4.316   1.964   8.102 -0.3299 -1.8626 -0.9516
 5708SOL     OW28582   1.858   0.637   9.385  0.3080 -0.1138 -0.4030
 5708SOL    HW128583   1.831   0.559   9.434 -0.0330 -0.1652 -0.6674
 5708SOL    HW228584   1.780   0.665   9.336  1.0012  2.2818 -0.1172
 5709SOL     OW28585   0.307   4.028   1.587  0.0884 -0.1369  0.4451
 5709SOL    HW128586   0.283   3.942   1.620 -1.0077 -0.0864 -0.2424
 5709SOL    HW228587   0.224   4.067   1.558 -0.7801 -2.2066  0.1830
 5710SOL     OW28588   2.758   3.469   6.339 -0.0712  0.2594 -0.3112
 5710SOL    HW128589   2.703   3.547   6.345 -0.1389 -0.0291  2.5088
 5710SOL    HW228590   2.803   3.462   6.423 -0.1282  1.0466 -0.2150
 5711SOL     OW28591   1.031   2.657   3.452  0.4213  0.1818 -0.1032
 5711SOL    HW128592   1.088   2.724   3.413  0.4006  0.4196  0.2768
 5711SOL    HW228593   0.963   2.648   3.385  0.2940  4.5362 -0.6048
 5712SOL     OW28594   2.702   2.194   6.781 -0.3634  0.4253 -0.1228
 5712SOL    HW128595   2.624   2.245   6.761 -1.6133 -2.0495 -1.6958
 5712SOL    HW228596   2.708   2.214   6.874  3.8752 -2.9057  0.3592
 5713SOL     OW28597   3.930   4.492   8.067  0.7601 -1.2927 -0.4569
 5713SOL    HW128598   3.973   4.474   8.151  1.0684  0.1011 -0.3024
 5713SOL    HW228599   3.895   4.581   8.074  2.1955 -0.8401  0.8712
 5714SOL     OW28600   4.292   2.655  12.038  0.1612 -0.5888 -0.7685
 5714SOL    HW128601   4.273   2.572  11.994 -0.6567 -1.1558  0.6348
 5714SOL    HW228602   4.258   2.721  11.978  1.6967 -1.3937 -2.5359
 5715SOL     OW28603   1.796   3.450   9.085  0.0843 -0.6011 -0.1644
 5715SOL    HW128604   1.752   3.461   9.169  0.4382  0.9653 -0.1734
 5715SOL    HW228605   1.766   3.535   9.052  0.1827 -1.3330 -2.1419
 5716SOL     OW28606   3.283   0.450  13.167 -0.1246 -0.3222  0.2238
 5716SOL    HW128607   3.269   0.436  13.073 -0.4343 -1.5192  0.4469
 5716SOL    HW228608   3.279   0.360  13.198 -0.6149 -0.4714 -0.2785
 5717SOL     OW28609   2.596   3.411  14.600  0.5005  0.7625 -0.8778
 5717SOL    HW128610   2.690   3.399  14.593  0.5718  1.0095 -0.2698
 5717SOL    HW228611   2.588   3.436  14.692 -3.6064 -0.9565 -0.7222
 5718SOL     OW28612   0.097   3.681  10.968  0.2063 -0.2308 -0.2538
 5718SOL    HW128613   0.080   3.762  10.920  3.5540 -0.2610 -1.4942
 5718SOL    HW228614   0.063   3.712  11.052  0.3683  0.5241 -0.4665
 5719SOL     OW28615   2.704   1.153   7.442 -0.8741 -0.0360 -0.0541
 5719SOL    HW128616   2.682   1.059   7.440 -0.0988 -0.2171 -0.0051
 5719SOL    HW228617   2.614   1.180   7.422 -0.5283 -0.0154 -1.5302
 5720SOL     OW28618   0.282   0.789   6.388  0.5533  0.0359  0.8223
 5720SOL    HW128619   0.205   0.733   6.402  0.8130 -0.4345  0.3491
 5720SOL    HW228620   0.350   0.723   6.403 -0.2954 -0.8384  0.8182
 5721SOL     OW28621   2.335   1.415   1.448  0.3623 -0.0804 -0.3559
 5721SOL    HW128622   2.345   1.501   1.406  0.9267 -0.6850 -1.4845
 5721SOL    HW228623   2.334   1.438   1.540 -0.7313 -0.2291 -0.3258
 5722SOL     OW28624   4.505   3.457  17.371  0.0054 -0.4563 -0.4706
 5722SOL    HW128625   4.448   3.487  17.442  0.2210 -1.3889  0.1065
 5722SOL    HW228626   4.585   3.442  17.420 -0.0492  1.6211  0.2590
 5723SOL     OW28627   3.290   2.810  17.258  0.0618 -0.3966 -0.2636
 5723SOL    HW128628   3.232   2.752  17.209  0.1126  0.9599 -1.9436
 5723SOL    HW228629   3.265   2.777  17.344  0.3549  0.0382 -0.0149
 5724SOL     OW28630   1.440   2.270  12.161  0.5485  0.3717  0.2823
 5724SOL    HW128631   1.467   2.324  12.236  1.7319  0.9818 -0.5836
 5724SOL    HW228632   1.355   2.238  12.189  0.4856  0.4567  0.1877
 5725SOL     OW28633   0.681   0.395   4.846  0.3201 -0.1499 -0.0513
 5725SOL    HW128634   0.631   0.318   4.875  0.2103  0.4170  1.2863
 5725SOL    HW228635   0.612   0.436   4.795 -0.3194 -0.5077  0.5206
 5726SOL     OW28636   2.545   3.391  14.307  0.2537 -0.1590  0.1381
 5726SOL    HW128637   2.513   3.411  14.219 -0.0221  1.0118  0.5068
 5726SOL    HW228638   2.637   3.399  14.283  0.6045 -2.0446  0.8575
 5727SOL     OW28639   2.118   2.982  13.015  0.1388  0.6980 -0.1602
 5727SOL    HW128640   2.166   2.903  12.993  2.4688  2.4241 -1.2463
 5727SOL    HW228641   2.031   2.985  12.976 -0.4119  1.1076  1.0944
 5728SOL     OW28642   0.712   1.468  15.292 -0.2711  0.1038 -0.6671
 5728SOL    HW128643   0.621   1.451  15.271  0.6695 -4.4133 -1.1208
 5728SOL    HW228644   0.756   1.387  15.264  1.6207  0.4399  1.2716
 5729SOL     OW28645   4.448   2.056   3.769 -0.5492 -0.4287  0.2828
 5729SOL    HW128646   4.474   2.051   3.861  0.0440 -1.0247  0.0865
 5729SOL    HW228647   4.508   2.121   3.732  1.3504 -1.1699  2.0603
 5730SOL     OW28648   2.979   4.271   9.182 -0.1912 -0.1690  0.2545
 5730SOL    HW128649   3.003   4.180   9.197  0.1581 -0.1141  0.0517
 5730SOL    HW228650   3.020   4.305   9.261 -0.5810 -0.1979  0.4670
 5731SOL     OW28651   0.258   1.624   4.227 -0.4105 -0.1388  0.4395
 5731SOL    HW128652   0.350   1.612   4.253 -0.6181 -0.2924  1.1118
 5731SOL    HW228653   0.210   1.554   4.272 -0.4239  0.3402  1.1768
 5732SOL     OW28654   1.151   3.873  12.000 -0.0769  0.3636  0.0957
 5732SOL    HW128655   1.187   3.788  11.975  1.2910  0.7451  0.7139
 5732SOL    HW228656   1.198   3.887  12.083 -1.4954 -0.5427  1.0431
 5733SOL     OW28657   0.493   2.429   5.934  0.2110  0.7144 -0.2268
 5733SOL    HW128658   0.572   2.426   5.880 -0.1362  0.0523 -0.6947
 5733SOL    HW228659   0.434   2.390   5.870  0.1558 -1.2411  1.0323
 5734SOL     OW28660   1.170   2.352  10.654 -0.1187  0.0640  0.2502
 5734SOL    HW128661   1.077   2.375  10.655 -0.4724 -1.3316 -0.7922
 5734SOL    HW228662   1.190   2.327  10.564 -1.4344  1.4405 -0.4259
 5735SOL     OW28663   0.721   2.728   8.252 -0.2944  0.7063 -0.0359
 5735SOL    HW128664   0.745   2.802   8.308  0.0600 -1.1697  2.2668
 5735SOL    HW228665   0.725   2.761   8.162 -1.6875 -0.7003 -0.6087
 5736SOL     OW28666   1.781   3.952   8.795 -0.2545 -0.2285 -0.0222
 5736SOL    HW128667   1.693   3.986   8.809 -0.5205 -0.2503 -1.6278
 5736SOL    HW228668   1.756   3.881   8.736  0.2666  0.1760 -0.7351
 5737SOL     OW28669   1.321   3.685   3.735  0.4462  0.2471 -0.0072
 5737SOL    HW128670   1.268   3.764   3.737 -0.7730 -0.5965  1.3213
 5737SOL    HW228671   1.397   3.715   3.686  0.8642  0.0216  0.4989
 5738SOL     OW28672   0.194   3.994   4.915  0.2048  0.6168  0.0044
 5738SOL    HW128673   0.166   4.058   4.849 -2.1081 -1.0841 -0.6545
 5738SOL    HW228674   0.201   4.051   4.992  2.4099  1.0782 -0.5405
 5739SOL     OW28675   0.185   2.080   1.208 -0.4046 -0.3135 -0.2384
 5739SOL    HW128676   0.188   1.995   1.165  0.0357  0.0976 -1.0222
 5739SOL    HW228677   0.124   2.112   1.141 -0.2805  2.0720  0.7640
 5740SOL     OW28678   3.552   1.847   7.047  0.1973  0.0904  0.1319
 5740SOL    HW128679   3.628   1.876   7.097  1.5838  1.1644 -2.5786
 5740SOL    HW228680   3.586   1.786   6.981  1.3534  0.0265  0.8041
 5741SOL     OW28681   0.046   3.776   4.870  0.3816 -0.3862 -0.2703
 5741SOL    HW128682   0.107   3.849   4.884 -1.4209  0.7838  1.3358
 5741SOL    HW228683   0.051   3.722   4.948  0.0500  0.3574  0.2587
 5742SOL     OW28684   3.756   0.072  16.858 -0.0508  0.2308  0.5089
 5742SOL    HW128685   3.674   0.024  16.862  0.4493 -0.5712  1.0529
 5742SOL    HW228686   3.725   0.161  16.839  0.7278  0.3309 -0.2839
 5743SOL     OW28687   3.828   2.208  12.517 -0.2040  0.1773 -0.5528
 5743SOL    HW128688   3.877   2.235  12.439 -1.5313  0.0429 -1.4449
 5743SOL    HW228689   3.742   2.248  12.502  1.4301  3.6531 -0.6870
 5744SOL     OW28690   4.685   3.872   4.395 -0.2069  0.4014 -0.1148
 5744SOL    HW128691   4.685   3.968   4.400 -2.0368  0.3538  0.8368
 5744SOL    HW228692   4.619   3.855   4.328  0.5117 -1.9853 -0.2045
 5745SOL     OW28693   0.470   4.550   2.516  0.4418 -0.2233  0.1645
 5745SOL    HW128694   0.561   4.523   2.524  1.0512  1.7497  0.0495
 5745SOL    HW228695   0.444   4.566   2.607 -0.8089  0.4210 -0.2969
 5746SOL     OW28696   2.482   1.421   4.236 -0.3617 -0.6939 -0.3853
 5746SOL    HW128697   2.474   1.507   4.276  0.7252  0.1998 -2.1024
 5746SOL    HW228698   2.444   1.364   4.304  1.2338 -1.4398 -0.1280
 5747SOL     OW28699   2.947   3.314  10.170  0.1512 -0.0296  0.7854
 5747SOL    HW128700   3.034   3.272  10.168 -0.9552 -2.2762 -0.2759
 5747SOL    HW228701   2.909   3.256  10.236  0.1646 -1.1801 -0.2016
 5748SOL     OW28702   4.569   4.085  10.858 -0.1243 -0.1554  0.1705
 5748SOL    HW128703   4.611   4.142  10.923  1.1562  0.2575 -1.0216
 5748SOL    HW228704   4.502   4.046  10.914  0.1347 -0.5838  0.1802
 5749SOL     OW28705   0.962   1.583   6.347 -0.0375  0.0611 -0.2628
 5749SOL    HW128706   0.946   1.624   6.432 -1.2731  1.2701 -1.0808
 5749SOL    HW228707   1.052   1.548   6.345  0.3844  1.0688  0.8711
 5750SOL     OW28708   1.972   1.941   3.430  0.1524 -0.1465  0.0700
 5750SOL    HW128709   1.972   1.877   3.359 -1.8116 -0.4234  0.3129
 5750SOL    HW228710   1.920   1.892   3.495  0.6897  1.5718  1.7970
 5751SOL     OW28711   3.539   3.045   9.331  0.1192  0.5619 -0.0152
 5751SOL    HW128712   3.534   2.999   9.415 -1.7748 -2.0585 -1.5735
 5751SOL    HW228713   3.633   3.045   9.314 -0.3205  0.7748 -2.3803
 5752SOL     OW28714   0.052   4.543   4.366 -0.3339 -0.8064  0.5870
 5752SOL    HW128715   0.110   4.618   4.352 -0.9517 -0.6392 -1.0129
 5752SOL    HW228716   0.053   4.500   4.281 -1.8804  1.0722 -0.3780
 5753SOL     OW28717   1.603   0.564   6.497  0.1453  0.4944 -0.0381
 5753SOL    HW128718   1.611   0.532   6.407 -1.2631 -0.8958  0.3286
 5753SOL    HW228719   1.661   0.513   6.554  0.9130  1.7575  0.3146
 5754SOL     OW28720   3.295   1.681  16.990  0.1902 -0.9216  0.3985
 5754SOL    HW128721   3.250   1.596  16.995  0.7782 -1.0630  3.2871
 5754SOL    HW228722   3.383   1.648  16.975  0.2812 -0.4871  0.0038
 5755SOL     OW28723   3.723   3.486   2.620 -0.7542 -0.4531  0.2043
 5755SOL    HW128724   3.677   3.549   2.565  1.7106  0.8144 -0.4227
 5755SOL    HW228725   3.815   3.512   2.616 -0.2482 -2.1369  0.7516
 5756SOL     OW28726   1.483   1.957  12.511  0.2547 -0.1217 -0.2284
 5756SOL    HW128727   1.564   1.999  12.480  0.5237  0.8085  1.7484
 5756SOL    HW228728   1.481   1.993  12.599  0.6088  0.8528 -0.6155
 5757SOL     OW28729   1.142   1.809  16.547  0.6985 -0.2874  0.6649
 5757SOL    HW128730   1.121   1.901  16.565  2.3236  0.4761 -1.3220
 5757SOL    HW228731   1.116   1.778  16.633  0.0701  0.8036  0.8681
 5758SOL     OW28732   2.204   3.798   2.484  0.0545  0.1742 -0.4222
 5758SOL    HW128733   2.132   3.775   2.425 -1.7149  0.5369  1.5857
 5758SOL    HW228734   2.223   3.885   2.448 -1.4679  0.9366  0.6221
 5759SOL     OW28735   1.603   0.557   2.207  0.1946  0.1372 -0.2895
 5759SOL    HW128736   1.627   0.500   2.134  0.0158  1.4960 -1.3991
 5759SOL    HW228737   1.526   0.505   2.226 -1.0074  1.6665 -0.9719
 5760SOL     OW28738   0.251   0.699   4.420 -0.0276  0.1360 -0.0109
 5760SOL    HW128739   0.193   0.775   4.421 -0.5387 -0.2848  2.6349
 5760SOL    HW228740   0.182   0.637   4.396 -1.5683  2.1663 -0.8686
 5761SOL     OW28741   4.253   4.693   7.654  0.1467 -0.2919  0.6087
 5761SOL    HW128742   4.316   4.679   7.584 -1.4225  0.9084 -1.0447
 5761SOL    HW228743   4.283   4.638   7.727 -0.1280 -1.2778 -0.0258
 5762SOL     OW28744   4.422   1.493   4.285 -0.0282  0.6866  0.5186
 5762SOL    HW128745   4.508   1.534   4.272 -0.7381  1.3600 -2.0608
 5762SOL    HW228746   4.399   1.489   4.378 -1.8738 -0.0931  0.0313
 5763SOL     OW28747   4.270   1.885  10.274 -0.1405  0.9764  0.5636
 5763SOL    HW128748   4.225   1.901  10.357 -0.2270  1.5838  0.3978
 5763SOL    HW228749   4.214   1.940  10.219 -0.7777 -0.2021  0.0337
 5764SOL     OW28750   3.179   4.717   6.592 -0.0680  0.2960 -0.2492
 5764SOL    HW128751   3.109   4.673   6.641  0.7984 -0.3996  0.3496
 5764SOL    HW228752   3.125   0.005   6.514  0.1451 -0.0816 -0.4520
 5765SOL     OW28753   1.706   2.415   6.042 -0.0935  0.8639  0.0203
 5765SOL    HW128754   1.703   2.348   6.110 -1.2601  2.6333  1.7509
 5765SOL    HW228755   1.757   2.475   6.096  0.6777 -0.6076  0.9163
 5766SOL     OW28756   3.864   1.398   6.808  0.2462  0.5888 -0.2326
 5766SOL    HW128757   3.906   1.312   6.812  0.1079  0.4182 -3.0022
 5766SOL    HW228758   3.928   1.462   6.838 -0.3204  0.2389  1.7765
 5767SOL     OW28759   3.077   2.372   6.328 -0.5325 -0.0629  0.0400
 5767SOL    HW128760   3.150   2.393   6.270 -0.5993 -1.0641 -0.4141
 5767SOL    HW228761   3.012   2.425   6.283  0.6280  2.7028  1.6571
 5768SOL     OW28762   1.760   3.420   5.486  0.4561 -0.1294 -0.1392
 5768SOL    HW128763   1.698   3.374   5.430  0.0621  0.2031  0.0215
 5768SOL    HW228764   1.791   3.344   5.535 -0.9467 -1.8551 -1.9260
 5769SOL     OW28765   2.474   2.348   6.851 -0.1274  0.2943 -0.6861
 5769SOL    HW128766   2.482   2.318   6.942  0.2693 -0.0297 -0.8229
 5769SOL    HW228767   2.379   2.352   6.843 -0.2772  0.6303  1.2514
 5770SOL     OW28768   0.433   1.856   2.767  0.5176 -0.3270  0.4620
 5770SOL    HW128769   0.450   1.782   2.709  1.5287 -0.6486  1.1827
 5770SOL    HW228770   0.510   1.913   2.765 -0.6633  1.2629  0.0512
 5771SOL     OW28771   1.953   3.150   9.117 -0.3050 -0.8055 -0.2895
 5771SOL    HW128772   1.949   3.111   9.204  0.1953 -0.9712 -0.3369
 5771SOL    HW228773   1.893   3.224   9.122 -1.4238 -1.6091 -1.6730
 5772SOL     OW28774   1.653   3.022  16.920 -0.5216 -0.3469 -0.0509
 5772SOL    HW128775   1.610   2.937  16.931 -3.3150  1.0419 -0.1879
 5772SOL    HW228776   1.575   3.074  16.899 -2.7230 -3.5470  0.1994
 5773SOL     OW28777   3.713   0.788  14.468  0.3349  0.4220  0.2543
 5773SOL    HW128778   3.740   0.817  14.380  0.8794 -0.0861  0.2574
 5773SOL    HW228779   3.621   0.764  14.453 -0.1245  2.7719 -0.6858
 5774SOL     OW28780   2.929   1.824   1.885  0.4719 -0.1796 -0.4716
 5774SOL    HW128781   2.848   1.873   1.899 -1.0501 -2.6278 -0.6803
 5774SOL    HW228782   2.962   1.811   1.974  0.2181 -0.1833 -0.3781
 5775SOL     OW28783   2.074   2.120  16.755 -0.1678 -1.0126  0.0819
 5775SOL    HW128784   2.086   2.057  16.684 -0.1012 -0.0899 -0.7178
 5775SOL    HW228785   1.986   2.152  16.738  0.1793  0.6743  1.4886
 5776SOL     OW28786   0.029   1.563   8.148  0.1787 -0.6927  0.4934
 5776SOL    HW128787   0.098   1.599   8.092 -1.3453 -1.2805 -1.7693
 5776SOL    HW228788   0.067   1.477   8.162  2.7778  0.3492 -0.2329
 5777SOL     OW28789   4.604   3.193   7.294 -0.2443 -0.1542 -0.0907
 5777SOL    HW128790   4.673   3.239   7.342 -2.0241  2.3551  0.0704
 5777SOL    HW228791   4.531   3.254   7.288  0.1758  0.3405 -0.1260
 5778SOL     OW28792   2.382   2.236   7.068  0.4615  0.0557  0.0078
 5778SOL    HW128793   2.364   2.144   7.050 -0.0097 -0.4583  3.1288
 5778SOL    HW228794   2.371   2.233   7.163  0.3979 -0.3026 -0.0088
 5779SOL     OW28795   1.437   4.631  14.448 -0.4598  0.5067  1.1090
 5779SOL    HW128796   1.397   4.712  14.479 -2.4354 -0.1770  0.3684
 5779SOL    HW228797   1.391   4.562  14.497 -1.2114 -0.4886 -0.9980
 5780SOL     OW28798   0.496   2.353  17.201 -0.3914 -0.1409 -0.0215
 5780SOL    HW128799   0.552   2.356  17.123 -1.3196  1.7546 -0.5994
 5780SOL    HW228800   0.414   2.335  17.156 -0.7585 -0.5217  0.8139
 5781SOL     OW28801   0.725   1.236  16.108  0.3112 -0.0331  0.0053
 5781SOL    HW128802   0.781   1.187  16.047  0.2578  0.1887 -0.2220
 5781SOL    HW228803   0.654   1.172  16.118 -0.9353  1.3755  0.0617
 5782SOL     OW28804   4.458   1.077   4.832 -0.5542  0.3375 -0.0318
 5782SOL    HW128805   4.434   1.141   4.765  0.8963 -0.9070 -1.7374
 5782SOL    HW228806   4.551   1.055   4.827 -0.2333  1.4024  1.1936
 5783SOL     OW28807   0.474   1.164   2.594  0.0308  0.2874  0.0014
 5783SOL    HW128808   0.389   1.197   2.566  0.7183  0.8788 -1.3965
 5783SOL    HW228809   0.496   1.101   2.525 -0.0549 -1.2928  1.3959
 5784SOL     OW28810   1.537   0.253   9.864 -0.1435 -0.2752 -0.0844
 5784SOL    HW128811   1.576   0.200   9.934 -0.1208 -0.7447 -0.4486
 5784SOL    HW228812   1.591   0.332   9.857  1.8613 -1.5975  0.2901
 5785SOL     OW28813   3.186   0.730   3.102  0.1748 -0.2821 -0.1867
 5785SOL    HW128814   3.275   0.708   3.132  0.1109 -0.1011  0.1391
 5785SOL    HW228815   3.155   0.644   3.073  2.1717 -0.3808 -2.0245
 5786SOL     OW28816   0.913   2.353   9.714 -0.6406  0.2577 -0.5012
 5786SOL    HW128817   1.001   2.320   9.692 -0.7389 -1.8786  2.4345
 5786SOL    HW228818   0.855   2.277   9.706  0.7450 -0.6533 -1.9300
 5787SOL     OW28819   2.463   0.166   1.951  0.4022 -0.0970 -0.1197
 5787SOL    HW128820   2.392   0.211   1.905  0.4318 -0.5150 -0.5754
 5787SOL    HW228821   2.532   0.220   1.913  0.5560 -0.2781 -0.0978
 5788SOL     OW28822   1.243   0.914   5.655 -0.6406 -0.5303  0.0342
 5788SOL    HW128823   1.161   0.877   5.687  0.3478 -3.2587 -0.5898
 5788SOL    HW228824   1.240   0.880   5.566 -0.6876 -0.4960  0.0231
 5789SOL     OW28825   0.434   2.712  11.540 -0.6551 -0.4446 -0.1874
 5789SOL    HW128826   0.414   2.800  11.508 -0.6949  0.5191  2.5696
 5789SOL    HW228827   0.418   2.726  11.633  0.2896 -0.2794 -0.0541
 5790SOL     OW28828   4.494   4.055   6.633  0.6202 -0.1377 -0.6993
 5790SOL    HW128829   4.502   3.978   6.688 -3.0070 -0.4914 -0.6775
 5790SOL    HW228830   4.444   4.021   6.559  1.2017  0.1951 -1.2523
 5791SOL     OW28831   2.604   4.635   7.579  0.5110 -0.3416 -0.0602
 5791SOL    HW128832   2.672   4.688   7.620  0.3317 -0.5589  0.5076
 5791SOL    HW228833   2.647   4.549   7.581 -0.3218 -0.7558 -0.0806
 5792SOL     OW28834   0.433   4.381  17.329  0.2114  0.3977  0.5842
 5792SOL    HW128835   0.451   4.344  17.416  0.7415 -1.3979 -0.2940
 5792SOL    HW228836   0.502   4.344  17.274  1.6358  1.6984  1.4933
 5793SOL     OW28837   0.306   1.851  15.942  0.6259  0.1337 -0.3114
 5793SOL    HW128838   0.329   1.928  15.889 -1.0513  0.6345 -0.2962
 5793SOL    HW228839   0.325   1.872  16.033 -2.5727 -0.8878  0.5949
 5794SOL     OW28840   1.357   4.663  17.008 -0.2541  0.1246 -0.4666
 5794SOL    HW128841   1.419   4.606  17.053 -1.8500 -1.2887 -0.0251
 5794SOL    HW228842   1.379   0.015  17.060 -0.9368  1.2021 -1.7712
 5795SOL     OW28843   1.337   3.208   6.627  0.4521  0.3126 -0.2640
 5795SOL    HW128844   1.418   3.157   6.631  0.3704  0.2971  1.2347
 5795SOL    HW228845   1.357   3.276   6.691 -1.1924  1.2811 -0.7755
 5796SOL     OW28846   3.794   3.764  16.797 -0.3392  0.0597 -0.3312
 5796SOL    HW128847   3.758   3.692  16.849  1.9811 -2.0039 -1.5794
 5796SOL    HW228848   3.884   3.772  16.830 -1.0036 -0.9065  1.7326
 5797SOL     OW28849   0.942   1.650   9.422  0.8020  0.5144  0.3170
 5797SOL    HW128850   0.972   1.623   9.509 -1.0119 -1.4737  0.3066
 5797SOL    HW228851   1.019   1.635   9.366  1.5131  0.2462  1.3677
 5798SOL     OW28852   3.224   0.519   9.848 -0.5986  0.1601  0.4756
 5798SOL    HW128853   3.183   0.495   9.765  1.3227  1.1721 -0.7742
 5798SOL    HW228854   3.168   0.481   9.916 -0.4133  1.9565  1.6322
 5799SOL     OW28855   1.897   1.143   7.629 -0.0364  0.7399  0.6481
 5799SOL    HW128856   1.848   1.221   7.600  0.9927  1.0729 -0.1745
 5799SOL    HW228857   1.860   1.141   7.717 -1.1674 -0.7737  0.1408
 5800SOL     OW28858   3.829   3.476   6.092 -0.7575 -0.3261 -0.4537
 5800SOL    HW128859   3.860   3.564   6.115 -0.9179 -0.1743 -0.8173
 5800SOL    HW228860   3.740   3.494   6.060 -0.7781 -2.1429 -1.4298
 5801SOL     OW28861   0.364   0.130   1.592 -0.1934  0.5313 -0.0998
 5801SOL    HW128862   0.428   0.098   1.528 -0.3280 -1.4282  0.7408
 5801SOL    HW228863   0.385   0.223   1.585 -1.5066  0.7314 -1.3343
 5802SOL     OW28864   3.873   2.044   4.340 -1.1264  0.1740 -0.6819
 5802SOL    HW128865   3.903   2.119   4.289 -1.6835  0.6797 -0.2605
 5802SOL    HW228866   3.824   1.989   4.279 -3.6390 -1.5396  2.8431
 5803SOL     OW28867   1.942   2.353   1.221 -0.1775 -0.7538  0.2103
 5803SOL    HW128868   2.005   2.404   1.272 -0.4727 -0.7918  0.6185
 5803SOL    HW228869   1.865   2.383   1.270 -0.0454  0.2982 -0.2212
 5804SOL     OW28870   4.333   3.148  11.492 -0.1039 -0.0980 -0.5418
 5804SOL    HW128871   4.390   3.114  11.423  0.1646 -2.1416  0.6731
 5804SOL    HW228872   4.370   3.097  11.564  0.2348  1.3259  0.2953
 5805SOL     OW28873   2.334   2.579   1.261  0.0734  0.6381  0.1143
 5805SOL    HW128874   2.332   2.484   1.276 -1.9715  0.5891 -0.4743
 5805SOL    HW228875   2.390   2.614   1.330  1.1690  1.2786 -1.1104
 5806SOL     OW28876   3.597   2.023   5.425 -0.4217 -0.3276 -0.2467
 5806SOL    HW128877   3.619   1.946   5.477 -0.5773 -0.5146 -0.4580
 5806SOL    HW228878   3.545   1.980   5.357 -0.5012  0.3245 -0.6004
 5807SOL     OW28879   2.662   2.844   3.577  0.1749 -0.0509 -0.4457
 5807SOL    HW128880   2.721   2.918   3.588 -0.2207  0.0095  1.2065
 5807SOL    HW228881   2.589   2.877   3.628  0.1909  1.2608 -1.2843
 5808SOL     OW28882   4.385   1.656  11.795  0.2353 -0.1943 -0.0982
 5808SOL    HW128883   4.299   1.629  11.827  0.5760  0.0102  0.9939
 5808SOL    HW228884   4.366   1.644  11.702 -0.9135  2.5238 -0.2241
 5809SOL     OW28885   2.796   2.848  13.820 -0.1448  0.4674  0.6144
 5809SOL    HW128886   2.796   2.762  13.778  0.0927  0.3875  0.7824
 5809SOL    HW228887   2.787   2.898  13.738  1.4899  2.0554  1.4128
 5810SOL     OW28888   3.645   0.435   2.858  0.5217  0.2532  0.0651
 5810SOL    HW128889   3.675   0.404   2.943 -1.9163 -2.2142  0.0408
 5810SOL    HW228890   3.575   0.499   2.873  0.1678 -0.2267  0.4822
 5811SOL     OW28891   3.694   0.429   8.580  0.0740 -0.2954  0.4691
 5811SOL    HW128892   3.664   0.380   8.503 -3.0219  0.8348  1.0034
 5811SOL    HW228893   3.694   0.520   8.549  0.9794 -0.7367 -0.8440
 5812SOL     OW28894   0.846   2.892   8.447 -0.2197  0.4595  0.2213
 5812SOL    HW128895   0.867   2.814   8.500  0.0322 -0.2927 -0.9796
 5812SOL    HW228896   0.800   2.944   8.512 -0.5403 -0.3570  0.6495
 5813SOL     OW28897   1.624   4.295   8.575 -0.2487 -0.0157  0.4858
 5813SOL    HW128898   1.646   4.328   8.662 -0.1848 -3.4450  1.7445
 5813SOL    HW228899   1.573   4.216   8.594 -2.3461  0.6371 -2.4317
 5814SOL     OW28900   2.926   2.376   3.063 -0.0136 -0.5301  0.1600
 5814SOL    HW128901   2.936   2.292   3.109  0.9419  2.1380  4.8376
 5814SOL    HW228902   3.019   2.375   3.041 -0.3300 -3.2207 -1.0760
 5815SOL     OW28903   4.404   1.232   5.353 -0.5550 -0.0234  0.4060
 5815SOL    HW128904   4.435   1.180   5.279 -1.6729 -0.7693  0.4621
 5815SOL    HW228905   4.414   1.319   5.314  0.0283 -0.4005 -0.2931
 5816SOL     OW28906   0.607   0.571   9.581 -0.2268 -0.1493 -0.2688
 5816SOL    HW128907   0.685   0.561   9.527  0.0310  1.0995 -0.1356
 5816SOL    HW228908   0.594   0.480   9.608  1.8127 -0.9586 -2.0413
 5817SOL     OW28909   3.628   1.662   9.050  0.5314  0.2383 -0.0569
 5817SOL    HW128910   3.577   1.627   9.123 -0.2276 -0.5936 -0.9821
 5817SOL    HW228911   3.679   1.584   9.031  0.4262  0.6126 -1.9121
 5818SOL     OW28912   4.336   3.294   6.380 -0.3116 -0.3422  0.7823
 5818SOL    HW128913   4.421   3.335   6.396  0.0772 -1.3286  1.2400
 5818SOL    HW228914   4.290   3.366   6.337  0.5722  0.1930  0.7477
 5819SOL     OW28915   0.711   3.059   0.657  0.1229  0.3131 -0.3513
 5819SOL    HW128916   0.758   3.025   0.581  0.8368 -2.5740  1.3939
 5819SOL    HW228917   0.757   3.141   0.678 -0.8440  0.1717  2.3867
 5820SOL     OW28918   0.191   0.943   8.181 -0.3890  0.3685  0.2202
 5820SOL    HW128919   0.159   0.942   8.091  0.5200  1.4638 -0.1175
 5820SOL    HW228920   0.283   0.916   8.177 -0.1852  1.0437  0.3355
 5821SOL     OW28921   3.504   1.908   9.386 -0.4729  0.1337  0.5488
 5821SOL    HW128922   3.495   1.883   9.478 -1.6167 -4.8222 -0.8611
 5821SOL    HW228923   3.575   1.848   9.365 -2.0685 -1.5302 -0.1740
 5822SOL     OW28924   4.718   1.007   4.809 -0.5305 -0.0858  0.9063
 5822SOL    HW128925   4.705   0.912   4.807  0.4448 -0.2691  2.9054
 5822SOL    HW228926   0.084   1.012   4.837 -0.4556  2.2423  0.2654
 5823SOL     OW28927   1.360   3.571   5.901  0.4134 -0.3246 -0.4500
 5823SOL    HW128928   1.295   3.584   5.970 -0.7278 -3.6372 -0.8879
 5823SOL    HW228929   1.313   3.516   5.838  1.1533 -2.3150  0.7198
 5824SOL     OW28930   1.532   4.631   2.471 -0.1756 -0.0634 -0.1774
 5824SOL    HW128931   1.614   4.678   2.489  0.9011 -2.0219  0.0773
 5824SOL    HW228932   1.467   4.699   2.458 -0.1445  0.3658  2.0286
 5825SOL     OW28933   0.996   0.368  16.293  0.5869 -0.6531  0.2158
 5825SOL    HW128934   1.027   0.449  16.333  0.2859  0.7064 -2.2886
 5825SOL    HW228935   0.974   0.419  16.215  1.2051  0.3738  0.7182
 5826SOL     OW28936   1.744   4.034   5.101  0.3076 -0.0562 -0.2542
 5826SOL    HW128937   1.807   4.101   5.075  0.4399  0.5777  1.6626
 5826SOL    HW228938   1.792   3.988   5.171 -3.1422 -0.6172  1.7370
 5827SOL     OW28939   2.820   3.140   7.775 -0.5192 -0.6335  0.1004
 5827SOL    HW128940   2.760   3.167   7.845 -1.1008  0.9611 -1.0267
 5827SOL    HW228941   2.799   3.047   7.772 -0.4114 -0.6501 -0.0881
 5828SOL     OW28942   3.976   1.462   5.856  0.5116  0.3592  0.0260
 5828SOL    HW128943   4.025   1.521   5.798  0.3476 -0.3746 -0.8665
 5828SOL    HW228944   4.042   1.400   5.887 -0.6640  0.4043  2.6133
 5829SOL     OW28945   0.806   0.751   1.574  0.4705 -0.1590  0.1730
 5829SOL    HW128946   0.842   0.732   1.660 -0.2496 -1.9679  0.0590
 5829SOL    HW228947   0.804   0.665   1.532 -0.3340 -1.6128  3.1986
 5830SOL     OW28948   4.026   3.339  15.046 -0.5080  0.0830  0.3048
 5830SOL    HW128949   4.025   3.308  15.137  4.6164  3.4252  1.5274
 5830SOL    HW228950   3.940   3.305  15.023 -0.3983  0.7449 -1.0932
 5831SOL     OW28951   3.464   4.689   7.464  0.4755 -0.0570  0.4069
 5831SOL    HW128952   3.389   0.015   7.494  0.1097 -0.2590 -0.1825
 5831SOL    HW228953   3.441   4.675   7.373  1.3624 -1.1546  0.3443
 5832SOL     OW28954   0.303   4.700   0.171  0.3791 -0.4512  0.2811
 5832SOL    HW128955   0.262   4.625   0.129 -0.5079 -1.2737  2.5864
 5832SOL    HW228956   0.227   0.032   0.159 -0.8513 -2.0369  0.5577
 5833SOL     OW28957   1.285   4.218  15.658 -0.3951  0.4590 -0.0237
 5833SOL    HW128958   1.243   4.154  15.600 -1.7433  1.3322 -0.0152
 5833SOL    HW228959   1.216   4.249  15.717 -1.6263 -1.3749 -0.5197
 5834SOL     OW28960   3.151   0.156   1.998  0.0365  0.3466  0.3765
 5834SOL    HW128961   3.085   0.116   2.055  0.8814  2.0466  2.5502
 5834SOL    HW228962   3.229   0.115   2.035  0.2224 -0.5339 -0.9981
 5835SOL     OW28963   3.953   4.134  12.858  0.7374  0.4183  0.4741
 5835SOL    HW128964   3.859   4.136  12.878  0.4955  0.0455 -0.6395
 5835SOL    HW228965   3.976   4.042  12.849  0.6834  0.4101  0.4261
 5836SOL     OW28966   3.200   2.158   2.169 -0.1156 -0.6838 -0.4045
 5836SOL    HW128967   3.267   2.223   2.192  0.9544 -2.1712  0.6544
 5836SOL    HW228968   3.117   2.206   2.171  1.2529  1.7358 -1.4728
 5837SOL     OW28969   2.947   2.366   2.107  0.3390  0.7344 -0.4642
 5837SOL    HW128970   2.899   2.434   2.060 -0.3658 -0.5164 -1.5562
 5837SOL    HW228971   3.030   2.415   2.112  1.4103 -1.1811  0.4796
 5838SOL     OW28972   0.297   1.514  12.544 -0.5861  0.0109  0.0082
 5838SOL    HW128973   0.237   1.588  12.539  0.2382  0.4606 -3.0849
 5838SOL    HW228974   0.321   1.502  12.452  0.0101 -1.8025  0.3936
 5839SOL     OW28975   2.274   0.544   2.521  0.3615  0.6569 -0.8388
 5839SOL    HW128976   2.258   0.503   2.436  1.7917  1.4032 -1.4706
 5839SOL    HW228977   2.196   0.600   2.520  0.3713  0.7212  1.0712
 5840SOL     OW28978   4.038   2.098   4.767 -0.1162 -0.3534 -0.4027
 5840SOL    HW128979   3.989   2.120   4.846 -0.4580  0.1906 -0.7727
 5840SOL    HW228980   4.096   2.024   4.787 -0.6396 -0.0835  2.1489
 5841SOL     OW28981   2.812   1.842   2.504  0.0305 -0.1204 -1.1064
 5841SOL    HW128982   2.753   1.885   2.566  1.0477  0.6811 -0.6827
 5841SOL    HW228983   2.816   1.916   2.444 -2.6381  2.7693  2.3081
 5842SOL     OW28984   1.628   0.251   9.384 -0.1606 -0.8523  0.3091
 5842SOL    HW128985   1.595   0.337   9.358  1.4611 -1.0242 -2.3060
 5842SOL    HW228986   1.607   0.186   9.317  1.2820 -0.9579 -0.0461
 5843SOL     OW28987   3.900   1.484  17.370 -0.4224 -0.2690 -0.9315
 5843SOL    HW128988   3.990   1.502  17.343 -0.0769  0.1352  0.5066
 5843SOL    HW228989   3.858   1.570  17.357  3.1944  1.9600  2.1655
 5844SOL     OW28990   3.517   2.765   7.687  0.6954 -0.0136 -0.8163
 5844SOL    HW128991   3.560   2.735   7.607  1.3017  0.0696 -0.5230
 5844SOL    HW228992   3.549   2.855   7.689  1.3158 -0.2041 -2.4629
 5845SOL     OW28993   3.508   3.662   2.569 -0.4700 -0.4573  0.3324
 5845SOL    HW128994   3.521   3.643   2.662  1.5431  0.4878  0.2661
 5845SOL    HW228995   3.434   3.721   2.581  0.3123  0.6765 -0.3195
 5846SOL     OW28996   4.236   1.419   3.756  0.0192  0.0492 -0.1961
 5846SOL    HW128997   4.216   1.509   3.781  2.1793  0.3131  0.6118
 5846SOL    HW228998   4.289   1.394   3.832 -1.0922 -0.0343  0.5530
 5847SOL     OW28999   3.244   0.964   8.280  0.3904 -0.3459  0.0567
 5847SOL    HW129000   3.176   0.911   8.324 -2.3112  1.4004 -2.0395
 5847SOL    HW229001   3.208   1.047   8.250 -1.4129 -1.1065  0.1096
 5848SOL     OW29002   4.032   1.968  10.153  0.1252  0.2512  0.0426
 5848SOL    HW129003   3.976   2.027  10.204  1.6594  0.9094  0.9773
 5848SOL    HW229004   3.993   1.975  10.066 -2.2542 -0.7622  1.0504
 5849SOL     OW29005   3.796   4.547   8.569  0.3320  0.2836  0.7583
 5849SOL    HW129006   3.836   4.620   8.617  0.6413  1.4652 -1.3073
 5849SOL    HW229007   3.813   4.477   8.632 -3.3730 -0.5172  0.8607
 5850SOL     OW29008   3.709   0.876   4.920  0.1819  0.3448  0.4290
 5850SOL    HW129009   3.792   0.905   4.882  0.8739  0.0697  1.7314
 5850SOL    HW229010   3.708   0.893   5.014  2.3521  2.1383  0.1320
 5851SOL     OW29011   1.856   3.227  15.433 -0.1560  0.6303  0.6424
 5851SOL    HW129012   1.784   3.168  15.451 -0.0870  0.8428  1.5983
 5851SOL    HW229013   1.819   3.309  15.399 -0.2704  0.7147  0.9779
 5852SOL     OW29014   2.621   4.129   2.671 -0.0860 -0.0530  0.2465
 5852SOL    HW129015   2.582   4.193   2.732  1.3808 -0.4192  1.5518
 5852SOL    HW229016   2.594   4.169   2.588 -0.0214  1.6061  1.0086
 5853SOL     OW29017   3.346   4.593   5.534 -0.1158 -0.2060 -0.1697
 5853SOL    HW129018   3.332   4.657   5.603 -1.5802 -1.2266  0.4824
 5853SOL    HW229019   3.267   4.604   5.481  0.7732 -3.0186 -2.0859
 5854SOL     OW29020   3.904   4.641   4.545  0.6392  0.7217  0.3453
 5854SOL    HW129021   3.901   4.711   4.480  0.8454  1.3081  0.9603
 5854SOL    HW229022   3.993   4.662   4.573  0.7207 -0.6215  1.1070
 5855SOL     OW29023   2.148   0.187  13.136  0.3000  0.1294  0.4240
 5855SOL    HW129024   2.164   0.108  13.189  0.9009 -0.1190 -0.1270
 5855SOL    HW229025   2.233   0.183  13.093  0.3613  0.0459  0.5521
 5856SOL     OW29026   0.367   2.655   4.318  0.4004 -0.3670  0.3644
 5856SOL    HW129027   0.334   2.634   4.231 -1.4809  0.2557  0.9302
 5856SOL    HW229028   0.450   2.607   4.325  0.0997 -1.1217 -1.2749
 5857SOL     OW29029   3.685   1.055   0.690 -0.2352 -0.0791  0.6027
 5857SOL    HW129030   3.609   1.088   0.738 -0.5152  1.9739 -1.2787
 5857SOL    HW229031   3.742   1.127   0.719 -1.0734  0.7930  0.0782
 5858SOL     OW29032   1.089   2.136   7.446  0.2971  0.3007 -0.4406
 5858SOL    HW129033   0.993   2.132   7.444  0.3325 -1.4229  1.3505
 5858SOL    HW229034   1.099   2.206   7.381  3.2783  2.7066  2.6078
 5859SOL     OW29035   2.115   4.209  12.824  0.4548  0.3810 -0.4626
 5859SOL    HW129036   2.152   4.147  12.886  0.4259  2.4062  1.5832
 5859SOL    HW229037   2.162   4.290  12.846  1.3582 -0.0161 -0.9241
 5860SOL     OW29038   1.877   4.210   6.860 -0.4034  0.2427 -0.1311
 5860SOL    HW129039   1.901   4.138   6.918  1.2835  0.7650 -0.2027
 5860SOL    HW229040   1.876   4.157   6.781 -2.2764  0.3675 -0.1918
 5861SOL     OW29041   4.362   0.211   4.435 -0.0976  0.0385 -0.0212
 5861SOL    HW129042   4.271   0.230   4.413  0.1032  0.3470 -0.5734
 5861SOL    HW229043   4.339   0.124   4.468  1.0633  0.4967  1.9604
 5862SOL     OW29044   0.203   0.101   8.155 -0.2450  0.5223  0.7909
 5862SOL    HW129045   0.142   0.175   8.146  1.1640  1.6648  0.5321
 5862SOL    HW229046   0.285   0.144   8.128 -0.3836 -1.0942 -2.1981
 5863SOL     OW29047   4.476   3.886  10.254  0.1311 -0.0312 -0.3010
 5863SOL    HW129048   4.552   3.944  10.259 -0.6763  1.3787 -4.2776
 5863SOL    HW229049   4.444   3.898  10.343  1.2971 -0.0743  0.1146
 5864SOL     OW29050   2.099   2.438   5.008  0.0815 -0.3919  0.0647
 5864SOL    HW129051   2.150   2.493   4.948 -1.0135  0.1599 -0.3637
 5864SOL    HW229052   2.013   2.467   4.979  0.4793  2.7413  1.9783
 5865SOL     OW29053   2.374   4.495   8.201  0.3767 -0.1256 -0.5936
 5865SOL    HW129054   2.328   4.431   8.146 -3.4127  0.1440  2.3125
 5865SOL    HW229055   2.345   4.455   8.282 -2.0084  0.4586 -1.1491
 5866SOL     OW29056   1.091   1.149  12.693  0.3469  0.1496  0.4590
 5866SOL    HW129057   1.097   1.213  12.763  1.4879  0.3258  0.1987
 5866SOL    HW229058   1.184   1.128  12.683 -0.3079 -3.1459  1.2571
 5867SOL     OW29059   4.393   2.411   4.796 -0.8508 -0.1057 -0.6689
 5867SOL    HW129060   4.450   2.469   4.745 -3.0325  1.5014 -1.2538
 5867SOL    HW229061   4.306   2.435   4.765 -1.1730 -0.1095  0.2295
 5868SOL     OW29062   3.336   2.414   8.422  0.1220 -0.3426 -0.2467
 5868SOL    HW129063   3.260   2.473   8.426  0.0425 -0.5465  1.2054
 5868SOL    HW229064   3.282   2.335   8.416  0.4629 -0.6107  0.2770
 5869SOL     OW29065   2.197   0.446   9.001 -0.8011  0.0744  0.1556
 5869SOL    HW129066   2.140   0.405   9.066 -0.1953  1.1913  1.3680
 5869SOL    HW229067   2.202   0.538   9.028  1.6774 -0.0371  0.0692
 5870SOL     OW29068   1.949   4.231   9.017 -0.3455 -0.2250  0.0290
 5870SOL    HW129069   1.899   4.245   9.098  0.7338 -0.9363  0.8088
 5870SOL    HW229070   2.039   4.226   9.050  0.2023  3.7109 -0.8815
 5871SOL     OW29071   4.362   3.306   3.112  0.0528 -0.6288 -0.3187
 5871SOL    HW129072   4.415   3.374   3.070 -1.2721 -0.3655 -1.5444
 5871SOL    HW229073   4.278   3.349   3.131  0.3994  0.0268 -0.2832
 5872SOL     OW29074   1.193   3.073   8.999  0.0843  0.3273 -0.5799
 5872SOL    HW129075   1.164   3.162   9.014  0.6581  0.6483 -1.3954
 5872SOL    HW229076   1.115   3.019   9.013  1.1735 -1.0153  0.4573
 5873SOL     OW29077   1.551   0.592  13.204 -0.3924 -0.0122 -0.2525
 5873SOL    HW129078   1.636   0.570  13.166 -0.7003 -2.8935  0.7276
 5873SOL    HW229079   1.575   0.670  13.254 -3.0358  0.6391  0.0037
 5874SOL     OW29080   4.655   2.595  17.290 -0.0571 -0.2590  0.0855
 5874SOL    HW129081   4.669   2.667  17.352 -0.0734  1.4871 -1.9277
 5874SOL    HW229082   4.673   2.639  17.207  0.3345 -0.0077  0.3037
 5875SOL     OW29083   2.833   3.654   5.017  0.2640 -0.0311 -0.1992
 5875SOL    HW129084   2.912   3.631   4.969 -1.5203 -1.0458 -2.6778
 5875SOL    HW229085   2.849   3.609   5.100 -0.0279 -1.9342 -1.1624
 5876SOL     OW29086   0.894   3.854  16.943  0.0082  0.1823 -0.0716
 5876SOL    HW129087   0.936   3.912  17.006  1.0774  0.3420 -0.9270
 5876SOL    HW229088   0.821   3.907  16.909 -0.5581 -1.7823 -1.9632
 5877SOL     OW29089   3.086   3.820  17.660  0.0456 -0.1886 -0.5058
 5877SOL    HW129090   3.032   3.750  17.623 -2.0282  0.9275  0.4244
 5877SOL    HW229091   3.118   3.780   0.040 -0.0942  0.3633 -0.1787
 5878SOL     OW29092   0.607   1.053   4.143  0.4615  0.0592  0.2926
 5878SOL    HW129093   0.612   1.067   4.049 -0.6458 -0.2277  0.1927
 5878SOL    HW229094   0.585   0.960   4.144  1.4196 -0.1746  0.2423
 5879SOL     OW29095   1.530   0.550   9.804 -0.6464 -0.0418 -1.0330
 5879SOL    HW129096   1.509   0.543   9.897  0.8411  0.7356 -0.6410
 5879SOL    HW229097   1.625   0.544   9.808 -0.5893  0.9336 -0.9656
 5880SOL     OW29098   2.856   3.559   6.108  0.1728 -0.6681  0.0706
 5880SOL    HW129099   2.778   3.528   6.062  0.1230  0.5135 -0.6366
 5880SOL    HW229100   2.843   3.529   6.198  0.1281  0.1221  0.3232
 5881SOL     OW29101   0.753   0.892   4.696  0.0690  0.0740 -0.1968
 5881SOL    HW129102   0.820   0.838   4.654 -0.6669 -1.5742  0.7619
 5881SOL    HW229103   0.783   0.874   4.785  1.1082 -0.7186 -0.7051
 5882SOL     OW29104   0.049   3.563   7.641  0.5364  0.2737 -0.1363
 5882SOL    HW129105   0.071   3.568   7.735  2.2959  0.0251 -0.5326
 5882SOL    HW229106   0.049   3.469   7.627 -0.7540  0.3908 -0.9207
 5883SOL     OW29107   1.011   0.130   5.142  0.1741 -0.5382 -0.1098
 5883SOL    HW129108   0.984   0.068   5.074  0.3381  0.2524 -0.9006
 5883SOL    HW229109   0.930   0.180   5.153 -0.7885 -1.2389 -3.7495
 5884SOL     OW29110   2.090   4.555   8.939  0.2073 -0.1158 -0.2319
 5884SOL    HW129111   2.131   4.552   9.026  1.6105 -0.2318 -0.8879
 5884SOL    HW229112   2.003   4.585   8.965  0.3299  2.7726 -3.2087
 5885SOL     OW29113   4.522   1.397   7.408 -0.1990  0.7877  0.7904
 5885SOL    HW129114   4.543   1.451   7.485  2.5281  1.3835 -0.3801
 5885SOL    HW229115   4.587   1.327   7.407 -0.3823  0.6382 -1.0712
 5886SOL     OW29116   2.524   2.949   4.405 -0.1355  0.3470  0.2746
 5886SOL    HW129117   2.434   2.947   4.436  0.4865 -0.4513  2.0392
 5886SOL    HW229118   2.514   2.993   4.321  1.7476  1.0360  0.4149
 5887SOL     OW29119   1.959   0.352  14.421 -0.2789 -0.2369 -0.3006
 5887SOL    HW129120   2.053   0.333  14.411 -0.0248  1.0003 -0.1721
 5887SOL    HW229121   1.975   0.415  14.491 -1.4846 -1.6398  1.2359
 5888SOL     OW29122   4.296   0.404   3.912 -0.1411 -0.5085 -0.1401
 5888SOL    HW129123   4.292   0.488   3.957  1.6733 -0.1711 -0.6054
 5888SOL    HW229124   4.366   0.358   3.958 -0.3405  1.0584  1.7381
 5889SOL     OW29125   0.978   4.654   7.373 -0.4309  0.2849 -0.2341
 5889SOL    HW129126   1.007   4.564   7.388 -0.3461  0.5138  0.9522
 5889SOL    HW229127   1.060   4.703   7.363 -1.1688  0.7716 -4.1732
 5890SOL     OW29128   3.894   2.124  15.182  0.3692  0.2817  0.6135
 5890SOL    HW129129   3.863   2.167  15.261 -1.3381 -1.9807  1.1833
 5890SOL    HW229130   3.984   2.154  15.167 -0.2067  0.9877 -1.4899
 5891SOL     OW29131   4.021   3.326   5.989  0.2173  0.1533  0.4877
 5891SOL    HW129132   3.954   3.388   6.016 -2.4631 -2.1724 -0.8226
 5891SOL    HW229133   3.977   3.244   6.009 -2.5090  1.7070  0.8248
 5892SOL     OW29134   0.929   0.046  14.232 -0.4992  0.2197  0.5485
 5892SOL    HW129135   0.843   0.030  14.193 -1.5947  0.0744  3.0222
 5892SOL    HW229136   0.953   0.126  14.185 -0.0986 -0.0715  0.2644
 5893SOL     OW29137   1.390   4.426   0.611 -0.1558 -0.2479 -0.1444
 5893SOL    HW129138   1.443   4.474   0.675  0.9818 -2.0333  0.2392
 5893SOL    HW229139   1.325   4.493   0.589 -0.0355 -0.1924 -0.3291
 5894SOL     OW29140   4.162   0.193  10.310 -0.2320 -0.1581  0.3106
 5894SOL    HW129141   4.254   0.168  10.310 -0.7343 -2.0389 -2.6267
 5894SOL    HW229142   4.113   0.122  10.354 -0.6087 -0.2493 -0.2549
 5895SOL     OW29143   2.753   4.313  13.699  0.7811  0.1610  0.3954
 5895SOL    HW129144   2.742   4.296  13.606 -1.1265  2.3085  0.2227
 5895SOL    HW229145   2.679   4.265  13.737  1.4937  0.5296  2.2503
 5896SOL     OW29146   4.102   1.541   9.871  0.0747 -0.1495 -0.8131
 5896SOL    HW129147   4.134   1.631   9.883 -0.9000 -0.1028  1.5856
 5896SOL    HW229148   4.080   1.515   9.961 -1.8902  0.1053 -1.2216
 5897SOL     OW29149   4.568   3.811   2.362  0.4610 -0.5175  0.2361
 5897SOL    HW129150   4.540   3.898   2.334 -1.3496 -1.2485 -0.2607
 5897SOL    HW229151   4.610   3.789   2.278  0.0233 -1.0141  0.1448
 5898SOL     OW29152   0.514   3.925   2.559  0.2197  0.4821 -0.4005
 5898SOL    HW129153   0.525   4.013   2.593  0.6533  0.2234  0.1183
 5898SOL    HW229154   0.564   3.930   2.477  3.3562  0.5870  1.5422
 5899SOL     OW29155   4.581   1.448   2.782 -0.2708 -0.0512 -0.5211
 5899SOL    HW129156   4.604   1.355   2.775  1.5303  0.3223  0.4900
 5899SOL    HW229157   4.513   1.467   2.718  0.3055  0.8151 -0.8745
 5900SOL     OW29158   2.480   3.666   2.001  0.0160 -0.0832  0.2349
 5900SOL    HW129159   2.427   3.634   1.928  0.2736 -2.0741  0.9381
 5900SOL    HW229160   2.516   3.592   2.050 -1.9022 -0.4372  1.1305
 5901SOL     OW29161   4.388   1.489  10.605 -0.2623  0.2579  0.1522
 5901SOL    HW129162   4.395   1.539  10.686  3.6745 -0.4344  0.2357
 5901SOL    HW229163   4.440   1.548  10.549 -2.1790  1.8354  0.0410
 5902SOL     OW29164   4.028   3.807   8.586  0.0453  0.7439 -0.3002
 5902SOL    HW129165   4.032   3.725   8.636  1.6636  1.4545  0.7395
 5902SOL    HW229166   4.119   3.812   8.555  0.4783 -0.7907  0.7190
 5903SOL     OW29167   2.546   3.488   8.233  0.6322 -0.4685 -0.2217
 5903SOL    HW129168   2.469   3.531   8.197  1.2889  1.1427  0.2978
 5903SOL    HW229169   2.606   3.562   8.228  2.2569 -1.8043 -0.6967
 5904SOL     OW29170   1.095   0.211   4.779 -0.3630 -0.3131 -0.3949
 5904SOL    HW129171   1.050   0.128   4.763 -1.0588 -0.0581  0.2492
 5904SOL    HW229172   1.149   0.205   4.858  1.5323 -1.7111 -1.8131
 5905SOL     OW29173   0.432   0.379   2.225 -0.0958  0.9781  0.4548
 5905SOL    HW129174   0.362   0.407   2.284  1.3326  2.6912  1.3215
 5905SOL    HW229175   0.384   0.314   2.174  1.1720 -0.7196  1.4200
 5906SOL     OW29176   4.076   2.849   7.442 -0.0011 -0.5143  0.5173
 5906SOL    HW129177   4.133   2.911   7.395 -1.0839 -0.2592 -0.4486
 5906SOL    HW229178   4.081   2.769   7.390 -1.8714  0.3086 -0.9381
 5907SOL     OW29179   3.082   0.882   9.788 -0.5486 -0.4598 -0.0309
 5907SOL    HW129180   3.154   0.823   9.808 -0.8773 -0.7095  0.4115
 5907SOL    HW229181   3.096   0.929   9.706  2.5844 -2.1345 -0.4146
 5908SOL     OW29182   0.245   4.200  14.942  0.4121  0.4033  0.7226
 5908SOL    HW129183   0.282   4.181  14.856 -1.7404  0.4331 -0.2215
 5908SOL    HW229184   0.192   4.121  14.951  0.7208  0.1526  0.3148
 5909SOL     OW29185   2.147   0.186   2.959  0.4704  0.1967  0.0077
 5909SOL    HW129186   2.081   0.182   3.028  0.9187 -0.0363  0.4231
 5909SOL    HW229187   2.169   0.093   2.967  0.7875  0.3562  0.9638
 5910SOL     OW29188   4.317   4.409  15.859 -0.2343 -0.0922 -0.1351
 5910SOL    HW129189   4.294   4.327  15.901 -0.4908 -0.3899 -0.8526
 5910SOL    HW229190   4.247   4.416  15.794  0.1471 -2.7995 -0.8257
 5911SOL     OW29191   4.560   0.443   1.993  0.4479 -0.2506  0.2792
 5911SOL    HW129192   4.467   0.446   1.970  0.3036  0.8950  0.9891
 5911SOL    HW229193   4.592   0.408   1.910 -0.2306 -0.9849  0.3311
 5912SOL     OW29194   0.611   0.665   8.487 -0.2267 -0.3073  0.0261
 5912SOL    HW129195   0.598   0.718   8.566 -1.6820 -1.1414  0.3538
 5912SOL    HW229196   0.618   0.575   8.518 -3.8170 -0.8465 -0.7171
 5913SOL     OW29197   3.352   0.744   2.458  0.3936  0.0095  0.0347
 5913SOL    HW129198   3.323   0.704   2.376  0.8175  0.3156 -0.2619
 5913SOL    HW229199   3.425   0.795   2.424 -0.1446 -0.3346 -1.6387
 5914SOL     OW29200   2.845   1.599  17.561 -0.2847 -0.1523  0.1577
 5914SOL    HW129201   2.871   1.668  17.500 -1.6097  1.1174  1.0230
 5914SOL    HW229202   2.924   1.545  17.558  0.1919  0.5016  1.3068
 5915SOL     OW29203   2.985   4.142   4.630  0.3728  0.0322  0.7115
 5915SOL    HW129204   2.923   4.144   4.703  0.1043  1.3793  0.4499
 5915SOL    HW229205   2.928   4.097   4.568 -0.4174  2.1403 -0.0897
 5916SOL     OW29206   3.165   4.255   3.593  0.1025 -0.1824  0.3018
 5916SOL    HW129207   3.073   4.246   3.567 -0.1208  2.1823  0.2231
 5916SOL    HW229208   3.165   4.174   3.643  0.3998  0.0676  0.7067
 5917SOL     OW29209   2.311   4.248  15.690 -0.4925 -0.3692  0.2713
 5917SOL    HW129210   2.224   4.213  15.672 -0.3939 -1.1047  1.2099
 5917SOL    HW229211   2.312   4.306  15.614  2.0484 -0.7972 -0.0214
 5918SOL     OW29212   4.713   4.137  15.417 -0.0678 -0.0903 -0.0552
 5918SOL    HW129213   0.022   4.088  15.342  1.3787  0.2683  0.3752
 5918SOL    HW229214   4.637   4.083  15.438  0.6844 -0.5470  1.4484
 5919SOL     OW29215   4.272   4.392  13.103 -0.1013 -0.9133 -0.2408
 5919SOL    HW129216   4.286   4.327  13.034  0.3786 -0.9665 -0.0961
 5919SOL    HW229217   4.228   4.459  13.051  1.3371  2.1515  2.5277
 5920SOL     OW29218   1.796   2.567  10.314 -0.4125 -0.4283  0.1097
 5920SOL    HW129219   1.770   2.490  10.365  0.8426  0.3648  1.9129
 5920SOL    HW229220   1.845   2.621  10.375  0.6955 -1.0365 -0.2466
 5921SOL     OW29221   0.865   3.532   6.000 -0.2043  0.0344 -0.0165
 5921SOL    HW129222   0.797   3.466   5.983 -0.7294 -0.0083  2.1820
 5921SOL    HW229223   0.882   3.569   5.914  1.1041 -0.1526  0.1721
 5922SOL     OW29224   4.266   2.249   1.767 -0.4155  0.0389  0.0500
 5922SOL    HW129225   4.262   2.263   1.862  1.0302 -0.4049  0.1734
 5922SOL    HW229226   4.333   2.312   1.741 -0.4167  0.2374  0.5175
 5923SOL     OW29227   1.298   3.145  10.900  0.1409  0.2442 -0.7959
 5923SOL    HW129228   1.341   3.149  10.985 -0.5449  1.9381 -0.5278
 5923SOL    HW229229   1.376   3.148  10.845  2.0545 -3.6570  1.7597
 5924SOL     OW29230   2.613   0.752   8.680  0.2336 -0.1785  0.4027
 5924SOL    HW129231   2.601   0.847   8.675  1.3335  0.0399  2.0988
 5924SOL    HW229232   2.693   0.752   8.732  0.7987 -1.1669 -0.4683
 5925SOL     OW29233   1.568   2.024   9.491 -0.1733 -0.3373 -0.8146
 5925SOL    HW129234   1.615   1.964   9.434 -0.4451  2.3956 -3.8932
 5925SOL    HW229235   1.591   2.110   9.456 -2.3504  0.9295  0.8679
 5926SOL     OW29236   3.765   0.880  14.924  0.2888  0.3432 -0.5519
 5926SOL    HW129237   3.846   0.919  14.957  0.7468  1.2432 -2.7242
 5926SOL    HW229238   3.695   0.942  14.946  0.5696 -0.0092  1.4078
 5927SOL     OW29239   1.640   0.219   6.144  0.1099 -0.3532  0.0941
 5927SOL    HW129240   1.606   0.149   6.201  1.3542 -1.9336 -1.0920
 5927SOL    HW229241   1.578   0.211   6.071 -0.2971 -0.7394  0.4808
 5928SOL     OW29242   1.299   1.924  16.308 -0.4446 -0.0498 -0.0046
 5928SOL    HW129243   1.250   1.884  16.379 -1.0322 -0.4993 -0.6650
 5928SOL    HW229244   1.385   1.949  16.343 -0.9625  0.9621  0.5590
 5929SOL     OW29245   0.622   3.233   7.268  0.8763  0.2778 -0.7317
 5929SOL    HW129246   0.618   3.137   7.275  1.1039  0.3810  0.8454
 5929SOL    HW229247   0.659   3.252   7.354  1.6948  0.5763 -1.1477
 5930SOL     OW29248   0.905   1.068   4.382  0.4652 -0.2998 -0.1897
 5930SOL    HW129249   0.903   0.991   4.325 -2.8882 -0.7528  0.5399
 5930SOL    HW229250   0.968   1.056   4.453  1.8286 -0.2347 -1.3752
 5931SOL     OW29251   3.359   0.205   2.470 -0.0178 -0.2595 -0.4185
 5931SOL    HW129252   3.414   0.251   2.533  0.3490 -0.6645 -0.4448
 5931SOL    HW229253   3.378   0.114   2.492 -0.0746 -0.5479 -1.5534
 5932SOL     OW29254   4.147   0.174   9.153 -0.4688  0.2696  0.1784
 5932SOL    HW129255   4.210   0.140   9.217 -0.5746  0.1263  0.2072
 5932SOL    HW229256   4.074   0.178   9.216 -1.3419 -0.8699 -0.7624
 5933SOL     OW29257   3.727   4.284   2.005 -0.1154  0.0519  0.8322
 5933SOL    HW129258   3.722   4.237   1.922 -0.2129 -0.0483  0.8956
 5933SOL    HW229259   3.782   4.359   1.983  0.9548 -0.6853  0.9529
 5934SOL     OW29260   1.055   3.095  10.268  0.0289 -0.4294  0.4012
 5934SOL    HW129261   1.115   3.022  10.253  1.9891  0.9338  1.5926
 5934SOL    HW229262   1.107   3.169  10.300 -1.0442 -0.4852  2.2365
 5935SOL     OW29263   4.526   1.786   4.355 -0.6566 -0.3243 -0.0184
 5935SOL    HW129264   4.560   1.874   4.373  1.7358 -1.0898 -0.8191
 5935SOL    HW229265   4.606   1.733   4.357 -1.9540 -2.2423  0.5286
 5936SOL     OW29266   3.869   1.447  10.352 -0.2949 -0.3425  0.0630
 5936SOL    HW129267   3.893   1.522  10.297  0.8273  0.6432  1.8776
 5936SOL    HW229268   3.837   1.382  10.289  2.6578 -0.2964 -1.5027
 5937SOL     OW29269   0.378   3.663   0.867  0.6478  0.1744 -0.2349
 5937SOL    HW129270   0.292   3.704   0.880 -1.1801 -3.1205 -1.8125
 5937SOL    HW229271   0.367   3.623   0.781  0.3350  0.4087 -0.3048
 5938SOL     OW29272   3.066   2.867   5.158  0.1118  0.1576 -0.1075
 5938SOL    HW129273   3.046   2.924   5.083 -3.9548 -0.5328  0.4389
 5938SOL    HW229274   3.150   2.909   5.176  0.6601 -0.4687 -1.2493
 5939SOL     OW29275   0.360   3.682   8.673 -0.7118 -0.1139  0.2254
 5939SOL    HW129276   0.448   3.677   8.710 -0.9055 -0.4015  0.6443
 5939SOL    HW229277   0.374   3.706   8.581  2.4085  0.3194  0.8295
 5940SOL     OW29278   2.234   4.164   4.644 -0.3626 -0.0793 -1.1537
 5940SOL    HW129279   2.186   4.082   4.641 -0.5170 -0.0565  0.2693
 5940SOL    HW229280   2.176   4.235   4.618 -0.6801 -0.6721 -2.0459
 5941SOL     OW29281   2.481   4.228   8.116  0.1654  0.2471 -0.4685
 5941SOL    HW129282   2.460   4.135   8.122 -0.7274  0.4244 -0.8672
 5941SOL    HW229283   2.486   4.263   8.205  0.6485  0.8125 -0.7177
 5942SOL     OW29284   4.611   3.849   6.177 -0.3494 -0.1279  0.2790
 5942SOL    HW129285   4.572   3.930   6.144  0.0177 -0.8419 -1.8703
 5942SOL    HW229286   4.656   3.880   6.256 -0.2391  0.6665 -0.0977
 5943SOL     OW29287   2.449   2.913   4.752  0.5273 -0.0318 -0.1881
 5943SOL    HW129288   2.537   2.875   4.748  0.2162 -0.2934 -4.4440
 5943SOL    HW229289   2.455   2.958   4.836 -2.7145 -1.7114  0.9507
 5944SOL     OW29290   4.164   4.485   5.800 -0.7859 -0.2359  0.0408
 5944SOL    HW129291   4.072   4.484   5.826 -1.1342 -0.2557 -1.1554
 5944SOL    HW229292   4.172   4.575   5.768 -2.3676  0.0604  0.5202
 5945SOL     OW29293   0.593   1.090   6.979  0.8496 -0.4835 -0.6156
 5945SOL    HW129294   0.514   1.061   7.025  0.9759  0.5320  0.2282
 5945SOL    HW229295   0.653   1.116   7.049  0.2959  0.7004 -0.5876
 5946SOL     OW29296   1.542   2.104   5.807  0.1236 -0.6814 -0.4979
 5946SOL    HW129297   1.605   2.176   5.815  1.2973 -1.6305 -1.3046
 5946SOL    HW229298   1.466   2.134   5.857 -0.5034 -0.5796 -1.5266
 5947SOL     OW29299   4.102   0.979   5.208  0.7472  0.4216 -0.4307
 5947SOL    HW129300   4.156   1.051   5.242  1.0952  0.3002 -0.7420
 5947SOL    HW229301   4.084   1.020   5.124  3.6837  3.1605  0.2878
 5948SOL     OW29302   1.722   4.026   5.424  0.3582 -0.2116  1.2490
 5948SOL    HW129303   1.704   3.933   5.415  1.2104 -0.3363  0.8077
 5948SOL    HW229304   1.655   4.059   5.483 -1.9179  1.8469 -2.4481
 5949SOL     OW29305   0.026   3.655   6.803 -0.0524 -0.4451 -0.7668
 5949SOL    HW129306   0.104   3.601   6.793  2.3472  2.3205  3.2096
 5949SOL    HW229307   0.059   3.743   6.816  0.4888 -0.6830 -0.5457
 5950SOL     OW29308   2.640   2.360   7.897 -0.2367  0.0972  0.2997
 5950SOL    HW129309   2.634   2.266   7.879  1.9689  0.6560 -3.3731
 5950SOL    HW229310   2.730   2.377   7.925 -0.3630  0.8906  0.2112
 5951SOL     OW29311   3.984   4.473   7.800 -0.1925  0.1118 -0.3321
 5951SOL    HW129312   4.001   4.380   7.814  1.4198  0.4362 -0.1244
 5951SOL    HW229313   3.974   4.495   7.892  1.7978 -0.1402 -0.0555
 5952SOL     OW29314   2.109   0.506   4.267  0.5494 -0.5135  0.0275
 5952SOL    HW129315   2.146   0.594   4.271  0.1959 -0.3554 -0.2715
 5952SOL    HW229316   2.182   0.449   4.242  0.0510 -0.1991 -2.1643
 5953SOL     OW29317   2.019   4.723   4.059 -0.2565 -0.3162  0.8989
 5953SOL    HW129318   1.992   0.087   4.084  0.2474  0.1757 -0.2855
 5953SOL    HW229319   1.959   4.711   3.985 -1.7980 -0.0749  2.1032
 5954SOL     OW29320   2.444   0.977   2.576  0.7593  0.2846  0.4649
 5954SOL    HW129321   2.402   1.004   2.493  1.3023  2.6763  0.9708
 5954SOL    HW229322   2.534   0.979   2.543 -1.0289 -1.6017 -4.6814
 5955SOL     OW29323   3.191   0.568   7.363 -0.0680 -0.3810  0.0694
 5955SOL    HW129324   3.199   0.473   7.359  0.9668 -0.2742 -0.4518
 5955SOL    HW229325   3.269   0.592   7.412 -0.0824  0.0621 -0.1220
 5956SOL     OW29326   2.160   0.602  12.347 -0.1793 -0.5351 -0.6326
 5956SOL    HW129327   2.210   0.540  12.399  1.2482  0.9299 -0.2549
 5956SOL    HW229328   2.176   0.556  12.265  2.4870 -1.3154  0.3352
 5957SOL     OW29329   4.304   1.631   2.106  0.2231  0.0248 -0.3388
 5957SOL    HW129330   4.273   1.554   2.154 -2.0429  1.3829  0.3864
 5957SOL    HW229331   4.358   1.600   2.034 -1.7522 -1.5973 -1.0955
 5958SOL     OW29332   1.917   0.016   8.449  0.0039  0.4705  0.2811
 5958SOL    HW129333   1.906   0.074   8.374 -3.8745 -0.5651  0.0578
 5958SOL    HW229334   1.995   4.693   8.420 -0.5780 -0.0861 -0.3610
 5959SOL     OW29335   4.491   0.220  15.066  0.0827  0.8347  0.0868
 5959SOL    HW129336   4.556   0.251  15.004  1.1135 -1.8749 -0.1881
 5959SOL    HW229337   4.545   0.203  15.143 -1.2801 -2.7349  0.2493
 5960SOL     OW29338   1.280   3.282   0.634 -0.2633 -0.3174 -0.5181
 5960SOL    HW129339   1.247   3.218   0.696  0.9518 -1.6519 -1.2448
 5960SOL    HW229340   1.271   3.350   0.701 -0.0964 -1.1619  0.3616
 5961SOL     OW29341   1.114   0.091   5.569  0.0858  0.0838 -0.1251
 5961SOL    HW129342   1.082   0.121   5.654 -1.4185 -0.1359 -0.6184
 5961SOL    HW229343   1.114   0.166   5.510  2.6004 -0.0575 -0.3020
 5962SOL     OW29344   3.155   4.157   4.170 -0.1406  0.1746 -0.2481
 5962SOL    HW129345   3.169   4.062   4.165 -1.2051  0.0110 -0.1490
 5962SOL    HW229346   3.154   4.173   4.264  0.5576 -1.9126  0.1270
 5963SOL     OW29347   1.618   2.997   9.213 -0.2270  1.0185  0.1286
 5963SOL    HW129348   1.571   3.078   9.231 -0.3424  0.6953  1.2495
 5963SOL    HW229349   1.655   3.008   9.125 -1.5274 -1.4793 -0.7461
 5964SOL     OW29350   1.693   2.070   5.170 -0.1908  0.1571 -0.0562
 5964SOL    HW129351   1.692   2.107   5.258 -0.3970  2.1388 -0.8905
 5964SOL    HW229352   1.599   2.059   5.159 -0.6908  0.5677  3.8149
 5965SOL     OW29353   3.042   4.363   1.286  0.2515  0.9125 -0.1472
 5965SOL    HW129354   3.128   4.395   1.312  0.0894  0.2382  1.2032
 5965SOL    HW229355   3.040   4.414   1.204  1.3197  1.5440  0.2255
 5966SOL     OW29356   3.384   0.874  15.432  0.0469 -0.0054 -0.7257
 5966SOL    HW129357   3.326   0.858  15.358 -1.2913 -0.1952  0.3503
 5966SOL    HW229358   3.339   0.817  15.495  1.7965  0.5322  1.0304
 5967SOL     OW29359   0.874   3.013   7.101 -0.2129 -0.1275 -0.0952
 5967SOL    HW129360   0.954   2.997   7.050 -0.2143  3.1986 -1.1142
 5967SOL    HW229361   0.854   3.104   7.079 -0.7311 -0.6568 -1.8221
 5968SOL     OW29362   1.399   1.035  11.429 -0.0899  0.1366  0.8945
 5968SOL    HW129363   1.389   0.971  11.499 -2.4984 -2.6121 -1.9506
 5968SOL    HW229364   1.307   1.056  11.415  0.4566  1.1922 -1.1111
 5969SOL     OW29365   1.539   4.130   2.421  0.8946 -0.1806  0.1795
 5969SOL    HW129366   1.549   4.220   2.388  1.2831 -0.7205 -1.1547
 5969SOL    HW229367   1.455   4.146   2.464 -0.0938 -0.8331 -1.5102
 5970SOL     OW29368   0.813   2.161   7.385  0.1995  0.4724  0.1891
 5970SOL    HW129369   0.726   2.160   7.426 -0.3556  0.9659 -0.9853
 5970SOL    HW229370   0.802   2.235   7.326  0.4714 -0.4228 -0.9940
 5971SOL     OW29371   4.140   1.113   4.518 -0.2974  0.1587 -0.4960
 5971SOL    HW129372   4.137   1.067   4.434  0.2788 -0.5411 -0.1331
 5971SOL    HW229373   4.230   1.142   4.527 -0.4043 -0.4618  2.5419
 5972SOL     OW29374   0.869   3.943   6.382 -0.2524  0.5322  0.3072
 5972SOL    HW129375   0.861   3.938   6.477 -1.5721  0.0500  0.1601
 5972SOL    HW229376   0.930   3.871   6.365 -2.6695 -1.4201 -0.1012
 5973SOL     OW29377   3.879   0.542   4.803 -0.1196  0.8015 -0.2552
 5973SOL    HW129378   3.872   0.572   4.893 -0.7935 -1.4162  0.4389
 5973SOL    HW229379   3.898   0.448   4.801  0.6162  0.8980  3.1333
 5974SOL     OW29380   2.279   2.897   1.281 -0.0932 -0.0990  0.2502
 5974SOL    HW129381   2.308   2.931   1.197 -1.4805 -0.5436 -0.4044
 5974SOL    HW229382   2.216   2.966   1.301  0.5502  0.0094  1.9480
 5975SOL     OW29383   3.751   0.564  15.744 -0.3845 -0.3089  0.1994
 5975SOL    HW129384   3.721   0.610  15.822  0.9631 -0.3997  0.7641
 5975SOL    HW229385   3.740   0.636  15.682 -0.0303 -0.5402 -0.1350
 5976SOL     OW29386   3.354   3.878   4.493  0.3070 -0.0459 -0.6805
 5976SOL    HW129387   3.384   3.887   4.583 -0.1714 -1.5126 -0.3802
 5976SOL    HW229388   3.295   3.950   4.470 -0.8548 -0.2932  1.5578
 5977SOL     OW29389   3.993   4.052   3.603 -0.1144  0.0092  0.0636
 5977SOL    HW129390   3.931   3.986   3.571  0.6658 -0.1027 -1.1886
 5977SOL    HW229391   4.037   4.071   3.521 -1.0800  2.3359  0.0683
 5978SOL     OW29392   2.759   4.409   3.482 -0.1571 -0.0533 -0.3655
 5978SOL    HW129393   2.753   4.388   3.575 -1.3279 -1.5922 -0.7721
 5978SOL    HW229394   2.673   4.371   3.460 -0.2976  0.1611 -0.1781
 5979SOL     OW29395   3.108   1.375   4.349 -0.5779 -0.2470  0.4961
 5979SOL    HW129396   3.080   1.455   4.393 -1.2547  0.6752 -1.5914
 5979SOL    HW229397   3.189   1.401   4.305 -1.6786  0.7201 -0.9741
 5980SOL     OW29398   3.892   3.705   0.317  0.4707  0.9588 -0.0308
 5980SOL    HW129399   3.938   3.699   0.401 -0.0091 -0.2894  0.1493
 5980SOL    HW229400   3.805   3.728   0.349 -0.7165 -2.1964 -0.9281
 5981SOL     OW29401   0.771   0.586   2.481 -0.3300  0.1218 -0.5225
 5981SOL    HW129402   0.797   0.583   2.389  2.0633 -0.0697  0.1567
 5981SOL    HW229403   0.746   0.495   2.494 -1.7134  0.3887 -1.3279
 5982SOL     OW29404   3.613   1.986   2.531  0.2604  0.4369  1.1078
 5982SOL    HW129405   3.573   1.980   2.618 -2.7589  1.0387 -0.2277
 5982SOL    HW229406   3.555   2.052   2.492  2.2060  1.9502  0.7983
 5983SOL     OW29407   4.129   1.761  10.690 -0.4372 -0.3997  0.1219
 5983SOL    HW129408   4.118   1.826  10.620 -0.8551  0.2294  0.7751
 5983SOL    HW229409   4.124   1.675  10.648  1.0250  0.5523 -2.0425
 5984SOL     OW29410   4.369   2.160  12.008 -0.2088  0.4507  0.3058
 5984SOL    HW129411   4.301   2.181  12.072  0.7989 -3.0750  2.4938
 5984SOL    HW229412   4.331   2.077  11.978  2.2663  0.1597 -2.0279
 5985SOL     OW29413   3.573   3.111   1.951 -0.1370  0.2838 -0.7461
 5985SOL    HW129414   3.626   3.035   1.974 -0.2240  0.3516 -0.3109
 5985SOL    HW229415   3.633   3.159   1.894  2.1560 -2.7761 -0.8909
 5986SOL     OW29416   4.505   0.291   5.426  0.4977  0.0608 -0.1924
 5986SOL    HW129417   4.449   0.341   5.366  2.3703  0.8501 -1.2792
 5986SOL    HW229418   4.488   0.334   5.509  4.1216  1.1168 -0.0404
 5987SOL     OW29419   2.642   1.992   8.121 -0.5787  0.4014 -0.5162
 5987SOL    HW129420   2.709   1.929   8.095 -0.6297  0.6965 -1.3669
 5987SOL    HW229421   2.567   1.935   8.108  0.3342 -0.1849 -3.0107
 5988SOL     OW29422   1.043   4.142   1.364  0.2158 -0.4300  0.0301
 5988SOL    HW129423   1.045   4.220   1.308  1.0319  0.6273  1.5568
 5988SOL    HW229424   0.953   4.118   1.341  0.1723 -0.7468  0.5321
 5989SOL     OW29425   3.138   3.267  16.546 -0.3251  0.3935 -0.2909
 5989SOL    HW129426   3.057   3.222  16.566 -0.6243  1.4966  0.9472
 5989SOL    HW229427   3.115   3.352  16.509  2.0641  0.9808 -0.4338
 5990SOL     OW29428   3.792   1.061  17.610  0.2655 -0.6835 -0.3451
 5990SOL    HW129429   3.769   1.057   0.001  2.9123 -2.0916  0.2705
 5990SOL    HW229430   3.842   1.143  17.605 -0.1484 -0.5246 -2.0433
 5991SOL     OW29431   4.380   0.523   6.193  0.3356  0.0591  0.0985
 5991SOL    HW129432   4.312   0.564   6.247  0.4763 -0.4276  0.6450
 5991SOL    HW229433   4.462   0.560   6.228  0.5611 -1.2527  0.9344
 5992SOL     OW29434   0.043   2.517   2.243  0.4690 -0.4294  0.2669
 5992SOL    HW129435   0.049   2.548   2.334 -3.6380 -0.6166  0.6181
 5992SOL    HW229436   0.008   2.592   2.194  2.3355 -0.1375 -0.6106
 5993SOL     OW29437   1.036   1.556  15.834 -0.7827 -0.0073  0.2040
 5993SOL    HW129438   1.111   1.582  15.780 -0.2276  0.7468  1.3438
 5993SOL    HW229439   1.081   1.498  15.896 -0.0775 -0.8043 -1.0537
 5994SOL     OW29440   0.715   1.475   3.028 -0.0089  0.3561 -0.0369
 5994SOL    HW129441   0.646   1.473   2.962 -0.4248 -2.6556  0.4593
 5994SOL    HW229442   0.656   1.461   3.102  1.3873  1.4311  1.2711
 5995SOL     OW29443   1.918   1.809   8.169 -0.0104  0.3731  0.2061
 5995SOL    HW129444   1.942   1.773   8.255  0.3615 -1.6520 -0.7369
 5995SOL    HW229445   1.830   1.774   8.159 -0.3937  0.9211  1.6389
 5996SOL     OW29446   1.459   4.048   5.263  0.5514 -0.2096  0.5688
 5996SOL    HW129447   1.539   4.080   5.304  0.9705  0.7672 -1.0353
 5996SOL    HW229448   1.399   4.060   5.337 -1.8464 -0.0383 -1.3946
 5997SOL     OW29449   0.126   2.806   5.873 -0.0800 -0.2350 -0.2075
 5997SOL    HW129450   0.116   2.840   5.962 -3.1860  1.3254 -1.1358
 5997SOL    HW229451   0.199   2.746   5.880 -0.0524 -0.4505 -2.2190
 5998SOL     OW29452   0.642   0.503   7.756  0.2396  0.2198  0.0258
 5998SOL    HW129453   0.601   0.471   7.676 -0.3795  3.1291 -0.8166
 5998SOL    HW229454   0.568   0.511   7.816  0.8279  1.8419  0.5462
 5999SOL     OW29455   2.623   3.450  14.866  0.2480  0.4984 -0.0757
 5999SOL    HW129456   2.711   3.434  14.832  0.9089 -0.4594  2.0966
 5999SOL    HW229457   2.617   3.545  14.875  0.1707  0.6674 -2.0462
 6000SOL     OW29458   2.460   0.215   3.516  0.6516 -0.1263 -0.4403
 6000SOL    HW129459   2.442   0.308   3.504  1.2053 -0.1184 -1.1612
 6000SOL    HW229460   2.490   0.186   3.430  0.9244  2.6091 -1.2705
 6001SOL     OW29461   3.855   0.829   3.349  0.0124 -0.4198 -0.6546
 6001SOL    HW129462   3.899   0.909   3.377 -1.2651 -0.0566  0.3077
 6001SOL    HW229463   3.865   0.834   3.254 -0.9237  1.3588 -0.6632
 6002SOL     OW29464   0.304   4.568   5.867 -0.0025  0.5602  0.7699
 6002SOL    HW129465   0.336   4.644   5.819  1.1031  1.3189  2.6951
 6002SOL    HW229466   0.359   4.565   5.945  1.1490  1.9247  0.0159
 6003SOL     OW29467   0.335   4.301   3.081 -0.0901 -0.0510  0.0152
 6003SOL    HW129468   0.376   4.383   3.108 -0.0695  0.7967 -2.6277
 6003SOL    HW229469   0.267   4.330   3.021  0.1368  1.7299  0.6269
 6004SOL     OW29470   2.987   4.288  13.328  0.3485  0.4826 -0.5583
 6004SOL    HW129471   3.012   4.311  13.417 -0.4872 -0.8706  0.0269
 6004SOL    HW229472   2.892   4.281  13.336  0.5881 -0.4643  1.4188
 6005SOL     OW29473   1.508   4.385   2.357 -0.6176  0.3152  0.4843
 6005SOL    HW129474   1.438   4.425   2.306  2.0119  1.1345 -2.5274
 6005SOL    HW229475   1.523   4.458   2.418  1.0204  1.6654 -1.5251
 6006SOL     OW29476   4.062   4.234   2.122  0.4071 -0.0929 -0.4635
 6006SOL    HW129477   4.036   4.322   2.149  2.1037  0.2381  0.0720
 6006SOL    HW229478   3.990   4.173   2.142  1.0891 -0.0652  2.0132
 6007SOL     OW29479   2.530   3.806   4.901  0.2999  0.2146 -0.3656
 6007SOL    HW129480   2.494   3.869   4.963  0.6715 -0.8880  0.9702
 6007SOL    HW229481   2.458   3.746   4.884  0.4779  0.7053 -2.7960
 6008SOL     OW29482   2.366   2.868   0.709  0.4901 -0.0558  0.5920
 6008SOL    HW129483   2.334   2.800   0.650 -1.2457 -0.0901  1.5682
 6008SOL    HW229484   2.285   2.918   0.722 -0.2083 -1.2755  0.8748
 6009SOL     OW29485   3.334   1.048  12.122 -0.5467  0.4201 -0.1387
 6009SOL    HW129486   3.359   1.100  12.198 -1.7471  1.6358 -0.5677
 6009SOL    HW229487   3.316   1.113  12.054 -0.2239  1.6439  0.9416
 6010SOL     OW29488   4.145   3.603   3.954  0.1701  0.3907 -0.5606
 6010SOL    HW129489   4.107   3.690   3.964 -1.3775 -0.4697  0.9711
 6010SOL    HW229490   4.075   3.549   3.990  1.4613 -1.0965 -0.2548
 6011SOL     OW29491   2.664   2.247   3.004 -0.4007  0.0973  0.3304
 6011SOL    HW129492   2.723   2.186   2.959  1.1516  1.7707  0.0872
 6011SOL    HW229493   2.719   2.286   3.072  1.3915  1.4606 -1.8620
 6012SOL     OW29494   4.315   3.398   1.505  0.0737 -0.0907 -0.2158
 6012SOL    HW129495   4.369   3.438   1.573 -2.7654 -0.1213  2.0329
 6012SOL    HW229496   4.315   3.307   1.534 -0.5598  0.1622  0.5747
 6013SOL     OW29497   3.335   4.511   1.706 -0.0623 -0.6390  0.0357
 6013SOL    HW129498   3.422   4.473   1.720  0.1038 -0.2498  0.0708
 6013SOL    HW229499   3.358   4.602   1.690 -0.1379 -0.8725 -1.4693
 6014SOL     OW29500   1.933   3.790   6.338 -0.0772 -0.3086 -0.3931
 6014SOL    HW129501   1.985   3.868   6.358 -2.0430  0.9398 -0.1026
 6014SOL    HW229502   1.962   3.760   6.252 -0.6517 -1.7489 -0.0783
 6015SOL     OW29503   4.434   2.417  11.843 -0.0687 -0.0532  0.0044
 6015SOL    HW129504   4.439   2.327  11.874  0.6729  0.4200  1.2650
 6015SOL    HW229505   4.343   2.438  11.860  0.1396 -1.2464  2.4897
 6016SOL     OW29506   4.633   4.277  11.995 -0.2792 -0.1337 -0.6194
 6016SOL    HW129507   4.605   4.221  12.068  2.8508 -1.8568 -0.7387
 6016SOL    HW229508   4.682   4.344  12.042 -2.4955  2.7691 -2.5104
 6017SOL     OW29509   3.463   0.576   5.216  0.0452  0.1584  0.8612
 6017SOL    HW129510   3.413   0.611   5.290 -2.6937 -0.8855 -0.4823
 6017SOL    HW229511   3.459   0.647   5.151 -0.6457 -1.1312 -0.5059
 6018SOL     OW29512   3.007   4.067  17.698  0.0507  0.3105  0.2593
 6018SOL    HW129513   3.070   3.995  17.691  0.4310  0.7945 -1.3493
 6018SOL    HW229514   2.938   4.015   0.038 -1.3590 -0.8831 -3.6565
 6019SOL     OW29515   2.647   4.463   8.057 -0.2307  0.2759 -0.0514
 6019SOL    HW129516   2.619   4.555   8.054 -0.3897  0.2478  0.6524
 6019SOL    HW229517   2.574   4.415   8.095  0.5903 -2.3276 -1.7508
 6020SOL     OW29518   0.510   0.630   5.526 -0.5427  0.3004 -0.0041
 6020SOL    HW129519   0.523   0.535   5.526  0.8132  0.4805 -1.2400
 6020SOL    HW229520   0.598   0.664   5.508 -0.5738 -0.0291 -0.7704
 6021SOL     OW29521   2.141   2.174   4.932  0.2539 -0.0162 -0.1994
 6021SOL    HW129522   2.207   2.204   4.869  2.2062 -1.7672  1.0640
 6021SOL    HW229523   2.103   2.257   4.962  1.6202  0.6858 -0.4009
 6022SOL     OW29524   1.081   0.264   0.586  0.3332  0.0614 -0.0885
 6022SOL    HW129525   1.008   0.247   0.646  0.9317 -0.8947  0.3687
 6022SOL    HW229526   1.058   0.194   0.526  0.2460  0.3454 -0.3848
 6023SOL     OW29527   3.801   2.107   4.941 -0.1288  0.0765  0.8148
 6023SOL    HW129528   3.742   2.051   4.992  0.4047 -1.8734 -0.7082
 6023SOL    HW229529   3.851   2.148   5.012  0.2657  0.2615  0.4323
 6024SOL     OW29530   2.382   1.873   8.501  0.0749 -0.7575 -0.5683
 6024SOL    HW129531   2.305   1.905   8.454 -0.0123  0.6498  0.5359
 6024SOL    HW229532   2.358   1.880   8.594 -0.8774  0.3072 -0.8926
 6025SOL     OW29533   3.820   0.244  12.183 -0.3170  0.0940 -0.2323
 6025SOL    HW129534   3.843   0.240  12.276 -0.6134 -1.5040 -0.2255
 6025SOL    HW229535   3.731   0.276  12.193 -0.3913 -0.3515  0.5299
 6026SOL     OW29536   1.867   4.506   4.214  0.4104  0.2116  0.0450
 6026SOL    HW129537   1.874   4.476   4.124  1.0038  1.5843 -0.3575
 6026SOL    HW229538   1.772   4.510   4.216  0.4027  1.0482 -2.0647
 6027SOL     OW29539   1.640   1.477   4.825  0.4795  0.7811  0.3448
 6027SOL    HW129540   1.691   1.544   4.780  2.4599 -1.1674 -0.2478
 6027SOL    HW229541   1.607   1.537   4.893 -0.7160  0.9155 -0.3492
 6028SOL     OW29542   1.159   2.555  16.193  0.1964  0.1808 -0.0230
 6028SOL    HW129543   1.143   2.485  16.256 -2.1760 -1.7032 -2.7395
 6028SOL    HW229544   1.199   2.625  16.244 -1.8960  0.7570  0.8505
 6029SOL     OW29545   3.007   4.654   3.291 -0.2997  0.5405 -0.6134
 6029SOL    HW129546   2.959   4.573   3.271  0.9581 -0.7053  1.3949
 6029SOL    HW229547   3.089   4.615   3.321 -0.5292  0.6019  0.1087
 6030SOL     OW29548   2.210   3.717   6.531  0.1820  0.1730  0.4247
 6030SOL    HW129549   2.226   3.802   6.572  0.1273 -0.0456  0.8975
 6030SOL    HW229550   2.129   3.698   6.579  0.1976  0.7611  0.6866
 6031SOL     OW29551   2.824   0.183   3.875 -0.5218  0.2034  0.1492
 6031SOL    HW129552   2.826   0.279   3.868  0.8605  0.0099 -2.4210
 6031SOL    HW229553   2.781   0.163   3.792 -3.0744 -0.5040  1.6519
 6032SOL     OW29554   3.081   2.564   7.462 -0.3007 -0.0201  0.3030
 6032SOL    HW129555   3.151   2.568   7.527 -0.5178  1.2721  0.4572
 6032SOL    HW229556   3.129   2.505   7.404  0.0282 -0.7559  1.3221
 6033SOL     OW29557   0.910   3.677   7.032  0.3957  0.6949 -0.6856
 6033SOL    HW129558   0.945   3.655   7.118 -0.2443  0.6692 -0.4271
 6033SOL    HW229559   0.841   3.740   7.054 -0.0004 -0.2835  0.8638
 6034SOL     OW29560   0.497   0.469  11.493 -0.1660 -0.1791  0.6727
 6034SOL    HW129561   0.566   0.426  11.543  1.3671 -0.4241 -1.6254
 6034SOL    HW229562   0.549   0.509  11.423 -3.0060 -0.2983 -1.5187
 6035SOL     OW29563   2.365   4.082  11.449 -0.1696 -1.0541  0.6956
 6035SOL    HW129564   2.363   4.010  11.386  1.4315 -0.2316 -0.2701
 6035SOL    HW229565   2.307   4.151  11.417 -1.5392 -1.7337  1.6648
 6036SOL     OW29566   0.599   1.212   8.877  0.2577 -0.3936  0.1673
 6036SOL    HW129567   0.519   1.184   8.919 -1.1856 -0.9990 -2.9826
 6036SOL    HW229568   0.605   1.144   8.810  1.5086  0.0634 -0.1929
 6037SOL     OW29569   3.207   1.550  11.224 -0.2420 -0.3875  0.3314
 6037SOL    HW129570   3.211   1.619  11.290  3.1800 -0.4098  0.1469
 6037SOL    HW229571   3.241   1.474  11.271 -0.6559 -0.2650  0.8225
 6038SOL     OW29572   4.010   1.014   7.982 -0.0333  0.4136  0.1867
 6038SOL    HW129573   4.030   1.017   8.075 -1.4784  0.6854  0.4809
 6038SOL    HW229574   3.914   1.016   7.978  0.0365  2.2684 -0.7245
 6039SOL     OW29575   0.400   0.738   9.543 -0.2262 -0.6750 -0.4445
 6039SOL    HW129576   0.388   0.719   9.450  1.2177  0.4489 -0.8628
 6039SOL    HW229577   0.464   0.673   9.570  0.3060  0.1710  0.3285
 6040SOL     OW29578   0.527   1.947   5.377  0.2438  0.6109 -0.0112
 6040SOL    HW129579   0.599   2.009   5.380  2.2515 -1.7451  0.0179
 6040SOL    HW229580   0.570   1.863   5.360  1.0338  0.8209  0.9121
 6041SOL     OW29581   4.535   4.148   0.701  0.3255 -0.4085 -0.5925
 6041SOL    HW129582   4.523   4.182   0.612 -0.9330  0.2902 -0.1498
 6041SOL    HW229583   4.493   4.211   0.759 -1.4730 -2.4896  0.3719
 6042SOL     OW29584   0.153   4.612   0.501  0.1508  0.0483  0.6454
 6042SOL    HW129585   0.168   4.544   0.436  3.3069  2.8576 -1.5497
 6042SOL    HW229586   0.081   4.665   0.465  1.6975  0.1880 -2.2400
 6043SOL     OW29587   4.502   2.561   1.580 -1.0715  0.3187 -0.0052
 6043SOL    HW129588   4.440   2.626   1.615 -0.5391 -0.3853  2.2189
 6043SOL    HW229589   4.477   2.571   1.488  0.6651  0.3166 -0.4693
 6044SOL     OW29590   2.195   0.639   5.394 -0.1492  0.0662 -0.4853
 6044SOL    HW129591   2.224   0.578   5.326  0.1113  1.7284 -1.8667
 6044SOL    HW229592   2.278   0.678   5.421 -0.3468 -1.2521  2.1006
 6045SOL     OW29593   0.056   4.354   7.418 -0.8462  0.1294 -0.0974
 6045SOL    HW129594   0.093   4.439   7.441  0.1431 -0.4008  0.2936
 6045SOL    HW229595   0.047   4.311   7.503 -0.2138  2.6878  1.2616
 6046SOL     OW29596   4.044   2.409  13.659  0.0729  0.3768  0.0155
 6046SOL    HW129597   4.079   2.358  13.732 -0.2845 -0.2509 -0.2537
 6046SOL    HW229598   4.125   2.439  13.616  0.8783 -1.6614  0.1038
 6047SOL     OW29599   4.362   2.954   8.799 -0.5095  0.0390 -0.4904
 6047SOL    HW129600   4.285   2.943   8.856  1.0734 -0.7312  1.4992
 6047SOL    HW229601   4.331   2.929   8.712  0.0992 -0.5002 -0.5476
 6048SOL     OW29602   0.360   0.458   0.728 -0.6619  0.6330  0.2802
 6048SOL    HW129603   0.350   0.552   0.712 -1.3250  0.2679 -1.4568
 6048SOL    HW229604   0.330   0.466   0.818 -0.5737  0.1802  0.3522
 6049SOL     OW29605   1.379   4.331   2.640  0.1298  0.2884  0.2137
 6049SOL    HW129606   1.425   4.374   2.712 -0.6725  0.6217  0.5317
 6049SOL    HW229607   1.418   4.380   2.568 -2.5017  1.6290 -0.3063
 6050SOL     OW29608   4.609   1.748  15.091  0.0256  0.5514 -0.1586
 6050SOL    HW129609   4.531   1.798  15.068 -0.5747 -1.5199 -2.5013
 6050SOL    HW229610   4.597   1.667  15.042 -2.2822  0.8013 -0.0053
 6051SOL     OW29611   1.791   0.418   9.810  0.2842 -0.3740  0.0871
 6051SOL    HW129612   1.794   0.392   9.902  2.0463  0.5586  0.2934
 6051SOL    HW229613   1.865   0.479   9.802 -0.8007  0.8360 -0.6386
 6052SOL     OW29614   1.286   1.712   6.653 -0.0313 -0.0652 -0.4384
 6052SOL    HW129615   1.367   1.714   6.705 -0.0802  2.4244 -0.4411
 6052SOL    HW229616   1.317   1.725   6.563 -0.9139 -1.1997 -0.8928
 6053SOL     OW29617   2.730   0.065   6.447 -0.0795 -0.8119  0.1177
 6053SOL    HW129618   2.708   0.008   6.373 -1.3775 -1.3683  0.9229
 6053SOL    HW229619   2.824   0.067   6.429  0.2599 -0.3990  1.9215
 6054SOL     OW29620   3.137   3.310  17.101 -0.5971  0.4014  0.8475
 6054SOL    HW129621   3.115   3.291  17.010  1.4704  1.7676  0.0664
 6054SOL    HW229622   3.156   3.221  17.131 -0.5907 -0.6614 -2.2522
 6055SOL     OW29623   3.443   2.928  15.637  0.1691  0.4376 -0.4203
 6055SOL    HW129624   3.423   2.947  15.546  0.2394  2.1715 -0.0781
 6055SOL    HW229625   3.452   2.833  15.632 -0.9100  0.2471  1.0301
 6056SOL     OW29626   4.505   1.593   0.631 -0.0402  0.7186  0.2887
 6056SOL    HW129627   4.542   1.577   0.545  2.2830  1.9706  1.0707
 6056SOL    HW229628   4.414   1.618   0.611 -0.0565  0.0070 -0.5335
 6057SOL     OW29629   0.781   4.431   1.076  0.2029 -0.7883 -1.2077
 6057SOL    HW129630   0.757   4.450   1.167  0.6162  0.0361 -1.2738
 6057SOL    HW229631   0.807   4.339   1.084  1.0626 -0.3094  1.6307
 6058SOL     OW29632   1.070   3.508   6.252  0.2306  0.2567 -0.2516
 6058SOL    HW129633   1.113   3.474   6.174 -1.2604 -1.0381 -0.5006
 6058SOL    HW229634   1.129   3.470   6.318 -0.3483  0.2882  0.2866
 6059SOL     OW29635   4.581   3.135   6.177  0.5982 -0.3891 -0.0668
 6059SOL    HW129636   4.503   3.105   6.223 -1.1395  2.0829 -1.4531
 6059SOL    HW229637   4.617   3.052   6.145 -2.2518 -1.1118 -1.3704
 6060SOL     OW29638   4.122   0.524   4.294  0.5369  0.3459 -0.2422
 6060SOL    HW129639   4.036   0.557   4.318 -0.5664 -1.7912 -1.2882
 6060SOL    HW229640   4.181   0.571   4.353 -0.4239  1.8861 -0.5181
 6061SOL     OW29641   3.314   1.095  11.458  0.0082 -0.2234  0.2180
 6061SOL    HW129642   3.353   1.106  11.545 -1.6735 -0.2122  0.9757
 6061SOL    HW229643   3.362   1.017  11.433  1.0439  1.2515 -2.4742
 6062SOL     OW29644   3.078   1.590   6.131 -0.6475  0.1370 -0.1910
 6062SOL    HW129645   3.030   1.599   6.049 -1.4348 -0.2162  0.2380
 6062SOL    HW229646   3.102   1.682   6.143  2.5964 -0.9053  1.4397
 6063SOL     OW29647   1.406   0.003   6.902  0.0222 -0.0569  0.2284
 6063SOL    HW129648   1.386   4.667   6.831  0.4493 -0.3451  0.3597
 6063SOL    HW229649   1.408   0.083   6.849 -0.5230  0.4502  0.9699
 6064SOL     OW29650   4.279   3.199   3.945  0.2409  0.2985  0.0916
 6064SOL    HW129651   4.227   3.256   4.002 -0.2478 -1.9207  1.8378
 6064SOL    HW229652   4.335   3.158   4.010 -1.6570 -0.9523  0.9433
 6065SOL     OW29653   2.687   2.904  13.121 -0.6761  0.2553  0.3588
 6065SOL    HW129654   2.695   2.893  13.216 -1.4392  0.1857  0.4180
 6065SOL    HW229655   2.674   2.814  13.092  0.1485  1.0049 -2.3328
 6066SOL     OW29656   1.747   0.232   7.509  0.1033  0.3946  0.0961
 6066SOL    HW129657   1.704   0.179   7.576  0.4540  2.2169  1.7513
 6066SOL    HW229658   1.822   0.256   7.564 -0.1578 -0.4016  0.8080
 6067SOL     OW29659   2.002   1.926   2.095  0.1856  0.2231 -0.3693
 6067SOL    HW129660   1.906   1.926   2.091  0.2227  0.5996 -1.3235
 6067SOL    HW229661   2.026   1.981   2.021 -1.8785  1.5821 -0.0328
 6068SOL     OW29662   0.208   2.430   9.677 -0.5935  0.0858  0.3257
 6068SOL    HW129663   0.167   2.386   9.603  0.6303 -0.0351 -0.2793
 6068SOL    HW229664   0.151   2.505   9.695  0.3415  0.4303  1.9433
 6069SOL     OW29665   3.241   4.685   4.960  0.1914 -0.3062 -0.2381
 6069SOL    HW129666   3.332   4.674   4.990 -0.5005 -0.9783  1.5615
 6069SOL    HW229667   3.259   0.043   4.916 -0.2718 -0.0881 -0.0082
 6070SOL     OW29668   2.566   2.000  15.115  0.1295 -0.1550 -0.0757
 6070SOL    HW129669   2.483   1.976  15.155  2.2255 -3.4286  2.3030
 6070SOL    HW229670   2.614   1.920  15.095 -1.5416 -0.9348 -0.9365
 6071SOL     OW29671   2.981   1.127   8.913  0.2779  0.0214  0.8538
 6071SOL    HW129672   3.042   1.139   8.986  0.6712  2.4702  0.1127
 6071SOL    HW229673   3.022   1.052   8.869 -0.4523 -0.2704  0.6598
 6072SOL     OW29674   0.553   1.478  16.255 -0.1737 -0.0599 -0.2547
 6072SOL    HW129675   0.533   1.392  16.294  0.2778 -1.0280 -2.1843
 6072SOL    HW229676   0.575   1.529  16.334 -1.0371  4.5095 -2.9666
 6073SOL     OW29677   0.043   0.377   5.689  0.1805  0.3514 -0.0618
 6073SOL    HW129678   0.059   0.426   5.770  1.5897  2.4111 -1.5951
 6073SOL    HW229679   4.682   0.413   5.668  0.2469 -0.1190 -1.1232
 6074SOL     OW29680   3.194   0.866  15.253  0.2135 -0.9158  0.1338
 6074SOL    HW129681   3.201   0.826  15.167  1.9561  2.6387 -1.3653
 6074SOL    HW229682   3.105   0.897  15.239 -0.2569 -1.5810  1.6301
 6075SOL     OW29683   3.872   0.361  15.405  0.5792 -0.6452 -0.5479
 6075SOL    HW129684   3.914   0.440  15.439  0.9219 -0.6625 -0.9346
 6075SOL    HW229685   3.800   0.407  15.361  1.1283  0.4997 -0.2493
 6076SOL     OW29686   0.423   2.197   4.061  0.5198 -0.6017  0.5145
 6076SOL    HW129687   0.354   2.131   4.059  0.9174 -1.0080  0.1805
 6076SOL    HW229688   0.481   2.162   3.993  0.4839  0.4273 -0.0412
 6077SOL     OW29689   4.519   4.625   2.029 -0.2888  0.4899  0.1222
 6077SOL    HW129690   4.552   4.645   1.941 -1.8304  0.4823 -0.4605
 6077SOL    HW229691   4.468   4.704   2.050 -2.3349 -0.4249 -1.4027
 6078SOL     OW29692   0.553   1.322   7.446  0.4398 -0.0811 -0.4105
 6078SOL    HW129693   0.497   1.286   7.377 -0.9371 -0.8112  1.0732
 6078SOL    HW229694   0.552   1.246   7.504 -1.2982 -1.9616 -2.9241
 6079SOL     OW29695   4.231   3.126   7.388 -0.0391  0.1463 -0.6380
 6079SOL    HW129696   4.308   3.177   7.365  0.0420  0.8677  1.2115
 6079SOL    HW229697   4.210   3.096   7.300  0.1933 -0.3572 -0.5198
 6080SOL     OW29698   2.133   1.379   6.844  0.5235  0.6799  0.5706
 6080SOL    HW129699   2.159   1.301   6.892 -0.9986  0.1692  0.5510
 6080SOL    HW229700   2.203   1.377   6.779 -0.2792 -1.6545 -0.2353
 6081SOL     OW29701   3.461   1.750  12.463  0.1101 -0.5404  0.1504
 6081SOL    HW129702   3.439   1.813  12.531  1.2474  2.3652 -2.1938
 6081SOL    HW229703   3.504   1.684  12.518  1.5245  0.3792  0.1418
 6082SOL     OW29704   2.665   2.507   3.121  0.8485  0.3916 -0.2042
 6082SOL    HW129705   2.677   2.566   3.196 -1.9317  1.6118 -0.7164
 6082SOL    HW229706   2.758   2.493   3.101  1.1348  3.0125 -0.6567
 6083SOL     OW29707   2.084   2.170   4.453 -0.4083 -0.1898 -0.2308
 6083SOL    HW129708   1.998   2.139   4.424 -1.2658  1.9073  0.0794
 6083SOL    HW229709   2.073   2.225   4.530  1.6661 -0.1384  0.0283
 6084SOL     OW29710   3.981   1.985   6.671 -0.5243  0.0447  0.3523
 6084SOL    HW129711   4.009   1.997   6.762  0.2889 -1.9706  0.3550
 6084SOL    HW229712   4.019   1.901   6.647  1.4386  1.1801 -0.5216
 6085SOL     OW29713   3.886   0.479   5.762 -0.4104 -0.1617  0.5885
 6085SOL    HW129714   3.908   0.566   5.795  0.3473 -0.1104 -0.0730
 6085SOL    HW229715   3.921   0.432   5.838 -1.2246 -1.8552 -0.0774
 6086SOL     OW29716   4.028   1.663  10.243 -0.2760  0.2483  0.4362
 6086SOL    HW129717   4.052   1.722  10.315  0.1365 -0.3842  0.8118
 6086SOL    HW229718   4.017   1.720  10.167 -0.2211 -0.6303 -0.2310
 6087SOL     OW29719   2.740   2.866   6.447  0.1957 -0.1976  0.0904
 6087SOL    HW129720   2.820   2.838   6.491 -0.2480  0.4247  1.2832
 6087SOL    HW229721   2.732   2.952   6.488 -1.6430  0.4069 -1.5257
 6088SOL     OW29722   3.058   1.800  14.626 -0.4133  0.3426  0.2832
 6088SOL    HW129723   2.996   1.865  14.592 -0.9717 -0.1996  0.2729
 6088SOL    HW229724   3.005   1.758  14.694  1.1795 -0.0615  1.2719
 6089SOL     OW29725   1.605   4.032   8.314  0.6343 -0.2682  0.3157
 6089SOL    HW129726   1.592   3.945   8.353  1.4499  0.4638  2.2523
 6089SOL    HW229727   1.521   4.029   8.269 -0.0950 -1.0773  1.7129
 6090SOL     OW29728   4.249   1.840  14.542  0.1830 -0.1151  0.4124
 6090SOL    HW129729   4.319   1.801  14.490  1.8792  1.0937  1.7785
 6090SOL    HW229730   4.177   1.867  14.486  0.7424  0.5884  0.0346
 6091SOL     OW29731   3.124   3.482   6.903  0.1849  0.1543 -0.3695
 6091SOL    HW129732   3.030   3.463   6.902  0.2687 -0.2513 -0.6267
 6091SOL    HW229733   3.155   3.406   6.952  2.2107  1.3216  0.1385
 6092SOL     OW29734   0.287   3.138   5.496  0.2496 -0.4903  0.0200
 6092SOL    HW129735   0.374   3.104   5.474  1.2364  2.9057 -1.3670
 6092SOL    HW229736   0.272   3.094   5.580  2.9117  1.3001  1.4208
 6093SOL     OW29737   3.417   0.529   4.246 -0.5001  0.5549  0.4068
 6093SOL    HW129738   3.470   0.515   4.167 -0.6939 -0.4448  0.4437
 6093SOL    HW229739   3.451   0.461   4.304 -3.2202 -1.8634 -0.8152
 6094SOL     OW29740   2.871   0.159  17.265 -0.2066  0.0564 -0.5606
 6094SOL    HW129741   2.832   0.197  17.186  1.5187  1.5463 -0.6800
 6094SOL    HW229742   2.854   0.226  17.331  0.8117  0.1431 -0.3859
 6095SOL     OW29743   3.837   1.291  12.627  0.3359  0.1154 -0.4949
 6095SOL    HW129744   3.818   1.332  12.543 -0.4350 -0.6786 -0.7166
 6095SOL    HW229745   3.836   1.366  12.687 -1.2199  1.7471 -2.5657
 6096SOL     OW29746   0.873   0.505   6.711  0.6978  0.3661  0.0521
 6096SOL    HW129747   0.879   0.597   6.684  0.6621  0.4717  0.4129
 6096SOL    HW229748   0.963   0.472   6.710 -0.0219 -1.5798 -1.1648
 6097SOL     OW29749   0.152   1.461   8.548  0.6174  1.0644 -0.3962
 6097SOL    HW129750   0.198   1.400   8.490  0.5689 -0.1341  0.8194
 6097SOL    HW229751   0.132   1.413   8.628 -1.0020  0.5313 -1.1172
 6098SOL     OW29752   2.306   0.179   5.473 -0.4618 -0.0991  0.2578
 6098SOL    HW129753   2.359   0.255   5.494  1.4580 -1.0548 -1.1608
 6098SOL    HW229754   2.337   0.110   5.531 -0.3344  0.8218  1.2862
 6099SOL     OW29755   0.259   2.951   7.356 -0.3471 -0.0158 -0.1478
 6099SOL    HW129756   0.203   3.003   7.299 -1.9070 -0.4213  0.9893
 6099SOL    HW229757   0.232   2.975   7.445  0.6525 -1.5324  0.5774
 6100SOL     OW29758   0.395   2.210   2.016  0.2876 -0.0948  0.1873
 6100SOL    HW129759   0.453   2.234   2.089 -0.1833 -0.1254  0.5726
 6100SOL    HW229760   0.315   2.237   2.061 -0.0741 -0.5453 -0.1857
 6101SOL     OW29761   0.653   1.087  12.087  0.4235 -0.4046 -0.0734
 6101SOL    HW129762   0.560   1.064  12.082 -0.3027  2.3888  0.6338
 6101SOL    HW229763   0.672   1.064  12.178  0.8653  0.2203 -0.0116
 6102SOL     OW29764   0.523   3.234  16.925  0.2510 -0.3955  0.2936
 6102SOL    HW129765   0.572   3.291  16.984  1.1448 -0.2724 -0.5579
 6102SOL    HW229766   0.456   3.212  16.990 -1.9262  2.2156 -1.0190
 6103SOL     OW29767   3.546   4.422  15.025  0.2056 -0.2118 -1.1966
 6103SOL    HW129768   3.561   4.396  14.934  1.2225 -0.8587 -0.8459
 6103SOL    HW229769   3.595   4.359  15.078  0.8890 -0.5839 -2.2758
 6104SOL     OW29770   3.021   2.531   8.095  0.0435 -0.4607 -0.6015
 6104SOL    HW129771   2.937   2.521   8.140  1.1979 -0.3026  1.5604
 6104SOL    HW229772   3.003   2.621   8.066  2.5927  0.7574  1.5884
 6105SOL     OW29773   4.384   1.645   7.635 -0.2164 -0.1426 -0.1139
 6105SOL    HW129774   4.334   1.574   7.595  0.3805 -0.6222 -0.0213
 6105SOL    HW229775   4.338   1.719   7.597 -0.3002 -0.1673 -0.0605
 6106SOL     OW29776   1.433   2.149   5.209  0.1211 -0.1057  0.5797
 6106SOL    HW129777   1.353   2.115   5.248  0.7369  1.3479  3.0938
 6106SOL    HW229778   1.395   2.228   5.170 -2.1977 -1.5274 -0.0342
 6107SOL     OW29779   0.204   2.030   1.919  0.3357 -0.5853  0.3157
 6107SOL    HW129780   0.275   2.085   1.952  2.1524 -2.2652 -0.7801
 6107SOL    HW229781   0.191   2.074   1.835 -2.4803 -1.0053  0.5152
 6108SOL     OW29782   0.324   2.499   6.216 -0.0852  0.1726  0.8353
 6108SOL    HW129783   0.379   2.469   6.143 -0.3344  1.2917  0.1917
 6108SOL    HW229784   0.246   2.449   6.192  0.3064 -1.0764  2.1463
 6109SOL     OW29785   0.324   4.400  11.605  0.3315  0.7055 -0.0916
 6109SOL    HW129786   0.346   4.492  11.623 -1.4622  1.4324 -1.6298
 6109SOL    HW229787   0.409   4.357  11.619  0.9005  1.7904 -0.1547
 6110SOL     OW29788   1.268   2.164   6.258 -0.8368 -0.3838  0.6641
 6110SOL    HW129789   1.302   2.253   6.263 -1.6589 -0.0014 -0.8541
 6110SOL    HW229790   1.293   2.127   6.343  2.7945 -2.9441 -1.4907
 6111SOL     OW29791   1.005   0.782  17.623 -0.1134 -0.0496 -0.6636
 6111SOL    HW129792   0.971   0.725  17.691 -0.7810  1.2136  0.0604
 6111SOL    HW229793   1.063   0.723  17.575  1.7384  1.0958  0.1505
 6112SOL     OW29794   4.401   0.763   8.902 -0.0055 -0.4618 -0.7798
 6112SOL    HW129795   4.428   0.700   8.969 -2.5710  0.5007  1.1701
 6112SOL    HW229796   4.466   0.825   8.935  0.1001 -1.1017  0.2046
 6113SOL     OW29797   0.795   1.721   6.827 -0.6551 -0.3581 -0.1643
 6113SOL    HW129798   0.715   1.688   6.869 -0.5295  0.0567  0.4035
 6113SOL    HW229799   0.853   1.737   6.901 -0.9150 -1.8422  0.3651
 6114SOL     OW29800   2.603   4.083   6.754 -0.9615  0.1468  0.2269
 6114SOL    HW129801   2.569   4.115   6.670 -1.5278 -1.0511  0.0007
 6114SOL    HW229802   2.521   4.074   6.802 -0.5570 -3.8795  0.1365
 6115SOL     OW29803   3.398   1.788   4.511 -0.2494 -0.1356 -0.3269
 6115SOL    HW129804   3.393   1.694   4.527  0.4037 -0.2149 -0.5780
 6115SOL    HW229805   3.491   1.801   4.490  0.0241  0.9336  1.4883
 6116SOL     OW29806   0.644   0.255   3.232  0.2555 -0.1063  0.0242
 6116SOL    HW129807   0.665   0.334   3.182 -2.2449  0.1860 -0.5787
 6116SOL    HW229808   0.610   0.204   3.158  0.1224  0.6434 -0.4386
 6117SOL     OW29809   3.544   3.916   8.908 -0.0393 -0.7128 -0.0768
 6117SOL    HW129810   3.570   3.937   8.998 -1.2672  1.2040 -0.1568
 6117SOL    HW229811   3.598   3.981   8.863 -0.8786  0.0023 -0.0595
 6118SOL     OW29812   3.998   2.052  17.600  0.1521 -0.8297  0.5831
 6118SOL    HW129813   3.951   2.096  17.529 -1.4427 -2.9984  0.3012
 6118SOL    HW229814   3.951   1.969  17.600  1.3083 -1.4852  0.6497
 6119SOL     OW29815   2.480   0.637  14.038 -0.0248 -0.4240 -0.7172
 6119SOL    HW129816   2.551   0.577  14.063 -0.2792 -0.1579  0.6665
 6119SOL    HW229817   2.524   0.698  13.979  1.8727 -1.0738  0.0263
 6120SOL     OW29818   2.163   3.368  12.007 -0.3362 -0.5263 -0.1846
 6120SOL    HW129819   2.104   3.320  12.065 -1.6345  2.3626  0.8921
 6120SOL    HW229820   2.204   3.432  12.065 -1.9372 -0.6612  1.0943
 6121SOL     OW29821   3.619   3.256   1.675  0.6805 -0.3747  0.1893
 6121SOL    HW129822   3.536   3.287   1.638  0.4761  1.1137  1.8719
 6121SOL    HW229823   3.640   3.196   1.604 -0.5848 -0.4671 -0.1078
 6122SOL     OW29824   0.748   3.356   8.630  0.4386 -0.2261  0.4566
 6122SOL    HW129825   0.816   3.327   8.690  2.4281  1.1824 -1.1249
 6122SOL    HW229826   0.677   3.292   8.635  0.3334 -0.4489 -3.3329
 6123SOL     OW29827   1.245   1.384  16.006 -0.1876  0.4723  0.9615
 6123SOL    HW129828   1.299   1.445  16.056 -2.5048  3.8781 -0.7229
 6123SOL    HW229829   1.302   1.382  15.929  0.7399  0.0776  1.6541
 6124SOL     OW29830   2.315   4.380  16.857  0.7266 -0.3598 -0.2601
 6124SOL    HW129831   2.236   4.428  16.832  1.8764  0.9960 -1.2881
 6124SOL    HW229832   2.280   4.321  16.924  0.1669 -3.4107 -3.2662
 6125SOL     OW29833   4.611   3.778   8.256  0.7150 -0.0448 -0.2216
 6125SOL    HW129834   4.624   3.868   8.284 -2.6776 -0.0053  1.2128
 6125SOL    HW229835   4.663   3.722   8.314 -1.2023 -1.3328  0.2570
 6126SOL     OW29836   1.322   0.308   2.594  0.2139 -0.4491  0.3304
 6126SOL    HW129837   1.348   0.220   2.623  2.4884 -0.0290 -0.4872
 6126SOL    HW229838   1.238   0.315   2.639  0.7275 -0.6625  1.3262
 6127SOL     OW29839   4.680   4.590   3.991  0.1228 -0.2594 -0.7835
 6127SOL    HW129840   4.677   4.524   3.922  1.8742 -0.2911 -0.8250
 6127SOL    HW229841   0.031   4.645   3.972 -1.0810  2.6206  2.8754
 6128SOL     OW29842   3.335   3.932  12.714 -0.2051  0.0893 -0.5119
 6128SOL    HW129843   3.264   3.868  12.711 -0.9270  0.9304 -1.7791
 6128SOL    HW229844   3.355   3.942  12.807  1.1866 -1.7627 -0.6209
 6129SOL     OW29845   1.203   0.099  11.073  0.1911 -0.3273  0.0225
 6129SOL    HW129846   1.191   0.194  11.078 -0.1391 -0.4116  0.7989
 6129SOL    HW229847   1.248   0.085  11.156 -1.6424  0.2209  1.1092
 6130SOL     OW29848   4.140   1.692   5.984  0.2872  0.3863 -0.0277
 6130SOL    HW129849   4.214   1.656   6.034 -1.0343 -0.7208  1.1437
 6130SOL    HW229850   4.177   1.770   5.943  0.7508 -0.0524 -0.4463
 6131SOL     OW29851   4.038   3.574   7.888 -0.0900  0.1466 -0.1329
 6131SOL    HW129852   4.127   3.585   7.857  0.5598 -1.6476  1.0816
 6131SOL    HW229853   4.027   3.640   7.957 -2.2431  0.0631 -0.3987
 6132SOL     OW29854   0.459   2.404   5.201  0.6015  0.3075  0.0261
 6132SOL    HW129855   0.380   2.396   5.149  0.5645 -3.9188  0.7109
 6132SOL    HW229856   0.525   2.347   5.162  0.0490 -1.6571  1.9284
 6133SOL     OW29857   4.098   4.422   3.827 -0.0798 -0.0735 -0.0652
 6133SOL    HW129858   4.102   4.327   3.838  1.4137  0.1614  1.4572
 6133SOL    HW229859   4.006   4.439   3.811 -0.7623 -2.4950  1.3180
 6134SOL     OW29860   4.543   4.597   6.597 -0.8552 -0.0393 -0.0719
 6134SOL    HW129861   4.504   4.684   6.607  3.4928  1.9251 -0.2328
 6134SOL    HW229862   4.465   4.542   6.588 -1.2225  0.3356  0.7810
 6135SOL     OW29863   2.141   2.360   8.412 -0.7266  0.1938 -0.0461
 6135SOL    HW129864   2.111   2.425   8.475 -1.2538  0.0697 -0.1742
 6135SOL    HW229865   2.173   2.288   8.467  0.9239  0.2178 -0.9467
 6136SOL     OW29866   4.293   0.767  11.809  0.4349  0.0545  0.1745
 6136SOL    HW129867   4.376   0.723  11.790  0.5191  0.3775 -0.2232
 6136SOL    HW229868   4.247   0.722  11.880  1.0623 -0.8562  0.0063
 6137SOL     OW29869   2.094   3.738  11.794 -0.2992 -0.2307 -0.5792
 6137SOL    HW129870   2.029   3.752  11.726  0.8615 -1.8039 -2.0008
 6137SOL    HW229871   2.178   3.746  11.748  0.7835 -1.2503  1.2050
 6138SOL     OW29872   3.014   2.223   4.256  0.8356  0.6610 -0.0314
 6138SOL    HW129873   3.106   2.244   4.239  0.7930  1.6955  1.0452
 6138SOL    HW229874   2.964   2.302   4.236  3.2526  2.1882 -0.1182
 6139SOL     OW29875   3.043   4.544   4.468  0.0385  0.2055 -0.3174
 6139SOL    HW129876   2.966   4.503   4.429  0.0681 -1.1698  1.0690
 6139SOL    HW229877   3.039   4.627   4.421 -2.9588  0.6785  0.8006
 6140SOL     OW29878   2.873   2.867   3.881 -0.4306 -0.7893  0.7608
 6140SOL    HW129879   2.961   2.829   3.874 -0.6971 -1.2366 -0.1526
 6140SOL    HW229880   2.814   2.792   3.876  1.7681 -2.5552  1.1699
 6141SOL     OW29881   2.528   1.138   9.701 -0.1441  0.0074 -0.3290
 6141SOL    HW129882   2.535   1.204   9.771  0.1217  0.6626 -0.9678
 6141SOL    HW229883   2.585   1.172   9.632  1.1665 -0.7342  0.3947
 6142SOL     OW29884   4.214   4.210   1.597  0.1970  0.5213 -0.5107
 6142SOL    HW129885   4.151   4.172   1.536 -0.4080 -0.7766  0.9441
 6142SOL    HW229886   4.285   4.146   1.587 -1.9659 -1.6629 -1.6656
 6143SOL     OW29887   2.640   3.952   8.390 -0.7588  0.0411 -0.1260
 6143SOL    HW129888   2.544   3.957   8.385 -0.8788 -1.8720  0.2969
 6143SOL    HW229889   2.665   4.017   8.456  0.8368 -0.2991 -0.3943
 6144SOL     OW29890   2.972   4.649  10.218  0.7756 -0.3244 -0.1086
 6144SOL    HW129891   2.988   4.703  10.295 -2.2601  0.9814 -0.3911
 6144SOL    HW229892   2.882   4.677  10.198  0.3701  0.3944  2.7585
 6145SOL     OW29893   1.259   4.343   2.206  0.6134 -0.1667  0.0262
 6145SOL    HW129894   1.318   4.316   2.136 -0.3889 -1.2331 -0.4013
 6145SOL    HW229895   1.260   4.263   2.258  0.5722  2.1180  3.5855
 6146SOL     OW29896   0.881   4.354   6.401 -0.5390 -0.4537  0.2597
 6146SOL    HW129897   0.805   4.325   6.350 -0.8015 -0.1512  0.4756
 6146SOL    HW229898   0.885   4.441   6.360 -1.7509 -1.1684 -1.3770
 6147SOL     OW29899   2.891   0.645  14.368 -0.8944  1.2127 -0.2334
 6147SOL    HW129900   2.885   0.732  14.406  0.6074  0.7646  1.0421
 6147SOL    HW229901   2.951   0.657  14.295 -2.1869 -2.0509 -1.8396
 6148SOL     OW29902   4.375   4.066   4.933 -0.8803 -0.4968  0.8420
 6148SOL    HW129903   4.283   4.039   4.929 -1.0950  0.1113  1.8510
 6148SOL    HW229904   4.377   4.151   4.976  0.9726  0.6691 -1.4970
 6149SOL     OW29905   4.547   0.797   5.750  0.0682  0.4584  0.5672
 6149SOL    HW129906   4.547   0.727   5.815 -0.7824 -1.2918 -1.3386
 6149SOL    HW229907   4.568   0.878   5.797  0.0334  1.3441 -0.9405
 6150SOL     OW29908   3.606   1.448   6.846 -0.6644 -0.0053 -0.0888
 6150SOL    HW129909   3.697   1.418   6.839 -1.0725 -1.5967  1.3427
 6150SOL    HW229910   3.587   1.441   6.940  0.7410 -0.4702  0.1667
 6151SOL     OW29911   2.687   1.276   6.024 -0.0140 -0.7937 -0.0157
 6151SOL    HW129912   2.701   1.195   5.975  3.5236 -0.9905  1.3407
 6151SOL    HW229913   2.718   1.254   6.112  0.7278 -1.6420 -0.4816
 6152SOL     OW29914   0.396   0.675   8.312 -0.1924 -0.4573 -0.0107
 6152SOL    HW129915   0.472   0.643   8.362 -0.7706  1.7330  2.2514
 6152SOL    HW229916   0.345   0.715   8.381 -1.2009 -0.0838 -0.9868
 6153SOL     OW29917   0.027   1.556   6.445 -0.2759  0.4533  0.1408
 6153SOL    HW129918   0.055   1.641   6.411 -1.9311  1.9043  2.3897
 6153SOL    HW229919   4.714   1.524   6.364 -1.7961  0.0895  0.9931
 6154SOL     OW29920   2.268   0.959  13.984 -0.1786 -0.4835  0.3638
 6154SOL    HW129921   2.180   0.988  13.959 -0.7885 -1.1067  1.8325
 6154SOL    HW229922   2.239   0.880  14.030  0.6344 -1.3621 -0.6147
 6155SOL     OW29923   4.168   2.241  15.420 -0.4090  0.0704 -0.2366
 6155SOL    HW129924   4.132   2.159  15.388  0.4802 -0.2051 -0.5137
 6155SOL    HW229925   4.251   2.206  15.453 -1.3136 -1.3306  0.5468
 6156SOL     OW29926   2.610   2.609  10.972 -0.5026  0.2069  0.1239
 6156SOL    HW129927   2.647   2.695  10.954 -0.0340 -0.3426 -1.5238
 6156SOL    HW229928   2.527   2.629  11.016 -0.5814  1.0828 -0.4272
 6157SOL     OW29929   1.656   0.109  10.067 -0.3033  0.6755 -0.1327
 6157SOL    HW129930   1.677   0.061  10.147 -0.7690 -0.3702 -0.6366
 6157SOL    HW229931   1.675   0.196  10.102 -1.9875  0.6920  0.7649
 6158SOL     OW29932   0.657   0.231   0.214  0.4682  0.3102  0.0268
 6158SOL    HW129933   0.635   0.140   0.232  2.2932  0.4117  2.8459
 6158SOL    HW229934   0.631   0.270   0.298  1.3487  1.3035 -0.1624
 6159SOL     OW29935   1.623   2.064   8.810 -0.7168 -0.5839  0.3899
 6159SOL    HW129936   1.700   2.028   8.766  0.0612  1.4317  0.0736
 6159SOL    HW229937   1.652   2.150   8.840  0.3266 -1.1723  1.0701
 6160SOL     OW29938   0.813   3.984  10.472  0.8015 -0.0667  0.6057
 6160SOL    HW129939   0.720   3.960  10.473  0.9069 -0.3341  2.7772
 6160SOL    HW229940   0.839   3.974  10.563  0.8874 -2.6484  0.3169
 6161SOL     OW29941   1.828   3.757   3.648 -0.8854 -0.4125 -0.3445
 6161SOL    HW129942   1.813   3.702   3.572 -1.3498 -1.0104  0.1789
 6161SOL    HW229943   1.916   3.733   3.675 -0.9489 -0.5956 -0.3026
 6162SOL     OW29944   2.134   0.205   7.740  0.3120  0.1905  0.2416
 6162SOL    HW129945   2.214   0.256   7.759  0.6070 -0.3465  0.4307
 6162SOL    HW229946   2.134   0.139   7.809 -0.4330  0.1943  0.2405
 6163SOL     OW29947   1.012   2.547   7.623 -0.2219 -0.0813  0.1858
 6163SOL    HW129948   0.980   2.482   7.686 -0.5761  1.0727  1.2025
 6163SOL    HW229949   0.932   2.600   7.623 -1.1190 -1.4444 -1.8528
 6164SOL     OW29950   3.815   4.048   3.252  0.1970  0.1978 -0.1152
 6164SOL    HW129951   3.820   4.142   3.270  2.2725  0.1590 -0.4548
 6164SOL    HW229952   3.908   4.029   3.245 -0.4253 -2.2576 -1.6580
 6165SOL     OW29953   1.923   2.789   4.622  0.6060 -0.0603  0.2562
 6165SOL    HW129954   2.002   2.735   4.613  2.0622  1.7913  1.8755
 6165SOL    HW229955   1.928   2.842   4.543  0.8458 -1.0642 -0.3970
 6166SOL     OW29956   2.704   1.011  15.918 -0.3245  0.0682  0.2599
 6166SOL    HW129957   2.779   1.069  15.931 -0.3463  0.5917 -1.9090
 6166SOL    HW229958   2.631   1.064  15.951 -1.0826 -0.9633  0.2719
 6167SOL     OW29959   0.194   3.623   6.354  0.3410  0.6406 -0.2113
 6167SOL    HW129960   0.229   3.574   6.279 -0.4379 -0.7909  0.3731
 6167SOL    HW229961   0.254   3.587   6.420  0.2621 -0.6862 -0.8542
 6168SOL     OW29962   3.173   2.331   2.606 -0.3443  0.2759  0.1251
 6168SOL    HW129963   3.185   2.358   2.697  0.5480 -2.2174  0.7314
 6168SOL    HW229964   3.186   2.237   2.608  0.8874  0.4460 -0.1374
 6169SOL     OW29965   1.346   0.372   8.327 -0.5188  0.1066 -0.0084
 6169SOL    HW129966   1.357   0.458   8.368 -0.5085  0.0082  0.1911
 6169SOL    HW229967   1.385   0.386   8.240  0.8074  0.1764  0.5930
 6170SOL     OW29968   1.463   1.532   4.229 -0.6865 -0.3239  0.0116
 6170SOL    HW129969   1.403   1.474   4.275 -0.9079 -0.6626 -0.7079
 6170SOL    HW229970   1.490   1.597   4.294 -0.9760  0.4695 -0.6721
 6171SOL     OW29971   3.746   3.781   8.346 -0.1664 -0.3591  0.0196
 6171SOL    HW129972   3.802   3.715   8.305  0.6155  1.3057 -1.5906
 6171SOL    HW229973   3.676   3.721   8.373 -0.7443 -0.1504 -1.0154
 6172SOL     OW29974   0.101   4.079   3.469 -0.1212  0.2753 -0.4045
 6172SOL    HW129975   0.029   4.075   3.533  1.4240 -1.9156  1.1799
 6172SOL    HW229976   0.117   4.173   3.459  0.8778  0.0041 -1.3008
 6173SOL     OW29977   4.441   4.579   2.337 -1.0613 -0.5674  0.5792
 6173SOL    HW129978   4.417   4.535   2.255  0.5809 -2.2921  1.0276
 6173SOL    HW229979   4.476   4.510   2.393 -1.2378 -0.5765  0.6793
 6174SOL     OW29980   3.583   1.305  10.522  0.2945  0.4248 -0.5395
 6174SOL    HW129981   3.497   1.273  10.548  0.1660  2.6696  1.7980
 6174SOL    HW229982   3.559   1.366  10.452 -1.2719 -1.3550 -1.5628
 6175SOL     OW29983   2.845   0.009  16.128 -0.7021  0.0233  0.3769
 6175SOL    HW129984   2.752   4.715  16.121 -0.9067  1.4536 -0.8781
 6175SOL    HW229985   2.840   0.096  16.166  0.9671  1.2314 -2.1142
 6176SOL     OW29986   3.112   2.712   2.617 -0.5441  0.4187 -0.6004
 6176SOL    HW129987   3.197   2.687   2.580 -0.2225  1.4557 -0.5480
 6176SOL    HW229988   3.142   2.778   2.679  0.3400 -0.9927  0.4978
 6177SOL     OW29989   3.584   4.078   3.096 -0.3397  0.6097 -0.0681
 6177SOL    HW129990   3.630   4.120   3.024 -0.1975 -0.4761 -0.6232
 6177SOL    HW229991   3.656   4.053   3.153 -1.4564 -2.4076  0.0481
 6178SOL     OW29992   0.621   0.797   2.163  0.4714  0.0741 -0.0335
 6178SOL    HW129993   0.591   0.853   2.091 -0.9991 -0.2324  0.3435
 6178SOL    HW229994   0.613   0.709   2.127 -0.3850 -0.2608  0.9720
 6179SOL     OW29995   3.384   0.567   7.576 -0.1313 -0.3682  0.3998
 6179SOL    HW129996   3.383   0.646   7.630 -1.1129 -0.3473  0.3498
 6179SOL    HW229997   3.474   0.573   7.546 -0.4261 -2.3703 -0.9499
 6180SOL     OW29998   0.971   3.839   4.686  0.0211  0.3352 -0.1782
 6180SOL    HW129999   0.953   3.745   4.695  2.9055 -0.1140  0.6934
 6180SOL    HW230000   0.948   3.855   4.594 -1.2731  1.0865  0.2776
 6181SOL     OW30001   4.144   4.267   9.191 -0.0142  0.0783 -0.1385
 6181SOL    HW130002   4.129   4.361   9.184 -2.6428 -0.3452 -0.3229
 6181SOL    HW230003   4.062   4.225   9.164 -0.6036  0.3170  1.2858
 6182SOL     OW30004   0.843   1.549   0.563  0.3739 -0.7129  0.9304
 6182SOL    HW130005   0.760   1.597   0.566  0.5238 -0.4975  1.5410
 6182SOL    HW230006   0.845   1.524   0.471 -1.2851  1.4146  0.3158
 6183SOL     OW30007   0.162   2.976   9.328  0.1775  0.0877  0.0601
 6183SOL    HW130008   0.201   2.891   9.350 -2.5503 -1.0733  0.4279
 6183SOL    HW230009   0.226   3.011   9.266  0.0506  0.8390  0.3589
 6184SOL     OW30010   0.418   1.658  13.366 -0.3985 -0.1968 -0.1309
 6184SOL    HW130011   0.472   1.723  13.322  0.0649 -1.4420 -1.3885
 6184SOL    HW230012   0.393   1.613  13.286  0.6065 -0.2756 -0.3994
 6185SOL     OW30013   2.472   1.689  11.294 -0.8267  0.2037 -0.4112
 6185SOL    HW130014   2.427   1.661  11.374 -0.0071 -1.6021 -0.5860
 6185SOL    HW230015   2.422   1.766  11.265  0.2405  2.1116  2.7442
 6186SOL     OW30016   1.458   1.551   3.619 -0.7536 -0.5207  0.2622
 6186SOL    HW130017   1.460   1.524   3.711  1.7310  1.2869  0.7630
 6186SOL    HW230018   1.546   1.522   3.596 -0.2780  0.0290  1.3341
 6187SOL     OW30019   0.085   2.564   3.819 -0.1732  0.4957 -0.3831
 6187SOL    HW130020   0.132   2.565   3.736  0.3414 -0.7370 -0.1052
 6187SOL    HW230021   0.091   2.654   3.850 -1.3566 -0.4687  2.6655
 6188SOL     OW30022   1.617   0.046   4.548 -0.1602  0.5415 -0.6561
 6188SOL    HW130023   1.700   0.013   4.513 -1.1770 -2.6695 -0.0691
 6188SOL    HW230024   1.543   0.008   4.500  1.1922 -2.0913 -0.6911
 6189SOL     OW30025   4.130   4.359  17.543 -0.1760  0.3805 -0.2540
 6189SOL    HW130026   4.105   4.320  17.626  1.3644 -2.2114 -1.0180
 6189SOL    HW230027   4.119   4.289  17.478  0.7763  0.1168 -0.1396
 6190SOL     OW30028   3.852   3.653   3.008  0.3254  0.0440  0.7369
 6190SOL    HW130029   3.809   3.721   2.955 -2.4227 -1.9433  0.4002
 6190SOL    HW230030   3.814   3.574   2.970 -1.6456  0.2807  2.1687
 6191SOL     OW30031   0.843   3.041   5.160  0.3722 -0.1209 -0.5144
 6191SOL    HW130032   0.757   3.055   5.121 -0.5609 -3.6215  0.2961
 6191SOL    HW230033   0.895   2.999   5.091  4.0782  1.6169  1.2289
 6192SOL     OW30034   1.696   0.243   3.066  0.5265  0.3044  0.3566
 6192SOL    HW130035   1.673   0.208   3.152 -0.7679  3.8850  1.4402
 6192SOL    HW230036   1.615   0.283   3.034  1.1223  0.1123 -1.3847
 6193SOL     OW30037   4.121   3.200   8.928  0.9958  0.4321 -0.2238
 6193SOL    HW130038   4.039   3.214   8.880 -0.1883 -1.7138  1.1806
 6193SOL    HW230039   4.127   3.105   8.933  1.6407  0.5313  0.8665
 6194SOL     OW30040   0.546   1.397   9.852 -0.1160 -0.3504  0.5768
 6194SOL    HW130041   0.597   1.367   9.927 -2.5251 -2.9152  1.1796
 6194SOL    HW230042   0.535   1.489   9.879 -0.2950 -0.2464  0.1432
 6195SOL     OW30043   0.337   4.189   0.418  0.4377 -0.2481  0.4356
 6195SOL    HW130044   0.302   4.107   0.455  0.6515 -1.0840 -1.1848
 6195SOL    HW230045   0.424   4.194   0.456 -0.0093  0.8307  1.3409
 6196SOL     OW30046   0.332   3.587   2.403  0.1507 -0.1255  0.3354
 6196SOL    HW130047   0.253   3.533   2.391  1.7717 -2.5206  0.4880
 6196SOL    HW230048   0.335   3.579   2.498  0.6513 -0.8030  0.2595
 6197SOL     OW30049   0.110   1.837   8.029  0.6420  0.1247 -0.5302
 6197SOL    HW130050   0.157   1.921   8.024 -0.8326  0.9479 -0.3936
 6197SOL    HW230051   0.179   1.785   8.071  0.2597 -0.3427 -0.4867
 6198SOL     OW30052   0.370   2.672   5.967  0.0379  0.2211 -0.2188
 6198SOL    HW130053   0.424   2.599   5.938  0.0441 -0.3998  1.3434
 6198SOL    HW230054   0.371   2.648   6.060 -1.9931 -0.7423 -0.4413
 6199SOL     OW30055   3.914   2.436   1.822  0.0277  0.7556  0.2447
 6199SOL    HW130056   3.984   2.481   1.774  1.1962  1.0531  2.2241
 6199SOL    HW230057   3.865   2.506   1.865 -1.8688 -0.1295 -0.4559
 6200SOL     OW30058   0.136   4.621   3.761  0.6614  0.0534 -0.3547
 6200SOL    HW130059   0.114   4.611   3.669  0.1658 -0.1988 -0.2095
 6200SOL    HW230060   0.211   4.562   3.766 -0.2395 -0.9799  0.9491
 6201SOL     OW30061   3.687   3.044   3.361  0.0261  0.2179  0.2989
 6201SOL    HW130062   3.714   3.059   3.451 -0.2889 -1.1978  0.6322
 6201SOL    HW230063   3.626   2.971   3.374 -0.9938  1.6871  3.5551
 6202SOL     OW30064   0.833   3.626   6.427 -0.0137  0.5744 -0.3646
 6202SOL    HW130065   0.861   3.535   6.438  1.0041  0.8122 -1.0164
 6202SOL    HW230066   0.878   3.643   6.344 -1.1541  0.7349 -0.9433
 6203SOL     OW30067   0.026   4.353  10.446  0.5940 -0.1335  0.3318
 6203SOL    HW130068   4.676   4.354  10.386  0.5476  0.1322  0.3959
 6203SOL    HW230069   0.010   4.274  10.498 -1.9258  0.0845 -0.1010
 6204SOL     OW30070   3.717   2.809   6.004 -0.7172  0.0639  0.2444
 6204SOL    HW130071   3.727   2.757   5.925 -0.0965 -0.4992  0.6853
 6204SOL    HW230072   3.772   2.772   6.074  0.7418 -0.3272 -1.1323
 6205SOL     OW30073   3.840   1.918  15.534  0.2124 -0.6843  0.0919
 6205SOL    HW130074   3.887   1.855  15.480  1.1545  0.3039 -0.2513
 6205SOL    HW230075   3.886   1.895  15.615 -0.1792 -0.2035  0.4470
 6206SOL     OW30076   4.246   2.672   5.394  0.2315  0.1384  0.0488
 6206SOL    HW130077   4.290   2.642   5.315 -0.5299 -0.3906 -0.1752
 6206SOL    HW230078   4.309   2.666   5.466  0.2788 -1.9473 -0.1595
 6207SOL     OW30079   1.501   3.258   4.068 -0.0233  0.0396 -0.3864
 6207SOL    HW130080   1.582   3.238   4.116 -0.7042 -0.8099  0.4077
 6207SOL    HW230081   1.500   3.176   4.019  0.0502  1.2535 -2.4086
 6208SOL     OW30082   1.722   3.294   2.452 -0.3517  0.0566  0.3095
 6208SOL    HW130083   1.778   3.333   2.384 -1.3782 -1.1580 -1.2173
 6208SOL    HW230084   1.736   3.204   2.423  2.2303  0.2952  0.8526
 6209SOL     OW30085   1.515   0.768   3.892 -0.4199  0.1124 -0.3687
 6209SOL    HW130086   1.580   0.775   3.822  0.7869 -1.2842  0.6179
 6209SOL    HW230087   1.512   0.856   3.929  0.7393 -0.9194  2.1465
 6210SOL     OW30088   3.164   0.456   3.009  0.2299 -0.3521 -0.3353
 6210SOL    HW130089   3.221   0.404   3.065 -0.5625  0.9841  1.6932
 6210SOL    HW230090   3.170   0.408   2.926 -0.2064  0.1948 -0.6842
 6211SOL     OW30091   3.431   3.686  16.385  0.0284  0.5054  0.3789
 6211SOL    HW130092   3.498   3.636  16.339  0.7044 -0.3535  2.2858
 6211SOL    HW230093   3.474   3.734  16.456 -0.1568  2.0913 -0.5876
 6212SOL     OW30094   3.625   1.009   8.690 -0.3380 -0.2160 -0.7696
 6212SOL    HW130095   3.698   0.959   8.653  0.3989  1.0132 -0.9629
 6212SOL    HW230096   3.556   0.979   8.630 -0.8910  0.0290 -0.2565
 6213SOL     OW30097   4.550   2.408   8.007  0.7367 -0.6130 -0.3667
 6213SOL    HW130098   4.477   2.457   7.971  0.1928 -0.0639  1.4584
 6213SOL    HW230099   4.499   2.389   8.086 -0.1663  0.5511 -0.6739
 6214SOL     OW30100   3.112   3.051  15.813  0.3304 -0.8758  0.5312
 6214SOL    HW130101   3.058   2.995  15.868 -2.2564 -0.2223 -1.3516
 6214SOL    HW230102   3.060   3.131  15.821  0.8382 -0.2525 -2.2398
 6215SOL     OW30103   3.150   2.128   7.337 -0.3539  0.4725  0.5516
 6215SOL    HW130104   3.150   2.054   7.398  1.7391 -2.0480 -2.4701
 6215SOL    HW230105   3.068   2.124   7.287 -1.5992 -2.5817  2.7874
 6216SOL     OW30106   0.999   2.883   6.474  0.1777  0.6828 -0.0564
 6216SOL    HW130107   1.024   2.929   6.394 -0.1974 -0.2926 -0.7376
 6216SOL    HW230108   1.055   2.915   6.544 -0.5473 -1.0241  1.3163
 6217SOL     OW30109   4.623   2.578  12.488 -0.1691  0.0726  0.0928
 6217SOL    HW130110   4.684   2.505  12.484  0.8430  0.8653  1.2249
 6217SOL    HW230111   4.564   2.564  12.414  0.3663 -1.2967 -0.0756
 6218SOL     OW30112   3.178   0.797  13.326 -0.1194  0.5172 -0.4707
 6218SOL    HW130113   3.193   0.882  13.285  2.4943 -0.2812 -1.1506
 6218SOL    HW230114   3.143   0.835  13.408  1.9153  2.3557 -0.4596
 6219SOL     OW30115   3.524   1.075  17.010  0.3261 -0.6832  0.3715
 6219SOL    HW130116   3.522   1.074  17.106  0.0483 -2.7979  0.3346
 6219SOL    HW230117   3.596   1.137  17.000 -0.0913 -0.3517 -0.5465
 6220SOL     OW30118   0.585   0.820   5.025 -0.1241  0.1431 -0.1023
 6220SOL    HW130119   0.514   0.760   5.004 -0.2067 -0.1085  0.8675
 6220SOL    HW230120   0.660   0.764   5.004 -0.8562 -0.6667 -0.5280
 6221SOL     OW30121   1.247   0.918  16.403  0.0492  0.2668  0.0591
 6221SOL    HW130122   1.292   0.974  16.340  2.2334  0.4078  1.7205
 6221SOL    HW230123   1.279   0.832  16.375  0.6810  0.7335 -0.6563
 6222SOL     OW30124   2.124   4.112   9.328 -0.2200 -0.0972 -0.5123
 6222SOL    HW130125   2.161   4.025   9.319  2.4054  0.9011  0.6002
 6222SOL    HW230126   2.184   4.165   9.275  0.2120 -0.0446  0.0227
 6223SOL     OW30127   1.102   1.502   3.697 -0.2807 -1.4895  0.4461
 6223SOL    HW130128   1.089   1.489   3.791  0.0719 -2.8658  0.3075
 6223SOL    HW230129   1.036   1.446   3.656  0.4155 -0.6884 -1.7738
 6224SOL     OW30130   3.795   1.115  14.048 -0.6363  0.2728  0.2382
 6224SOL    HW130131   3.778   1.055  14.121  0.1296 -0.0961  0.1027
 6224SOL    HW230132   3.851   1.179  14.092 -1.4704 -0.3386  2.2200
 6225SOL     OW30133   2.904   1.316   1.694 -0.4758 -0.1435 -0.0355
 6225SOL    HW130134   2.914   1.221   1.689 -1.2867 -0.2510  0.4657
 6225SOL    HW230135   2.962   1.333   1.620 -0.5808 -0.6551 -0.2341
 6226SOL     OW30136   1.393   2.056   8.667  0.0426  0.5150 -0.0424
 6226SOL    HW130137   1.465   2.061   8.729  0.9590 -0.3725 -1.0363
 6226SOL    HW230138   1.410   2.135   8.616  1.1148  1.7875  2.2672
 6227SOL     OW30139   1.015   0.317   2.916 -0.4791 -0.9366 -0.2034
 6227SOL    HW130140   0.976   0.235   2.887  0.6295 -1.8221  0.7950
 6227SOL    HW230141   1.043   0.361   2.836 -0.6858  1.6930  1.1781
 6228SOL     OW30142   2.784   1.885   0.465  0.0931  0.0308 -0.3190
 6228SOL    HW130143   2.697   1.878   0.426 -0.7737  1.2044  1.3883
 6228SOL    HW230144   2.834   1.929   0.397 -2.4781  2.7143 -0.4772
 6229SOL     OW30145   4.379   1.373   5.765  0.8109 -0.3828  0.2326
 6229SOL    HW130146   4.398   1.416   5.682  1.2587 -0.1003  0.4818
 6229SOL    HW230147   4.315   1.308   5.736 -1.2897  2.3981 -1.4007
 6230SOL     OW30148   3.442   1.860   9.652  0.2849 -0.0252 -0.5237
 6230SOL    HW130149   3.505   1.788   9.653  0.1878 -0.1098 -0.4518
 6230SOL    HW230150   3.425   1.853   9.746 -1.4343 -0.2392 -0.8452
 6231SOL     OW30151   1.080   0.727  10.319 -0.3871  0.1168 -0.0619
 6231SOL    HW130152   1.125   0.747  10.236 -2.3273  2.5349 -0.5315
 6231SOL    HW230153   1.068   0.818  10.348  0.8952  0.5095 -0.7351
 6232SOL     OW30154   1.543   3.835  10.653  0.3704  0.3301 -0.0713
 6232SOL    HW130155   1.485   3.909  10.635  0.5355  0.0357 -1.8258
 6232SOL    HW230156   1.494   3.765  10.610 -3.5353  1.6000  2.3555
 6233SOL     OW30157   1.553   4.117  11.822 -0.2495 -0.5596  0.1513
 6233SOL    HW130158   1.528   4.190  11.765  1.0150  1.8283  2.6833
 6233SOL    HW230159   1.527   4.047  11.761  0.6064 -1.4722  0.8421
 6234SOL     OW30160   1.862   3.086   5.435 -0.0046 -0.0796 -0.8592
 6234SOL    HW130161   1.834   3.002   5.470  0.7202  0.9094  2.0673
 6234SOL    HW230162   1.785   3.127   5.396  1.5277  1.3928 -2.3518
 6235SOL     OW30163   4.219   2.147  14.252 -0.1004 -0.4652  0.4094
 6235SOL    HW130164   4.190   2.059  14.228 -2.2060  0.0082  1.2683
 6235SOL    HW230165   4.306   2.114  14.274 -0.0840  0.0768  1.1443
 6236SOL     OW30166   1.045   4.639  13.425  0.0184  0.0150 -0.1668
 6236SOL    HW130167   1.025   4.547  13.444 -0.3711  0.0474 -0.4069
 6236SOL    HW230168   1.008   4.682  13.501 -2.5603  0.8376 -1.8692
 6237SOL     OW30169   4.468   0.991   0.032 -1.0769 -0.3502  0.0189
 6237SOL    HW130170   4.543   0.940   0.002 -1.9903 -0.3254 -2.3405
 6237SOL    HW230171   4.400   0.953  17.677 -1.0279 -0.5716  0.1095
 6238SOL     OW30172   2.962   0.164   5.140 -0.2884  0.3107 -0.1724
 6238SOL    HW130173   2.928   0.087   5.185 -0.9606 -0.8835 -2.7051
 6238SOL    HW230174   2.899   0.178   5.069  1.5111 -0.5383 -1.9568
 6239SOL     OW30175   0.140   2.816   4.723  0.0430  0.3485  0.0881
 6239SOL    HW130176   0.074   2.818   4.792  1.6485 -0.5131  1.6630
 6239SOL    HW230177   0.207   2.880   4.747  0.4648 -0.3823  0.8552
 6240SOL     OW30178   1.353   3.979  12.200  0.0132  0.2317 -0.2595
 6240SOL    HW130179   1.441   4.015  12.208  0.0480  0.0732  0.0924
 6240SOL    HW230180   1.326   3.950  12.287  0.6023  1.0052  0.1825
 6241SOL     OW30181   3.070   3.404   6.493  0.3707 -0.0444 -0.1368
 6241SOL    HW130182   3.111   3.331   6.539 -0.6674 -0.6461 -0.1582
 6241SOL    HW230183   3.054   3.373   6.403  0.7161  0.2453 -0.2991
 6242SOL     OW30184   0.155   3.611  10.071 -0.1027  0.4752 -0.3153
 6242SOL    HW130185   0.133   3.702  10.089  2.3565  0.5558  2.3464
 6242SOL    HW230186   0.064   3.582  10.063 -0.0084  0.1603 -0.2614
 6243SOL     OW30187   3.926   3.563   1.868 -0.0975  0.1161 -0.3333
 6243SOL    HW130188   3.877   3.612   1.935  0.2165 -0.1227  0.0706
 6243SOL    HW230189   3.994   3.628   1.848  0.7658 -0.0680  2.0022
 6244SOL     OW30190   3.672   4.698  14.673  0.1023 -0.3721 -0.0427
 6244SOL    HW130191   3.597   0.000  14.725  1.1427  0.6519  0.9402
 6244SOL    HW230192   3.717   4.637  14.732 -0.4128 -0.3597  0.3588
 6245SOL     OW30193   1.607   1.532   2.104  0.2414  0.6160  0.1752
 6245SOL    HW130194   1.556   1.549   2.025 -0.1432 -1.9792 -0.1389
 6245SOL    HW230195   1.619   1.622   2.135  4.7021  0.2658 -0.5234
 6246SOL     OW30196   1.495   3.095   5.109 -0.0180  0.3735 -0.1878
 6246SOL    HW130197   1.500   3.131   5.020 -1.1964  0.0075 -0.3967
 6246SOL    HW230198   1.401   3.076   5.104 -0.0889  0.3810  1.0247
 6247SOL     OW30199   4.160   3.186   6.569  0.5818 -0.2167  0.0834
 6247SOL    HW130200   4.248   3.200   6.534  0.6497  1.0353  0.7719
 6247SOL    HW230201   4.176   3.108   6.623  0.0690  1.2283  2.3274
 6248SOL     OW30202   3.555   1.086   5.080  0.5253  0.1914  0.8026
 6248SOL    HW130203   3.574   1.076   5.173 -1.9481  0.0182  1.3044
 6248SOL    HW230204   3.587   1.175   5.065  0.6534 -0.4815 -3.0211
 6249SOL     OW30205   3.755   2.267  17.102  1.3810 -1.1001  0.2362
 6249SOL    HW130206   3.830   2.269  17.043  1.1160  0.3463 -0.0575
 6249SOL    HW230207   3.787   2.325  17.171  0.7252 -2.0352  1.3291
 6250SOL     OW30208   1.767   0.558   0.283  0.7140 -0.3408 -0.2668
 6250SOL    HW130209   1.837   0.510   0.238  1.8786  1.1873 -0.1050
 6250SOL    HW230210   1.806   0.547   0.370  3.2528  1.0568 -1.2061
 6251SOL     OW30211   1.196   3.355   7.857  0.2606 -0.1582 -0.6671
 6251SOL    HW130212   1.257   3.380   7.926  1.0723  0.3024 -1.5471
 6251SOL    HW230213   1.205   3.431   7.800 -2.5635  1.2288  0.7199
 6252SOL     OW30214   1.593   1.266   8.060  0.0635  0.3151 -0.6797
 6252SOL    HW130215   1.575   1.172   8.054  0.5174  0.2170 -0.5345
 6252SOL    HW230216   1.550   1.289   8.142  1.5456 -0.7948  0.4186
 6253SOL     OW30217   3.683   4.177   5.302 -0.1127 -0.2832  0.4389
 6253SOL    HW130218   3.680   4.271   5.319 -1.7277  0.0426 -1.6842
 6253SOL    HW230219   3.776   4.158   5.314  0.2086  0.6810 -0.5394
 6254SOL     OW30220   0.068   1.997  11.893 -0.1690 -0.5259 -0.2887
 6254SOL    HW130221   0.008   1.928  11.863  0.5160 -1.1760 -0.1790
 6254SOL    HW230222   0.087   1.967  11.982  0.0176  2.3751  0.6352
 6255SOL     OW30223   1.046   0.972  10.432 -0.4847  0.1577 -0.3105
 6255SOL    HW130224   1.005   1.041  10.380 -2.4849 -1.3720 -0.7487
 6255SOL    HW230225   0.978   0.961  10.498 -0.4961  1.4158 -0.1117
 6256SOL     OW30226   3.032   1.028   0.358  0.0663  0.3997  0.5047
 6256SOL    HW130227   3.025   1.108   0.307 -1.3823  0.3132  0.5745
 6256SOL    HW230228   3.069   0.960   0.302 -0.3063  1.3132 -0.8300
 6257SOL     OW30229   1.387   4.035   7.071 -0.8095  0.6795  0.1427
 6257SOL    HW130230   1.399   3.964   7.133 -0.5940 -0.8352 -1.6420
 6257SOL    HW230231   1.450   4.014   7.001 -2.1231 -0.2181 -0.7668
 6258SOL     OW30232   1.540   3.026   2.173 -0.1643 -0.0281 -0.2495
 6258SOL    HW130233   1.539   2.936   2.141 -0.8619  0.7258 -2.3454
 6258SOL    HW230234   1.635   3.037   2.181 -0.4197  1.1340  1.0320
 6259SOL     OW30235   1.936   2.601   3.973  0.2784  0.0110  0.3713
 6259SOL    HW130236   2.022   2.587   3.934 -1.2819  1.3318 -3.6192
 6259SOL    HW230237   1.888   2.532   3.927  0.0556  0.5030 -0.1431
 6260SOL     OW30238   3.053   3.915   7.895  0.1290  0.7998 -0.3777
 6260SOL    HW130239   3.101   3.913   7.813 -0.0464  1.4787 -0.4989
 6260SOL    HW230240   3.020   4.005   7.883 -1.2258  0.6472  2.0100
 6261SOL     OW30241   1.467   3.515  16.446  0.4352  0.0130 -0.6476
 6261SOL    HW130242   1.462   3.492  16.539  2.3129  0.6211 -0.3862
 6261SOL    HW230243   1.375   3.517  16.419  0.0668 -2.3592  0.4072
 6262SOL     OW30244   1.760   3.113  10.957  0.2193  0.0910  0.0903
 6262SOL    HW130245   1.752   3.174  11.031 -1.8061 -1.2019  0.9211
 6262SOL    HW230246   1.679   3.062  10.951 -0.7268  1.8308 -1.8234
 6263SOL     OW30247   1.038   3.549   4.717 -0.0308 -0.1079  0.2450
 6263SOL    HW130248   1.022   3.465   4.675 -1.8131  0.2640  0.1741
 6263SOL    HW230249   0.949   3.559   4.751 -0.8508 -1.0602 -1.6217
 6264SOL     OW30250   3.867   0.830   9.778 -0.3428  0.0424 -0.8390
 6264SOL    HW130251   3.798   0.896   9.776 -2.1555 -1.9092 -2.1058
 6264SOL    HW230252   3.937   0.893   9.761  0.1841 -0.1368  0.6594
 6265SOL     OW30253   3.569   0.312   3.340 -0.2557  0.5310 -0.5486
 6265SOL    HW130254   3.599   0.362   3.415 -0.3505 -0.4881  0.1659
 6265SOL    HW230255   3.632   0.327   3.270  0.3721 -3.0221 -0.7460
 6266SOL     OW30256   0.516   1.944   0.773  0.3240  0.2537 -0.1823
 6266SOL    HW130257   0.573   2.000   0.826  1.5296 -0.4473 -0.7364
 6266SOL    HW230258   0.434   1.984   0.800  1.3945  1.7509  0.9054
 6267SOL     OW30259   3.009   1.439   5.279 -0.1924 -0.1010 -0.6741
 6267SOL    HW130260   2.926   1.407   5.312  0.8036 -0.0554  1.8691
 6267SOL    HW230261   2.985   1.475   5.193  0.0908  0.8330 -0.3644
 6268SOL     OW30262   1.733   0.043  15.269  0.0023  0.2863  0.0997
 6268SOL    HW130263   1.709   4.684  15.230  0.7735 -0.2868  0.8574
 6268SOL    HW230264   1.653   0.056  15.320 -1.1384 -1.8809 -1.1547
 6269SOL     OW30265   2.289   2.244   7.627  0.1848 -0.0552  0.1154
 6269SOL    HW130266   2.337   2.200   7.696 -2.3206  0.9900  2.5359
 6269SOL    HW230267   2.204   2.253   7.670 -0.2432 -2.8833 -0.1576
 6270SOL     OW30268   3.689   3.883   3.694 -0.1011 -0.2253  0.0898
 6270SOL    HW130269   3.664   3.913   3.606  2.0103  1.3105  0.0094
 6270SOL    HW230270   3.637   3.935   3.755  0.1619 -1.3875  1.2977
 6271SOL     OW30271   0.865   4.204   3.726  0.1462 -0.0250 -0.4325
 6271SOL    HW130272   0.794   4.216   3.663  0.7336  1.7516 -0.7421
 6271SOL    HW230273   0.940   4.197   3.668  0.6925  0.3951  0.2228
 6272SOL     OW30274   4.584   1.913   4.706 -0.0054  0.4416 -0.4999
 6272SOL    HW130275   4.531   1.899   4.627  1.1306 -2.5578 -0.7380
 6272SOL    HW230276   4.533   1.980   4.752  1.2247 -1.5025  3.7209
 6273SOL     OW30277   3.025   2.999   9.920 -0.3547  1.1296 -0.4855
 6273SOL    HW130278   2.993   2.912   9.942  0.3291  0.8280 -0.6711
 6273SOL    HW230279   2.961   3.050   9.969 -0.4418  0.8312 -0.2917
 6274SOL     OW30280   3.857   2.009   7.195 -0.1037 -0.5201  0.8768
 6274SOL    HW130281   3.851   2.002   7.290  1.4793  0.1728  1.0362
 6274SOL    HW230282   3.953   2.012   7.197 -0.0934  0.4395 -1.3783
 6275SOL     OW30283   3.001   1.255   4.597  0.3581 -0.0639 -0.2850
 6275SOL    HW130284   3.057   1.260   4.519 -1.3758 -1.6720 -1.6399
 6275SOL    HW230285   3.064   1.286   4.662  0.7847 -0.9881 -0.2597
 6276SOL     OW30286   0.119   0.117   5.686  0.0594  0.1470 -0.7435
 6276SOL    HW130287   0.084   0.205   5.676 -2.5487 -0.7011  0.9434
 6276SOL    HW230288   0.071   0.093   5.765 -0.4412  1.7878 -0.5400
 6277SOL     OW30289   0.028   2.330   7.666 -0.8249 -0.0615 -0.0494
 6277SOL    HW130290   4.709   2.245   7.659 -0.8558 -0.0211 -0.3323
 6277SOL    HW230291   0.121   2.308   7.658 -1.0314 -0.0721 -2.5592
 6278SOL     OW30292   2.048   1.218  11.064  0.1966 -0.1023 -0.3750
 6278SOL    HW130293   2.101   1.246  10.989 -0.8887 -4.1561 -2.7150
 6278SOL    HW230294   2.018   1.302  11.097  1.8544  0.8055 -1.1798
 6279SOL     OW30295   0.308   2.179   6.388 -0.1594 -0.0721 -0.3263
 6279SOL    HW130296   0.290   2.260   6.436  1.8431  1.2858 -1.8705
 6279SOL    HW230297   0.223   2.136   6.377 -0.2895  0.0188  0.3123
 6280SOL     OW30298   0.654   2.088  16.018  0.0579  0.1720 -0.0453
 6280SOL    HW130299   0.727   2.055  15.965  0.3866 -0.1047  0.5775
 6280SOL    HW230300   0.662   2.030  16.094  1.1478  0.9689  0.4588
 6281SOL     OW30301   4.569   3.757  10.773 -0.1079  0.3720  0.0846
 6281SOL    HW130302   4.562   3.662  10.764  1.2423  0.2015  0.8198
 6281SOL    HW230303   4.476   3.781  10.774 -0.3595 -0.6559  1.2555
 6282SOL     OW30304   3.476   4.147   8.322 -0.0027  0.2249  0.3711
 6282SOL    HW130305   3.514   4.235   8.319  2.8236 -1.0165 -1.2009
 6282SOL    HW230306   3.382   4.166   8.322 -0.4104 -1.8048  1.6345
 6283SOL     OW30307   0.704   2.947   4.750  0.3154  0.2394 -0.3382
 6283SOL    HW130308   0.709   2.927   4.844  0.0597 -4.0739 -1.2175
 6283SOL    HW230309   0.617   2.917   4.724 -0.8520  0.6655  3.0406
 6284SOL     OW30310   0.200   3.548   9.698  0.1013 -0.3504 -0.2695
 6284SOL    HW130311   0.249   3.620   9.657  0.4395 -0.2926  0.2331
 6284SOL    HW230312   0.259   3.518   9.767 -0.0417 -1.3012 -0.5599
 6285SOL     OW30313   3.905   1.574   3.794  0.1514  0.1776 -0.2762
 6285SOL    HW130314   3.919   1.606   3.705 -0.1870  1.7337  0.2133
 6285SOL    HW230315   3.991   1.592   3.832 -0.7832 -0.5159  2.2174
 6286SOL     OW30316   1.617   2.323  15.398  0.5049 -0.0745 -0.0300
 6286SOL    HW130317   1.594   2.251  15.456 -2.9920  0.3922 -0.8543
 6286SOL    HW230318   1.710   2.324  15.422  0.1346 -0.3590  1.3965
 6287SOL     OW30319   3.125   1.171   7.136  0.5535 -0.1197 -0.3941
 6287SOL    HW130320   3.035   1.149   7.162  0.6086  0.0971 -0.0337
 6287SOL    HW230321   3.123   1.145   7.043  1.6972  0.0561 -0.4611
 6288SOL     OW30322   0.906   4.101   5.573 -0.1937 -0.3816 -0.0839
 6288SOL    HW130323   0.813   4.084   5.586 -0.0080 -1.1407  0.2110
 6288SOL    HW230324   0.899   4.160   5.498 -2.3060 -0.0822  0.3503
 6289SOL     OW30325   4.652   4.282  13.272  0.2653  0.0423 -0.4011
 6289SOL    HW130326   4.612   4.194  13.271 -2.3035  1.2017 -1.3043
 6289SOL    HW230327   0.019   4.262  13.254  0.6280 -1.3273  2.9412
 6290SOL     OW30328   3.728   3.971   1.347  0.2349 -0.6825  0.9483
 6290SOL    HW130329   3.784   4.042   1.316 -0.6491  0.6570  2.4173
 6290SOL    HW230330   3.801   3.910   1.360  1.9063  0.6798 -1.8798
 6291SOL     OW30331   2.844   0.037   0.764  0.1621 -0.3685 -1.0474
 6291SOL    HW130332   2.827   4.671   0.791  1.4921 -0.1135  0.5826
 6291SOL    HW230333   2.927   0.066   0.801 -0.8655  0.3617  0.6527
 6292SOL     OW30334   3.731   2.897   4.131 -0.1512 -0.0042  0.7822
 6292SOL    HW130335   3.732   2.909   4.036 -0.6585 -0.3118  0.7397
 6292SOL    HW230336   3.821   2.871   4.149  0.1460  0.2695 -0.2673
 6293SOL     OW30337   0.868   4.362   2.342  0.1684 -0.1055 -0.2211
 6293SOL    HW130338   0.822   4.337   2.422 -0.0249  0.3243 -0.1998
 6293SOL    HW230339   0.961   4.372   2.365 -0.0957  1.8287 -0.0391
 6294SOL     OW30340   0.124   0.642   6.966 -0.1392 -0.0571 -0.0539
 6294SOL    HW130341   0.170   0.620   7.047 -0.0906 -1.7381 -0.5362
 6294SOL    HW230342   0.090   0.728   6.988  1.9563  0.3763  1.4597
 6295SOL     OW30343   1.041   0.474   5.531  0.3390 -0.3898  0.7721
 6295SOL    HW130344   0.977   0.431   5.475 -0.7171 -0.0399  1.7066
 6295SOL    HW230345   1.000   0.452   5.615  2.7113 -3.1358  1.1973
 6296SOL     OW30346   4.276   3.250   5.024  0.1217 -0.4602  0.0805
 6296SOL    HW130347   4.254   3.176   5.082  1.9884 -0.0884  1.2502
 6296SOL    HW230348   4.322   3.315   5.077 -3.2593  0.8831  1.3520
 6297SOL     OW30349   4.046   3.278  12.341 -0.2594  0.2004  0.3376
 6297SOL    HW130350   3.955   3.251  12.347 -0.1447 -0.2969 -0.2018
 6297SOL    HW230351   4.081   3.194  12.313  0.5265  0.1419  1.4693
 6298SOL     OW30352   4.414   1.980   8.246 -0.5831 -0.4381  0.1254
 6298SOL    HW130353   4.412   1.939   8.333 -2.3910  0.4308  0.4667
 6298SOL    HW230354   4.492   2.034   8.232 -1.1953  0.3705 -0.1230
 6299SOL     OW30355   2.021   4.699   4.642 -0.1427  0.2946 -0.0111
 6299SOL    HW130356   1.989   4.723   4.555  0.3289  2.2291  0.3482
 6299SOL    HW230357   1.995   4.606   4.639 -0.3415  0.3680 -0.7210
 6300SOL     OW30358   1.109   1.018   3.228 -0.1339  0.0548 -0.2228
 6300SOL    HW130359   1.198   1.016   3.264  0.0488  0.1147 -0.6616
 6300SOL    HW230360   1.071   1.074   3.295 -0.0050  0.2434 -0.3049
 6301SOL     OW30361   2.318   3.321   5.025  0.1776 -0.3926 -0.0162
 6301SOL    HW130362   2.254   3.382   4.988 -0.9735  0.6271  3.7183
 6301SOL    HW230363   2.263   3.295   5.099 -0.0886 -0.2790 -0.1723
 6302SOL     OW30364   3.205   1.859   7.827 -0.1483 -0.0122  0.6040
 6302SOL    HW130365   3.254   1.906   7.895  2.1123  2.4728 -2.6704
 6302SOL    HW230366   3.128   1.915   7.827  0.2952  0.6342 -1.4248
 6303SOL     OW30367   0.723   4.338   7.341  0.5369 -0.0218  0.5158
 6303SOL    HW130368   0.721   4.414   7.398  1.1974 -1.3036  2.2263
 6303SOL    HW230369   0.667   4.371   7.270  0.7020  0.3064  0.5397
 6304SOL     OW30370   0.688   3.119  10.841  0.5403 -0.7176 -0.5210
 6304SOL    HW130371   0.750   3.187  10.815 -2.7571  1.5274 -2.4129
 6304SOL    HW230372   0.699   3.111  10.936 -1.4589  1.8846 -0.0693
 6305SOL     OW30373   1.486   1.299  16.544 -0.4439 -0.2478 -0.2187
 6305SOL    HW130374   1.414   1.324  16.601 -1.2735 -0.6206 -1.1151
 6305SOL    HW230375   1.519   1.384  16.515 -1.1472 -0.4620 -1.6268
 6306SOL     OW30376   2.066   4.513  17.128 -0.2817  0.2234  0.3199
 6306SOL    HW130377   2.037   4.602  17.109 -0.3853  0.3841  1.1921
 6306SOL    HW230378   2.159   4.535  17.140  0.0457 -0.6011 -0.7245
 6307SOL     OW30379   3.910   4.258   5.482  0.1548 -0.1442  0.6471
 6307SOL    HW130380   3.958   4.212   5.551  0.1843  1.1598  1.5156
 6307SOL    HW230381   3.987   4.284   5.431 -1.3090 -1.1769 -2.0563
 6308SOL     OW30382   0.704   0.059   5.928  0.3352 -0.7346  0.0001
 6308SOL    HW130383   0.717   0.148   5.898 -0.5645 -0.8516 -0.7462
 6308SOL    HW230384   0.654   0.079   6.008  0.4302  1.5806 -0.5339
 6309SOL     OW30385   0.218   0.514   4.049  0.4870 -0.1175  0.1342
 6309SOL    HW130386   0.140   0.552   4.090  1.5490  0.7145  1.3780
 6309SOL    HW230387   0.264   0.476   4.124  2.5599  1.1050 -0.5350
 6310SOL     OW30388   0.846   0.144   4.567  0.2955  0.3092  0.7878
 6310SOL    HW130389   0.854   0.229   4.524  0.4763 -0.1260 -0.0299
 6310SOL    HW230390   0.754   0.148   4.591  0.3338  0.6581  0.8714
 6311SOL     OW30391   2.701   1.275   7.955  0.4651  0.0794 -0.1729
 6311SOL    HW130392   2.792   1.248   7.943  0.6550  0.8283 -0.4301
 6311SOL    HW230393   2.653   1.218   7.893 -1.0624  1.9021 -0.6651
 6312SOL     OW30394   2.567   4.086   7.867  0.1340  0.5399  0.0931
 6312SOL    HW130395   2.530   4.077   7.954  3.1581 -1.8354  1.1407
 6312SOL    HW230396   2.538   4.174   7.843 -0.4950  0.1288 -0.6335
 6313SOL     OW30397   0.381   3.132   2.646  0.1753  0.3473 -0.2728
 6313SOL    HW130398   0.476   3.131   2.651 -0.0429 -0.1813  3.4959
 6313SOL    HW230399   0.356   3.106   2.734 -0.8415 -0.3424 -0.7591
 6314SOL     OW30400   0.954   4.347   8.200  0.2217 -0.7675 -0.0702
 6314SOL    HW130401   0.911   4.432   8.206 -0.8146 -1.2758 -0.3965
 6314SOL    HW230402   0.928   4.320   8.112  0.4591  0.2795 -0.4676
 6315SOL     OW30403   3.751   3.855   5.171 -0.3089 -0.4554  0.1950
 6315SOL    HW130404   3.743   3.761   5.188 -0.4731 -0.1130  1.9605
 6315SOL    HW230405   3.839   3.872   5.205 -0.5657  1.4832 -0.1418
 6316SOL     OW30406   0.672   1.338  15.536 -0.5739  0.0569 -0.4193
 6316SOL    HW130407   0.688   1.398  15.463  0.5004  0.6155  0.2682
 6316SOL    HW230408   0.577   1.326  15.539 -0.3282 -1.8250 -0.3238
 6317SOL     OW30409   4.633   0.292   4.684 -0.5417 -0.3632  0.3854
 6317SOL    HW130410   4.576   0.325   4.614 -0.4018  0.2730  0.5688
 6317SOL    HW230411   4.642   0.201   4.658 -0.3470 -0.3476  0.3989
 6318SOL     OW30412   0.378   1.780  16.505 -0.1688  0.3726  0.1382
 6318SOL    HW130413   0.283   1.770  16.512 -0.2516 -0.1478 -1.8210
 6318SOL    HW230414   0.406   1.793  16.596  0.6439 -2.1374  0.2586
 6319SOL     OW30415   0.770   2.464   2.389  0.1913  0.1816  0.4932
 6319SOL    HW130416   0.770   2.369   2.397  0.6513  0.0182 -1.4058
 6319SOL    HW230417   0.801   2.476   2.299  1.4900  0.5976  0.9977
 6320SOL     OW30418   4.357   1.763  16.419 -0.3084 -0.0243 -0.4816
 6320SOL    HW130419   4.364   1.833  16.355  2.7106  0.4471  0.3614
 6320SOL    HW230420   4.403   1.806  16.491 -1.3909 -1.4692  1.0849
 6321SOL     OW30421   0.350   1.957   1.424  0.1358  0.1400  0.0234
 6321SOL    HW130422   0.279   1.995   1.372  0.5498  1.2732  0.3018
 6321SOL    HW230423   0.410   2.030   1.415  0.9366 -0.6774 -1.2358
 6322SOL     OW30424   3.102   3.766   3.751 -0.7318  0.0776  0.1788
 6322SOL    HW130425   3.115   3.679   3.790  1.2721  0.5907  0.6398
 6322SOL    HW230426   3.010   3.760   3.726 -1.2384 -3.1113  2.7444
 6323SOL     OW30427   3.361   0.409  14.630  0.0158  0.0837  0.4563
 6323SOL    HW130428   3.279   0.432  14.673  0.0456 -2.0644  1.6677
 6323SOL    HW230429   3.326   0.357  14.557 -0.4913  2.6481 -1.1073
 6324SOL     OW30430   4.082   3.608  15.938 -0.2795  0.2641 -0.3857
 6324SOL    HW130431   4.037   3.543  15.884  0.0510 -0.5573  0.3194
 6324SOL    HW230432   4.022   3.682  15.934 -2.0486 -1.0250  2.3121
 6325SOL     OW30433   1.756   0.220  16.238  0.4539  0.2326  0.4855
 6325SOL    HW130434   1.744   0.262  16.153  0.3084 -1.5092 -0.3674
 6325SOL    HW230435   1.722   0.288  16.296 -0.7010  0.7330 -0.7683
 6326SOL     OW30436   0.025   1.000   2.640 -0.0496  0.3393 -0.3778
 6326SOL    HW130437   0.111   0.958   2.646 -0.4891 -0.6437 -0.9626
 6326SOL    HW230438   4.694   0.923   2.631  1.1783 -0.4356 -1.4222
 6327SOL     OW30439   3.153   0.249   1.440  0.0496 -0.1945 -0.2865
 6327SOL    HW130440   3.086   0.314   1.461  0.9105  1.1216 -1.5840
 6327SOL    HW230441   3.120   0.179   1.496 -0.1986  0.8147  0.8216
 6328SOL     OW30442   1.846   0.226   1.175  0.1742  0.8619  0.5492
 6328SOL    HW130443   1.817   0.304   1.127  2.2054  0.5941 -1.1469
 6328SOL    HW230444   1.937   0.223   1.144  0.4831 -0.3191  1.5850
 6329SOL     OW30445   3.735   3.728   7.599 -0.2580  0.1587 -0.1299
 6329SOL    HW130446   3.717   3.647   7.645 -0.2606  0.4861  0.4376
 6329SOL    HW230447   3.692   3.790   7.657  1.7346  0.7033  0.7512
 6330SOL     OW30448   3.937   4.352  15.883  0.2671  0.4232  0.4623
 6330SOL    HW130449   3.989   4.352  15.803  0.1692  1.6751  0.3891
 6330SOL    HW230450   3.955   4.443  15.907  2.1091 -0.0079  0.7291
 6331SOL     OW30451   2.268   3.080   8.002  0.2809  0.6022 -0.5284
 6331SOL    HW130452   2.332   3.069   8.072  0.3204  0.6220 -0.5616
 6331SOL    HW230453   2.237   3.169   8.022 -1.8037 -0.3078  0.2781
 6332SOL     OW30454   0.014   3.016   8.106 -0.1011 -0.3729 -0.3671
 6332SOL    HW130455   4.659   2.982   8.146 -0.1652 -0.6525 -0.7365
 6332SOL    HW230456   0.048   3.076   8.173  2.0539 -1.6094 -0.3549
 6333SOL     OW30457   1.218   3.802   2.825 -0.3012 -0.4500 -0.6396
 6333SOL    HW130458   1.140   3.778   2.776 -0.9130  1.1912 -0.4373
 6333SOL    HW230459   1.236   3.889   2.789  0.9894 -0.7742 -0.7746
 6334SOL     OW30460   1.819   1.977   9.244 -0.4868 -0.1987  0.7778
 6334SOL    HW130461   1.738   2.020   9.216 -0.6501 -1.6172 -0.8713
 6334SOL    HW230462   1.780   1.899   9.285  0.7708 -0.5275  1.3460
 6335SOL     OW30463   3.431   0.239   6.187 -0.3339 -0.2833 -0.3448
 6335SOL    HW130464   3.394   0.273   6.269 -0.0188 -0.5793 -0.0772
 6335SOL    HW230465   3.496   0.308   6.180 -0.6021  0.1940  1.7394
 6336SOL     OW30466   1.894   2.293   6.722 -0.3958 -0.3820  0.2833
 6336SOL    HW130467   1.975   2.249   6.744 -0.4965  0.5863  2.5491
 6336SOL    HW230468   1.832   2.222   6.741 -2.6724  1.5942  0.3067
 6337SOL     OW30469   1.227   0.836  16.826  0.1370  0.0114 -0.0740
 6337SOL    HW130470   1.253   0.913  16.775  1.4684 -0.0725  0.4552
 6337SOL    HW230471   1.316   0.816  16.856  1.0221  1.5356 -1.6811
 6338SOL     OW30472   1.486   3.144   2.770  0.2858 -0.6581  0.0871
 6338SOL    HW130473   1.473   3.181   2.683 -0.1104  1.0898  0.8881
 6338SOL    HW230474   1.569   3.099   2.760  1.0920  0.8568 -0.0431
 6339SOL     OW30475   0.198   0.794   5.203 -0.0866 -1.1000 -0.0221
 6339SOL    HW130476   0.290   0.815   5.218 -0.7588  1.9659 -0.2298
 6339SOL    HW230477   0.191   0.700   5.221  1.5086 -1.2735 -0.3481
 6340SOL     OW30478   1.561   0.295   6.640  0.1295 -0.1276 -0.3055
 6340SOL    HW130479   1.506   0.272   6.715 -1.6737 -0.6464 -1.7736
 6340SOL    HW230480   1.598   0.209   6.622  1.1472  0.7401 -2.3012
 6341SOL     OW30481   0.522   3.097  10.525 -0.5426 -0.4348 -0.0123
 6341SOL    HW130482   0.450   3.053  10.571 -0.4880  1.6344  2.0482
 6341SOL    HW230483   0.478   3.181  10.512  2.1379  1.0286  0.5238
 6342SOL     OW30484   4.172   0.465  10.360  0.0235  0.0172 -0.3670
 6342SOL    HW130485   4.181   0.379  10.318 -2.1930  0.0209 -0.8710
 6342SOL    HW230486   4.137   0.430  10.442  1.0335  0.0560  0.0807
 6343SOL     OW30487   3.419   4.594  12.039  0.1725 -0.2067  0.1957
 6343SOL    HW130488   3.441   4.643  12.119  0.2955  1.5946 -0.9284
 6343SOL    HW230489   3.372   4.660  11.988  0.9652  1.1590  1.2158
 6344SOL     OW30490   0.305   3.406   8.384 -0.1127 -0.3943  0.4702
 6344SOL    HW130491   0.336   3.395   8.474 -1.8350  0.7182  1.2011
 6344SOL    HW230492   0.240   3.339   8.364  2.2889 -2.5241 -0.1298
 6345SOL     OW30493   4.227   1.526   7.159 -0.3129 -0.1570  0.0741
 6345SOL    HW130494   4.276   1.492   7.234  0.3966 -1.3036 -0.9092
 6345SOL    HW230495   4.147   1.477   7.177  0.0718 -0.9627 -0.3902
 6346SOL     OW30496   0.580   2.387  17.451 -0.1282  0.0638  1.0240
 6346SOL    HW130497   0.549   2.372  17.361  0.5120  1.6950  0.5381
 6346SOL    HW230498   0.504   2.348  17.495  0.9499 -1.6010  1.4176
 6347SOL     OW30499   2.084   4.193   7.363 -0.3035 -0.1347 -0.6405
 6347SOL    HW130500   2.078   4.289   7.359  2.8339  0.0116 -1.6122
 6347SOL    HW230501   2.069   4.180   7.457 -1.8216 -1.1250 -1.0280
 6348SOL     OW30502   3.547   4.166   4.067  0.6027 -0.6424  0.0747
 6348SOL    HW130503   3.472   4.174   4.008  0.7677 -0.0291 -0.0535
 6348SOL    HW230504   3.511   4.092   4.116 -2.3010  0.1372 -0.8810
 6349SOL     OW30505   4.692   4.713   3.520  0.0332  0.3322 -0.1947
 6349SOL    HW130506   4.718   0.063   3.468  1.6008  0.0102  0.1215
 6349SOL    HW230507   4.711   4.636   3.467 -1.0326 -0.7036  0.9117
 6350SOL     OW30508   4.186   3.470   6.227  0.9164  0.2353 -0.1362
 6350SOL    HW130509   4.157   3.410   6.158  0.2293 -0.5634  0.8568
 6350SOL    HW230510   4.100   3.509   6.245 -0.9226 -3.2977 -1.3209
 6351SOL     OW30511   0.024   1.942  11.317 -0.2352  0.3140  0.6712
 6351SOL    HW130512   0.030   1.987  11.401 -0.5508  1.8705 -0.1381
 6351SOL    HW230513   4.691   2.008  11.277 -1.4003  0.2440  2.2300
 6352SOL     OW30514   3.076   4.318  13.577 -0.1345  0.2518  0.0235
 6352SOL    HW130515   3.147   4.376  13.604  0.5544  0.6429 -2.5754
 6352SOL    HW230516   3.106   4.233  13.610  2.9119  0.9688 -0.9611
 6353SOL     OW30517   2.695   0.103   8.762 -0.7138 -0.1193 -0.2903
 6353SOL    HW130518   2.672   0.012   8.782  0.3769  0.3227  3.0507
 6353SOL    HW230519   2.612   0.142   8.736 -1.7680 -0.5426  2.4195
 6354SOL     OW30520   3.809   0.258   6.370 -0.7162 -0.0457 -0.1166
 6354SOL    HW130521   3.890   0.309   6.368 -0.1198 -0.9479  0.6337
 6354SOL    HW230522   3.810   0.236   6.464  2.7496 -1.5822 -0.4977
 6355SOL     OW30523   2.703   3.884   7.379  0.1686  0.1162  0.7075
 6355SOL    HW130524   2.746   3.961   7.340 -0.1158 -0.6730 -1.1736
 6355SOL    HW230525   2.784   3.841   7.406  0.5504 -0.8387 -1.9489
 6356SOL     OW30526   4.412   0.350   9.404 -0.2616  0.5927 -0.0805
 6356SOL    HW130527   4.385   0.359   9.313 -0.5770 -1.5732 -0.2031
 6356SOL    HW230528   4.486   0.410   9.409 -0.2624  0.5918 -0.0547
 6357SOL     OW30529   3.029   1.353   3.725  0.0744  0.0244 -0.1424
 6357SOL    HW130530   3.029   1.299   3.646 -2.2309 -1.1677  0.6728
 6357SOL    HW230531   3.120   1.338   3.754  0.0549  0.1766  0.0016
 6358SOL     OW30532   3.401   1.519   4.559  0.0716  0.4950 -0.2156
 6358SOL    HW130533   3.449   1.448   4.516 -0.8057 -1.0201  1.2847
 6358SOL    HW230534   3.453   1.537   4.637  0.5108  2.0537 -0.8766
 6359SOL     OW30535   3.835   4.049   3.877 -0.1753  0.1986  0.1505
 6359SOL    HW130536   3.880   4.002   3.807  0.8330  1.1784  0.1533
 6359SOL    HW230537   3.809   4.129   3.830 -1.5022 -0.4124 -0.1760
 6360SOL     OW30538   0.966   3.080   1.833 -0.3583 -0.0453 -0.1473
 6360SOL    HW130539   0.910   3.158   1.831 -0.6957 -0.2303  3.0058
 6360SOL    HW230540   0.904   3.011   1.811 -1.0751 -0.5900  3.6529
 6361SOL     OW30541   2.102   1.269  10.746 -0.4930 -0.2272 -0.3864
 6361SOL    HW130542   2.191   1.233  10.748  0.1373  1.4789  1.4138
 6361SOL    HW230543   2.049   1.192  10.724 -0.9163  0.4214 -1.6125
 6362SOL     OW30544   3.264   3.146   1.694 -0.0994  0.2034  0.1942
 6362SOL    HW130545   3.242   3.089   1.767  0.4480 -2.4613 -1.7469
 6362SOL    HW230546   3.243   3.090   1.620 -1.5106  2.5438 -1.1935
 6363SOL     OW30547   0.746   1.969  16.823  0.3023 -0.6044 -0.1260
 6363SOL    HW130548   0.688   1.942  16.752  1.5789 -0.0794 -1.3682
 6363SOL    HW230549   0.813   1.901  16.813  1.0320  0.4036 -1.9899
 6364SOL     OW30550   3.532   3.010   3.760  0.2523 -0.3943 -0.0970
 6364SOL    HW130551   3.622   2.998   3.790  0.0915  1.8943  1.2406
 6364SOL    HW230552   3.500   2.922   3.740 -0.7710 -0.5705  2.3127
 6365SOL     OW30553   2.773   3.208   6.012 -0.2180  0.2530 -0.2153
 6365SOL    HW130554   2.741   3.296   5.991  2.4517  2.0128  3.2105
 6365SOL    HW230555   2.826   3.195   5.934 -1.0775  1.9909 -1.0935
 6366SOL     OW30556   3.900   2.724   3.370 -0.2714  0.1618  0.5552
 6366SOL    HW130557   3.858   2.638   3.368  2.3067 -1.0804 -0.0637
 6366SOL    HW230558   3.989   2.712   3.339 -0.7681  0.1287 -0.8513
 6367SOL     OW30559   0.803   4.462   0.429 -0.1833 -0.2348  0.3721
 6367SOL    HW130560   0.820   4.525   0.359  0.9057 -0.5850  0.3217
 6367SOL    HW230561   0.716   4.434   0.400  0.7172 -2.2898 -0.3551
 6368SOL     OW30562   0.148   3.411  11.857  0.3508 -0.4241 -0.2355
 6368SOL    HW130563   0.165   3.443  11.769 -0.9085  0.6454 -0.0908
 6368SOL    HW230564   0.098   3.335  11.828  0.8707 -0.3150 -1.3789
 6369SOL     OW30565   0.882   2.102   4.688  0.3771  0.0605 -0.4618
 6369SOL    HW130566   0.974   2.126   4.674 -0.6529  3.1414 -1.8219
 6369SOL    HW230567   0.862   2.054   4.607  0.9419 -2.7660  1.0609
 6370SOL     OW30568   2.060   3.537   9.178 -0.4971 -0.6843  0.3303
 6370SOL    HW130569   2.134   3.488   9.212  0.6460  1.0368  0.3034
 6370SOL    HW230570   1.997   3.474   9.142 -1.0071  0.7312 -1.2576
 6371SOL     OW30571   4.547   1.991   4.023  0.7332 -0.6506  0.8534
 6371SOL    HW130572   4.574   1.918   4.078 -0.4012 -2.1894 -0.6222
 6371SOL    HW230573   4.460   2.006   4.060  0.9447  0.9468  0.7254
 6372SOL     OW30574   3.618   1.180  14.270 -0.1690  0.1963  0.3980
 6372SOL    HW130575   3.584   1.219  14.189  0.6858  1.5539  0.6944
 6372SOL    HW230576   3.577   1.235  14.336  0.3141  0.6492  0.3268
 6373SOL     OW30577   0.535   1.541   4.797 -0.7627  0.4091 -0.0391
 6373SOL    HW130578   0.474   1.468   4.812 -0.4295  0.4705  1.5734
 6373SOL    HW230579   0.475   1.609   4.827  3.3587  3.0095  2.2241
 6374SOL     OW30580   4.569   0.278   2.925  0.6847 -0.6136  0.4080
 6374SOL    HW130581   4.594   0.227   3.002 -0.4208 -1.6090  0.1057
 6374SOL    HW230582   4.580   0.366   2.960 -1.7037 -0.1513  0.0033
 6375SOL     OW30583   4.350   2.862   3.267 -0.0725  0.2222  0.2452
 6375SOL    HW130584   4.432   2.874   3.219  1.7493 -4.0324  2.3302
 6375SOL    HW230585   4.331   2.955   3.253 -0.1042  0.1536 -0.1567
 6376SOL     OW30586   3.727   0.336   1.355  0.1198 -0.1774  0.5377
 6376SOL    HW130587   3.663   0.282   1.401  1.6732 -2.3042  0.2279
 6376SOL    HW230588   3.811   0.290   1.364 -0.0178 -0.9366 -2.1339
 6377SOL     OW30589   2.174   1.931  12.971  0.3568  0.1079 -0.2175
 6377SOL    HW130590   2.146   1.949  12.882 -2.3757  1.0506  0.8261
 6377SOL    HW230591   2.203   1.840  12.973 -0.4781 -0.1504 -0.1198
 6378SOL     OW30592   0.824   4.177   0.719  0.2297 -0.6688 -0.1545
 6378SOL    HW130593   0.895   4.240   0.719 -1.5283  1.2946  0.7590
 6378SOL    HW230594   0.861   4.104   0.669 -0.1386 -0.2249 -1.0848
 6379SOL     OW30595   1.498   3.974   3.058 -0.0641  0.2778  0.1614
 6379SOL    HW130596   1.480   4.054   3.107 -0.5707 -0.5855  1.3922
 6379SOL    HW230597   1.522   4.001   2.969 -0.9490  0.5981  0.0218
 6380SOL     OW30598   3.178   3.049   5.850 -0.2851 -0.4199  0.0810
 6380SOL    HW130599   3.117   3.011   5.788 -0.6162  1.3577 -0.6905
 6380SOL    HW230600   3.249   2.986   5.844  0.1273 -0.0506  1.0773
 6381SOL     OW30601   0.892   2.136   5.571  0.2531  0.0717  0.1368
 6381SOL    HW130602   0.872   2.057   5.522 -0.7484 -0.4469  1.3718
 6381SOL    HW230603   0.938   2.091   5.642 -0.2634 -1.3504 -0.4414
 6382SOL     OW30604   1.344   2.327   3.500 -0.0347 -0.1138 -0.0277
 6382SOL    HW130605   1.289   2.385   3.552  0.6233  1.6215 -1.2731
 6382SOL    HW230606   1.301   2.319   3.415  2.6628  3.5684 -1.7377
 6383SOL     OW30607   0.345   2.366  16.956 -0.1028  0.0813 -0.4578
 6383SOL    HW130608   0.264   2.331  16.917  0.8725  0.1527 -2.5157
 6383SOL    HW230609   0.347   2.450  16.911  0.7905  0.5125  0.4081
 6384SOL     OW30610   4.426   2.006  16.171  0.0392 -0.3623  0.8653
 6384SOL    HW130611   4.484   2.076  16.201  0.5997 -0.2260 -0.5300
 6384SOL    HW230612   4.462   1.991  16.083  0.2314 -1.0304  1.0639
 6385SOL     OW30613   3.147   0.466  15.189  0.4418  0.1179  0.8545
 6385SOL    HW130614   3.088   0.423  15.127 -1.2455  0.5381  2.1620
 6385SOL    HW230615   3.089   0.509  15.252  1.4673 -1.5524  2.9269
 6386SOL     OW30616   0.068   0.237   7.690  0.1346 -0.3477 -0.4059
 6386SOL    HW130617   0.128   0.303   7.725 -0.0665  0.3795 -1.4174
 6386SOL    HW230618   4.710   0.282   7.707  0.6522 -0.1201  1.5323
 6387SOL     OW30619   2.833   1.099   4.459  0.0299  0.3033  0.1644
 6387SOL    HW130620   2.885   1.161   4.511  0.1248 -0.2024  0.6670
 6387SOL    HW230621   2.816   1.157   4.385  3.1187  0.7323 -0.2234
 6388SOL     OW30622   3.158   0.320   5.960  0.1728  0.8022  0.0890
 6388SOL    HW130623   3.139   0.414   5.966 -3.1935  0.0704  0.4927
 6388SOL    HW230624   3.230   0.334   5.897 -0.5186 -1.0109 -1.1226
 6389SOL     OW30625   1.447   1.884   6.941 -0.3390 -0.0421 -0.7088
 6389SOL    HW130626   1.478   1.876   6.851 -1.1644 -0.7333 -0.9360
 6389SOL    HW230627   1.531   1.885   6.986 -0.4681  1.5074 -0.4980
 6390SOL     OW30628   4.309   4.452   6.691  0.4515  0.6167 -0.4737
 6390SOL    HW130629   4.234   4.509   6.705 -0.6354 -0.9384  0.0375
 6390SOL    HW230630   4.281   4.365   6.722  0.4175 -0.0067 -2.2490
 6391SOL     OW30631   1.494   0.483  15.156  0.4235  0.0805 -0.6299
 6391SOL    HW130632   1.589   0.495  15.155  0.4261  0.2118  0.8011
 6391SOL    HW230633   1.495   0.391  15.130  2.3350 -0.2348  0.5764
 6392SOL     OW30634   2.095   1.880   7.765 -0.4797  0.8381 -0.7390
 6392SOL    HW130635   2.049   1.931   7.832  1.8873  2.0241 -0.0356
 6392SOL    HW230636   2.101   1.799   7.817  1.0067  1.5521  0.1867
 6393SOL     OW30637   3.092   1.358   5.527 -0.4492  1.2435 -0.1601
 6393SOL    HW130638   3.037   1.387   5.600 -0.4115  1.9137 -0.3992
 6393SOL    HW230639   3.055   1.394   5.447  1.2947  2.9271 -0.2114
 6394SOL     OW30640   0.414   4.623   6.270  0.3566 -0.0125 -0.7079
 6394SOL    HW130641   0.404   4.714   6.242 -1.8305  0.4489  1.5182
 6394SOL    HW230642   0.473   4.625   6.346 -2.9204 -0.0504  1.8195
 6395SOL     OW30643   2.074   4.686   9.954  0.2051  0.9046  0.6693
 6395SOL    HW130644   1.991   4.698   9.909 -0.3707  1.2480  1.8026
 6395SOL    HW230645   2.054   4.672  10.047 -1.0264  0.9817  0.4095
 6396SOL     OW30646   1.838   1.407   7.539  0.1492  0.3382  0.1624
 6396SOL    HW130647   1.764   1.435   7.594  0.3005  1.1276 -0.0479
 6396SOL    HW230648   1.884   1.483   7.505  0.9862  0.0993  0.7496
 6397SOL     OW30649   2.887   3.294  13.964 -0.0169 -0.4503 -0.0472
 6397SOL    HW130650   2.862   3.295  13.872 -0.2038  1.1924  0.0112
 6397SOL    HW230651   2.962   3.355  13.966 -0.0258 -0.4078 -1.2806
 6398SOL     OW30652   4.571   0.405   1.693 -0.2007  0.6639  0.3320
 6398SOL    HW130653   4.636   0.470   1.667  1.9375 -1.4023  0.5762
 6398SOL    HW230654   4.619   0.326   1.715 -0.1567  0.7495  0.5421
 6399SOL     OW30655   4.368   2.695   4.160 -0.1259 -1.0633  0.5496
 6399SOL    HW130656   4.293   2.637   4.158 -2.0841  1.4882 -0.4890
 6399SOL    HW230657   4.331   2.778   4.192 -0.1328 -0.8987  0.1248
 6400SOL     OW30658   3.775   2.901   6.778  0.1015  0.8391 -0.2371
 6400SOL    HW130659   3.728   2.942   6.705 -0.8606  0.5530  0.2176
 6400SOL    HW230660   3.717   2.930   6.849  1.0251  0.9679  0.4713
 6401SOL     OW30661   1.251   4.503   5.681 -0.4527 -0.3333 -0.0648
 6401SOL    HW130662   1.339   4.496   5.718 -0.8874 -2.8144  0.5037
 6401SOL    HW230663   1.217   4.414   5.693  0.1660 -0.4580  0.7898
 6402SOL     OW30664   3.066   1.118  14.116 -0.0448 -1.0024  0.1583
 6402SOL    HW130665   2.984   1.165  14.099  0.5452  0.4288  1.2657
 6402SOL    HW230666   3.119   1.198  14.120 -0.0992 -0.9668  0.1793
 6403SOL     OW30667   0.657   3.686   6.873  0.2951  0.0282 -0.0191
 6403SOL    HW130668   0.623   3.598   6.889 -1.0576  0.9110  1.9512
 6403SOL    HW230669   0.728   3.663   6.813  0.6321 -0.4605  0.5698
 6404SOL     OW30670   0.302   0.048  13.976 -0.0666  0.0597  0.0309
 6404SOL    HW130671   0.369   4.705  13.979  0.0075  0.2768  3.0721
 6404SOL    HW230672   0.303   0.085  13.888 -0.8653  1.3491  0.5698
 6405SOL     OW30673   3.414   3.570  16.684  0.4708 -0.3072  1.0921
 6405SOL    HW130674   3.404   3.533  16.771 -2.2186 -2.1484 -0.0255
 6405SOL    HW230675   3.468   3.509  16.634 -0.6289 -0.9640  0.7161
 6406SOL     OW30676   1.125   2.395   6.009 -0.0381  0.1729  0.0011
 6406SOL    HW130677   1.073   2.347   5.944 -1.2907  1.9387 -0.3131
 6406SOL    HW230678   1.071   2.385   6.087 -1.3373  2.4893 -0.5705
 6407SOL     OW30679   0.686   2.333   3.172 -0.5408 -0.1126  0.2683
 6407SOL    HW130680   0.735   2.287   3.104 -0.3407 -0.4074  0.6079
 6407SOL    HW230681   0.669   2.418   3.132  0.0773  0.0771  0.4198
 6408SOL     OW30682   3.965   3.425  12.606 -0.1436 -0.0276 -0.3008
 6408SOL    HW130683   3.903   3.418  12.534 -0.4226  0.8380 -0.1418
 6408SOL    HW230684   3.981   3.331  12.622 -4.6025 -1.2229 -3.0509
 6409SOL     OW30685   2.377   1.198   8.297 -0.1872  0.0260 -0.0280
 6409SOL    HW130686   2.428   1.157   8.367 -0.5483 -0.5857 -0.1218
 6409SOL    HW230687   2.434   1.267   8.263 -0.0734 -0.0665 -0.0239
 6410SOL     OW30688   1.196   3.846   6.341 -0.2777  0.2432 -0.3248
 6410SOL    HW130689   1.286   3.814   6.348 -0.4959 -0.3072 -0.0308
 6410SOL    HW230690   1.206   3.934   6.305 -3.0683  0.2726 -1.0218
 6411SOL     OW30691   1.214   1.450   4.908  0.0546  0.1233 -0.1563
 6411SOL    HW130692   1.213   1.541   4.877  0.6880  1.1495  2.8159
 6411SOL    HW230693   1.173   1.410   4.831  1.1777  1.0533 -1.2449
 6412SOL     OW30694   3.206   3.896   5.295  0.7797 -0.8349 -0.1318
 6412SOL    HW130695   3.251   3.973   5.260  0.0946 -1.1963 -1.8216
 6412SOL    HW230696   3.173   3.927   5.379  1.3597 -2.3293  0.6423
 6413SOL     OW30697   1.410   3.098   3.418  0.6339 -0.4028  0.1390
 6413SOL    HW130698   1.345   3.163   3.445  0.3725 -0.2140 -0.9185
 6413SOL    HW230699   1.494   3.129   3.449 -0.1016  1.8767 -0.1216
 6414SOL     OW30700   3.931   1.187  13.407  0.1640  0.3153 -0.3449
 6414SOL    HW130701   3.887   1.107  13.436  1.7604 -1.1079 -1.7862
 6414SOL    HW230702   3.886   1.208  13.325 -3.1557  0.2464  1.4561
 6415SOL     OW30703   4.660   0.216   2.672  0.2249 -0.2144 -0.5629
 6415SOL    HW130704   4.641   0.139   2.618  2.3575 -0.7893 -0.5301
 6415SOL    HW230705   4.627   0.213   2.762  1.0912  0.8587 -0.2102
 6416SOL     OW30706   3.387   0.298   0.116  0.7006 -0.6094  0.1678
 6416SOL    HW130707   3.299   0.263   0.133  0.6374 -0.8951 -0.7209
 6416SOL    HW230708   3.418   0.308   0.206 -2.6061  0.7187  1.1705
 6417SOL     OW30709   0.913   2.785  13.089  0.1938 -0.1155 -0.2029
 6417SOL    HW130710   0.924   2.796  12.994  1.5533  0.3465  0.0208
 6417SOL    HW230711   0.891   2.873  13.117  2.9168  0.1500  1.0538
 6418SOL     OW30712   0.486   2.485  14.088 -0.2829 -0.8987  0.3195
 6418SOL    HW130713   0.508   2.458  13.999 -1.2103  1.6752 -0.6912
 6418SOL    HW230714   0.392   2.486  14.070 -0.1782 -2.4372 -0.3102
 6419SOL     OW30715   1.732   2.936  15.620  0.2904 -0.4807 -0.3295
 6419SOL    HW130716   1.781   2.857  15.596  0.1952 -0.3738 -0.8911
 6419SOL    HW230717   1.782   2.975  15.691 -0.2604  0.0898 -0.2624
 6420SOL     OW30718   2.950   2.377   0.722 -0.2757  0.4229 -0.5702
 6420SOL    HW130719   2.896   2.376   0.643  0.8156 -0.9588 -1.3061
 6420SOL    HW230720   2.900   2.322   0.782  0.2666 -0.0529 -0.5497
 6421SOL     OW30721   3.557   1.678   8.791 -0.0465  0.1029 -0.1186
 6421SOL    HW130722   3.505   1.613   8.745  0.6333  1.4716 -2.8401
 6421SOL    HW230723   3.530   1.671   8.883  3.2896 -0.5386  0.8192
 6422SOL     OW30724   3.104   0.577   7.657 -0.0915  0.1409  0.0284
 6422SOL    HW130725   3.096   0.639   7.729  0.9027  0.5327 -0.2056
 6422SOL    HW230726   3.127   0.641   7.590  1.8533 -1.8084 -1.1765
 6423SOL     OW30727   0.930   2.755   1.910  0.4803  0.1591  0.6517
 6423SOL    HW130728   0.906   2.799   1.828 -0.2472  0.0125  0.7815
 6423SOL    HW230729   0.994   2.692   1.881 -0.9337 -0.4993 -1.0495
 6424SOL     OW30730   0.380   2.129   2.532 -0.5093  0.1834  0.0438
 6424SOL    HW130731   0.447   2.077   2.487  0.1475  0.3794  0.7952
 6424SOL    HW230732   0.436   2.189   2.581  0.7540  0.4722 -1.7557
 6425SOL     OW30733   0.726   2.913   2.432 -0.1821 -0.3956  0.4172
 6425SOL    HW130734   0.668   2.945   2.363 -0.2051 -1.7437 -0.1889
 6425SOL    HW230735   0.732   2.991   2.488  0.1212  1.1033 -1.6855
 6426SOL     OW30736   2.574   2.018   7.157  0.2263  0.3812 -0.7642
 6426SOL    HW130737   2.615   2.100   7.185  0.2113  0.8555 -2.1501
 6426SOL    HW230738   2.549   1.976   7.239 -0.4271  1.1720 -0.5592
 6427SOL     OW30739   1.663   0.679   2.963  0.3747  0.3034  0.8135
 6427SOL    HW130740   1.609   0.612   2.920  1.5097  0.4729 -0.8964
 6427SOL    HW230741   1.637   0.754   2.910 -1.3397  1.2098  2.9698
 6428SOL     OW30742   0.773   3.912  10.852 -0.3638  0.2209  0.2103
 6428SOL    HW130743   0.840   3.850  10.822 -2.8940 -1.9854 -0.8945
 6428SOL    HW230744   0.824   3.992  10.841  0.1915  0.1237  2.0730
 6429SOL     OW30745   2.526   2.018  14.008 -0.1979  0.8789 -0.1873
 6429SOL    HW130746   2.500   2.020  14.100 -1.7849  0.1699 -0.6099
 6429SOL    HW230747   2.542   1.924  13.996  4.2741  1.2193  3.2518
 6430SOL     OW30748   2.761   0.100   1.672  0.5761  0.1649 -0.4387
 6430SOL    HW130749   2.737   0.170   1.732  0.3346 -1.0162  0.8499
 6430SOL    HW230750   2.724   0.023   1.715  2.8824  0.2180  1.6124
 6431SOL     OW30751   4.538   2.545   4.628  0.3263  0.1157  0.4389
 6431SOL    HW130752   4.633   2.557   4.630  0.0663  2.0341  1.2336
 6431SOL    HW230753   4.506   2.634   4.646 -1.6601 -0.2158 -1.5162
 6432SOL     OW30754   0.238   1.455   3.979 -0.2244 -0.0680  0.0360
 6432SOL    HW130755   0.269   1.485   4.064  1.6291  1.9294 -1.3614
 6432SOL    HW230756   0.322   1.432   3.940 -0.3516 -0.7521  0.1574
 6433SOL     OW30757   4.509   1.998   2.842 -0.6081 -0.7919 -0.1732
 6433SOL    HW130758   4.530   2.069   2.902 -0.1591 -1.2646  0.2262
 6433SOL    HW230759   4.571   2.015   2.771  0.4621  0.1673  0.9979
 6434SOL     OW30760   0.409   0.627   4.954 -0.1567 -0.4942 -0.0872
 6434SOL    HW130761   0.350   0.552   4.955  2.2464 -2.3502  1.1723
 6434SOL    HW230762   0.393   0.671   4.870  0.5669  2.0731  1.1276
 6435SOL     OW30763   4.451   4.044   1.587 -0.9041 -0.3547 -0.4609
 6435SOL    HW130764   4.446   3.954   1.621  2.0362 -0.2036  0.3471
 6435SOL    HW230765   4.536   4.048   1.544  0.1506 -1.3240  1.5068
 6436SOL     OW30766   2.717   1.047   3.735 -0.1255  0.4122  0.3246
 6436SOL    HW130767   2.772   1.114   3.777  1.1151  0.8459 -1.9452
 6436SOL    HW230768   2.648   1.052   3.800 -0.7800  0.4457 -0.3792
 6437SOL     OW30769   0.925   1.624  15.410  0.2537 -0.1769 -0.5006
 6437SOL    HW130770   0.844   1.607  15.362 -1.2412  2.1642  1.1704
 6437SOL    HW230771   0.967   1.538  15.415  2.8454  1.1973  1.7430
 6438SOL     OW30772   2.205   1.048   4.028  0.4752  0.4501 -0.3981
 6438SOL    HW130773   2.257   1.000   3.963 -1.0843 -0.3162 -1.0711
 6438SOL    HW230774   2.140   0.982   4.048 -0.2732  0.6482 -2.1498
 6439SOL     OW30775   1.926   4.324   8.528 -0.0755  0.0012 -0.0330
 6439SOL    HW130776   1.831   4.321   8.535  0.0241 -0.5863  1.1093
 6439SOL    HW230777   1.947   4.270   8.604  3.1463  2.6131  0.9543
 6440SOL     OW30778   1.854   3.054   0.269  0.2213  0.2075  0.0237
 6440SOL    HW130779   1.910   3.067   0.192 -2.1386 -0.8089 -1.8755
 6440SOL    HW230780   1.773   3.023   0.227 -0.6445  3.1767 -0.5241
 6441SOL     OW30781   4.662   4.590   2.806 -0.1254  0.3047  0.0875
 6441SOL    HW130782   4.646   4.587   2.712 -1.5243 -3.0927  0.4154
 6441SOL    HW230783   4.575   4.564   2.835  0.1677  1.0629  1.6716
 6442SOL     OW30784   2.133   2.666  13.898  0.1679 -0.7838 -0.2462
 6442SOL    HW130785   2.228   2.666  13.892  0.2690  3.2490  1.8331
 6442SOL    HW230786   2.103   2.648  13.809  1.1209  1.9098 -1.1255
 6443SOL     OW30787   3.507   0.581   5.964 -0.4517 -0.1337  0.3010
 6443SOL    HW130788   3.553   0.537   6.035 -1.7470  0.5576  1.5549
 6443SOL    HW230789   3.511   0.672   5.993  0.6075 -0.0164 -0.1915
 6444SOL     OW30790   1.487   0.225   4.178 -0.2918  0.2968  0.4572
 6444SOL    HW130791   1.498   0.144   4.228  2.3168  1.1635  1.3240
 6444SOL    HW230792   1.501   0.285   4.251 -2.3176 -0.4221  1.4415
 6445SOL     OW30793   2.265   2.176   8.573  0.0552 -0.3881  0.1771
 6445SOL    HW130794   2.227   2.089   8.566  1.5263 -0.9825 -0.4403
 6445SOL    HW230795   2.290   2.187   8.665 -2.4657 -1.1341  0.9334
 6446SOL     OW30796   3.408   3.264  12.053  0.1703 -0.6194 -0.5698
 6446SOL    HW130797   3.326   3.309  12.031  0.1805 -0.7371 -0.8467
 6446SOL    HW230798   3.385   3.219  12.134 -1.5225 -0.9424 -1.2280
 6447SOL     OW30799   0.030   3.335   7.435 -0.5560 -0.3983 -0.0362
 6447SOL    HW130800   4.717   3.310   7.519  1.2634 -0.5037  0.7584
 6447SOL    HW230801   0.025   3.431   7.430  0.3438 -0.4105 -1.2208
 6448SOL     OW30802   0.080   0.966   5.848 -0.3240  0.2219  0.0098
 6448SOL    HW130803   0.019   1.030   5.883  1.1155  1.0084  1.0811
 6448SOL    HW230804   0.077   0.896   5.913 -1.3899  2.5082  2.3690
 6449SOL     OW30805   3.104   4.101   1.651 -0.6285  0.6532  0.4710
 6449SOL    HW130806   3.099   4.114   1.746 -0.0517  2.3894  0.2551
 6449SOL    HW230807   3.015   4.071   1.634 -0.4519 -0.5524  1.7125
 6450SOL     OW30808   0.312   4.535  11.935 -0.5991 -0.3082  0.3516
 6450SOL    HW130809   0.337   4.603  11.873  1.7145  0.0649  1.6774
 6450SOL    HW230810   0.393   4.485  11.932  0.5982  1.5183  1.9767
 6451SOL     OW30811   2.373   1.475   1.722 -0.6949  0.6447  0.5789
 6451SOL    HW130812   2.407   1.386   1.729  2.1376  1.7053  0.5140
 6451SOL    HW230813   2.432   1.521   1.781 -0.1330  0.8097 -0.1030
 6452SOL     OW30814   0.908   1.186   5.658  0.6333 -0.0207  0.3138
 6452SOL    HW130815   0.883   1.275   5.682 -3.6565 -0.9712 -0.6739
 6452SOL    HW230816   0.899   1.139   5.741 -1.5062  1.8874  1.1623
 6453SOL     OW30817   4.285   1.768   4.552 -0.0333 -0.6763 -0.0687
 6453SOL    HW130818   4.284   1.864   4.556  1.9882 -0.6281 -0.5400
 6453SOL    HW230819   4.286   1.761   4.456 -2.0945  0.0771 -0.1353
 6454SOL     OW30820   1.240   2.360  11.113  0.4883 -0.2883 -0.0438
 6454SOL    HW130821   1.305   2.411  11.162  1.8939 -1.4508 -0.7064
 6454SOL    HW230822   1.171   2.349  11.179  2.5460  0.0132  2.1955
 6455SOL     OW30823   2.262   0.199  10.875  0.0819 -0.3105  0.1305
 6455SOL    HW130824   2.356   0.193  10.859 -0.2308 -2.0717 -1.0477
 6455SOL    HW230825   2.239   0.274  10.819 -0.9856  0.2677  1.3427
 6456SOL     OW30826   3.846   1.573   9.507 -0.0732 -0.4012 -0.1224
 6456SOL    HW130827   3.892   1.542   9.429  1.2671 -0.9730  0.9119
 6456SOL    HW230828   3.887   1.519   9.574  2.6181  2.5354  0.5370
 6457SOL     OW30829   4.575   2.345   8.498  0.0022  0.0461 -0.0132
 6457SOL    HW130830   4.654   2.338   8.445 -0.0952 -0.3343 -0.1112
 6457SOL    HW230831   4.510   2.278   8.479  0.5911 -1.0840  2.0091
 6458SOL     OW30832   1.392   0.119   1.942 -0.0787  0.2530 -0.1296
 6458SOL    HW130833   1.399   0.173   1.863 -2.8981 -1.2205 -1.3822
 6458SOL    HW230834   1.463   0.054   1.943  0.2183  0.6009  1.5309
 6459SOL     OW30835   3.920   0.394   2.844 -0.2561  0.7853 -0.3606
 6459SOL    HW130836   3.831   0.428   2.847 -0.0782  1.5880 -3.6639
 6459SOL    HW230837   3.911   0.312   2.794  2.7512 -0.6552  1.4714
 6460SOL     OW30838   3.921   4.524  13.981  0.2574 -0.0362 -0.0475
 6460SOL    HW130839   3.904   4.448  14.037 -2.0340  0.5324  0.0513
 6460SOL    HW230840   4.017   4.522  13.983  0.2522 -0.2042  0.0460
 6461SOL     OW30841   0.152   3.081  10.968 -0.8671 -0.0432 -0.6104
 6461SOL    HW130842   0.128   3.000  10.923  0.8206 -0.0228 -1.5476
 6461SOL    HW230843   0.198   3.131  10.900 -1.6302  1.9219  0.3320
 6462SOL     OW30844   1.543   3.215   6.362  0.4027 -0.0108  0.0444
 6462SOL    HW130845   1.538   3.186   6.453  2.0345  0.8338  0.3978
 6462SOL    HW230846   1.459   3.184   6.329  0.9359  1.6119 -2.8450
 6463SOL     OW30847   3.098   0.420  16.230  0.6819 -0.9199 -0.7009
 6463SOL    HW130848   3.152   0.341  16.233 -1.1258 -2.0843  0.9093
 6463SOL    HW230849   3.013   0.376  16.237 -0.2475  1.0483  0.5748
 6464SOL     OW30850   3.725   0.149   3.871  0.1376 -0.8379  0.1762
 6464SOL    HW130851   3.797   0.130   3.811 -0.4765 -1.6547 -0.3080
 6464SOL    HW230852   3.735   0.074   3.930  0.3699  1.7905  3.4597
 6465SOL     OW30853   1.667   4.703   1.873 -0.2396 -0.6880 -0.5217
 6465SOL    HW130854   1.654   4.618   1.831 -0.8126 -0.5197 -0.6841
 6465SOL    HW230855   1.727   4.676   1.942  0.1708 -0.2788 -0.7148
 6466SOL     OW30856   2.268   4.520   5.184  0.2087 -0.0085 -0.3252
 6466SOL    HW130857   2.188   4.534   5.233 -0.2930 -1.0678 -0.8364
 6466SOL    HW230858   2.227   4.495   5.102  3.2890  1.3302 -2.2858
 6467SOL     OW30859   2.447   3.627   6.704  0.0552  0.7045  0.2364
 6467SOL    HW130860   2.375   3.649   6.762  1.1477  0.7238  1.5783
 6467SOL    HW230861   2.509   3.690   6.739  0.1999  1.2956 -1.0680
 6468SOL     OW30862   2.605   2.534   7.262  0.2125  0.3479 -0.0915
 6468SOL    HW130863   2.514   2.541   7.232  0.4401  1.9589 -0.4097
 6468SOL    HW230864   2.599   2.563   7.353 -0.7585 -0.7059  0.1894
 6469SOL     OW30865   0.998   0.341   8.539 -0.0340 -0.1823  0.3402
 6469SOL    HW130866   1.030   0.431   8.530 -1.4109  0.0388 -2.2884
 6469SOL    HW230867   1.032   0.312   8.624 -0.9924 -1.0567  0.4251
 6470SOL     OW30868   3.243   1.373   0.817  0.3693 -0.0465 -0.8618
 6470SOL    HW130869   3.199   1.365   0.732  0.2782 -1.0343 -0.7301
 6470SOL    HW230870   3.169   1.380   0.878  0.7671 -0.7294 -0.2947
 6471SOL     OW30871   0.010   3.587   3.403  0.0205  0.1286  0.1844
 6471SOL    HW130872   4.699   3.619   3.486 -1.8181 -0.4950 -0.3842
 6471SOL    HW230873   0.014   3.662   3.345 -1.3546  0.2438  0.2565
 6472SOL     OW30874   0.043   1.450   2.571 -0.6866  0.5861  1.0910
 6472SOL    HW130875   4.702   1.480   2.633 -2.2424 -1.4834  0.4028
 6472SOL    HW230876   4.715   1.464   2.492 -0.3365 -1.0474  0.5668
 6473SOL     OW30877   0.479   1.931   4.887 -0.6504 -0.1510 -0.2028
 6473SOL    HW130878   0.436   1.991   4.947  0.0235 -1.0613  1.1851
 6473SOL    HW230879   0.512   1.989   4.818  0.2559  1.4222  1.5855
 6474SOL     OW30880   2.646   1.628   3.413 -0.4892  0.0123 -0.4987
 6474SOL    HW130881   2.714   1.565   3.437  0.4324  0.4996 -1.7967
 6474SOL    HW230882   2.688   1.714   3.411 -2.0363  0.7928  0.8726
 6475SOL     OW30883   3.978   3.843  12.579  0.2561 -0.2689  0.3277
 6475SOL    HW130884   4.027   3.898  12.641  1.6573 -2.4277  1.1436
 6475SOL    HW230885   3.890   3.840  12.616  0.4096  1.9028  0.8882
 6476SOL     OW30886   2.969   4.009  15.039 -0.2370 -0.4822  0.1284
 6476SOL    HW130887   3.028   3.956  14.985 -0.5576 -0.4459 -0.2514
 6476SOL    HW230888   2.898   4.036  14.981  1.0865 -1.6570 -2.0440
 6477SOL     OW30889   0.623   2.108   3.011 -0.4716 -0.0287  0.4326
 6477SOL    HW130890   0.660   2.052   3.079 -1.3016 -1.3021 -0.1612
 6477SOL    HW230891   0.617   2.051   2.934 -1.5050 -0.7316  1.0388
 6478SOL     OW30892   4.461   1.983   5.086  0.1010 -0.1765 -0.5908
 6478SOL    HW130893   4.444   2.034   5.007  1.5530 -0.7002 -1.2423
 6478SOL    HW230894   4.449   1.895   5.051  1.5319 -0.4094 -0.4962
 6479SOL     OW30895   1.443   1.224  14.154  0.3325 -0.4293  0.0236
 6479SOL    HW130896   1.489   1.163  14.096 -1.2210 -1.6645  0.1045
 6479SOL    HW230897   1.377   1.258  14.094 -0.4484 -2.1894 -0.1244
 6480SOL     OW30898   0.681   3.891  16.506 -0.0573 -0.1808  0.0125
 6480SOL    HW130899   0.671   3.986  16.498  3.1197  0.4173  3.4095
 6480SOL    HW230900   0.686   3.890  16.601 -2.1024  0.0955  0.1307
 6481SOL     OW30901   3.421   1.697  14.776  0.0007  0.0438  0.6299
 6481SOL    HW130902   3.463   1.772  14.819  2.5630  0.1572 -2.1199
 6481SOL    HW230903   3.340   1.698  14.828 -0.3404 -1.7202  0.1356
 6482SOL     OW30904   3.001   0.817   7.274 -0.1036  0.3705 -0.4087
 6482SOL    HW130905   3.023   0.847   7.186  0.9936 -0.0183 -0.2624
 6482SOL    HW230906   3.052   0.738   7.293 -2.1844 -0.4611  1.8890
 6483SOL     OW30907   1.509   3.308  15.577  0.2920  0.5741 -0.0550
 6483SOL    HW130908   1.538   3.254  15.503 -0.0163  1.3041 -0.7057
 6483SOL    HW230909   1.595   3.332  15.610 -0.6795  2.0952  1.3939
 6484SOL     OW30910   1.475   4.469   4.420 -0.0612 -0.1863 -0.3113
 6484SOL    HW130911   1.387   4.452   4.387 -1.1272  3.7350  0.4749
 6484SOL    HW230912   1.458   4.545   4.476 -0.7775 -0.8325  0.3341
 6485SOL     OW30913   2.858   4.345  14.574  0.0834  0.0343  0.4644
 6485SOL    HW130914   2.771   4.306  14.572  0.6484 -1.1923 -0.3264
 6485SOL    HW230915   2.836   4.425  14.526  1.3642  1.4038  2.1485
 6486SOL     OW30916   4.353   0.592   4.829 -0.2756 -0.1114 -0.1456
 6486SOL    HW130917   4.360   0.629   4.917 -3.7382  0.5211 -0.1453
 6486SOL    HW230918   4.431   0.629   4.787 -0.6840  0.0756 -0.7367
 6487SOL     OW30919   2.935   4.030   8.162 -0.0769 -0.1805  0.0550
 6487SOL    HW130920   2.878   4.107   8.166  1.1244  0.7415 -0.8585
 6487SOL    HW230921   2.885   3.970   8.108 -1.3726  0.5193  0.4682
 6488SOL     OW30922   1.867   4.000  16.521  0.1954  0.4890 -0.3355
 6488SOL    HW130923   1.947   4.051  16.509  0.8044 -0.7388 -1.5831
 6488SOL    HW230924   1.883   3.942  16.446  1.1143 -2.1105  1.9002
 6489SOL     OW30925   4.247   0.244   3.057 -0.2386  0.5340  0.1873
 6489SOL    HW130926   4.267   0.177   3.122 -1.1394  0.3111  0.2318
 6489SOL    HW230927   4.318   0.308   3.068 -0.5593  0.9055  0.0751
 6490SOL     OW30928   3.840   4.006  14.215  0.4886 -0.0478 -0.0368
 6490SOL    HW130929   3.867   3.954  14.291  0.9180 -1.0857 -0.9128
 6490SOL    HW230930   3.881   3.957  14.144  0.7953  1.2493 -0.7465
 6491SOL     OW30931   0.165   1.130   5.670 -0.5175 -0.1473  0.2194
 6491SOL    HW130932   0.129   1.075   5.739  1.4497  1.2739  2.3793
 6491SOL    HW230933   0.104   1.123   5.596 -2.2307  1.6210  1.4503
 6492SOL     OW30934   2.185   0.131   1.204  0.4568  0.6753 -0.2124
 6492SOL    HW130935   2.263   0.127   1.260  1.6811 -0.2086 -1.9588
 6492SOL    HW230936   2.148   0.045   1.220 -1.1667  1.1859 -1.2613
 6493SOL     OW30937   0.320   1.945   7.005  0.0396  0.1359 -0.4383
 6493SOL    HW130938   0.241   1.996   7.025  0.0808  0.1710 -0.3656
 6493SOL    HW230939   0.287   1.869   6.957 -0.2887  0.1785 -0.2801
 6494SOL     OW30940   0.481   3.509  12.403  0.3254 -0.1729  0.2734
 6494SOL    HW130941   0.420   3.582  12.409  1.7784  1.0471  0.2405
 6494SOL    HW230942   0.500   3.506  12.497  0.7926  1.4478  0.2330
 6495SOL     OW30943   1.449   3.588   9.336 -0.5350 -0.1392 -0.4694
 6495SOL    HW130944   1.513   3.655   9.312 -0.2339  0.2226  1.3311
 6495SOL    HW230945   1.378   3.646   9.364 -0.5837 -1.1308  1.4641
 6496SOL     OW30946   2.272   4.317   5.933 -0.0776  0.6563  0.2876
 6496SOL    HW130947   2.178   4.304   5.929  0.2257 -1.3663 -0.3947
 6496SOL    HW230948   2.291   4.304   5.840 -0.2857 -2.1655  0.6266
 6497SOL     OW30949   0.304   3.248   7.438 -0.0774 -0.2839  0.2501
 6497SOL    HW130950   0.318   3.245   7.343  1.2176  0.4537  0.4186
 6497SOL    HW230951   0.213   3.276   7.430 -0.6186 -2.8659 -2.6141
 6498SOL     OW30952   2.085   0.919   3.166  0.0971  0.1418  0.5016
 6498SOL    HW130953   2.090   0.995   3.223  1.2378 -0.2094  0.8711
 6498SOL    HW230954   2.004   0.931   3.117  0.1056  2.2569  1.0054
 6499SOL     OW30955   3.873   1.048  10.112 -0.4868 -0.1297  0.2275
 6499SOL    HW130956   3.961   1.087  10.115 -0.9651  0.8638  1.0713
 6499SOL    HW230957   3.893   0.954  10.112 -1.2430 -0.2785 -1.4815
 6500SOL     OW30958   3.874   1.609   6.578  0.2647 -0.5510  0.0112
 6500SOL    HW130959   3.782   1.612   6.551 -0.2843 -2.3440  1.7191
 6500SOL    HW230960   3.865   1.540   6.644  2.4983 -0.0360  0.8355
 6501SOL     OW30961   1.210   1.125   3.877  0.2980  0.3945  0.0311
 6501SOL    HW130962   1.132   1.158   3.832  0.8763  0.5119 -0.8874
 6501SOL    HW230963   1.248   1.092   3.796 -1.2573 -2.5618  0.4892
 6502SOL     OW30964   4.315   3.027   6.305  0.6091 -0.1028 -0.2279
 6502SOL    HW130965   4.322   3.111   6.351  2.7794 -0.6097  0.3768
 6502SOL    HW230966   4.231   3.033   6.261  0.4846 -2.7133 -0.3452
 6503SOL     OW30967   2.695   1.671  11.731 -0.3791 -0.1566  0.4794
 6503SOL    HW130968   2.633   1.611  11.772 -1.5384 -0.3374 -1.5095
 6503SOL    HW230969   2.758   1.675  11.803 -1.1023  0.0278  1.1048
 6504SOL     OW30970   0.378   1.254   5.456 -0.4048 -0.2323  0.5680
 6504SOL    HW130971   0.427   1.289   5.531 -0.7199  1.6292 -0.0887
 6504SOL    HW230972   0.312   1.199   5.499 -1.0144 -0.8150 -1.1084
 6505SOL     OW30973   3.484   2.169   5.662  0.4717  0.4269  0.6625
 6505SOL    HW130974   3.417   2.101   5.665  0.7747  0.1328  0.8678
 6505SOL    HW230975   3.543   2.131   5.596  0.9878 -0.0448  1.3888
 6506SOL     OW30976   1.095   3.226   4.183  0.7673  0.3461 -0.5112
 6506SOL    HW130977   1.071   3.247   4.093 -2.1242 -0.4333  0.0631
 6506SOL    HW230978   1.046   3.144   4.193  2.8462 -0.9180 -0.7479
 6507SOL     OW30979   0.126   2.375   8.423  0.0055 -0.0665  0.6292
 6507SOL    HW130980   0.154   2.308   8.361  0.5568  1.2135 -0.5042
 6507SOL    HW230981   0.176   2.455   8.404 -2.5607  1.1647 -0.9377
 6508SOL     OW30982   0.141   4.652  16.800 -0.2980  0.3053  0.3826
 6508SOL    HW130983   0.106   4.711  16.733 -1.4885 -0.1718  0.5827
 6508SOL    HW230984   0.145   4.700  16.884  1.4928  0.5146  0.1906
 6509SOL     OW30985   3.504   4.043   9.681  0.3138 -0.2053 -0.2864
 6509SOL    HW130986   3.500   4.136   9.704  0.3045 -0.4778  0.8004
 6509SOL    HW230987   3.411   4.029   9.666  0.3763 -1.5361  0.6045
 6510SOL     OW30988   2.064   1.919  16.577 -0.1394 -0.3925  0.0692
 6510SOL    HW130989   1.988   1.964  16.540  2.0965  1.1883 -2.6369
 6510SOL    HW230990   2.109   1.890  16.497 -0.5453 -1.3250  0.1751
 6511SOL     OW30991   2.452   1.150   3.557  0.1460 -0.1592  0.3715
 6511SOL    HW130992   2.459   1.220   3.622 -1.7748 -1.0762  1.5557
 6511SOL    HW230993   2.537   1.155   3.514 -0.0557  0.5553  0.0606
 6512SOL     OW30994   3.801   0.363   4.441  0.4441 -0.0391  0.0952
 6512SOL    HW130995   3.831   0.435   4.385 -2.8903  1.1074 -0.2697
 6512SOL    HW230996   3.754   0.417   4.505  0.0115 -0.9480  0.5477
 6513SOL     OW30997   1.997   1.238   3.501 -0.0050 -0.1905  0.5558
 6513SOL    HW130998   2.031   1.205   3.584 -0.5788 -1.6436  0.1958
 6513SOL    HW230999   2.027   1.330   3.505  1.4427 -0.6515  0.5078
 6514SOL     OW31000   0.123   3.092   2.204  0.0109 -0.1158 -0.4605
 6514SOL    HW131001   0.146   3.124   2.117  0.9869 -1.0831 -0.5528
 6514SOL    HW231002   0.186   3.140   2.258  1.0090 -1.9845  0.0416
 6515SOL     OW31003   1.821   4.395   5.432  0.3610  0.0059 -0.1306
 6515SOL    HW131004   1.729   4.384   5.409 -0.0127 -2.1836  2.4819
 6515SOL    HW231005   1.809   4.412   5.525 -4.9990 -0.2851 -0.7563
 6516SOL     OW31006   4.093   2.325   2.301 -0.3786  0.4048  0.7147
 6516SOL    HW131007   4.100   2.278   2.218  0.3359  1.0232  0.4242
 6516SOL    HW231008   3.998   2.338   2.298 -0.3454  0.3074 -0.8311
 6517SOL     OW31009   2.095   4.584   1.881  0.0427 -0.2767 -0.0418
 6517SOL    HW131010   2.113   4.544   1.966  1.4540 -0.4894 -0.4509
 6517SOL    HW231011   2.090   4.677   1.906 -0.5883 -0.1161 -0.7319
 6518SOL     OW31012   2.177   1.131  14.316  0.3871  0.6506 -0.0350
 6518SOL    HW131013   2.098   1.158  14.269  1.2580  1.1641 -1.1875
 6518SOL    HW231014   2.171   1.188  14.392  0.2051 -0.3206  0.6783
 6519SOL     OW31015   4.246   4.201   3.694  0.5551 -0.2137  0.2469
 6519SOL    HW131016   4.154   4.201   3.669 -0.0004 -0.4580  2.2654
 6519SOL    HW231017   4.289   4.162   3.618  1.7903  0.9001  0.3672
 6520SOL     OW31018   2.528   1.507   1.005  0.2674 -0.0629  0.0761
 6520SOL    HW131019   2.434   1.506   0.990  0.8117 -1.4796 -3.2139
 6520SOL    HW231020   2.537   1.529   1.098 -0.3180 -4.4450  1.1835
 6521SOL     OW31021   2.605   4.708   3.019 -0.0747 -0.0973  0.1893
 6521SOL    HW131022   2.669   0.039   3.063 -0.3685  1.4649 -1.3842
 6521SOL    HW231023   2.526   0.037   3.024  0.1371  0.2318 -0.0800
 6522SOL     OW31024   4.491   4.467  12.853 -0.0581  0.0375  0.0451
 6522SOL    HW131025   4.419   4.530  12.865 -0.4033 -0.5305  0.9066
 6522SOL    HW231026   4.549   4.474  12.929 -2.3648 -1.0430  1.9032
 6523SOL     OW31027   3.144   2.699  10.813  0.4022  0.1503  0.5532
 6523SOL    HW131028   3.165   2.606  10.804 -1.2548 -0.0271 -1.5443
 6523SOL    HW231029   3.050   2.698  10.795 -0.0061  1.5958  2.6469
 6524SOL     OW31030   0.465   1.186   5.934  0.4470 -0.6743 -0.3356
 6524SOL    HW131031   0.479   1.228   6.019 -1.8640  0.4099 -0.4701
 6524SOL    HW231032   0.470   1.094   5.961 -0.4645  0.1294  2.5678
 6525SOL     OW31033   4.457   3.868   3.586  0.3025 -0.2404  0.1447
 6525SOL    HW131034   4.391   3.859   3.655  1.1766  0.5297  1.0778
 6525SOL    HW231035   4.409   3.900   3.509  2.7895  1.9480 -0.4836
 6526SOL     OW31036   1.388   0.630  16.395 -0.0562 -0.5458 -0.1550
 6526SOL    HW131037   1.481   0.611  16.388  0.5879  2.1433  1.1351
 6526SOL    HW231038   1.374   0.611  16.488  0.5763 -5.0579 -1.0048
 6527SOL     OW31039   1.131   4.428  15.816 -0.7240 -0.2170  0.5649
 6527SOL    HW131040   1.130   4.412  15.722  2.5161  1.3847  0.2688
 6527SOL    HW231041   1.192   4.501  15.825 -1.6175  0.6058 -0.0350
 6528SOL     OW31042   2.505   4.039   5.079 -0.0910 -0.2468 -0.1724
 6528SOL    HW131043   2.514   4.076   5.167  2.9026  1.1451 -1.0836
 6528SOL    HW231044   2.592   4.060   5.045  0.7301 -2.8981  0.2821
 6529SOL     OW31045   3.093   3.099   7.837  0.4493  0.1847  0.5905
 6529SOL    HW131046   3.070   3.092   7.929  1.4118 -1.3572  0.7151
 6529SOL    HW231047   3.006   3.111   7.799  0.0854 -2.4544  0.6254
 6530SOL     OW31048   0.846   3.846  17.602  0.1994  0.3056 -0.1553
 6530SOL    HW131049   0.830   3.764  17.650 -0.2631  0.1190 -0.6256
 6530SOL    HW231050   0.766   3.896  17.617  0.1403  0.6519 -1.6345
 6531SOL     OW31051   0.522   1.587  13.610  0.3697 -0.0734  0.4344
 6531SOL    HW131052   0.486   1.618  13.527 -0.7236  1.5671  1.5314
 6531SOL    HW231053   0.607   1.553  13.583  0.0431  0.2311 -0.9886
 6532SOL     OW31054   4.523   3.133  15.510  0.4989 -0.2120 -0.2449
 6532SOL    HW131055   4.445   3.078  15.512 -0.0366  0.4139 -3.2557
 6532SOL    HW231056   4.504   3.216  15.465  0.6888  0.6476  1.2631
 6533SOL     OW31057   0.831   1.489   0.270  0.0035 -0.1516 -0.5300
 6533SOL    HW131058   0.923   1.502   0.248  0.7256 -1.4666  1.7599
 6533SOL    HW231059   0.798   1.438   0.195  0.6751 -0.6579 -0.4845
 6534SOL     OW31060   0.872   3.385  12.371 -0.1314  0.1005  0.0056
 6534SOL    HW131061   0.811   3.455  12.349 -0.1856  0.0942  0.1355
 6534SOL    HW231062   0.956   3.430  12.381 -0.8917  1.5106  0.0323
 6535SOL     OW31063   4.134   0.540   0.255 -0.0926  0.0116 -0.1803
 6535SOL    HW131064   4.204   0.544   0.320 -0.9823 -1.6919  0.8972
 6535SOL    HW231065   4.186   0.544   0.174 -0.8110 -0.6243 -0.6734
 6536SOL     OW31066   2.791   1.133   8.274  0.6585  0.0688 -0.2896
 6536SOL    HW131067   2.738   1.056   8.252 -0.2001  0.3421  0.7972
 6536SOL    HW231068   2.752   1.171   8.353  0.2445 -1.7486  0.3938
 6537SOL     OW31069   1.169   2.483   5.356 -0.1837 -0.2578  0.1347
 6537SOL    HW131070   1.236   2.493   5.288 -3.5014  0.0798 -3.1212
 6537SOL    HW231071   1.147   2.390   5.354 -0.4128 -0.1860 -0.4867
 6538SOL     OW31072   1.403   1.076   6.727  0.3219 -0.0658  0.3488
 6538SOL    HW131073   1.444   1.155   6.692  0.5159 -0.6021 -0.6175
 6538SOL    HW231074   1.463   1.010   6.692  2.8600  2.0485  0.7290
 6539SOL     OW31075   0.116   1.174  13.517 -0.6017  0.4575  0.3315
 6539SOL    HW131076   0.075   1.150  13.600 -0.0060 -2.1196 -0.1288
 6539SOL    HW231077   0.098   1.097  13.463  0.8970  2.4473 -2.9919
 6540SOL     OW31078   1.963   0.620   4.506  0.1166  0.0256 -0.0443
 6540SOL    HW131079   1.976   0.715   4.495 -0.9882  0.0624 -1.1298
 6540SOL    HW231080   2.001   0.570   4.434  0.8140 -0.2827  0.5523
 6541SOL     OW31081   1.173   1.040  15.371 -0.2433  1.0335 -0.0665
 6541SOL    HW131082   1.239   1.030  15.303  0.8442 -1.6725  1.4212
 6541SOL    HW231083   1.222   1.029  15.452  1.5254  0.3156 -1.2258
 6542SOL     OW31084   1.124   2.669   7.381 -0.1328  0.0966 -0.0713
 6542SOL    HW131085   1.133   2.619   7.462  1.6532 -1.6591 -1.3482
 6542SOL    HW231086   1.032   2.691   7.368 -0.9871 -3.2265  0.2936
 6543SOL     OW31087   3.898   0.266   6.888 -0.0692  0.1179 -0.4415
 6543SOL    HW131088   3.943   0.319   6.954 -2.2332 -0.8233  1.7590
 6543SOL    HW231089   3.812   0.307   6.898 -0.0560  0.5197 -1.8862
 6544SOL     OW31090   3.809   2.662  15.750  0.0783 -0.2935  0.7663
 6544SOL    HW131091   3.758   2.582  15.743  0.7651 -0.5397 -1.3803
 6544SOL    HW231092   3.771   2.696  15.831  1.0760  0.5735  0.8868
 6545SOL     OW31093   3.161   2.182  17.557 -0.9649  0.1788  0.3171
 6545SOL    HW131094   3.241   2.212  17.513 -0.5202  0.6937  1.4744
 6545SOL    HW231095   3.098   2.187  17.485 -0.8917  1.6172  0.3494
 6546SOL     OW31096   0.636   3.140   6.628  0.1698 -0.0273  0.3915
 6546SOL    HW131097   0.582   3.082   6.682 -0.9691  1.6627  1.0504
 6546SOL    HW231098   0.709   3.155   6.688  0.3042 -0.0627  0.2351
 6547SOL     OW31099   3.868   1.675  16.720 -0.1183 -0.0447  0.0018
 6547SOL    HW131100   3.823   1.759  16.708  3.1273  1.5999 -0.9706
 6547SOL    HW231101   3.960   1.700  16.731  0.2563 -0.9730 -1.0918
 6548SOL     OW31102   0.846   1.654   3.299  0.3152  0.0458 -0.2811
 6548SOL    HW131103   0.822   1.747   3.300 -0.4048 -0.1551  1.5318
 6548SOL    HW231104   0.942   1.657   3.298  0.2518  1.8447 -1.0564
 6549SOL     OW31105   4.374   1.763   4.137  0.4421  0.1126  0.0544
 6549SOL    HW131106   4.448   1.776   4.197 -1.4999  0.5053  2.3709
 6549SOL    HW231107   4.410   1.696   4.079  0.7782 -0.3397  0.7768
 6550SOL     OW31108   0.599   2.021  16.558  0.9996 -0.7087  0.0889
 6550SOL    HW131109   0.516   2.051  16.595  1.8009  2.9860 -1.0775
 6550SOL    HW231110   0.607   1.930  16.586 -0.0579 -0.4484  1.2324
 6551SOL     OW31111   3.261   3.943   9.010  0.6105  0.0022 -0.2058
 6551SOL    HW131112   3.283   3.889   9.086 -3.4582  0.2900  1.2048
 6551SOL    HW231113   3.348   3.967   8.978  1.2218 -0.9935  0.7217
 6552SOL     OW31114   1.193   3.599  16.445  0.2543 -0.0117 -0.1621
 6552SOL    HW131115   1.140   3.660  16.496 -1.2665 -1.9451  0.5792
 6552SOL    HW231116   1.221   3.663  16.380  0.9291  0.6798  0.8205
 6553SOL     OW31117   1.383   0.933   2.980  0.1516  0.5731 -0.3543
 6553SOL    HW131118   1.418   0.862   3.035  0.1874  1.5777  0.9424
 6553SOL    HW231119   1.407   1.006   3.037  0.8699  0.2949 -0.2954
 6554SOL     OW31120   2.064   3.011   6.711  0.1132  0.2581 -0.0641
 6554SOL    HW131121   1.976   3.003   6.747  0.0763  1.6863  0.1395
 6554SOL    HW231122   2.121   3.007   6.788  1.7410 -1.2279 -1.3298
 6555SOL     OW31123   4.099   1.592   6.829  0.1856  0.3632  0.4898
 6555SOL    HW131124   4.046   1.645   6.888 -0.7587  0.0284 -0.0699
 6555SOL    HW231125   4.185   1.625   6.858  0.5734  1.1559 -1.5375
 6556SOL     OW31126   4.445   2.826  12.790  0.1469 -0.4864  0.1579
 6556SOL    HW131127   4.498   2.875  12.728 -1.8521  0.8437 -0.4891
 6556SOL    HW231128   4.394   2.766  12.735  0.2696 -0.7659  0.3486
 6557SOL     OW31129   4.703   0.932   2.151  0.7832  0.6806  0.3199
 6557SOL    HW131130   0.005   0.979   2.230  0.1186  2.0622 -0.2669
 6557SOL    HW231131   0.039   0.859   2.151  0.3348  0.2901  3.4413
 6558SOL     OW31132   1.573   1.725   2.714  0.0034 -0.3175 -0.1830
 6558SOL    HW131133   1.559   1.794   2.779  2.3463 -0.8241  0.8589
 6558SOL    HW231134   1.645   1.755   2.659  2.0287 -3.3235  0.8424
 6559SOL     OW31135   0.132   1.157   2.127  0.3860 -0.1533  0.1086
 6559SOL    HW131136   0.162   1.103   2.054 -0.9258 -0.2947 -0.3229
 6559SOL    HW231137   0.200   1.137   2.191  2.6637  2.8616 -1.4186
 6560SOL     OW31138   3.912   1.181  16.002  0.2825 -0.5326  0.4551
 6560SOL    HW131139   3.871   1.262  15.972  0.4869 -1.3808 -2.1862
 6560SOL    HW231140   3.998   1.208  16.034 -0.6848 -0.0345  2.6352
 6561SOL     OW31141   3.423   0.207  14.882 -0.0759 -0.2716 -0.7655
 6561SOL    HW131142   3.418   0.244  14.971  0.5204 -2.5789  0.2248
 6561SOL    HW231143   3.419   0.112  14.891  0.7120 -0.3517 -1.2725
 6562SOL     OW31144   4.564   0.669   0.015  0.7653  0.1896 -0.0242
 6562SOL    HW131145   4.479   0.625   0.026  0.9324  0.3827  2.1366
 6562SOL    HW231146   4.629   0.628   0.072 -1.4004 -2.0923  0.8302
 6563SOL     OW31147   3.001   3.426   4.934 -0.0146  0.6444  0.8963
 6563SOL    HW131148   3.058   3.437   5.010  0.1678 -0.9010  0.9869
 6563SOL    HW231149   3.071   3.435   4.869 -0.2757 -0.9229  0.4040
 6564SOL     OW31150   4.086   1.943  10.463  0.0482  0.0164  0.2139
 6564SOL    HW131151   4.082   2.030  10.504 -0.1640  0.1440 -0.0759
 6564SOL    HW231152   3.991   1.931  10.457  0.4291 -1.3385 -2.8786
 6565SOL     OW31153   3.630   3.039   7.662 -0.2687  0.1883 -0.1076
 6565SOL    HW131154   3.695   3.102   7.631 -0.0983 -1.1546 -2.4586
 6565SOL    HW231155   3.555   3.091   7.691 -1.1992 -1.0597 -0.2456
 6566SOL     OW31156   3.500   4.295  10.544  0.0111 -0.7764 -0.0089
 6566SOL    HW131157   3.493   4.235  10.470  0.6478 -1.5491  0.5566
 6566SOL    HW231158   3.556   4.360  10.502 -0.0761 -1.9393 -1.9015
 6567SOL     OW31159   0.966   2.024  16.529 -0.2279 -0.1734 -0.0299
 6567SOL    HW131160   0.959   2.054  16.438  3.5378 -0.6302 -0.4781
 6567SOL    HW231161   0.991   2.105  16.573  0.8042 -2.0522  2.8409
 6568SOL     OW31162   2.916   4.211   6.365  0.1505  0.2432 -0.2771
 6568SOL    HW131163   2.910   4.123   6.403  0.9515  0.7722  1.0637
 6568SOL    HW231164   2.866   4.256   6.433  1.2866  2.6265 -1.0453
 6569SOL     OW31165   4.649   2.141   8.281  0.2666  0.2130  0.1882
 6569SOL    HW131166   4.680   2.181   8.200  2.8034  1.9267  2.0016
 6569SOL    HW231167   0.002   2.101   8.321  1.0567  1.3922 -0.1719
 6570SOL     OW31168   1.761   2.477   7.978  0.1307  0.5488 -0.0838
 6570SOL    HW131169   1.717   2.450   8.059 -1.3316  2.8921 -0.1056
 6570SOL    HW231170   1.703   2.460   7.904  0.4233 -2.1361  0.3113
 6571SOL     OW31171   2.463   0.637   7.305 -0.6680 -0.2500  0.2675
 6571SOL    HW131172   2.380   0.597   7.332 -0.1537 -1.2396  0.3673
 6571SOL    HW231173   2.440   0.665   7.216  2.8494  1.0143 -0.2381
 6572SOL     OW31174   2.442   2.334   3.415  0.3983 -0.2116  0.7346
 6572SOL    HW131175   2.421   2.425   3.395 -1.1895 -1.3433 -2.6795
 6572SOL    HW231176   2.419   2.328   3.508  1.8620  0.3165  1.1327
 6573SOL     OW31177   1.157   3.760   7.678 -0.1867 -0.0689 -0.2621
 6573SOL    HW131178   1.221   3.812   7.726  1.0177  0.1934 -2.1345
 6573SOL    HW231179   1.103   3.835   7.652  0.8846  0.4197 -1.0563
 6574SOL     OW31180   1.237   2.231   1.988 -0.2848  0.2361  0.3528
 6574SOL    HW131181   1.263   2.297   1.924  0.9356 -0.1270  0.4885
 6574SOL    HW231182   1.143   2.243   1.971 -0.3553 -0.3297  0.3328
 6575SOL     OW31183   1.977   3.780   8.349 -0.0691 -0.5284  0.1854
 6575SOL    HW131184   1.931   3.762   8.266 -2.1736 -0.8110  1.4108
 6575SOL    HW231185   1.951   3.871   8.363 -1.2776 -0.9957  1.0490
 6576SOL     OW31186   1.128   1.817  14.823  0.0715 -0.5028 -0.5306
 6576SOL    HW131187   1.195   1.761  14.784 -0.6883 -2.0514  0.3683
 6576SOL    HW231188   1.176   1.871  14.886 -0.6294  0.1276 -0.5309
 6577SOL     OW31189   0.321   1.961   0.352  0.6124  0.0043  0.4263
 6577SOL    HW131190   0.349   1.871   0.365  1.0608  0.2020  0.8429
 6577SOL    HW231191   0.401   2.013   0.344 -0.2108  1.4714  1.7277
 6578SOL     OW31192   0.575   1.543  17.463  0.6101  0.0317 -0.1343
 6578SOL    HW131193   0.540   1.479  17.401 -2.9816 -0.1975  2.1479
 6578SOL    HW231194   0.666   1.519  17.479  1.1635  3.4637  1.9526
 6579SOL     OW31195   2.113   0.750   8.442  0.5312  0.5354  0.3723
 6579SOL    HW131196   2.067   0.802   8.507  1.2269  0.9551  0.5299
 6579SOL    HW231197   2.069   0.668   8.465 -0.3512  0.8448 -0.2018
 6580SOL     OW31198   3.247   3.247   7.510 -0.2585  0.1579 -0.2507
 6580SOL    HW131199   3.317   3.312   7.503  0.6323 -0.5602  2.1123
 6580SOL    HW231200   3.282   3.210   7.591  0.3353 -2.2451 -1.5948
 6581SOL     OW31201   3.258   3.809  16.011 -0.2492 -0.4967 -0.3180
 6581SOL    HW131202   3.310   3.875  16.057 -0.6234 -1.2062  1.1142
 6581SOL    HW231203   3.167   3.832  16.031  0.3253 -0.7681  2.6562
 6582SOL     OW31204   0.730   1.153  14.648 -0.1307 -0.4462 -0.3100
 6582SOL    HW131205   0.737   1.158  14.743  0.7011 -1.1175 -0.3374
 6582SOL    HW231206   0.806   1.205  14.622 -0.2538  0.1866  0.6110
 6583SOL     OW31207   1.950   3.492  17.260  0.1120 -0.0284 -0.2524
 6583SOL    HW131208   1.983   3.455  17.178 -0.2166 -1.9085  0.4745
 6583SOL    HW231209   1.995   3.575  17.272  1.7434 -0.9865  0.2185
 6584SOL     OW31210   1.181   0.798   8.237  0.2839 -0.0851 -0.6103
 6584SOL    HW131211   1.207   0.835   8.321  1.1561  0.8040 -1.2712
 6584SOL    HW231212   1.201   0.875   8.183  2.8046 -0.4824 -0.2221
 6585SOL     OW31213   4.307   1.668   2.680  0.1741  0.8552  0.6916
 6585SOL    HW131214   4.321   1.587   2.632 -1.4601  1.2855 -0.5030
 6585SOL    HW231215   4.285   1.649   2.771 -0.2443 -0.4196  0.3171
 6586SOL     OW31216   3.992   0.266  14.970  0.7043  0.4243  0.1359
 6586SOL    HW131217   4.007   0.171  14.964  1.6094  0.6039 -0.4987
 6586SOL    HW231218   4.071   0.286  15.021  0.3618  0.7476  0.5329
 6587SOL     OW31219   0.249   1.039   8.453 -0.1419 -0.0182 -0.1678
 6587SOL    HW131220   0.264   1.127   8.419  0.6645  0.0375  0.3089
 6587SOL    HW231221   0.209   1.008   8.372 -0.4510 -2.3001  0.8473
 6588SOL     OW31222   2.704   1.111   3.438  0.1341 -0.3514  0.3142
 6588SOL    HW131223   2.743   1.105   3.526  0.0822 -0.6410  0.3173
 6588SOL    HW231224   2.732   1.024   3.409 -2.6315 -0.8565 -0.7588
 6589SOL     OW31225   3.766   1.718   8.605  0.5607 -0.3557 -0.2687
 6589SOL    HW131226   3.689   1.719   8.662  1.8315 -1.5405  1.4611
 6589SOL    HW231227   3.727   1.722   8.517 -3.1573  1.3756  1.4750
 6590SOL     OW31228   0.464   3.301   3.839  0.2322 -0.0838  0.3579
 6590SOL    HW131229   0.461   3.380   3.895  1.7628  1.5118 -1.7976
 6590SOL    HW231230   0.434   3.339   3.757  2.3005 -0.7704 -0.7119
 6591SOL     OW31231   1.103   1.979  11.113 -0.1237 -0.4561  0.0266
 6591SOL    HW131232   1.175   1.944  11.060  1.3278 -1.4202  2.6085
 6591SOL    HW231233   1.047   1.902  11.116 -0.7639  0.0544  1.0650
 6592SOL     OW31234   2.101   3.712  15.495  0.3726 -0.0128 -0.4176
 6592SOL    HW131235   2.124   3.798  15.460 -0.0324  0.5776  0.7875
 6592SOL    HW231236   2.110   3.654  15.419  0.9580 -0.9674  0.3822
 6593SOL     OW31237   3.091   4.274   6.120  0.3707  0.2231 -0.3521
 6593SOL    HW131238   3.130   4.360   6.104 -0.5657  0.6757 -0.2253
 6593SOL    HW231239   3.002   4.300   6.145  1.0978  0.8144  1.7105
 6594SOL     OW31240   2.615   0.848   5.984  0.2316 -0.5767  0.2111
 6594SOL    HW131241   2.564   0.767   5.990 -0.6176 -0.0994 -0.5793
 6594SOL    HW231242   2.550   0.912   6.012 -0.9300 -1.8232  0.3684
 6595SOL     OW31243   0.624   3.627   3.635 -0.2156  0.1180  0.0771
 6595SOL    HW131244   0.656   3.550   3.681  0.8632  0.8091  0.5038
 6595SOL    HW231245   0.530   3.613   3.645 -0.4826  1.5678 -0.3786
 6596SOL     OW31246   4.162   3.858   6.543 -0.1677 -0.1558 -0.6550
 6596SOL    HW131247   4.121   3.938   6.510 -0.5827 -1.1419 -2.5470
 6596SOL    HW231248   4.216   3.826   6.470 -0.1504 -1.7246  0.0459
 6597SOL     OW31249   2.967   1.702  12.851  0.5392 -0.2099  0.5482
 6597SOL    HW131250   2.898   1.646  12.886  0.2428 -1.3679 -1.8550
 6597SOL    HW231251   2.938   1.723  12.762  0.7201 -0.7261  0.3620
 6598SOL     OW31252   4.216   0.783  16.325  0.1419  0.4737 -0.4902
 6598SOL    HW131253   4.182   0.695  16.310 -3.6972  2.3379 -2.7711
 6598SOL    HW231254   4.184   0.799  16.414 -0.0375  0.0002 -0.4700
 6599SOL     OW31255   2.088   1.359   7.318 -0.0786 -0.0972  0.0825
 6599SOL    HW131256   2.086   1.397   7.406  1.9928 -1.1352  0.5617
 6599SOL    HW231257   2.159   1.414   7.284  0.5066 -0.5300  0.6190
 6600SOL     OW31258   0.268   4.164  17.616 -0.1841  0.0634  0.4453
 6600SOL    HW131259   0.271   4.081  17.567  1.0965 -0.0463  0.6954
 6600SOL    HW231260   0.185   4.194  17.581  0.4661  1.7690  0.3582
 6601SOL     OW31261   2.036   2.882   7.969  0.3363  0.5728 -0.8082
 6601SOL    HW131262   2.089   2.961   7.961 -0.3690  1.0959 -0.3019
 6601SOL    HW231263   2.057   2.831   7.891  0.5112 -0.4610 -0.0908
 6602SOL     OW31264   1.943   3.034   7.159  0.2723 -0.1379 -0.1461
 6602SOL    HW131265   2.005   2.994   7.097 -1.5686 -2.6419 -0.3648
 6602SOL    HW231266   1.870   3.059   7.103 -0.2888 -2.1862 -0.3089
 6603SOL     OW31267   2.965   3.971   6.450  0.5074  0.0074  0.1583
 6603SOL    HW131268   3.008   3.984   6.535 -1.1113  0.0848  0.9785
 6603SOL    HW231269   2.905   3.899   6.472  0.7384 -0.3118 -0.2570
 6604SOL     OW31270   1.645   0.796  13.359  0.0239 -0.4294 -0.0579
 6604SOL    HW131271   1.571   0.771  13.414  0.0581 -0.0012  0.1818
 6604SOL    HW231272   1.717   0.795  13.423  0.3859 -0.2015 -0.4604
 6605SOL     OW31273   1.328   1.714   5.788 -0.2602  0.5930  0.5779
 6605SOL    HW131274   1.409   1.664   5.800  1.0204  2.9056  1.6757
 6605SOL    HW231275   1.336   1.752   5.701  0.5650  2.0802  1.2838
 6606SOL     OW31276   0.227   3.606   4.036 -0.2384 -0.0759  0.2468
 6606SOL    HW131277   0.240   3.669   4.106 -0.2741 -1.2526  1.3056
 6606SOL    HW231278   0.174   3.540   4.080 -1.1583  0.4097 -0.1317
 6607SOL     OW31279   3.423   3.483   2.366  0.3884 -0.4357 -0.1883
 6607SOL    HW131280   3.471   3.494   2.284  1.2019 -1.3818  0.1634
 6607SOL    HW231281   3.453   3.558   2.417  0.5354 -0.8202  0.2938
 6608SOL     OW31282   2.418   0.774   5.515 -0.3590  1.1011  0.1442
 6608SOL    HW131283   2.404   0.844   5.578 -1.8703  2.0849 -1.2951
 6608SOL    HW231284   2.481   0.807   5.451 -0.8687 -0.9109 -1.4019
 6609SOL     OW31285   0.912   1.085   6.421  0.3537 -0.7162  0.4721
 6609SOL    HW131286   1.002   1.098   6.449 -0.0092 -0.3175  1.4697
 6609SOL    HW231287   0.884   1.168   6.383  0.5910  0.4821  2.9434
 6610SOL     OW31288   2.092   2.397   0.164 -0.0583 -0.0000  0.9235
 6610SOL    HW131289   1.997   2.388   0.151  0.6576 -0.8693 -3.6576
 6610SOL    HW231290   2.119   2.390   0.073 -0.6359 -0.0144  0.7547
 6611SOL     OW31291   2.397   0.519   8.831  0.3096 -0.0119 -0.2451
 6611SOL    HW131292   2.355   0.464   8.897  1.7070 -0.4482  0.2681
 6611SOL    HW231293   2.381   0.606   8.867 -1.4186 -0.5793  0.3658
 6612SOL     OW31294   0.201   0.448   7.784 -0.3292 -0.0964 -0.0068
 6612SOL    HW131295   0.276   0.431   7.841 -0.4016 -0.7514 -0.1008
 6612SOL    HW231296   0.138   0.471   7.852 -2.1051  0.0543 -1.7012
 6613SOL     OW31297   3.874   3.868   2.165 -0.1821 -0.5409 -0.0812
 6613SOL    HW131298   3.879   3.895   2.074 -2.7677  1.2309  0.2996
 6613SOL    HW231299   3.864   3.773   2.165  3.3185 -0.9220  1.5971
 6614SOL     OW31300   1.078   1.443  13.132  0.1175 -0.0618  0.1418
 6614SOL    HW131301   1.079   1.374  13.198  1.1495  0.4397  0.6560
 6614SOL    HW231302   1.058   1.522  13.182 -0.3331  0.2978 -0.6003
 6615SOL     OW31303   2.719   2.736   1.264  0.2098 -0.0350 -0.1775
 6615SOL    HW131304   2.804   2.703   1.237  0.6391  1.5315 -0.7078
 6615SOL    HW231305   2.739   2.826   1.290 -0.8486 -0.0356  0.6685
 6616SOL     OW31306   3.194   1.388   8.408 -0.0670  0.1994 -0.1881
 6616SOL    HW131307   3.192   1.299   8.375  0.3231  1.1625 -2.7933
 6616SOL    HW231308   3.152   1.369   8.492  0.8079  2.4288  0.7611
 6617SOL     OW31309   1.698   1.973   7.079  0.5137  0.0366  0.4018
 6617SOL    HW131310   1.754   2.008   7.147  1.4313  0.2122 -0.4469
 6617SOL    HW231311   1.621   2.025   7.103 -1.6825 -3.4035  0.7788
 6618SOL     OW31312   0.434   2.575   7.160  0.3673 -0.3995  0.2541
 6618SOL    HW131313   0.380   2.545   7.086 -0.3314 -1.1287  1.0687
 6618SOL    HW231314   0.435   2.670   7.144  1.4608 -0.5503 -0.5934
 6619SOL     OW31315   4.318   0.537   0.873 -0.0921 -0.3951 -0.1255
 6619SOL    HW131316   4.275   0.503   0.794 -0.4911 -0.2521  0.0298
 6619SOL    HW231317   4.382   0.595   0.832 -0.5152  0.2538  0.1402
 6620SOL     OW31318   3.891   1.890  14.706  0.1876 -0.2489  0.0936
 6620SOL    HW131319   3.948   1.953  14.662  2.7385 -1.6679  1.3722
 6620SOL    HW231320   3.871   1.932  14.789  1.7230  1.1510 -0.2543
 6621SOL     OW31321   2.904   4.423   3.265  0.1336  0.3578 -0.2342
 6621SOL    HW131322   2.945   4.337   3.278  0.9892  0.7360 -0.4425
 6621SOL    HW231323   2.850   4.420   3.344  0.2478 -1.3824 -0.2161
 6622SOL     OW31324   2.050   4.638   1.622  0.4471  0.1041 -0.1009
 6622SOL    HW131325   2.039   4.622   1.716  2.8775  0.8851  0.3064
 6622SOL    HW231326   2.142   4.614   1.612  0.1815 -0.6470 -0.7361
 6623SOL     OW31327   0.561   4.282  17.538  0.0101  0.2698 -0.8640
 6623SOL    HW131328   0.583   4.376  17.542 -1.3243  0.6140 -1.9427
 6623SOL    HW231329   0.496   4.271  17.608  0.5027 -0.1459 -0.4667
 6624SOL     OW31330   4.244   0.692  13.683 -0.1050 -0.4390 -0.1310
 6624SOL    HW131331   4.253   0.611  13.634  0.6905 -0.3217 -0.1838
 6624SOL    HW231332   4.155   0.722  13.666  0.0999 -0.8769 -1.9701
 6625SOL     OW31333   3.278   0.635  15.566  0.1308  0.0291 -0.3083
 6625SOL    HW131334   3.184   0.625  15.583  0.8012 -0.4386  3.0605
 6625SOL    HW231335   3.325   0.581  15.629  0.1726 -1.2795 -1.4679
 6626SOL     OW31336   0.734   2.634  17.527 -0.5234 -0.1392 -0.0615
 6626SOL    HW131337   0.827   2.611  17.515 -0.5614 -0.0834 -0.4608
 6626SOL    HW231338   0.688   2.552  17.509 -1.8979  0.2910  1.5129
 6627SOL     OW31339   2.394   3.617   5.777 -0.3026  0.2818  0.3882
 6627SOL    HW131340   2.426   3.528   5.772 -3.2939 -0.7327 -0.5805
 6627SOL    HW231341   2.378   3.630   5.871  2.4575  0.9742  0.7751
 6628SOL     OW31342   4.299   1.811  13.680 -0.2429 -0.4326 -0.4461
 6628SOL    HW131343   4.268   1.797  13.770  1.1115 -2.2646 -0.2548
 6628SOL    HW231344   4.292   1.905  13.696  0.3597 -0.6474  1.1171
 6629SOL     OW31345   0.036   4.535   5.512  0.4339 -0.2096 -0.2889
 6629SOL    HW131346   4.696   4.604   5.524  0.4976  0.3149 -3.0072
 6629SOL    HW231347   0.109   4.587   5.479  2.1266 -2.1087  0.4221
 6630SOL     OW31348   2.280   1.853   2.581 -0.4312  0.3510 -0.0991
 6630SOL    HW131349   2.198   1.809   2.605 -0.5040 -0.2372 -1.4275
 6630SOL    HW231350   2.318   1.880   2.664  0.7623 -1.0827 -0.2016
 6631SOL     OW31351   2.600   1.729   0.080  0.6256 -0.6534 -0.0475
 6631SOL    HW131352   2.660   1.734   0.154 -0.9592 -1.0591  1.2737
 6631SOL    HW231353   2.639   1.802   0.032  2.6239  0.9968  4.0309
 6632SOL     OW31354   1.054   3.333   2.583  0.1907 -0.1276  0.6053
 6632SOL    HW131355   1.078   3.261   2.525 -2.4822 -0.4317 -0.1206
 6632SOL    HW231356   1.001   3.392   2.528 -0.7322 -1.7348 -0.2098
 6633SOL     OW31357   4.511   0.601   7.530  0.1540 -0.4857  0.4856
 6633SOL    HW131358   4.439   0.611   7.592 -0.0960  0.3733  0.0586
 6633SOL    HW231359   4.550   0.521   7.564 -0.5264 -0.4144  1.4589
 6634SOL     OW31360   2.845   0.218   2.927  0.3222  0.1612  0.3579
 6634SOL    HW131361   2.836   0.140   2.981  0.5643  0.5652  0.9784
 6634SOL    HW231362   2.902   0.175   2.864  0.6070  0.0488  0.6981
 6635SOL     OW31363   3.406   0.526  14.903 -0.6946  0.6473 -0.4846
 6635SOL    HW131364   3.486   0.538  14.955 -1.0970  1.1723  0.0001
 6635SOL    HW231365   3.418   0.432  14.885  1.3549  0.9155 -0.5599
 6636SOL     OW31366   3.534   0.119   5.488  0.1235 -0.0287 -0.4267
 6636SOL    HW131367   3.564   0.180   5.421  0.1312  0.4586  0.0233
 6636SOL    HW231368   3.476   0.060   5.440 -0.5408  3.0148 -3.3398
 6637SOL     OW31369   1.657   0.050   3.610  0.1891  0.0391  0.3544
 6637SOL    HW131370   1.593   4.704   3.605 -0.9654  1.1586 -0.6864
 6637SOL    HW231371   1.739   0.003   3.626  0.6019  1.0655  1.2216
 6638SOL     OW31372   3.672   2.774  11.188 -0.8276 -0.6139 -0.6996
 6638SOL    HW131373   3.653   2.820  11.270 -1.0016  0.8759 -1.5624
 6638SOL    HW231374   3.697   2.683  11.205  3.0785  0.2857 -1.6537
 6639SOL     OW31375   1.532   1.360   6.780 -0.3036 -0.5040 -0.2973
 6639SOL    HW131376   1.473   1.405   6.841 -1.3531 -0.2275 -1.5092
 6639SOL    HW231377   1.610   1.411   6.802 -0.2458 -0.4970 -0.5199
 6640SOL     OW31378   0.474   3.814   8.446 -0.8875 -0.1963  0.6568
 6640SOL    HW131379   0.420   3.794   8.370  1.0643 -1.1940 -0.4726
 6640SOL    HW231380   0.555   3.773   8.416 -0.3249  2.2567 -1.1042
 6641SOL     OW31381   1.773   3.174   6.985 -0.3749 -0.1837 -0.1792
 6641SOL    HW131382   1.843   3.232   6.953 -0.6417  0.1494 -0.1634
 6641SOL    HW231383   1.714   3.238   7.024 -0.8381 -1.8004  1.7680
 6642SOL     OW31384   2.630   3.727  14.915 -0.0477 -0.2652  0.0943
 6642SOL    HW131385   2.536   3.743  14.931 -0.1999  0.5252 -1.6749
 6642SOL    HW231386   2.651   3.817  14.889 -4.1781  0.7819  0.3142
 6643SOL     OW31387   2.026   2.628  11.974  0.1295  0.7236  0.4247
 6643SOL    HW131388   2.099   2.634  12.037  0.3029 -0.0898  0.2986
 6643SOL    HW231389   2.045   2.705  11.919 -1.4912 -1.1018 -2.6533
 6644SOL     OW31390   0.701   4.049   4.203  0.1890  0.5018 -0.3274
 6644SOL    HW131391   0.649   3.968   4.205  1.8751 -0.5836 -0.5726
 6644SOL    HW231392   0.778   4.024   4.154  0.7544 -0.9901  1.3073
 6645SOL     OW31393   1.241   4.503   8.301 -0.0493  0.5003 -0.0245
 6645SOL    HW131394   1.199   4.430   8.346  1.2807  0.4806  1.1569
 6645SOL    HW231395   1.272   4.552   8.376  1.8281  0.6248 -0.8984
 6646SOL     OW31396   2.813   2.449   8.234  0.3019  0.1666  1.0339
 6646SOL    HW131397   2.768   2.530   8.260 -0.3246  0.4367 -0.9324
 6646SOL    HW231398   2.746   2.381   8.242  0.5299  0.0514  1.9767
 6647SOL     OW31399   4.228   2.660   2.256 -0.7569  0.1079  0.2539
 6647SOL    HW131400   4.174   2.667   2.177  0.2313  1.4468 -0.2930
 6647SOL    HW231401   4.182   2.724   2.310 -1.8511 -0.6413  0.1968
 6648SOL     OW31402   2.659   3.757  12.015 -0.5088 -0.0838  0.2272
 6648SOL    HW131403   2.727   3.756  12.083 -1.4542 -0.5347  1.1601
 6648SOL    HW231404   2.630   3.847  12.030 -1.0737 -0.3628  0.8271
 6649SOL     OW31405   1.665   1.380   0.844 -0.4385 -0.0641  0.3819
 6649SOL    HW131406   1.760   1.381   0.836 -0.5321  0.0783 -0.6829
 6649SOL    HW231407   1.649   1.297   0.889 -0.4919 -0.1965  0.1155
 6650SOL     OW31408   0.394   2.160  16.685  0.7762  0.3210 -0.0714
 6650SOL    HW131409   0.446   2.210  16.748 -1.1264 -0.8087  2.3911
 6650SOL    HW231410   0.313   2.154  16.736  1.4823 -0.2873  0.9829
 6651SOL     OW31411   2.591   0.093   4.367 -1.3589 -0.8096  0.0915
 6651SOL    HW131412   2.618   0.169   4.316 -0.8384 -0.5298  0.7688
 6651SOL    HW231413   2.536   0.140   4.429 -0.7650 -0.7675  0.5834
 6652SOL     OW31414   1.539   4.473   1.580 -0.1368 -0.2130 -0.2694
 6652SOL    HW131415   1.472   4.508   1.639 -0.8790 -1.6083 -0.2865
 6652SOL    HW231416   1.564   4.392   1.625  0.1713 -0.3846 -0.7458
 6653SOL     OW31417   4.248   1.363  10.012 -0.2779  0.2285  0.4820
 6653SOL    HW131418   4.231   1.407   9.929 -0.7262  1.8414  1.4445
 6653SOL    HW231419   4.176   1.300  10.016  0.7206 -0.8478  1.6077
 6654SOL     OW31420   4.362   2.207  16.970  0.5443 -0.6204 -0.5584
 6654SOL    HW131421   4.304   2.216  16.894 -0.5549  1.9710  0.5675
 6654SOL    HW231422   4.299   2.225  17.039  2.4316 -0.4392  1.0934
 6655SOL     OW31423   0.127   2.350  10.199  0.0112 -0.0503  0.0654
 6655SOL    HW131424   0.198   2.386  10.253  0.9314 -0.0753 -1.1453
 6655SOL    HW231425   0.055   2.394  10.243  1.0374  1.2499  0.4601
 6656SOL     OW31426   4.596   2.012   0.106 -0.0172 -0.3215 -0.0309
 6656SOL    HW131427   4.527   2.050   0.160  0.7954  0.2357  0.6211
 6656SOL    HW231428   4.635   1.947   0.165  2.0909 -0.1912 -1.2872
 6657SOL     OW31429   4.476   0.749  13.957 -1.0620  0.0263  0.3888
 6657SOL    HW131430   4.489   0.777  14.048  0.0931  0.2317  0.1601
 6657SOL    HW231431   4.567   0.752  13.929 -1.6229  1.0485 -1.2716
 6658SOL     OW31432   1.520   1.742   6.410 -0.0742  0.3489 -0.1059
 6658SOL    HW131433   1.486   1.653   6.407  1.0767 -0.2157  3.0802
 6658SOL    HW231434   1.560   1.745   6.323 -0.4102  0.9466 -0.2404
 6659SOL     OW31435   0.429   1.793   1.962  0.5255 -0.6093 -0.5494
 6659SOL    HW131436   0.398   1.807   1.872  0.5976 -0.9503 -0.6256
 6659SOL    HW231437   0.449   1.700   1.959  2.3717 -0.3187  2.9385
 6660SOL     OW31438   2.812   0.075   8.311  0.3887 -0.0344  0.2196
 6660SOL    HW131439   2.742   0.027   8.356  0.4317 -2.7474 -2.6595
 6660SOL    HW231440   2.760   0.150   8.282 -1.3704 -1.8203 -1.1909
 6661SOL     OW31441   1.136   4.658  14.933 -0.0542  0.0028  0.0862
 6661SOL    HW131442   1.111   0.025  14.940  0.5703  0.0531  1.7863
 6661SOL    HW231443   1.071   4.633  14.868 -2.4711 -0.7274  2.7912
 6662SOL     OW31444   0.853   2.170   3.908  0.2020  0.6451  0.0378
 6662SOL    HW131445   0.820   2.244   3.857  2.5657  2.2715  0.8533
 6662SOL    HW231446   0.772   2.120   3.909 -0.8086  2.2620 -0.1213
 6663SOL     OW31447   2.618   2.617   4.041  0.4210  0.8305  0.1990
 6663SOL    HW131448   2.658   2.615   3.954 -0.5346  0.1224 -0.2248
 6663SOL    HW231449   2.540   2.563   4.027  0.4084  0.7563  0.5532
 6664SOL     OW31450   4.005   0.908   3.772  0.0961 -0.3835  0.0764
 6664SOL    HW131451   3.922   0.938   3.734 -2.1304 -1.3300  4.2211
 6664SOL    HW231452   4.059   0.982   3.745 -0.2936 -0.1792 -0.1495
 6665SOL     OW31453   4.621   2.972  16.142  0.0231 -0.6070 -0.2838
 6665SOL    HW131454   4.584   2.983  16.229  0.8385  0.6777 -0.1010
 6665SOL    HW231455   4.637   2.878  16.130  1.1735 -0.3270 -0.9202
 6666SOL     OW31456   4.429   1.119   8.580  0.1311  0.2830 -0.4473
 6666SOL    HW131457   4.481   1.040   8.595 -1.2416 -1.2480 -3.8990
 6666SOL    HW231458   4.429   1.160   8.667  0.5912 -0.6954  0.0189
 6667SOL     OW31459   2.040   2.843  14.899 -0.6422  0.1317  0.1654
 6667SOL    HW131460   2.025   2.923  14.949 -3.5265 -0.7621  0.7391
 6667SOL    HW231461   2.014   2.776  14.962 -0.2543  0.0314  0.2203
 6668SOL     OW31462   4.320   4.299   6.345 -0.3086 -0.1524 -0.3989
 6668SOL    HW131463   4.324   4.395   6.345 -0.2048 -0.1570 -1.2242
 6668SOL    HW231464   4.412   4.277   6.359  0.2051  1.8492 -0.5705
 6669SOL     OW31465   4.005   1.300   7.485  0.2142 -0.4643 -0.1752
 6669SOL    HW131466   3.971   1.385   7.512 -0.7168 -1.2557  1.1124
 6669SOL    HW231467   3.957   1.246   7.547  1.2263 -0.7946  0.3124
 6670SOL     OW31468   2.411   1.675  13.819 -0.2057  0.5384 -0.4630
 6670SOL    HW131469   2.458   1.674  13.903  1.6747  0.7393 -1.4930
 6670SOL    HW231470   2.350   1.747  13.833 -1.3347 -0.5735  0.2413
 6671SOL     OW31471   2.887   2.867   2.554  0.0562  0.4532  0.0620
 6671SOL    HW131472   2.879   2.816   2.474  1.7991 -0.6139  0.5846
 6671SOL    HW231473   2.966   2.828   2.590 -0.9412 -1.3366  0.2913
 6672SOL     OW31474   1.941   2.712   8.266  0.5706 -0.4219 -0.3141
 6672SOL    HW131475   2.030   2.745   8.261  0.6548 -1.0027 -2.4949
 6672SOL    HW231476   1.890   2.793   8.274  3.0542  1.0656  0.2543
 6673SOL     OW31477   1.239   4.676   9.064  0.4229  0.8184 -0.5299
 6673SOL    HW131478   1.154   4.635   9.081  0.4747  1.6354  1.7044
 6673SOL    HW231479   1.214   0.030   9.016 -3.0337  0.1089  0.0979
 6674SOL     OW31480   3.423   1.684   3.561 -0.3955 -0.2688 -0.1958
 6674SOL    HW131481   3.414   1.631   3.640 -0.4572 -0.7740 -0.5365
 6674SOL    HW231482   3.488   1.749   3.589  0.0506  0.0387 -1.8987
 6675SOL     OW31483   1.813   2.310   5.104 -0.5412  1.0539  0.2443
 6675SOL    HW131484   1.885   2.291   5.164 -1.4361 -0.0740  0.9677
 6675SOL    HW231485   1.763   2.230   5.125  0.0150  0.9119  1.0288
 6676SOL     OW31486   4.017   4.147   2.833 -0.0896 -0.5087  0.4607
 6676SOL    HW131487   3.991   4.152   2.741 -2.5131 -1.0990  1.1246
 6676SOL    HW231488   4.112   4.158   2.826  0.0260 -1.3606  0.7693
 6677SOL     OW31489   2.817   4.518  10.396  0.0684 -0.7805 -0.0373
 6677SOL    HW131490   2.818   4.434  10.443  1.4077 -1.4932 -1.3226
 6677SOL    HW231491   2.899   4.555  10.427 -0.5171  0.9892 -0.6071
 6678SOL     OW31492   1.849   0.954   3.055 -0.1401  0.1441  0.4175
 6678SOL    HW131493   1.819   1.030   3.104  0.4173  0.0942  0.8394
 6678SOL    HW231494   1.793   0.960   2.978 -0.7983 -2.0148  0.7276
 6679SOL     OW31495   0.265   0.221   5.965 -0.2294 -0.6050  0.2341
 6679SOL    HW131496   0.171   0.207   5.949  0.1005 -0.9960 -1.3670
 6679SOL    HW231497   0.266   0.307   6.008  0.1949 -0.6977  0.4014
 6680SOL     OW31498   2.075   2.586   7.132 -0.2866  0.0400  0.4213
 6680SOL    HW131499   2.038   2.673   7.115  1.0483  0.6425  0.6231
 6680SOL    HW231500   2.023   2.562   7.208  0.3361  2.1160  1.5097
 6681SOL     OW31501   4.004   3.410   6.470 -0.3319  0.0658  0.3199
 6681SOL    HW131502   3.932   3.349   6.483 -2.2288  1.5577 -3.1441
 6681SOL    HW231503   4.074   3.346   6.482 -0.6411 -0.0645  1.3659
 6682SOL     OW31504   2.650   0.564   7.978  0.1903  0.3684  0.3335
 6682SOL    HW131505   2.723   0.503   7.969  0.4503  0.3847  2.3086
 6682SOL    HW231506   2.673   0.653   7.948 -2.0205 -0.2521 -3.2740
 6683SOL     OW31507   2.208   2.355   9.470 -0.2303 -0.8250  0.0688
 6683SOL    HW131508   2.170   2.441   9.452  0.8238 -0.1764  0.9239
 6683SOL    HW231509   2.169   2.310   9.396 -0.5635  0.5136 -0.5776
 6684SOL     OW31510   0.068   3.366   4.641 -0.2926 -0.7115 -0.2539
 6684SOL    HW131511   0.095   3.398   4.728 -2.0420  1.5378 -0.5341
 6684SOL    HW231512   4.721   3.427   4.623  1.6510  1.2522 -1.4328
 6685SOL     OW31513   1.117   2.598   1.790  0.0076 -0.6769  0.2442
 6685SOL    HW131514   1.124   2.611   1.696 -0.7238 -1.8707  0.0216
 6685SOL    HW231515   1.193   2.544   1.811  0.6214  0.5317  1.1352
 6686SOL     OW31516   3.209   0.531   0.280  0.1410 -0.1170 -0.1640
 6686SOL    HW131517   3.288   0.495   0.321 -0.1066 -0.3336  0.1265
 6686SOL    HW231518   3.217   0.517   0.186 -0.0875  0.7720 -0.3126
 6687SOL     OW31519   4.621   1.584   6.716 -0.3379  0.0604 -0.5918
 6687SOL    HW131520   4.665   1.600   6.633 -0.9550 -0.9245 -1.1252
 6687SOL    HW231521   4.598   1.492   6.701  0.5460 -0.2933  0.2096
 6688SOL     OW31522   3.354   1.048  14.583 -0.3114 -0.9088  0.1892
 6688SOL    HW131523   3.299   1.028  14.507  0.4083  0.0651 -0.5846
 6688SOL    HW231524   3.386   1.133  14.555 -0.2679 -0.2601  2.2589
 6689SOL     OW31525   1.291   3.633  11.957 -0.5592  0.1736  0.1205
 6689SOL    HW131526   1.280   3.561  12.019  0.3669 -0.2951 -0.2698
 6689SOL    HW231527   1.375   3.627  11.913 -1.6374 -1.9468 -1.6099
 6690SOL     OW31528   4.413   3.648   7.912  0.6335  0.0336 -0.1508
 6690SOL    HW131529   4.380   3.587   7.846  1.0435  0.5081 -0.7983
 6690SOL    HW231530   4.437   3.724   7.858  1.1415 -0.3818 -0.5084
 6691SOL     OW31531   0.711   4.148   8.173  0.1012 -0.0300 -0.3391
 6691SOL    HW131532   0.784   4.087   8.177 -1.6094 -2.0851 -0.8150
 6691SOL    HW231533   0.745   4.193   8.250 -3.7134  0.0083  1.2969
 6692SOL     OW31534   3.178   0.882   5.240 -0.5053 -0.0485 -0.0915
 6692SOL    HW131535   3.152   0.958   5.292 -1.3864  0.3016 -1.0413
 6692SOL    HW231536   3.193   0.814   5.306 -0.4587 -1.3140 -1.4156
 6693SOL     OW31537   3.465   3.901   3.889 -0.5474  0.0911 -0.6186
 6693SOL    HW131538   3.519   3.830   3.923 -1.7392 -1.0425 -1.0962
 6693SOL    HW231539   3.413   3.923   3.966  2.6471  0.2191  1.4779
 6694SOL     OW31540   2.025   0.340  12.218  0.4679  0.1087 -0.0144
 6694SOL    HW131541   1.952   0.398  12.196 -0.9977 -0.8956  2.1740
 6694SOL    HW231542   1.986   0.265  12.264 -0.7581  0.7816  0.0493
 6695SOL     OW31543   2.940   0.820   7.545  0.5385 -0.5535  0.4771
 6695SOL    HW131544   2.944   0.813   7.450  1.4936 -4.3580  0.8185
 6695SOL    HW231545   3.032   0.816   7.571  0.7461  0.6261 -0.0877
 6696SOL     OW31546   3.528   1.239  12.406  0.2550  0.3895 -0.2469
 6696SOL    HW131547   3.438   1.248  12.374  1.0852  1.5345 -2.2651
 6696SOL    HW231548   3.520   1.252  12.500  0.1508  0.6038 -0.2861
 6697SOL     OW31549   4.036   2.096   6.298 -0.4821 -0.2859 -0.5150
 6697SOL    HW131550   3.973   2.093   6.226 -0.7050  1.7385 -0.3938
 6697SOL    HW231551   3.993   2.138   6.372  3.2076  1.6151  0.5897
 6698SOL     OW31552   4.444   1.319   0.711  0.3666  0.3489 -0.1568
 6698SOL    HW131553   4.504   1.275   0.651  2.1293  1.9833  0.3884
 6698SOL    HW231554   4.483   1.406   0.710 -1.0014  0.9563 -0.0705
 6699SOL     OW31555   4.459   0.334   3.271 -0.9041 -0.3671  0.4142
 6699SOL    HW131556   4.455   0.319   3.365  0.8330 -2.2192  0.1790
 6699SOL    HW231557   4.453   0.429   3.258  0.9169 -0.3161 -0.0313
 6700SOL     OW31558   3.602   0.003   1.339 -0.0207  0.0158 -0.2664
 6700SOL    HW131559   3.667   0.015   1.270  0.1741  0.2215 -0.0478
 6700SOL    HW231560   3.526   0.051   1.309 -1.5467 -2.9496 -1.1550
 6701SOL     OW31561   3.520   3.392   4.947 -0.3400 -0.0225 -0.3663
 6701SOL    HW131562   3.480   3.305   4.947 -0.2582 -0.0587 -0.9841
 6701SOL    HW231563   3.557   3.401   4.859  0.2291 -2.6522 -0.3921
 6702SOL     OW31564   2.681   4.225  12.503  0.6369 -0.3991 -0.4601
 6702SOL    HW131565   2.669   4.216  12.409 -2.1044 -0.5127 -0.0992
 6702SOL    HW231566   2.772   4.215  12.533  0.7064  0.7727 -0.2819
 6703SOL     OW31567   4.030   4.217   2.558 -0.4228 -0.1616 -0.7597
 6703SOL    HW131568   4.016   4.290   2.497  0.8135  1.4193  0.8677
 6703SOL    HW231569   4.025   4.143   2.498 -1.6390 -1.5370  1.0573
 6704SOL     OW31570   0.170   3.889   7.334  0.0508  0.1882 -0.6184
 6704SOL    HW131571   0.104   3.958   7.346  0.4002  0.9249 -2.8208
 6704SOL    HW231572   0.229   3.933   7.272  0.3632 -0.8508 -1.0531
 6705SOL     OW31573   0.798   4.326   3.963  0.6086 -0.6666  0.3245
 6705SOL    HW131574   0.823   4.285   3.880 -0.1176  1.0662 -0.7482
 6705SOL    HW231575   0.703   4.320   3.953  0.6768  0.0148 -0.6833
 6706SOL     OW31576   3.394   0.366   5.816 -0.4415  0.4923  0.1995
 6706SOL    HW131577   3.431   0.439   5.866 -1.3940  0.3786  1.0567
 6706SOL    HW231578   3.473   0.344   5.766 -0.9538  1.3629 -0.9826
 6707SOL     OW31579   0.843   4.268   4.228 -0.5122 -0.2147 -0.0010
 6707SOL    HW131580   0.790   4.189   4.235  0.3281 -0.5565  2.8197
 6707SOL    HW231581   0.843   4.281   4.134 -1.7601 -1.7515 -0.2108
 6708SOL     OW31582   0.685   4.444   8.784 -0.2707  0.1392  0.0577
 6708SOL    HW131583   0.697   4.532   8.819 -0.8867  0.8860 -1.6219
 6708SOL    HW231584   0.619   4.457   8.715 -2.3551 -0.4462  1.9246
 6709SOL     OW31585   4.524   4.354  10.296  0.0713 -0.0161 -0.0885
 6709SOL    HW131586   4.429   4.346  10.283  0.0902  0.4710 -0.5572
 6709SOL    HW231587   4.564   4.408  10.227 -2.3329 -1.6358 -2.7641
 6710SOL     OW31588   2.433   4.135   7.585 -0.4420  0.3096  0.4165
 6710SOL    HW131589   2.426   4.140   7.490  3.7258 -1.0882  0.0357
 6710SOL    HW231590   2.343   4.147   7.614 -0.0726  0.7118  1.3973
 6711SOL     OW31591   2.084   0.189   9.802 -0.1346  0.1280  0.4579
 6711SOL    HW131592   1.996   0.162   9.774  0.1148  0.4639 -0.6364
 6711SOL    HW231593   2.096   0.117   9.864  2.1157  1.1923  1.2653
 6712SOL     OW31594   4.292   1.195   6.394  0.5045 -0.0328 -0.2318
 6712SOL    HW131595   4.289   1.271   6.452 -1.2726 -0.5807  0.3952
 6712SOL    HW231596   4.324   1.133   6.460 -0.1752 -1.6729 -1.4494
 6713SOL     OW31597   1.788   4.064   2.340 -0.1974  0.2773  0.2546
 6713SOL    HW131598   1.693   4.049   2.337 -0.1131 -0.2053  0.0991
 6713SOL    HW231599   1.808   4.075   2.247  1.3354 -1.0075  0.4557
 6714SOL     OW31600   0.643   4.456  17.013  0.0266 -0.1332  0.2030
 6714SOL    HW131601   0.631   4.520  16.943 -0.0174  1.0486  1.2888
 6714SOL    HW231602   0.690   4.508  17.079  1.1264  1.1379 -1.5996
 6715SOL     OW31603   0.084   1.750   7.757 -0.1645  0.1151 -0.1040
 6715SOL    HW131604   0.092   1.779   7.848  0.5198 -3.3055  0.9196
 6715SOL    HW231605   0.170   1.771   7.720  1.2064  0.0922  3.0567
 6716SOL     OW31606   4.503   0.745   2.107  0.1758 -0.1435 -0.3482
 6716SOL    HW131607   4.547   0.661   2.093  3.1729  1.0153  2.1117
 6716SOL    HW231608   4.544   0.786   2.183 -0.9141  1.4664 -0.6365
 6717SOL     OW31609   0.614   0.546   2.071 -0.0589  0.0041 -0.2093
 6717SOL    HW131610   0.664   0.466   2.052  0.1920 -0.0487  0.6602
 6717SOL    HW231611   0.542   0.498   2.113  0.8801 -0.9686  0.2885
 6718SOL     OW31612   0.660   1.407   9.606 -0.5363  0.6009 -0.8065
 6718SOL    HW131613   0.603   1.409   9.683 -0.3089  0.7292 -0.6399
 6718SOL    HW231614   0.687   1.315   9.600 -0.4089  0.5378  0.7651
 6719SOL     OW31615   2.573   3.932   6.392 -0.3637 -0.0936  0.4959
 6719SOL    HW131616   2.628   3.957   6.317  0.5424  0.3850  1.3215
 6719SOL    HW231617   2.593   3.840   6.405 -0.3875  0.0593  1.6143
 6720SOL     OW31618   0.702   4.223  16.860  0.2826  0.1412 -0.3645
 6720SOL    HW131619   0.636   4.286  16.889  0.6037  0.3108  0.0038
 6720SOL    HW231620   0.768   4.251  16.924  0.3909 -0.9550 -0.0005
 6721SOL     OW31621   4.172   2.299   7.131  0.6251 -0.1212 -0.2672
 6721SOL    HW131622   4.165   2.209   7.164  0.0585  0.0367  0.0434
 6721SOL    HW231623   4.264   2.310   7.152  0.7720  0.0272 -0.9941
 6722SOL     OW31624   3.067   3.204  14.727 -0.2869  0.0721  0.2129
 6722SOL    HW131625   3.137   3.214  14.791  0.6516 -2.4110 -0.4154
 6722SOL    HW231626   3.081   3.113  14.703 -1.3378 -0.3823  1.3449
 6723SOL     OW31627   1.733   0.497   1.419 -0.2387  0.2636 -0.2570
 6723SOL    HW131628   1.657   0.496   1.362 -0.2941  0.9624 -0.1883
 6723SOL    HW231629   1.814   0.499   1.368  0.0375  2.4316  0.2592
 6724SOL     OW31630   4.038   4.575   9.206 -0.2160  0.2184 -0.4995
 6724SOL    HW131631   4.087   4.611   9.133  1.9075  0.2849  0.9608
 6724SOL    HW231632   4.036   4.653   9.260 -0.3906  0.3722 -0.7280
 6725SOL     OW31633   1.388   3.665   8.909 -0.2426 -0.0887  0.3871
 6725SOL    HW131634   1.457   3.628   8.854 -0.0607  0.1818  0.4292
 6725SOL    HW231635   1.342   3.724   8.848 -1.6128 -0.2383  1.2800
 6726SOL     OW31636   2.022   3.046   7.429  0.0435 -0.1180 -0.5035
 6726SOL    HW131637   2.116   3.060   7.442 -0.2885  0.4850  1.2003
 6726SOL    HW231638   2.009   3.051   7.334 -1.8036  0.3073 -0.2270
 6727SOL     OW31639   1.413   1.777  11.456  0.4663  0.0501 -0.6188
 6727SOL    HW131640   1.431   1.865  11.424  0.9059  0.1495 -0.1075
 6727SOL    HW231641   1.499   1.740  11.435 -0.0372 -1.4497 -0.0580
 6728SOL     OW31642   2.598   4.239  12.246  0.0702 -0.3490 -0.0238
 6728SOL    HW131643   2.606   4.301  12.174  0.9752 -2.0138 -1.3366
 6728SOL    HW231644   2.514   4.269  12.284 -0.5047 -1.1363 -0.6833
 6729SOL     OW31645   3.025   2.465   5.566 -0.4009 -0.4285  0.0205
 6729SOL    HW131646   2.933   2.491   5.563  0.2058  1.9722  1.6020
 6729SOL    HW231647   3.060   2.537   5.514 -0.5245 -0.5862 -0.2806
 6730SOL     OW31648   4.473   3.238   5.630 -0.1273  0.3412 -0.7836
 6730SOL    HW131649   4.521   3.320   5.639  1.7435 -1.0826  2.2029
 6730SOL    HW231650   4.442   3.197   5.711  0.6200  0.2596 -0.5390
 6731SOL     OW31651   0.425   4.003   9.519 -0.0233  0.0506  0.3569
 6731SOL    HW131652   0.338   4.036   9.497  0.5106 -0.2281 -2.1873
 6731SOL    HW231653   0.472   4.039   9.443 -1.9177  2.5359  0.3663
 6732SOL     OW31654   3.335   4.289   5.016 -0.0024 -0.3390 -0.0320
 6732SOL    HW131655   3.423   4.320   5.040 -0.0109 -1.3637  1.3319
 6732SOL    HW231656   3.330   4.315   4.924  1.9436  0.6979  0.1557
 6733SOL     OW31657   3.870   1.796  17.663  0.0038 -0.3797 -0.1392
 6733SOL    HW131658   3.896   1.719   0.013 -0.7813 -0.4960  0.0902
 6733SOL    HW231659   3.825   1.850   0.026 -0.4330 -0.5947 -0.2672
 6734SOL     OW31660   2.201   1.900  10.734  0.2013 -0.4184  0.0112
 6734SOL    HW131661   2.214   1.951  10.654  1.7477 -0.4659  0.2415
 6734SOL    HW231662   2.264   1.924  10.801 -0.1171  0.5111 -0.0262
 6735SOL     OW31663   4.417   2.497   8.680 -0.4334 -0.6340 -0.1349
 6735SOL    HW131664   4.455   2.444   8.610  0.3426  1.3907 -1.2362
 6735SOL    HW231665   4.376   2.423   8.725 -3.3657  1.6290  0.9787
 6736SOL     OW31666   3.984   2.151   5.183 -0.2194 -0.3359 -0.2482
 6736SOL    HW131667   4.011   2.237   5.152  0.7831 -1.0645 -1.3891
 6736SOL    HW231668   3.911   2.184   5.236  0.7267 -1.1579  1.5598
 6737SOL     OW31669   2.682   2.802   2.820  0.3448 -0.6621  0.4200
 6737SOL    HW131670   2.755   2.741   2.826  1.1954  0.2902 -0.2068
 6737SOL    HW231671   2.714   2.882   2.779 -1.1028  1.6707  3.7949
 6738SOL     OW31672   3.404   3.422   3.179  0.2534  0.1484  0.4255
 6738SOL    HW131673   3.453   3.504   3.175 -0.8881  0.9046  1.7314
 6738SOL    HW231674   3.316   3.459   3.172 -0.1061 -1.0685 -1.5501
 6739SOL     OW31675   1.137   1.906   6.897 -0.0880 -0.6217 -0.3837
 6739SOL    HW131676   1.068   1.856   6.941  0.4771 -1.4600 -0.4572
 6739SOL    HW231677   1.212   1.848   6.911 -1.8596 -2.0570  3.0968
 6740SOL     OW31678   3.215   3.688  17.034 -0.0845 -0.7248  0.1633
 6740SOL    HW131679   3.180   3.618  16.978  0.0512  0.6074 -1.5770
 6740SOL    HW231680   3.229   3.751  16.964 -0.6658  1.3577  1.9387
 6741SOL     OW31681   3.812   0.456   1.835 -0.7634 -0.2141 -0.6304
 6741SOL    HW131682   3.845   0.375   1.796  0.8342  0.6877 -1.1586
 6741SOL    HW231683   3.874   0.524   1.809 -1.2239  0.3938 -0.1454
 6742SOL     OW31684   3.093   2.359   6.825  0.7800  0.0202  0.2040
 6742SOL    HW131685   3.121   2.372   6.916 -0.7420  0.1785  0.6410
 6742SOL    HW231686   3.017   2.302   6.839  0.6315  0.9080  2.9050
 6743SOL     OW31687   0.824   0.231   6.491  0.1026 -0.0677 -0.3767
 6743SOL    HW131688   0.850   0.308   6.541 -0.2223  0.5053 -1.0904
 6743SOL    HW231689   0.730   0.244   6.479 -0.0107  1.3587  2.1656
 6744SOL     OW31690   2.628   3.404   8.586  0.1433  0.0229  0.1954
 6744SOL    HW131691   2.605   3.393   8.679  1.3050 -1.2608  0.3355
 6744SOL    HW231692   2.564   3.472   8.566  0.6117  0.7661  1.2172
 6745SOL     OW31693   2.546   0.183  16.687 -0.0010  0.1717  0.0300
 6745SOL    HW131694   2.507   0.141  16.764 -0.8227  0.9237  0.0274
 6745SOL    HW231695   2.518   0.127  16.616  0.0346  2.1705 -1.5749
 6746SOL     OW31696   1.791   4.387   2.051  0.1313  0.1584  0.2470
 6746SOL    HW131697   1.834   4.358   1.971  0.2491  1.6304 -0.2270
 6746SOL    HW231698   1.821   4.478   2.057  0.8892 -0.0672 -0.0505
 6747SOL     OW31699   1.524   2.900  11.647 -0.1998 -0.1103 -0.3001
 6747SOL    HW131700   1.551   2.950  11.569 -1.4654  1.0618  0.0233
 6747SOL    HW231701   1.430   2.918  11.641  0.0750  1.1586 -0.9800
 6748SOL     OW31702   0.617   3.907   2.923 -0.8398  0.3609 -0.0089
 6748SOL    HW131703   0.535   3.871   2.889 -1.2088 -0.4591  1.7215
 6748SOL    HW231704   0.574   3.987   2.954  0.4362  0.7066  0.8927
 6749SOL     OW31705   3.394   3.117   4.918  0.0035  0.1579  0.3589
 6749SOL    HW131706   3.488   3.099   4.915 -0.5980 -2.7291 -1.4650
 6749SOL    HW231707   3.364   3.079   4.836  1.0866  1.4710 -0.6201
 6750SOL     OW31708   2.167   3.397   8.667 -0.3963  0.0901 -0.2714
 6750SOL    HW131709   2.230   3.441   8.724 -1.0890  1.2503 -0.4009
 6750SOL    HW231710   2.105   3.368   8.734 -0.8846  1.0901 -0.2816
 6751SOL     OW31711   2.875   1.686   0.633 -0.2307 -0.0399 -0.0316
 6751SOL    HW131712   2.967   1.710   0.631 -0.1172 -0.4870 -0.3417
 6751SOL    HW231713   2.853   1.742   0.558  1.7313 -2.1819 -2.2338
 6752SOL     OW31714   3.742   0.455   7.193 -0.1802 -0.2656 -0.3854
 6752SOL    HW131715   3.822   0.493   7.156 -0.5624 -0.6159 -1.5898
 6752SOL    HW231716   3.767   0.362   7.199 -0.0150 -0.1408  0.8958
 6753SOL     OW31717   3.949   2.314  12.744 -0.1443  0.0750 -0.2579
 6753SOL    HW131718   3.855   2.296  12.757 -0.1310  0.8451  0.9618
 6753SOL    HW231719   3.947   2.259  12.666  0.2034  2.8883 -2.2394
 6754SOL     OW31720   3.958   2.709   4.719  0.3342  0.6028 -0.8217
 6754SOL    HW131721   3.984   2.734   4.631  1.8673  0.3724 -0.4338
 6754SOL    HW231722   3.962   2.794   4.764  2.1931 -2.1034  4.2154
 6755SOL     OW31723   4.429   0.671   5.531  0.0208 -0.0572 -0.6414
 6755SOL    HW131724   4.336   0.692   5.525 -0.1223 -0.9231 -1.5662
 6755SOL    HW231725   4.452   0.735   5.599  0.0338 -1.9136  1.1222
 6756SOL     OW31726   0.280   4.379   3.821 -0.3835  0.7374 -0.5488
 6756SOL    HW131727   0.245   4.291   3.808 -1.3119  1.1933 -1.0985
 6756SOL    HW231728   0.261   4.397   3.913  4.4358  4.4814 -0.2723
 6757SOL     OW31729   0.294   1.362   5.191 -0.7539  0.0305  0.0687
 6757SOL    HW131730   0.206   1.330   5.209  0.0003 -1.9353  0.2635
 6757SOL    HW231731   0.331   1.345   5.277 -0.0084 -0.9602 -0.4543
 6758SOL     OW31732   4.085   3.522   5.188  0.4372 -0.0885  0.7391
 6758SOL    HW131733   4.151   3.456   5.208  1.5602  0.9928  0.6103
 6758SOL    HW231734   4.114   3.549   5.100  1.0460 -1.5307  0.5074
 6759SOL     OW31735   4.536   2.853  12.394  0.2776  0.1521  0.5713
 6759SOL    HW131736   4.571   2.767  12.417  1.2498  0.6286  0.8960
 6759SOL    HW231737   4.526   2.894  12.480  0.3907 -1.6850  1.4626
 6760SOL     OW31738   0.286   1.017   6.248 -0.3469  0.2376  0.0913
 6760SOL    HW131739   0.370   1.053   6.277  0.4607 -1.9141  0.4798
 6760SOL    HW231740   0.292   0.935   6.299 -0.3607 -0.5647 -1.1948
 6761SOL     OW31741   3.837   4.168   1.203  0.1358  0.2397  0.5150
 6761SOL    HW131742   3.774   4.177   1.131  0.2698  0.6155  0.4448
 6761SOL    HW231743   3.914   4.160   1.146  0.6417 -0.0316  1.2446
 6762SOL     OW31744   3.667   4.122  10.997 -0.1443  0.2590  0.4055
 6762SOL    HW131745   3.683   4.030  10.979  0.0209 -0.0854  2.3259
 6762SOL    HW231746   3.737   4.138  11.061  0.7246  1.2574 -0.7822
 6763SOL     OW31747   1.178   1.644   5.355  0.6271  0.2775  0.7227
 6763SOL    HW131748   1.258   1.691   5.330  0.4618  0.5891  0.7763
 6763SOL    HW231749   1.113   1.660   5.286  1.5869  0.4233 -0.1589
 6764SOL     OW31750   2.023   4.710  10.632  0.4839  0.2665  0.0362
 6764SOL    HW131751   2.036   4.680  10.722  0.0266 -0.2720 -0.0750
 6764SOL    HW231752   1.982   4.632  10.595  0.7539 -0.7735  1.9001
 6765SOL     OW31753   4.616   1.593   2.344  0.0300 -0.2617 -0.0215
 6765SOL    HW131754   4.581   1.681   2.326 -0.3046 -0.4683 -0.3888
 6765SOL    HW231755   4.670   1.573   2.268  0.0894  0.9915 -0.3097
 6766SOL     OW31756   1.122   1.014   9.463  0.4719  0.2469  0.1224
 6766SOL    HW131757   1.098   1.066   9.387 -0.1390 -0.0257  0.1306
 6766SOL    HW231758   1.215   0.999   9.443  0.0304 -2.7842  0.4245
 6767SOL     OW31759   4.336   3.750   8.160  0.1596 -0.6685  0.4638
 6767SOL    HW131760   4.417   3.748   8.212  0.3324  3.6940  0.3052
 6767SOL    HW231761   4.355   3.705   8.078 -2.2861 -1.4585  0.3229
 6768SOL     OW31762   3.278   1.531  10.502  0.0197 -0.0053  0.1161
 6768SOL    HW131763   3.223   1.603  10.470 -0.5025  0.0284  1.1087
 6768SOL    HW231764   3.312   1.486  10.424  1.7288  0.7604  0.4061
 6769SOL     OW31765   2.760   1.851   7.797 -0.1154 -0.0444 -0.2836
 6769SOL    HW131766   2.680   1.805   7.825  0.2924  0.1276  1.1593
 6769SOL    HW231767   2.802   1.850   7.883  1.3108  1.2739 -0.9708
 6770SOL     OW31768   4.221   1.479  15.290 -0.2574  0.0435 -0.0336
 6770SOL    HW131769   4.207   1.477  15.195  1.9199 -0.2435 -0.3455
 6770SOL    HW231770   4.282   1.552  15.299 -0.1173 -0.5037  3.1210
 6771SOL     OW31771   2.371   1.271   5.355  0.0848  0.4307 -0.7720
 6771SOL    HW131772   2.287   1.264   5.310 -0.9798 -0.8298  1.4125
 6771SOL    HW231773   2.332   1.322   5.427 -0.6810 -0.2374 -0.7154
 6772SOL     OW31774   0.586   2.393   4.697 -0.1524 -0.1086 -0.0119
 6772SOL    HW131775   0.668   2.407   4.649 -0.8624 -2.9798 -2.1101
 6772SOL    HW231776   0.591   2.464   4.761 -0.9733  0.2613 -0.3574
 6773SOL     OW31777   1.364   0.035   4.441 -0.9926  0.0276  0.0036
 6773SOL    HW131778   1.297   0.032   4.372 -2.9978  2.3415  1.8215
 6773SOL    HW231779   1.331   0.110   4.490 -2.9127  0.4404 -1.9223
 6774SOL     OW31780   3.655   2.365   2.509 -0.1192 -0.4913  0.2245
 6774SOL    HW131781   3.671   2.339   2.600  0.6786  1.4269  0.6366
 6774SOL    HW231782   3.730   2.329   2.460 -0.4004  0.1382 -0.6723
 6775SOL     OW31783   2.987   3.045   9.646  0.4124  0.1830 -0.4035
 6775SOL    HW131784   3.029   2.961   9.628  1.1147  0.8372 -1.8228
 6775SOL    HW231785   2.997   3.053   9.741 -0.2955 -2.9435 -0.0569
 6776SOL     OW31786   2.464   2.795   8.130 -0.2732 -0.2370  0.0506
 6776SOL    HW131787   2.391   2.835   8.083  0.5693  0.4061 -0.7235
 6776SOL    HW231788   2.445   2.812   8.222  3.2462 -2.6435  1.2375
 6777SOL     OW31789   2.510   0.298  17.138 -0.3033 -0.0071 -0.5350
 6777SOL    HW131790   2.419   0.324  17.154 -0.1587 -0.6873  1.4236
 6777SOL    HW231791   2.508   0.202  17.141 -0.9763 -0.0696 -2.8752
 6778SOL     OW31792   4.219   4.470   8.174 -0.3106  0.8018  0.2005
 6778SOL    HW131793   4.200   4.383   8.137 -2.5021  1.8260 -1.0372
 6778SOL    HW231794   4.138   4.483   8.223 -0.6890 -0.7629 -0.0011
 6779SOL     OW31795   1.306   0.786  10.463 -0.2075 -0.3321  0.6859
 6779SOL    HW131796   1.223   0.737  10.465 -0.3345 -0.2543 -3.1907
 6779SOL    HW231797   1.293   0.831  10.547 -1.5769  2.0307 -0.7963
 6780SOL     OW31798   1.059   0.952   2.086 -0.3081 -0.2329  0.0097
 6780SOL    HW131799   1.154   0.944   2.095 -0.4716  0.1116  2.0184
 6780SOL    HW231800   1.030   0.895   2.158  1.3497 -2.8726 -1.4345
 6781SOL     OW31801   0.557   2.144   3.844 -0.3277  0.1303 -0.5192
 6781SOL    HW131802   0.618   2.210   3.812 -0.6299  1.0554  0.8079
 6781SOL    HW231803   0.529   2.089   3.771  0.7747 -1.3090  0.1474
 6782SOL     OW31804   0.917   4.696  10.090  0.4672 -0.3525 -0.0121
 6782SOL    HW131805   0.964   4.704  10.173 -1.5733  1.2171  0.9644
 6782SOL    HW231806   0.959   0.039  10.038 -0.0567 -0.5306 -0.6712
 6783SOL     OW31807   1.584   0.841  10.611  0.4470 -0.0231  0.3135
 6783SOL    HW131808   1.583   0.930  10.576  0.2454 -0.5510 -1.0349
 6783SOL    HW231809   1.638   0.855  10.689 -0.0852  1.3711  0.4338
 6784SOL     OW31810   2.267   4.663   2.453  0.5167 -1.0074 -0.2843
 6784SOL    HW131811   2.233   0.025   2.472  0.0348 -1.4322  0.8235
 6784SOL    HW231812   2.189   4.611   2.434 -0.4825 -0.0718  1.2264
 6785SOL     OW31813   1.314   3.295   0.195 -0.7578  0.5563  0.1590
 6785SOL    HW131814   1.311   3.205   0.227  0.0286  0.5350  0.1661
 6785SOL    HW231815   1.408   3.315   0.192 -0.9951  1.7008  0.0553
 6786SOL     OW31816   0.995   4.382   0.627 -0.1398 -0.0654 -0.0802
 6786SOL    HW131817   1.056   4.430   0.571  0.4159 -0.3530  0.2808
 6786SOL    HW231818   0.919   4.385   0.568  0.0596 -1.4374 -0.4013
 6787SOL     OW31819   1.689   1.648   6.098 -0.2788  0.2028 -0.2991
 6787SOL    HW131820   1.712   1.672   6.187 -3.2089  1.8598  0.0053
 6787SOL    HW231821   1.741   1.568   6.090 -1.4788 -0.6183 -0.0786
 6788SOL     OW31822   1.371   3.623   7.462  0.0170  0.2414 -0.2846
 6788SOL    HW131823   1.417   3.544   7.492  0.6377  0.9435  0.6080
 6788SOL    HW231824   1.294   3.624   7.518 -0.0473 -0.5044 -0.3569
 6789SOL     OW31825   1.522   1.293   3.392 -0.1818 -0.4198 -0.7743
 6789SOL    HW131826   1.581   1.346   3.446 -0.2108 -1.9439  0.7542
 6789SOL    HW231827   1.465   1.257   3.459 -0.9966  2.2542 -0.0227
 6790SOL     OW31828   4.551   3.007  12.617  0.5196 -0.5007  0.1702
 6790SOL    HW131829   4.504   3.066  12.558 -0.2955  0.6200  1.9555
 6790SOL    HW231830   4.629   3.062  12.632  1.0197 -0.9276 -0.8574
 6791SOL     OW31831   3.637   4.283  12.772  0.0358 -0.1084 -0.0710
 6791SOL    HW131832   3.624   4.222  12.844 -0.0616  0.7062  0.5982
 6791SOL    HW231833   3.633   4.218  12.702 -0.2804  0.9685 -1.0675
 6792SOL     OW31834   0.803   0.102   5.628  0.1343 -0.0395 -0.6975
 6792SOL    HW131835   0.820   0.187   5.587  0.8855 -0.8326 -2.0414
 6792SOL    HW231836   0.860   0.119   5.702  0.3677 -1.0240 -0.6435
 6793SOL     OW31837   3.978   0.208   1.369  0.1930 -0.3284  0.0057
 6793SOL    HW131838   4.012   0.147   1.435 -1.8796 -3.9580 -2.2806
 6793SOL    HW231839   4.033   0.195   1.292 -1.4388  0.0239 -1.2242
 6794SOL     OW31840   2.053   1.213   8.714  0.0116 -1.0738 -0.0567
 6794SOL    HW131841   2.137   1.259   8.726 -1.3097  1.8379 -2.0062
 6794SOL    HW231842   2.011   1.235   8.798 -0.3054 -0.5361 -0.3588
 6795SOL     OW31843   4.429   2.273   5.587  0.5514 -0.4444  0.2814
 6795SOL    HW131844   4.339   2.250   5.562 -0.2483  0.3366  2.4387
 6795SOL    HW231845   4.411   2.339   5.654 -1.0114  0.9702 -1.5394
 6796SOL     OW31846   0.673   0.300   7.281  0.6069  0.1794 -0.0033
 6796SOL    HW131847   0.660   0.363   7.211 -0.0404  1.7834  1.5598
 6796SOL    HW231848   0.681   0.361   7.355 -0.7122 -0.0889  0.3551
 6797SOL     OW31849   2.547   4.174   5.345 -0.3254 -0.5526 -0.4655
 6797SOL    HW131850   2.581   4.263   5.353  1.4310 -1.1973 -0.5603
 6797SOL    HW231851   2.454   4.187   5.329 -0.0216  1.2416 -0.8394
 6798SOL     OW31852   0.844   4.339   8.987 -0.3419 -0.6361  0.0937
 6798SOL    HW131853   0.781   4.300   9.046 -0.5935 -0.2704  0.0712
 6798SOL    HW231854   0.779   4.379   8.928  1.1415  1.1302 -0.3610
 6799SOL     OW31855   1.347   4.041   3.630  0.2700 -0.4045 -0.2132
 6799SOL    HW131856   1.408   4.111   3.655 -1.0639  1.4082 -2.0719
 6799SOL    HW231857   1.388   4.031   3.544  0.8577 -0.8034  0.1075
 6800SOL     OW31858   4.092   3.842  16.838  0.4156  0.2403 -0.2698
 6800SOL    HW131859   4.104   3.768  16.897  1.7716  0.5712 -0.1287
 6800SOL    HW231860   4.169   3.897  16.853 -0.6866  1.7570 -0.1773
 6801SOL     OW31861   2.834   0.883   3.419  0.1219  0.4242  0.1431
 6801SOL    HW131862   2.883   0.845   3.492  0.6140 -2.6753 -1.7816
 6801SOL    HW231863   2.883   0.839   3.350 -2.0858 -0.0811 -1.1064
 6802SOL     OW31864   0.113   3.450   2.399  0.3642  0.2778  0.0057
 6802SOL    HW131865   0.071   3.442   2.485  2.0146 -1.4320  0.6701
 6802SOL    HW231866   0.032   3.451   2.349  2.0720  1.2667 -2.7704
 6803SOL     OW31867   4.112   1.193  11.809  0.0187  0.3774 -0.4953
 6803SOL    HW131868   4.117   1.107  11.767  0.3268  0.7232 -1.1652
 6803SOL    HW231869   4.130   1.258  11.741 -2.7771  0.8790 -0.7177
 6804SOL     OW31870   0.613   2.590   1.407  0.3771 -0.5201  0.0725
 6804SOL    HW131871   0.603   2.677   1.446  0.4226 -0.5874  0.2309
 6804SOL    HW231872   0.520   2.571   1.411 -0.0613  1.6519  0.4307
 6805SOL     OW31873   3.727   2.608   2.021 -0.3669 -0.2387  0.8865
 6805SOL    HW131874   3.650   2.554   2.041 -1.4300  0.1149 -2.1784
 6805SOL    HW231875   3.755   2.641   2.106 -1.4397  0.4836  0.9658
 6806SOL     OW31876   4.183   4.439  14.001  0.4641  0.0766  0.8072
 6806SOL    HW131877   4.172   4.354  14.043 -1.8572 -0.2082 -0.3437
 6806SOL    HW231878   4.259   4.420  13.946  0.3572 -2.3270  1.4752
 6807SOL     OW31879   2.589   1.603   0.689  0.2001 -0.7035  0.5245
 6807SOL    HW131880   2.663   1.604   0.629 -0.7180 -0.3322 -0.5936
 6807SOL    HW231881   2.632   1.561   0.764  2.4679 -0.0097 -0.3919
 6808SOL     OW31882   1.350   1.542   2.448  0.5799 -0.2445 -0.1762
 6808SOL    HW131883   1.422   1.553   2.510  0.8235  0.0419 -0.5116
 6808SOL    HW231884   1.352   1.631   2.412  0.5400 -0.0578  0.2717
 6809SOL     OW31885   4.721   0.946   9.319  0.3305  0.0238  0.0094
 6809SOL    HW131886   0.007   0.968   9.412 -2.0717 -0.6232  0.4638
 6809SOL    HW231887   4.718   0.850   9.327 -0.9239  0.0806  0.3312
 6810SOL     OW31888   3.311   0.331   3.183  0.8182  0.3743 -0.0183
 6810SOL    HW131889   3.347   0.337   3.272 -0.4195 -0.5470  0.5533
 6810SOL    HW231890   3.334   0.242   3.159  0.2433  0.8218 -2.2218
 6811SOL     OW31891   3.112   3.245   6.070  0.4374 -0.0139 -0.2116
 6811SOL    HW131892   3.140   3.166   6.024  0.6812  0.3732 -0.7266
 6811SOL    HW231893   3.067   3.212   6.147 -0.4093  0.7663 -0.3666
 6812SOL     OW31894   2.627   2.194   4.411  0.8696  0.2211 -0.6071
 6812SOL    HW131895   2.611   2.244   4.330 -2.4465 -0.8639 -0.6190
 6812SOL    HW231896   2.699   2.139   4.382  0.4616  0.1852 -1.5607
 6813SOL     OW31897   3.908   0.284   4.784  0.6164  0.1846  0.3026
 6813SOL    HW131898   3.918   0.236   4.867  0.9994  1.1441  0.8128
 6813SOL    HW231899   3.965   0.229   4.729  1.7067 -0.4328  2.0450
 6814SOL     OW31900   2.685   2.026  17.367  0.1035 -0.2232 -0.0052
 6814SOL    HW131901   2.664   1.966  17.295 -2.0802 -1.1791  1.4096
 6814SOL    HW231902   2.682   2.109  17.319  0.8503 -0.6392 -0.7578
 6815SOL     OW31903   3.476   1.816   2.208  0.4562 -0.2383  0.1244
 6815SOL    HW131904   3.528   1.756   2.261 -1.9321 -1.8114  0.6592
 6815SOL    HW231905   3.429   1.757   2.149  2.4371  0.1282 -1.8427
 6816SOL     OW31906   3.929   1.517  13.233 -0.3163 -0.2468 -0.4878
 6816SOL    HW131907   3.996   1.584  13.245 -0.4486 -0.5101  1.8107
 6816SOL    HW231908   3.847   1.559  13.256  1.2223  1.8757  1.0906
 6817SOL     OW31909   2.482   1.897   4.033 -0.4679  0.2613  0.1689
 6817SOL    HW131910   2.457   1.989   4.025 -1.3329  0.1045  1.1599
 6817SOL    HW231911   2.400   1.873   4.075  0.4579  0.6149  2.1645
 6818SOL     OW31912   3.739   1.868  15.249 -0.5677  0.3099  0.4016
 6818SOL    HW131913   3.779   1.954  15.263  2.1063 -0.7364 -0.9799
 6818SOL    HW231914   3.684   1.852  15.326 -2.0098  2.9050 -0.0776
 6819SOL     OW31915   0.677   2.682   2.551 -0.5347  0.2620  0.0378
 6819SOL    HW131916   0.732   2.611   2.520 -0.3695  0.2648  0.3247
 6819SOL    HW231917   0.685   2.763   2.500 -0.5881  0.9194  1.0503
 6820SOL     OW31918   0.246   1.037   3.304  0.0491 -0.5236  0.1962
 6820SOL    HW131919   0.278   1.127   3.308 -0.1348 -0.5248  1.7075
 6820SOL    HW231920   0.190   1.060   3.229 -0.0865  0.5579  0.6224
 6821SOL     OW31921   0.823   3.009  16.704  0.1278 -0.2974 -0.3953
 6821SOL    HW131922   0.824   2.919  16.672 -1.2657  0.1609 -1.7419
 6821SOL    HW231923   0.731   3.034  16.703 -0.0227 -0.8825 -0.9104
 6822SOL     OW31924   0.474   4.198   8.070 -0.8694  0.0224 -0.6542
 6822SOL    HW131925   0.559   4.159   8.091 -0.1389  1.6432 -0.6048
 6822SOL    HW231926   0.496   4.251   7.994 -1.3668 -0.6338 -1.2596
 6823SOL     OW31927   3.557   4.415   8.379  0.2391 -0.0888  0.3270
 6823SOL    HW131928   3.640   4.432   8.423  0.4939  0.7605 -0.5043
 6823SOL    HW231929   3.541   4.504   8.350 -1.0605 -0.4540 -0.0667
 6824SOL     OW31930   4.428   4.414  13.330  0.1875  0.2232 -0.2709
 6824SOL    HW131931   4.377   4.392  13.253 -0.2146  0.8300 -0.1783
 6824SOL    HW231932   4.508   4.366  13.309  1.0228  1.2841  0.4511
 6825SOL     OW31933   2.531   3.690   7.309  0.4617 -0.0867 -0.5388
 6825SOL    HW131934   2.590   3.756   7.344 -0.5863  1.2823 -1.3672
 6825SOL    HW231935   2.487   3.666   7.391  0.5440  0.5004 -0.3229
 6826SOL     OW31936   2.708   3.812   7.034  0.2846  0.3245 -0.5208
 6826SOL    HW131937   2.774   3.836   7.099  1.1679  0.3157 -1.4182
 6826SOL    HW231938   2.627   3.848   7.070  0.1045 -0.2049 -0.3902
 6827SOL     OW31939   2.997   0.362   2.204  0.0057  0.7123 -0.8878
 6827SOL    HW131940   2.950   0.307   2.267  1.3578 -0.2982 -0.7493
 6827SOL    HW231941   3.074   0.306   2.192 -0.4396  0.2047 -1.3822
 6828SOL     OW31942   3.399   2.927   2.274  0.1102 -0.3002 -0.2878
 6828SOL    HW131943   3.401   3.020   2.296 -0.4907 -0.1650 -0.8362
 6828SOL    HW231944   3.478   2.901   2.323  0.6845  1.1453 -0.4410
 6829SOL     OW31945   4.615   0.842   8.597 -0.0064 -0.5666  0.0461
 6829SOL    HW131946   4.667   0.787   8.538  0.4134  1.1345 -1.1532
 6829SOL    HW231947   4.684   0.870   8.657  1.8136 -2.1621 -1.2855
 6830SOL     OW31948   1.442   0.236   5.954  0.3367  0.4153  0.7834
 6830SOL    HW131949   1.475   0.289   5.881 -1.5899 -0.5957 -0.8120
 6830SOL    HW231950   1.392   0.162   5.919 -1.2578  2.2953 -0.9036
 6831SOL     OW31951   4.093   4.578   4.958 -0.0838 -0.6743  0.0070
 6831SOL    HW131952   4.153   4.612   5.025  0.2098  0.0114 -0.6017
 6831SOL    HW231953   4.138   4.601   4.877 -1.2500 -1.9635 -0.9914
 6832SOL     OW31954   1.805   3.720   5.179  0.5700  0.5955  0.0184
 6832SOL    HW131955   1.725   3.737   5.228 -1.0349 -0.3085 -2.3187
 6832SOL    HW231956   1.866   3.710   5.253  2.8048  2.5104 -1.5643
 6833SOL     OW31957   2.513   2.931   7.107 -0.2653  0.6779  0.1162
 6833SOL    HW131958   2.592   2.880   7.087 -0.9878 -0.9476  1.3495
 6833SOL    HW231959   2.450   2.897   7.043  1.7992  0.7736 -1.9587
 6834SOL     OW31960   4.159   3.570   6.901  0.9950  0.5182  0.6423
 6834SOL    HW131961   4.102   3.494   6.890  2.1679 -0.1647 -0.7962
 6834SOL    HW231962   4.150   3.599   6.811 -0.3593  0.5311  0.7915
 6835SOL     OW31963   3.214   2.407  10.846  0.0754  0.4048 -0.1575
 6835SOL    HW131964   3.198   2.315  10.865 -0.6728  0.1514 -2.0341
 6835SOL    HW231965   3.171   2.445  10.922  0.5139 -0.2966  0.4452
 6836SOL     OW31966   2.673   0.564   8.271 -0.3910  0.2513 -0.5670
 6836SOL    HW131967   2.710   0.546   8.357 -1.4092  0.1370 -0.1514
 6836SOL    HW231968   2.740   0.626   8.243  1.3530 -1.2554  0.2392
 6837SOL     OW31969   4.651   4.019  16.668 -0.4930 -0.3738 -0.3346
 6837SOL    HW131970   4.565   4.053  16.695 -1.1989 -1.7935 -0.8153
 6837SOL    HW231971   4.700   4.101  16.677 -0.3638 -0.3053 -1.5644
 6838SOL     OW31972   0.436   0.559   8.724 -0.2206 -0.4156  0.0939
 6838SOL    HW131973   0.498   0.489   8.701  0.5649 -0.0804  1.1614
 6838SOL    HW231974   0.486   0.640   8.734 -0.9116 -0.4070  3.3525
 6839SOL     OW31975   2.643   2.148   3.404 -0.0380 -0.6098  0.3775
 6839SOL    HW131976   2.572   2.212   3.403 -0.3194 -0.9244  0.2566
 6839SOL    HW231977   2.602   2.070   3.441  1.7175 -0.6333  2.2438
 6840SOL     OW31978   3.229   3.700   0.161  0.0410  0.2550  0.0418
 6840SOL    HW131979   3.198   3.752   0.235 -0.6297 -1.1852  0.7770
 6840SOL    HW231980   3.324   3.700   0.173 -0.0603 -1.2610  0.8547
 6841SOL     OW31981   0.777   2.600   9.718 -0.3373 -0.1309 -0.2218
 6841SOL    HW131982   0.761   2.599   9.813  1.9832 -0.9094  0.1574
 6841SOL    HW231983   0.854   2.543   9.710 -2.0559 -2.1605 -2.2521
 6842SOL     OW31984   3.646   3.113   8.341  0.1422  0.0918 -0.3390
 6842SOL    HW131985   3.580   3.048   8.315 -0.9511  0.6874  0.9804
 6842SOL    HW231986   3.590   3.190   8.348  2.1278  1.4746  0.3414
 6843SOL     OW31987   0.018   3.298  10.786  0.3779  0.6548 -0.0160
 6843SOL    HW131988   0.083   3.350  10.834  0.5877  1.5184 -1.2478
 6843SOL    HW231989   0.019   3.351  10.706 -2.5516 -2.1717 -1.9343
 6844SOL     OW31990   3.951   2.553   8.108  0.0467 -0.1372  0.3609
 6844SOL    HW131991   3.976   2.574   8.018 -1.2826  0.1421  0.0461
 6844SOL    HW231992   3.926   2.461   8.100 -1.3827  0.0686  2.4045
 6845SOL     OW31993   1.978   0.624   6.078  0.1518  0.6408  0.6583
 6845SOL    HW131994   1.950   0.532   6.085  2.4572  0.0156  1.4845
 6845SOL    HW231995   2.066   0.618   6.116  0.1416 -0.3494  0.5473
 6846SOL     OW31996   3.955   0.393   6.031 -0.1761  0.2299 -0.2476
 6846SOL    HW131997   3.933   0.486   6.033  2.2942  0.7546  1.3284
 6846SOL    HW231998   3.995   0.371   6.115 -2.6279 -0.3131  0.7957
 6847SOL     OW31999   4.303   4.331   5.573 -0.7697 -0.0318  0.6180
 6847SOL    HW132000   4.227   4.370   5.616 -0.9406  0.5275 -0.1795
 6847SOL    HW232001   4.340   4.412   5.537 -2.6453  0.6940  0.3680
 6848SOL     OW32002   2.426   2.162  10.516 -0.0454 -0.6065  0.2182
 6848SOL    HW132003   2.405   2.156  10.609 -2.9429 -0.2695 -0.4390
 6848SOL    HW232004   2.488   2.235  10.511  1.1183 -1.5398  0.9580
 6849SOL     OW32005   3.273   4.162  17.413 -0.1195 -0.4428 -0.4682
 6849SOL    HW132006   3.278   4.068  17.430 -0.2678 -0.3603  0.0364
 6849SOL    HW232007   3.279   4.199  17.501  1.2922 -1.1937 -0.2462
 6850SOL     OW32008   3.557   4.360  17.309  0.2235 -0.1172 -0.1943
 6850SOL    HW132009   3.555   4.268  17.335 -1.8119 -0.3306 -1.1244
 6850SOL    HW232010   3.590   4.342  17.221  2.8703  0.9775  0.5406
 6851SOL     OW32011   0.034   3.181   5.777  0.3926 -0.2472  0.9049
 6851SOL    HW132012   0.092   3.242   5.822  1.0241 -0.6343  0.6024
 6851SOL    HW232013   4.677   3.229   5.769  0.4375 -0.1824  0.8426
 6852SOL     OW32014   2.630   3.317   2.117 -0.0274 -0.2489 -0.4825
 6852SOL    HW132015   2.687   3.362   2.179 -1.8482  0.7382  0.4687
 6852SOL    HW232016   2.699   3.285   2.058 -1.1717 -2.6945 -0.5147
 6853SOL     OW32017   0.902   3.261   2.817  0.0903 -0.0381  0.1552
 6853SOL    HW132018   0.954   3.329   2.860  0.0101 -0.2698  0.6165
 6853SOL    HW232019   0.934   3.276   2.728 -1.1234 -2.4856 -0.7024
 6854SOL     OW32020   2.352   1.347   6.697  0.3050 -0.7539  0.2861
 6854SOL    HW132021   2.341   1.256   6.668 -1.3064 -0.3631 -0.3249
 6854SOL    HW232022   2.403   1.383   6.625 -1.4277  1.1670  0.0003
 6855SOL     OW32023   0.108   3.337   5.485  0.2527 -0.4377 -0.6238
 6855SOL    HW132024   0.156   3.420   5.489 -0.9343  0.1499  1.3306
 6855SOL    HW232025   0.180   3.274   5.492 -0.4659 -1.1635  0.2383
 6856SOL     OW32026   3.784   3.385   2.119  0.1569 -0.1655  0.2721
 6856SOL    HW132027   3.832   3.310   2.153 -0.6314 -0.7783  0.0224
 6856SOL    HW232028   3.774   3.357   2.028 -1.1704 -0.6198  0.5677
 6857SOL     OW32029   1.128   0.460  15.306 -0.3134 -0.8370 -0.1152
 6857SOL    HW132030   1.165   0.518  15.241 -1.3598  0.6155  0.5919
 6857SOL    HW232031   1.067   0.413  15.249 -0.8164  0.9395 -1.0291
 6858SOL     OW32032   1.744   0.366   8.609  0.0536  0.5571  0.1454
 6858SOL    HW132033   1.797   0.293   8.640  0.6998  0.2744 -1.6081
 6858SOL    HW232034   1.685   0.327   8.545 -2.7488  0.7059  2.6209
 6859SOL     OW32035   3.442   3.832   2.143  0.7632  0.1974  0.0161
 6859SOL    HW132036   3.480   3.841   2.056 -0.5393 -0.5256 -0.6398
 6859SOL    HW232037   3.461   3.738   2.146 -2.5094 -0.5243 -1.4173
 6860SOL     OW32038   2.191   1.140   6.986 -0.4026  0.0869  0.4672
 6860SOL    HW132039   2.135   1.063   6.984 -0.9631  0.5154 -0.4984
 6860SOL    HW232040   2.215   1.109   7.074  0.1209  1.5479  0.8431
 6861SOL     OW32041   3.694   2.739   4.551  0.0491 -0.2082  0.2390
 6861SOL    HW132042   3.682   2.730   4.646 -1.2653 -0.1456  0.0782
 6861SOL    HW232043   3.611   2.704   4.519  0.4798  0.6667 -1.8349
 6862SOL     OW32044   3.155   4.289  14.551 -0.4582  0.6218 -0.2660
 6862SOL    HW132045   3.194   4.360  14.500  1.9088 -0.9162 -0.6024
 6862SOL    HW232046   3.064   4.302  14.524 -0.9291 -2.5594 -0.2594
 6863SOL     OW32047   4.337   0.796  10.032 -0.0320 -0.2146  0.4228
 6863SOL    HW132048   4.265   0.734  10.030 -0.5941  0.4172  1.0141
 6863SOL    HW232049   4.394   0.751   9.969 -0.8946 -0.4027 -0.2169
 6864SOL     OW32050   2.006   4.123  15.109 -0.5210  0.0683 -0.6192
 6864SOL    HW132051   1.984   4.172  15.189  1.4739  1.3266 -0.8375
 6864SOL    HW232052   1.977   4.186  15.043 -0.9145  0.6525  0.0994
 6865SOL     OW32053   3.761   1.264   4.079 -0.1682 -0.0607 -0.5662
 6865SOL    HW132054   3.765   1.344   4.131 -2.0989  1.4840 -2.8008
 6865SOL    HW232055   3.671   1.262   4.047 -1.1671  0.9569  2.1421
 6866SOL     OW32056   2.915   0.487   3.114 -0.0283 -0.0146  0.9013
 6866SOL    HW132057   2.872   0.485   3.028  1.7653  1.0544 -0.0456
 6866SOL    HW232058   3.005   0.501   3.084 -0.6790  0.9054 -0.6802
 6867SOL     OW32059   0.569   3.634  16.126 -0.1982  0.3011 -0.0216
 6867SOL    HW132060   0.597   3.570  16.061 -0.1770 -0.3196  0.5957
 6867SOL    HW232061   0.479   3.648  16.096  0.3023  0.0601 -1.6137
 6868SOL     OW32062   2.068   3.625   4.705  0.5193  0.2202  0.4567
 6868SOL    HW132063   2.111   3.687   4.645 -0.6882  0.2728 -0.3651
 6868SOL    HW232064   1.975   3.634   4.686  0.9862  0.4976 -1.7358
 6869SOL     OW32065   0.745   2.073   2.096 -0.2219 -0.5820  0.1468
 6869SOL    HW132066   0.751   2.162   2.062 -1.3657 -0.8430 -0.7313
 6869SOL    HW232067   0.837   2.051   2.111 -0.1646 -0.0968  0.4949
 6870SOL     OW32068   2.831   3.222   9.265  0.2158 -0.2214 -0.1910
 6870SOL    HW132069   2.899   3.213   9.198 -2.5808  0.4279 -3.1609
 6870SOL    HW232070   2.878   3.270   9.333 -0.6353 -1.9145  1.5624
 6871SOL     OW32071   2.175   4.722   7.957 -0.1564 -0.3744 -0.4129
 6871SOL    HW132072   2.265   0.011   7.987  0.9007 -2.1555 -2.7973
 6871SOL    HW232073   2.138   4.646   8.000  1.7233 -1.7379 -1.2206
 6872SOL     OW32074   3.110   0.927   2.240  0.3546 -0.0137 -0.2713
 6872SOL    HW132075   3.162   0.904   2.164  0.1160  1.6982 -0.9625
 6872SOL    HW232076   3.114   0.844   2.288 -1.5638  1.0223  1.6861
 6873SOL     OW32077   2.201   0.695   3.539  0.2001 -0.2978  0.1551
 6873SOL    HW132078   2.242   0.635   3.477 -0.0638 -0.3192 -0.0033
 6873SOL    HW232079   2.109   0.676   3.519  0.5773 -1.8895 -0.0505
 6874SOL     OW32080   0.403   4.186   2.046 -0.2113 -0.5779  0.0789
 6874SOL    HW132081   0.374   4.101   2.013  0.8617 -0.8746 -0.0995
 6874SOL    HW232082   0.317   4.226   2.036 -0.1112 -1.2799 -3.3524
 6875SOL     OW32083   2.218   2.403  12.566  0.7481  0.1093  0.5093
 6875SOL    HW132084   2.265   2.427  12.486  1.3870 -1.5666  0.3868
 6875SOL    HW232085   2.284   2.408  12.635  0.7703  0.8049  0.4366
 6876SOL     OW32086   0.872   4.655  16.944 -0.8525 -0.5891  1.0364
 6876SOL    HW132087   0.804   4.660  16.877  0.5457 -1.9129 -0.4786
 6876SOL    HW232088   0.864   0.006  17.002  0.6740  0.8194 -0.6183
 6877SOL     OW32089   0.396   2.356  11.793 -0.3133  0.0181 -0.1403
 6877SOL    HW132090   0.391   2.374  11.699 -0.7170  2.3304  0.3181
 6877SOL    HW232091   0.362   2.267  11.807  2.2499 -0.9757 -0.3064
 6878SOL     OW32092   2.046   3.177  13.606 -0.5309  0.4846 -0.2229
 6878SOL    HW132093   2.004   3.129  13.678 -0.9476 -2.1687 -2.2067
 6878SOL    HW232094   2.053   3.102  13.546  1.6106  0.5296 -0.0245
 6879SOL     OW32095   3.480   4.557  16.993 -0.3281 -0.5496  0.3706
 6879SOL    HW132096   3.529   4.483  17.029 -0.1873 -0.4441  0.3925
 6879SOL    HW232097   3.387   4.534  16.999 -0.6638  0.4799 -1.0462
 6880SOL     OW32098   2.733   2.466   3.576 -0.3897  0.2645  0.7022
 6880SOL    HW132099   2.688   2.414   3.509 -0.2696  3.1158 -1.6159
 6880SOL    HW232100   2.823   2.481   3.549 -0.4866  1.2700  0.9446
 6881SOL     OW32101   2.054   4.443   6.163  0.2668 -0.7340  0.0139
 6881SOL    HW132102   2.062   4.524   6.112  0.6768 -1.5151 -1.1567
 6881SOL    HW232103   2.023   4.379   6.099 -1.0917  0.1899 -0.2468
 6882SOL     OW32104   2.622   3.480   4.898  0.2377 -0.4780 -0.0246
 6882SOL    HW132105   2.627   3.552   4.835  3.1397 -0.8890 -0.2707
 6882SOL    HW232106   2.620   3.526   4.982  0.6998  0.2459 -0.4113
 6883SOL     OW32107   3.732   0.282   9.726 -0.0089 -0.5630  0.0194
 6883SOL    HW132108   3.653   0.329   9.749  1.2259  1.5872 -0.1444
 6883SOL    HW232109   3.754   0.316   9.639 -2.5967  0.1751 -0.3234
 6884SOL     OW32110   3.591   1.897  14.913 -0.7559  0.0435 -0.5460
 6884SOL    HW132111   3.536   1.974  14.924  0.5466  0.8641  0.1619
 6884SOL    HW232112   3.675   1.939  14.897 -0.1805 -0.9589 -0.1697
 6885SOL     OW32113   2.171   1.247   5.159 -0.2273 -0.2247  0.0690
 6885SOL    HW132114   2.116   1.323   5.180 -0.1384 -0.1685  0.0986
 6885SOL    HW232115   2.195   1.257   5.067 -0.2256 -1.3939 -0.0506
 6886SOL     OW32116   2.204   3.354   3.042 -0.5172 -0.0189  0.8728
 6886SOL    HW132117   2.196   3.347   3.137  0.1354 -0.3748  0.9066
 6886SOL    HW232118   2.175   3.442   3.018  1.6208  0.5635  0.3780
 6887SOL     OW32119   0.595   4.607   5.642  0.2271  0.1385 -0.4592
 6887SOL    HW132120   0.655   4.682   5.650 -0.7749  0.8772  0.1858
 6887SOL    HW232121   0.511   4.651   5.659 -0.6183 -0.9097 -1.9977
 6888SOL     OW32122   2.275   2.312  16.846 -0.0968 -0.4402 -0.4305
 6888SOL    HW132123   2.225   2.394  16.846 -1.1510 -1.0933  0.4150
 6888SOL    HW232124   2.210   2.243  16.835 -2.5632  1.4785  2.1817
 6889SOL     OW32125   4.041   4.667   2.708  0.0689 -0.3354  0.1841
 6889SOL    HW132126   4.043   4.697   2.799 -0.1049  1.3333 -0.3528
 6889SOL    HW232127   4.135   4.668   2.693  0.1712  2.9326  0.8556
 6890SOL     OW32128   0.797   1.641   9.684  0.0878  0.4527  0.6278
 6890SOL    HW132129   0.766   1.550   9.679  0.4755  0.3502  0.0004
 6890SOL    HW232130   0.719   1.695   9.671 -0.1966 -0.4539 -1.4345
 6891SOL     OW32131   3.893   4.362   4.435  0.7356  0.0609 -0.9706
 6891SOL    HW132132   3.886   4.451   4.469  1.6064 -0.5088  0.6584
 6891SOL    HW232133   3.820   4.335   4.378 -1.0525  2.5578  0.1524
 6892SOL     OW32134   1.787   1.717  17.661  0.4363 -1.2334 -0.4629
 6892SOL    HW132135   1.783   1.704   0.055 -0.4119 -2.2317 -0.6404
 6892SOL    HW232136   1.720   1.660  17.623 -1.5401  1.1069 -0.4785
 6893SOL     OW32137   0.294   3.266   6.461  0.1131 -0.4022 -0.2303
 6893SOL    HW132138   0.339   3.260   6.376  1.7961  0.9692  0.5553
 6893SOL    HW232139   0.202   3.270   6.436 -0.0739 -0.4752  0.4610
 6894SOL     OW32140   2.700   0.361  11.700  0.3004 -0.0689 -0.6847
 6894SOL    HW132141   2.640   0.401  11.638 -1.1399 -0.7263  0.2696
 6894SOL    HW232142   2.774   0.330  11.649 -0.1218  2.1858 -2.6544
 6895SOL     OW32143   0.821   3.997   1.538 -0.3546  0.2429  0.5212
 6895SOL    HW132144   0.808   3.945   1.617 -1.0406 -1.9718 -1.0376
 6895SOL    HW232145   0.895   3.946   1.503 -1.6080 -2.0192  1.1677
 6896SOL     OW32146   0.310   3.142   8.165 -0.1071 -0.3823 -0.5205
 6896SOL    HW132147   0.283   3.140   8.073  1.1759 -0.6495 -0.8872
 6896SOL    HW232148   0.400   3.112   8.150  0.7539  0.8363  2.1851
 6897SOL     OW32149   3.143   3.991   8.756 -0.1605 -0.3779 -0.1255
 6897SOL    HW132150   3.169   3.966   8.844  1.1918  1.0383 -0.1237
 6897SOL    HW232151   3.098   3.917   8.715 -0.4511 -0.5301  0.4787
 6898SOL     OW32152   1.511   3.280   3.082 -0.3704 -0.0471  0.5452
 6898SOL    HW132153   1.472   3.199   3.116 -2.8900  1.7910  2.0918
 6898SOL    HW232154   1.512   3.257   2.989  1.3589  0.4225  0.4419
 6899SOL     OW32155   0.120   0.012   1.560  0.4431 -0.0995 -0.4007
 6899SOL    HW132156   0.205   0.051   1.577  1.2566 -2.4405  0.9152
 6899SOL    HW232157   0.096   4.707   1.648 -1.0268 -0.8449 -1.0472
 6900SOL     OW32158   2.046   1.894  15.985 -0.1758  0.0760  0.4629
 6900SOL    HW132159   2.125   1.948  15.985  0.0044 -0.1773 -0.7720
 6900SOL    HW232160   1.984   1.966  15.999 -1.6510 -0.5929 -2.5543
 6901SOL     OW32161   3.630   0.706   2.830  0.3780 -0.5449  0.6662
 6901SOL    HW132162   3.718   0.718   2.867 -0.6534  1.6847  2.3918
 6901SOL    HW232163   3.639   0.640   2.761 -1.0915  0.8719 -0.8705
 6902SOL     OW32164   0.202   4.168  13.274  0.0302  0.3288 -0.3783
 6902SOL    HW132165   0.259   4.223  13.220  0.3871  0.3457  0.0151
 6902SOL    HW232166   0.217   4.212  13.358  0.3969  2.3304 -1.5119
 6903SOL     OW32167   3.443   2.406   1.654 -0.1710  0.3105  0.5935
 6903SOL    HW132168   3.524   2.454   1.669  0.1448  0.5790 -2.0240
 6903SOL    HW232169   3.459   2.388   1.561  1.4280  2.4328  0.4719
 6904SOL     OW32170   0.394   3.523   6.528  0.3884  0.4295  0.1689
 6904SOL    HW132171   0.487   3.504   6.538  1.0509  2.4298 -2.4399
 6904SOL    HW232172   0.362   3.438   6.497 -0.5684  0.0908  2.0740
 6905SOL     OW32173   3.316   4.046   3.142  0.2011  0.0982 -0.3930
 6905SOL    HW132174   3.328   4.007   3.229  1.4412 -0.3938 -0.7806
 6905SOL    HW232175   3.410   4.059   3.126  0.8154  0.3300  3.4223
 6906SOL     OW32176   3.934   1.176   8.471 -0.9538 -0.3485 -0.2064
 6906SOL    HW132177   4.024   1.206   8.479 -2.0449  3.1152 -1.0919
 6906SOL    HW232178   3.904   1.190   8.381 -1.0775 -0.7266 -0.2255
 6907SOL     OW32179   4.277   3.415  11.345 -0.1606 -0.6130  0.3264
 6907SOL    HW132180   4.245   3.372  11.266  1.7794 -0.5405 -0.4814
 6907SOL    HW232181   4.323   3.343  11.388 -0.9083  0.3189  2.6705
 6908SOL     OW32182   1.471   2.859   5.379  0.3188  0.6685  0.3552
 6908SOL    HW132183   1.483   2.793   5.311  0.2158  0.9627  0.0506
 6908SOL    HW232184   1.448   2.933   5.322 -1.8287 -0.6220 -0.4288
 6909SOL     OW32185   4.178   3.895   1.268 -0.0529  0.2108  0.2741
 6909SOL    HW132186   4.117   3.885   1.195  1.9046 -0.0025 -1.3252
 6909SOL    HW232187   4.252   3.857   1.221  0.7780  1.7198  0.3643
 6910SOL     OW32188   4.395   4.030   8.101  0.4134  0.5112  0.1173
 6910SOL    HW132189   4.386   3.935   8.110 -0.3281  0.5201 -0.5782
 6910SOL    HW232190   4.385   4.053   8.194 -4.5387 -0.0113 -0.3191
 6911SOL     OW32191   1.339   3.453   2.729 -0.2482  0.3845 -0.1433
 6911SOL    HW132192   1.287   3.403   2.793  0.3026  1.2601  0.9863
 6911SOL    HW232193   1.354   3.392   2.656 -1.9639  2.1156 -1.9365
 6912SOL     OW32194   4.613   0.306  16.058  0.3329  0.0575 -0.3400
 6912SOL    HW132195   4.547   0.364  16.020  1.1021  1.0361 -0.1925
 6912SOL    HW232196   4.570   0.222  16.075 -2.4999  1.2302 -1.8308
 6913SOL     OW32197   1.075   0.344   7.564  0.0350  0.0954 -0.6258
 6913SOL    HW132198   1.129   0.324   7.640 -0.4503  1.7154  0.1463
 6913SOL    HW232199   1.110   0.290   7.493  0.5247 -0.3835 -0.0208
 6914SOL     OW32200   3.979   0.780  11.540  0.2837 -0.5730 -0.0051
 6914SOL    HW132201   3.994   0.704  11.595  1.7196  1.4823  2.4487
 6914SOL    HW232202   4.056   0.833  11.560 -0.7592  1.5831 -1.6559
 6915SOL     OW32203   2.026   4.119  15.594 -0.1319  0.0775 -0.6625
 6915SOL    HW132204   2.053   4.139  15.504 -2.2461 -1.0774 -1.5685
 6915SOL    HW232205   1.938   4.086  15.580  0.1334 -0.4716 -1.0219
 6916SOL     OW32206   4.444   3.827   5.081  0.3063 -0.1711  0.5816
 6916SOL    HW132207   4.426   3.913   5.042  3.4866  0.5872  0.8390
 6916SOL    HW232208   4.537   3.829   5.103  0.3099  0.6756  0.5264
 6917SOL     OW32209   0.954   0.776   3.456  0.0264  0.2585 -0.2431
 6917SOL    HW132210   1.042   0.755   3.486  0.4568 -0.5591 -2.0546
 6917SOL    HW232211   0.928   0.853   3.506 -1.8128 -0.3174 -0.2911
 6918SOL     OW32212   3.419   0.935   8.482  0.0741 -0.3932 -0.3947
 6918SOL    HW132213   3.394   0.909   8.393 -0.1126  0.3242 -0.5511
 6918SOL    HW232214   3.355   1.004   8.498  0.3878 -0.1789 -0.0708
 6919SOL     OW32215   3.928   4.086   2.320 -0.3044 -0.2478  0.5235
 6919SOL    HW132216   3.890   4.003   2.294  0.0320 -0.4356  0.6279
 6919SOL    HW232217   3.863   4.133   2.372 -0.0009 -1.7245  2.2478
 6920SOL     OW32218   1.300   0.065  13.488  0.5506  0.1079 -0.1078
 6920SOL    HW132219   1.261   0.149  13.464 -0.4565  0.5287  3.0053
 6920SOL    HW232220   1.245   0.002  13.442 -0.7609  1.8578 -0.9040
 6921SOL     OW32221   3.803   3.776  12.323  0.0074  0.1762  0.5772
 6921SOL    HW132222   3.792   3.822  12.406 -1.1214  0.6390  0.1610
 6921SOL    HW232223   3.805   3.854  12.268  1.8667 -1.0260 -1.0970
 6922SOL     OW32224   2.147   3.923  15.022 -0.0350  0.5243  0.7781
 6922SOL    HW132225   2.096   4.000  15.047  1.1864  0.9454  1.9529
 6922SOL    HW232226   2.168   3.948  14.932 -0.8647  0.4127  0.5477
 6923SOL     OW32227   2.184   0.243   3.612  0.0381 -0.5773 -0.1696
 6923SOL    HW132228   2.215   0.177   3.551 -0.0713 -0.0539 -0.7916
 6923SOL    HW232229   2.206   0.204   3.697  0.1594  0.6926  0.3943
 6924SOL     OW32230   2.559   1.038   8.779 -0.3317 -0.1349 -0.0695
 6924SOL    HW132231   2.628   1.094   8.815 -0.4351  0.0904 -0.2234
 6924SOL    HW232232   2.484   1.079   8.822  0.5782  1.0181  0.4298
 6925SOL     OW32233   4.035   3.904   4.603 -0.0779 -0.0704 -0.1169
 6925SOL    HW132234   4.089   3.841   4.555 -0.7922 -3.0240  2.9157
 6925SOL    HW232235   3.979   3.932   4.532  1.0806  2.0501 -0.2050
 6926SOL     OW32236   2.650   2.792   2.051  0.3953 -0.0313  0.0620
 6926SOL    HW132237   2.724   2.844   2.080  1.6962 -2.3486  0.8569
 6926SOL    HW232238   2.592   2.855   2.008  0.0915 -1.8963 -2.2780
 6927SOL     OW32239   2.922   3.033   8.114  0.1594 -0.2987 -0.0805
 6927SOL    HW132240   2.837   3.031   8.069  0.1808 -0.1807 -0.1278
 6927SOL    HW232241   2.912   3.115   8.163 -1.6005 -0.8288  0.4669
 6928SOL     OW32242   1.393   2.663  17.098 -0.0433  0.2641 -0.1818
 6928SOL    HW132243   1.486   2.682  17.084  0.0224  0.4136  0.4836
 6928SOL    HW232244   1.372   2.645  17.006  0.1573 -2.8659  0.4027
 6929SOL     OW32245   1.704   1.547   6.793 -0.4009 -0.3885  0.2655
 6929SOL    HW132246   1.790   1.514   6.768 -0.3244  0.4089 -0.4970
 6929SOL    HW232247   1.730   1.619   6.851 -0.7207 -0.1533  0.1133
 6930SOL     OW32248   4.300   3.805   8.511  0.3428  0.3835 -0.1338
 6930SOL    HW132249   4.344   3.736   8.460  1.7728 -0.6077  2.4566
 6930SOL    HW232250   4.318   3.766   8.596  1.5491 -0.4631 -0.7645
 6931SOL     OW32251   0.048   0.322   2.448  0.0849  0.1924 -0.1345
 6931SOL    HW132252   0.006   0.307   2.533  2.8696 -2.0288  0.8633
 6931SOL    HW232253   4.698   0.356   2.399  1.3819  1.2826 -1.3490
 6932SOL     OW32254   4.156   4.610  11.677 -0.2126  0.7373  0.1074
 6932SOL    HW132255   4.126   4.642  11.592  0.5921 -0.0221 -0.4661
 6932SOL    HW232256   4.104   4.660  11.739  0.2254  0.9589  0.2968
 6933SOL     OW32257   0.750   0.101  15.438 -0.1382  0.1315  0.1065
 6933SOL    HW132258   0.696   0.072  15.512  1.5115  0.7760  1.5550
 6933SOL    HW232259   0.715   0.190  15.431  0.2728  0.5676  3.3450
 6934SOL     OW32260   1.105   1.176  11.861  0.3917 -0.7789  0.0714
 6934SOL    HW132261   1.043   1.107  11.883 -0.8704  1.0810  2.3594
 6934SOL    HW232262   1.140   1.193  11.948  0.2124 -1.4582  0.2788
 6935SOL     OW32263   1.815   0.693   2.338  0.6607 -0.4040  0.2148
 6935SOL    HW132264   1.741   0.641   2.308 -0.1482  0.5606  0.5474
 6935SOL    HW232265   1.869   0.635   2.393 -1.6910  0.1493  3.1019
 6936SOL     OW32266   1.216   1.077   8.070  0.4631 -0.6757 -0.2744
 6936SOL    HW132267   1.275   1.147   8.098 -0.5232 -1.1034  2.7986
 6936SOL    HW232268   1.155   1.080   8.143  1.2347  0.6647  0.3109
 6937SOL     OW32269   0.943   4.571   5.293  0.3143 -0.3894 -0.8541
 6937SOL    HW132270   1.001   4.613   5.357 -0.8806 -0.2533  0.1463
 6937SOL    HW232271   0.945   4.481   5.325 -0.4390 -1.0332 -2.6330
 6938SOL     OW32272   4.031   2.793   0.727  0.4879 -0.0327  0.5137
 6938SOL    HW132273   3.952   2.815   0.677 -1.6360 -2.6120  2.7227
 6938SOL    HW232274   3.997   2.742   0.801 -0.8845  0.6142  0.3274
 6939SOL     OW32275   1.094   4.467   4.176 -0.1815 -0.1297  0.4528
 6939SOL    HW132276   1.085   4.513   4.092 -1.8511 -0.1656  0.6226
 6939SOL    HW232277   1.004   4.457   4.207 -1.0008  2.2838 -1.1221
 6940SOL     OW32278   4.642   0.960   6.099  0.7161  0.2339 -0.1666
 6940SOL    HW132279   4.578   0.963   6.171  0.6874 -0.2858 -0.1672
 6940SOL    HW232280   4.706   1.017   6.141  0.1868 -0.7503  1.9988
 6941SOL     OW32281   4.150   0.967  11.667  0.0154 -0.2444  0.2862
 6941SOL    HW132282   4.196   0.884  11.685 -0.4830 -0.6098 -0.1085
 6941SOL    HW232283   4.210   1.006  11.603 -1.3073  1.0947 -0.1186
 6942SOL     OW32284   0.875   3.723  16.372  0.5658 -0.3047  0.0485
 6942SOL    HW132285   0.827   3.802  16.348  1.5852 -0.0485 -1.1478
 6942SOL    HW232286   0.863   3.715  16.467  1.4344 -0.8656  0.1173
 6943SOL     OW32287   4.172   2.527   4.655  0.2932 -0.3403  0.0196
 6943SOL    HW132288   4.121   2.568   4.724  0.9053 -2.0513  1.4863
 6943SOL    HW232289   4.190   2.603   4.600  1.3970 -0.5504  0.0828
 6944SOL     OW32290   2.712   1.817   4.195 -0.5283  0.1514 -0.1565
 6944SOL    HW132291   2.646   1.858   4.139 -0.4968 -2.2233 -1.9308
 6944SOL    HW232292   2.721   1.738   4.143 -1.7146  0.8083 -1.3727
 6945SOL     OW32293   0.442   4.474   6.566 -0.3035 -0.3105  0.4031
 6945SOL    HW132294   0.516   4.535   6.570 -0.0054 -0.7449  1.3927
 6945SOL    HW232295   0.462   4.416   6.493  0.1292 -0.0569  0.3191
 6946SOL     OW32296   3.513   1.809   8.451  0.2595 -0.6669 -0.4715
 6946SOL    HW132297   3.533   1.900   8.428 -0.1910 -1.1927 -2.9121
 6946SOL    HW232298   3.566   1.763   8.385  1.6050  1.9612 -1.2427
 6947SOL     OW32299   2.155   3.873   5.961  0.6739 -0.0914 -0.5155
 6947SOL    HW132300   2.082   3.820   5.995  1.3948 -0.6278  0.1973
 6947SOL    HW232301   2.193   3.904   6.044  0.2155  0.4451 -0.5054
 6948SOL     OW32302   4.220   2.689   2.915  0.2236  0.2534  0.1202
 6948SOL    HW132303   4.160   2.741   2.968 -0.3776 -1.8802  1.5357
 6948SOL    HW232304   4.300   2.697   2.968  0.5591  0.8220 -0.4782
 6949SOL     OW32305   1.304   0.476  13.151  0.1794  0.1082  0.2126
 6949SOL    HW132306   1.382   0.522  13.181 -1.0517  1.3585  1.4881
 6949SOL    HW232307   1.326   0.464  13.059  1.1331 -1.3570  0.6366
 6950SOL     OW32308   2.544   2.770   1.643 -0.0982 -0.0451  0.0329
 6950SOL    HW132309   2.616   2.830   1.663 -0.3150  0.7967 -1.6759
 6950SOL    HW232310   2.494   2.779   1.724 -1.8583 -0.2087 -1.0322
 6951SOL     OW32311   2.897   1.925   5.089 -0.5799 -0.3447 -0.2535
 6951SOL    HW132312   2.973   1.976   5.116  0.4715 -1.0546 -1.8645
 6951SOL    HW232313   2.826   1.989   5.079 -0.9651 -0.8488 -0.7792
 6952SOL     OW32314   0.598   1.616   3.329  0.1174  0.1855  0.2410
 6952SOL    HW132315   0.563   1.531   3.300 -0.4348  0.3815  0.3191
 6952SOL    HW232316   0.691   1.614   3.306  0.3910  0.4559  1.3484
 6953SOL     OW32317   1.279   4.716   6.590 -0.3929  0.1733 -0.1143
 6953SOL    HW132318   1.247   4.630   6.618 -1.6791  1.7941  3.3563
 6953SOL    HW232319   1.242   0.056   6.650 -1.7181 -2.6319  2.1376
 6954SOL     OW32320   1.856   2.820   5.812 -0.2517 -0.6831  0.1047
 6954SOL    HW132321   1.793   2.892   5.810 -0.5906 -0.9763  0.1886
 6954SOL    HW232322   1.804   2.748   5.776 -2.0910  0.9076 -0.4075
 6955SOL     OW32323   0.433   3.467   9.447  0.2778 -0.3046 -0.0479
 6955SOL    HW132324   0.516   3.492   9.487  0.3411  1.4986 -1.3054
 6955SOL    HW232325   0.395   3.555   9.454  2.4512  0.6367 -0.0534
 6956SOL     OW32326   0.911   4.518   7.708 -0.3765  0.3416 -0.4877
 6956SOL    HW132327   0.840   4.530   7.645  1.7355  2.6785 -2.4646
 6956SOL    HW232328   0.950   4.606   7.708 -0.6373  0.4517 -2.0094
 6957SOL     OW32329   2.886   2.238   8.006 -0.2739 -0.2531  0.6417
 6957SOL    HW132330   2.852   2.269   8.090  1.2139  0.1802  1.0936
 6957SOL    HW232331   2.955   2.181   8.042 -0.3016 -0.2531  0.6959
 6958SOL     OW32332   2.970   4.494   5.474 -0.1526  0.1878 -0.0343
 6958SOL    HW132333   3.022   4.573   5.489 -1.4339  1.0193  0.0095
 6958SOL    HW232334   2.989   4.442   5.553 -0.5804 -0.6287 -0.4727
 6959SOL     OW32335   4.411   0.801   8.073  0.3923 -0.3864  0.3517
 6959SOL    HW132336   4.499   0.834   8.088 -0.4208  1.6306  0.7186
 6959SOL    HW232337   4.387   0.758   8.155  1.1173  1.6147  1.6109
 6960SOL     OW32338   1.044   3.742  10.399 -0.6004  0.0073 -0.4272
 6960SOL    HW132339   0.958   3.762  10.362  0.9876  2.5211 -2.7599
 6960SOL    HW232340   1.099   3.817  10.379 -0.5844  0.1168  0.0328
 6961SOL     OW32341   0.293   0.117  13.688  0.4569  0.6950 -0.4680
 6961SOL    HW132342   0.366   0.178  13.698 -0.2117  1.3518  0.3187
 6961SOL    HW232343   0.334   0.035  13.661 -0.3473 -0.0422  0.5211
 6962SOL     OW32344   0.432   0.236   8.143  0.1334 -0.7513  0.5987
 6962SOL    HW132345   0.518   0.225   8.103 -1.3701 -2.7698 -2.0396
 6962SOL    HW232346   0.458   0.236   8.235  1.4651  1.0402  0.2180
 6963SOL     OW32347   2.396   3.351  15.448  0.0432 -0.4876  0.2334
 6963SOL    HW132348   2.311   3.329  15.412  0.2931  2.9511 -2.3814
 6963SOL    HW232349   2.380   3.378  15.539 -0.3839 -3.3040  0.9976
 6964SOL     OW32350   3.606   3.490  16.291  0.0532  0.1457  0.3201
 6964SOL    HW132351   3.671   3.452  16.232 -0.0556 -0.5198  0.6161
 6964SOL    HW232352   3.659   3.557  16.334  0.9370  1.6607 -3.1540
 6965SOL     OW32353   3.069   2.431   7.108 -0.0236  0.2001 -0.0378
 6965SOL    HW132354   2.997   2.394   7.159 -0.3945 -0.5653 -1.0998
 6965SOL    HW232355   3.144   2.406   7.163 -0.8843  1.8382  1.8495
 6966SOL     OW32356   4.500   2.809   4.706  0.0927  0.1377  0.2817
 6966SOL    HW132357   4.532   2.881   4.760 -0.5497 -0.6784  1.7428
 6966SOL    HW232358   4.471   2.840   4.620  0.4145  1.7123  0.7473
 6967SOL     OW32359   2.506   3.257   5.200  0.9620 -0.6492  1.2086
 6967SOL    HW132360   2.456   3.268   5.119  0.0826 -5.1558  1.1706
 6967SOL    HW232361   2.519   3.163   5.194 -0.2960 -0.5479 -2.8786
 6968SOL     OW32362   4.692   1.961   5.888 -0.2546  0.4957 -0.6290
 6968SOL    HW132363   4.643   1.886   5.855 -0.6409  0.8699 -0.9096
 6968SOL    HW232364   0.057   1.932   5.905  0.2335  1.5252 -1.3950
 6969SOL     OW32365   4.438   0.270   8.553 -0.2705 -0.2378  0.3766
 6969SOL    HW132366   4.421   0.317   8.472 -2.0695 -1.2230  0.1803
 6969SOL    HW232367   4.533   0.278   8.554 -0.5506  3.1702  0.6134
 6970SOL     OW32368   4.542   0.987  10.723 -0.0249  0.0661 -0.2016
 6970SOL    HW132369   4.449   1.008  10.725  0.0300  0.2583  0.3292
 6970SOL    HW232370   4.553   0.933  10.645  2.4465  0.4659 -0.1563
 6971SOL     OW32371   0.375   0.577   9.011  0.6633 -0.0008  0.3490
 6971SOL    HW132372   0.413   0.644   8.955 -0.7462  0.1123 -0.4731
 6971SOL    HW232373   0.354   0.512   8.944  1.8285 -0.6526  0.6146
 6972SOL     OW32374   0.755   4.630   3.999  0.4256 -0.2679 -0.2935
 6972SOL    HW132375   0.796   4.546   3.979 -0.5639 -1.0871  1.0856
 6972SOL    HW232376   0.723   4.653   3.913  0.7315  1.1247 -0.0309
 6973SOL     OW32377   3.420   2.898   3.143 -0.0838  0.4447 -0.1688
 6973SOL    HW132378   3.410   2.964   3.211 -2.1123  1.3571 -1.3561
 6973SOL    HW232379   3.402   2.953   3.067  1.7816  0.7299 -0.4015
 6974SOL     OW32380   0.004   2.126  14.883 -0.0418  0.6374 -0.0336
 6974SOL    HW132381   0.036   2.207  14.922  1.4395 -1.1142  2.4002
 6974SOL    HW232382   0.030   2.063  14.950 -1.4272  0.6372  0.5068
 6975SOL     OW32383   0.817   1.465   7.391  0.1915 -0.5636  0.0863
 6975SOL    HW132384   0.890   1.413   7.425  2.3230  0.8204 -2.3166
 6975SOL    HW232385   0.743   1.405   7.384  0.8081 -1.4185  0.8558
 6976SOL     OW32386   4.155   4.183   4.590 -0.0771  0.4929  0.1654
 6976SOL    HW132387   4.157   4.106   4.646 -1.1516  0.4485  0.1391
 6976SOL    HW232388   4.132   4.240   4.663  1.8377  0.5412  0.7331
 6977SOL     OW32389   3.503   2.249   6.876  0.0838 -0.1613  0.5420
 6977SOL    HW132390   3.421   2.204   6.898 -0.2457  0.0306 -0.2718
 6977SOL    HW232391   3.566   2.180   6.893  0.5013  0.3154  0.9201
 6978SOL     OW32392   0.223   0.358   3.819  0.7811  0.8151 -0.0310
 6978SOL    HW132393   0.154   0.294   3.837  2.0757 -0.2921  1.0542
 6978SOL    HW232394   0.225   0.403   3.903  2.5148  0.5223  0.0976
 6979SOL     OW32395   4.699   1.383   2.152  0.3077 -0.3268  0.0320
 6979SOL    HW132396   4.723   1.427   2.070  0.0225 -1.0107 -0.4175
 6979SOL    HW232397   0.022   1.303   2.132 -1.2010 -0.9239 -1.1769
 6980SOL     OW32398   0.150   4.533   1.345 -0.1370 -0.4382  0.3397
 6980SOL    HW132399   0.077   4.488   1.387 -1.1821  0.4132 -0.5699
 6980SOL    HW232400   0.158   4.604   1.408 -0.1445  0.0949 -0.2555
 6981SOL     OW32401   3.044   2.476  16.546  0.0422 -0.2048  0.2415
 6981SOL    HW132402   3.046   2.388  16.509  1.3595 -0.2605  0.4524
 6981SOL    HW232403   3.035   2.455  16.639 -1.1861 -0.2829  0.1116
 6982SOL     OW32404   0.603   0.285   8.841 -0.2428  0.2478  0.0075
 6982SOL    HW132405   0.644   0.233   8.911  0.3113  1.9084  0.9432
 6982SOL    HW232406   0.634   0.372   8.867  1.6519 -0.3342 -0.2850
 6983SOL     OW32407   2.082   3.203   2.607  0.1926 -0.4582  0.3819
 6983SOL    HW132408   2.039   3.190   2.692 -2.2226 -0.5233 -0.8711
 6983SOL    HW232409   2.119   3.290   2.622  2.9610 -1.4413 -0.7761
 6984SOL     OW32410   2.830   1.963  15.345  0.3766 -0.1603 -0.7372
 6984SOL    HW132411   2.858   1.889  15.399  0.4681  1.3193  1.2319
 6984SOL    HW232412   2.741   1.973  15.379  0.7312 -0.6451  0.3381
 6985SOL     OW32413   1.154   0.828   1.771  0.0463 -0.3090 -0.4691
 6985SOL    HW132414   1.165   0.870   1.685 -0.3989 -0.5386 -0.6374
 6985SOL    HW232415   1.171   0.901   1.831 -3.7008 -0.2264  0.5112
 6986SOL     OW32416   1.276   1.815   8.637  0.7476  0.4191  0.0478
 6986SOL    HW132417   1.306   1.904   8.617  0.2089  0.2432 -1.5026
 6986SOL    HW232418   1.219   1.825   8.713 -3.2066  0.5681 -2.9548
 6987SOL     OW32419   0.494   3.964   5.967 -0.2165  0.4582 -0.0556
 6987SOL    HW132420   0.420   3.906   5.949 -0.5362  0.9401 -0.2973
 6987SOL    HW232421   0.529   3.939   6.053  0.5054 -0.6643 -0.6828
 6988SOL     OW32422   2.690   1.528   7.223  0.5370  1.0742  0.3181
 6988SOL    HW132423   2.775   1.497   7.190  0.5111 -0.3070  1.5425
 6988SOL    HW232424   2.647   1.570   7.148  0.3555  2.3438  1.1511
 6989SOL     OW32425   2.144   3.516   3.836 -0.7759  0.0576  0.4570
 6989SOL    HW132426   2.146   3.596   3.784 -0.9906  0.0508  0.4406
 6989SOL    HW232427   2.062   3.535   3.881 -0.6539  0.2123  0.6124
 6990SOL     OW32428   4.723   2.077   5.134 -0.3226  0.1333  0.0266
 6990SOL    HW132429   4.631   2.051   5.136 -0.5021  0.6777 -1.2968
 6990SOL    HW232430   0.031   2.001   5.182  0.4766  1.5587  1.7406
 6991SOL     OW32431   4.085   3.461   3.323 -0.2576 -0.0570 -0.1976
 6991SOL    HW132432   4.077   3.518   3.247 -0.0049 -1.1274 -1.0354
 6991SOL    HW232433   4.174   3.487   3.348 -0.5164  0.1327  0.5267
 6992SOL     OW32434   2.703   4.260   1.485 -0.4425  0.1606  0.4400
 6992SOL    HW132435   2.764   4.213   1.542 -0.4347 -0.2549  0.0878
 6992SOL    HW232436   2.748   4.343   1.472  1.4140 -0.6519  1.7688
 6993SOL     OW32437   2.820   0.546   0.771 -0.2916  0.7185  0.0888
 6993SOL    HW132438   2.901   0.535   0.820 -1.4892  0.7993  2.0797
 6993SOL    HW232439   2.815   0.457   0.736  1.1613  1.4710 -2.0497
 6994SOL     OW32440   1.892   0.194  10.932 -0.9038  0.7350  0.3627
 6994SOL    HW132441   1.938   0.275  10.908  0.9836 -0.7281 -0.9517
 6994SOL    HW232442   1.835   0.178  10.856 -2.0096 -0.9593  1.5543
 6995SOL     OW32443   0.005   0.348   0.018 -0.3468  0.3537 -0.0262
 6995SOL    HW132444   4.668   0.358   0.091 -1.1777 -0.6891 -0.5854
 6995SOL    HW232445   0.065   0.416   0.048  0.4611 -2.0086  3.7588
 6996SOL     OW32446   2.788   4.296   0.082  0.3102  0.5380  0.6007
 6996SOL    HW132447   2.795   4.204   0.105  0.0445 -0.1247 -1.9805
 6996SOL    HW232448   2.693   4.305   0.085  0.2118 -0.7623  1.2223
 6997SOL     OW32449   4.717   0.890  16.212 -0.0097 -0.1786  0.1050
 6997SOL    HW132450   4.714   0.983  16.238 -2.0838 -0.4895  0.9872
 6997SOL    HW232451   0.080   0.859  16.232 -0.2844 -2.7458 -2.7146
 6998SOL     OW32452   4.321   2.303   8.830 -0.2382  0.4379 -0.0003
 6998SOL    HW132453   4.290   2.332   8.916 -0.4178  0.7192 -0.1598
 6998SOL    HW232454   4.336   2.210   8.847  0.0326  0.4500 -0.1863
 6999SOL     OW32455   2.559   3.289   0.637  0.0727 -0.0641 -0.6529
 6999SOL    HW132456   2.567   3.384   0.632  2.0792 -0.1928  0.2099
 6999SOL    HW232457   2.491   3.279   0.570 -0.0741 -3.7767  0.0275
 7000SOL     OW32458   0.848   0.208   9.727 -0.5665 -0.1744  0.4024
 7000SOL    HW132459   0.827   0.115   9.720 -1.1198 -0.2232  2.9007
 7000SOL    HW232460   0.935   0.201   9.767 -0.1007 -2.1485 -0.9477
 7001SOL     OW32461   0.523   0.777  11.300 -0.8403 -0.1142  0.1267
 7001SOL    HW132462   0.574   0.707  11.259  1.3618  0.5773  1.6705
 7001SOL    HW232463   0.582   0.800  11.371  0.1159 -1.0660 -0.3642
 7002SOL     OW32464   1.181   4.129   6.233  0.7035 -0.1965  0.7340
 7002SOL    HW132465   1.121   4.179   6.177  0.8332 -1.3138 -0.3900
 7002SOL    HW232466   1.147   4.133   6.323 -1.3536  1.5996 -0.1221
 7003SOL     OW32467   2.020   2.066   3.861  0.3047  0.3642 -0.1005
 7003SOL    HW132468   2.048   2.105   3.778  0.6660  0.8040  0.2263
 7003SOL    HW232469   2.061   1.979   3.856  0.8678  0.6993 -1.1966
 7004SOL     OW32470   1.374   4.552  13.864 -0.1919 -0.0197  0.7590
 7004SOL    HW132471   1.321   4.623  13.903  0.7740  0.3836  1.3458
 7004SOL    HW232472   1.430   4.599  13.802  0.5776 -0.7934  0.8799
 7005SOL     OW32473   3.534   0.542   0.502  0.1730 -0.8841 -0.4579
 7005SOL    HW132474   3.523   0.626   0.547 -2.0873 -1.0544 -0.6774
 7005SOL    HW232475   3.555   0.568   0.413  0.3206  1.7194  0.3284
 7006SOL     OW32476   3.746   1.968   0.107  0.0909  0.4570  0.0294
 7006SOL    HW132477   3.770   1.950   0.198  0.1659  0.1166 -0.0568
 7006SOL    HW232478   3.652   1.985   0.110  0.0374  0.0119  1.0745
 7007SOL     OW32479   1.676   4.536   0.094  0.7473 -0.0355  0.6001
 7007SOL    HW132480   1.621   4.514   0.169 -1.2477  0.0247 -0.8406
 7007SOL    HW232481   1.615   4.526   0.020  1.2295  1.2225  0.0304
 7008SOL     OW32482   1.819   4.313   0.144  0.4356  0.3307 -0.2559
 7008SOL    HW132483   1.770   4.385   0.104 -0.3293  1.2003  2.2564
 7008SOL    HW232484   1.750   4.259   0.182  0.7751 -0.2306 -0.4305
 7009SOL     OW32485   1.058   1.083   8.265  0.2365  0.1485  0.4827
 7009SOL    HW132486   1.052   1.092   8.360  1.5579 -1.7912  0.7549
 7009SOL    HW232487   0.968   1.079   8.233 -0.0046  2.7089  0.8746
 7010SOL     OW32488   1.231   3.645   2.528 -0.0651 -0.0387 -0.2304
 7010SOL    HW132489   1.189   3.571   2.486 -0.8674 -1.3957  2.9483
 7010SOL    HW232490   1.265   3.605   2.608 -0.5706 -0.0524 -0.0284
 7011SOL     OW32491   1.865   0.704  17.065  0.1971  0.0769 -0.2581
 7011SOL    HW132492   1.788   0.651  17.088  0.2016 -0.2897 -1.0748
 7011SOL    HW232493   1.901   0.653  16.992  1.5022 -0.8525  1.0273
 7012SOL     OW32494   0.456   3.907   7.539 -0.6351  0.2167  0.2402
 7012SOL    HW132495   0.511   3.982   7.563 -0.8045  0.3033  0.3588
 7012SOL    HW232496   0.426   3.940   7.454  0.0234 -1.5052 -0.6594
 7013SOL     OW32497   0.948   3.991   0.566  0.3708  0.3304 -0.9880
 7013SOL    HW132498   0.863   3.955   0.540  0.7194 -1.6169  0.5679
 7013SOL    HW232499   0.976   4.002   0.475  1.0475 -1.9067 -1.0581
 7014SOL     OW32500   1.552   2.278   4.236  0.4491 -0.3585  0.0300
 7014SOL    HW132501   1.635   2.268   4.190  0.4964 -0.7143  0.1900
 7014SOL    HW232502   1.506   2.309   4.158 -0.1982 -0.4988  0.3617
 7015SOL     OW32503   4.040   0.338   9.535  0.0248  0.2283 -0.2605
 7015SOL    HW132504   4.002   0.377   9.614 -0.6131 -1.4680  0.2869
 7015SOL    HW232505   3.966   0.340   9.475 -0.2041 -2.4499 -0.0564
 7016SOL     OW32506   3.693   3.545  16.899  0.6672  0.6160 -0.4072
 7016SOL    HW132507   3.716   3.488  16.973 -0.4946  0.6225 -0.0337
 7016SOL    HW232508   3.606   3.505  16.894  1.3715 -1.3421  2.7396
 7017SOL     OW32509   4.351   2.162   8.477  0.0700 -0.4157  0.5683
 7017SOL    HW132510   4.276   2.191   8.530 -1.2136  0.0433 -1.4959
 7017SOL    HW232511   4.371   2.074   8.509  2.7666  0.4500  1.2755
 7018SOL     OW32512   1.522   2.747   9.651 -0.5107 -0.6365  0.0221
 7018SOL    HW132513   1.525   2.656   9.682 -1.1380 -0.7353 -0.2094
 7018SOL    HW232514   1.587   2.730   9.583 -0.3169 -0.4010  0.1505
 7019SOL     OW32515   4.062   3.654   7.610  0.2568 -0.4079  0.0051
 7019SOL    HW132516   4.010   3.621   7.683 -1.1211 -1.2734 -1.3687
 7019SOL    HW232517   4.058   3.576   7.556  1.6045 -1.6412  1.6819
 7020SOL     OW32518   2.531   2.612   1.438 -0.0981  0.1088  0.4441
 7020SOL    HW132519   2.591   2.643   1.369  1.4863 -2.7569  0.5270
 7020SOL    HW232520   2.545   2.674   1.509  0.5028 -1.2985  1.5585
 7021SOL     OW32521   4.126   2.662   9.808  0.0304 -0.1103 -0.2408
 7021SOL    HW132522   4.053   2.661   9.746 -1.5077  0.1838  1.5538
 7021SOL    HW232523   4.164   2.574   9.801 -3.3520 -1.5007 -1.3441
 7022SOL     OW32524   1.232   3.500   4.948 -0.0994 -0.2381  0.0390
 7022SOL    HW132525   1.182   3.509   4.867 -1.3336  1.0740  0.9482
 7022SOL    HW232526   1.315   3.542   4.925 -0.7525  0.4118 -1.1054
 7023SOL     OW32527   2.346   1.616   6.323  0.0301  0.4848  0.1336
 7023SOL    HW132528   2.369   1.604   6.415  0.2797  0.8229  0.1134
 7023SOL    HW232529   2.328   1.710   6.321 -0.8695  0.3265  0.3682
 7024SOL     OW32530   4.380   3.317   2.757 -0.0139 -0.0566  0.0267
 7024SOL    HW132531   4.415   3.231   2.733  1.2246  0.8271 -1.3527
 7024SOL    HW232532   4.289   3.291   2.776  0.2023  1.5212  3.1118
 7025SOL     OW32533   0.182   1.357   7.468  1.3727 -1.0482  0.2406
 7025SOL    HW132534   0.166   1.270   7.431 -0.8421 -1.9167  3.2213
 7025SOL    HW232535   0.138   1.343   7.553  0.2496 -0.3336 -0.2278
 7026SOL     OW32536   1.050   3.407   2.989  0.9306  0.1461  0.2785
 7026SOL    HW132537   1.042   3.464   3.065 -1.4226 -0.2793  0.3370
 7026SOL    HW232538   1.146   3.405   2.993  0.8629 -2.6735  0.7322
 7027SOL     OW32539   2.208   1.470   1.029  0.0071 -0.1412 -0.0394
 7027SOL    HW132540   2.169   1.480   1.116  0.1996 -1.6669  0.2334
 7027SOL    HW232541   2.199   1.376   1.014  0.2470 -0.2390  0.4428
 7028SOL     OW32542   2.497   0.072   9.106  0.1357 -0.6774 -0.3236
 7028SOL    HW132543   2.410   0.095   9.140  0.9881  0.6375  0.9689
 7028SOL    HW232544   2.497   4.708   9.141  1.4222 -1.4712 -2.3344
 7029SOL     OW32545   0.198   1.445  13.656  0.3104 -0.2373  0.1541
 7029SOL    HW132546   0.278   1.403  13.687  0.7259  0.8330  0.5365
 7029SOL    HW232547   0.150   1.381  13.603  0.5449  0.2324 -0.6284
 7030SOL     OW32548   3.245   3.601   4.171  0.3702 -0.1963 -0.3841
 7030SOL    HW132549   3.312   3.584   4.105  0.6583 -2.6937  0.5684
 7030SOL    HW232550   3.223   3.517   4.211  0.1851  0.3543  0.6820
 7031SOL     OW32551   0.620   4.544   2.242 -0.1766 -0.4549  0.4084
 7031SOL    HW132552   0.650   4.582   2.159 -2.2406  2.6339  1.0692
 7031SOL    HW232553   0.692   4.489   2.272 -0.3822 -0.3849  1.0255
 7032SOL     OW32554   0.956   4.360   5.029  0.0012  0.3190 -0.1172
 7032SOL    HW132555   0.896   4.331   4.960 -2.5341  0.1739  2.1444
 7032SOL    HW232556   0.939   4.306   5.106  0.3079  0.5285  0.0967
 7033SOL     OW32557   0.276   0.451   6.080 -0.2849 -0.1054  0.4023
 7033SOL    HW132558   0.348   0.506   6.113 -0.9013  0.9756 -0.0493
 7033SOL    HW232559   0.244   0.506   6.009  1.0899  2.1128  1.4898
 7034SOL     OW32560   1.284   1.391   2.736  0.5887  0.1735 -0.1235
 7034SOL    HW132561   1.291   1.450   2.811 -0.0477  0.3563 -0.2057
 7034SOL    HW232562   1.372   1.394   2.699 -0.3574 -0.1627 -2.4017
 7035SOL     OW32563   4.348   1.540   6.343 -0.0576  0.5697  0.0012
 7035SOL    HW132564   4.424   1.557   6.288  1.4487  0.3843  2.0362
 7035SOL    HW232565   4.275   1.541   6.281 -0.2443 -0.6538  0.2021
 7036SOL     OW32566   4.161   2.104   9.136 -0.0871 -0.0242  0.0657
 7036SOL    HW132567   4.172   2.197   9.120 -1.0593 -0.0419 -0.6872
 7036SOL    HW232568   4.226   2.069   9.075  0.9763 -0.4582  1.4398
 7037SOL     OW32569   4.326   2.512   1.950  0.3549 -0.1515 -0.2586
 7037SOL    HW132570   4.241   2.516   1.993  0.8740  1.2146  0.6539
 7037SOL    HW232571   4.305   2.561   1.871 -2.5356 -2.9229 -1.1751
 7038SOL     OW32572   1.591   2.591  15.429  0.2876 -0.0090 -0.1741
 7038SOL    HW132573   1.510   2.642  15.433  0.2192  0.0912 -2.8184
 7038SOL    HW232574   1.559   2.501  15.419  0.5309 -0.3222  1.7720
 7039SOL     OW32575   0.914   4.442   8.604  0.0415  0.1428  0.6244
 7039SOL    HW132576   1.004   4.449   8.633  1.1996  1.3966 -3.3126
 7039SOL    HW232577   0.859   4.446   8.682 -1.3879  2.6851 -0.4875
 7040SOL     OW32578   1.764   4.397   4.862  0.2870 -0.2092 -0.2128
 7040SOL    HW132579   1.826   4.446   4.917  0.0581 -1.5150  1.2429
 7040SOL    HW232580   1.702   4.349   4.917  0.4922 -2.8011 -2.2459
 7041SOL     OW32581   1.379   2.656   3.453 -0.0453  0.1170  0.8008
 7041SOL    HW132582   1.340   2.570   3.442 -1.8635  0.8664  1.3803
 7041SOL    HW232583   1.443   2.661   3.382 -0.9048  1.2189  0.1164
 7042SOL     OW32584   4.632   4.590  10.144 -0.2795 -0.1290 -0.2369
 7042SOL    HW132585   4.645   4.653  10.215  0.1627 -1.0290  0.4770
 7042SOL    HW232586   4.558   4.631  10.099 -0.4411 -3.1946 -2.7248
 7043SOL     OW32587   0.678   0.636   4.015  0.3345  0.1496  0.5193
 7043SOL    HW132588   0.710   0.631   4.105  0.1515  1.1102  0.6393
 7043SOL    HW232589   0.589   0.669   4.025  1.0901  2.5068 -0.6328
 7044SOL     OW32590   3.885   0.972   6.521 -0.2220  0.1581  0.5966
 7044SOL    HW132591   3.912   1.035   6.588  0.7434  1.4429 -1.0103
 7044SOL    HW232592   3.808   0.931   6.560  1.1944 -2.5316  0.5949
 7045SOL     OW32593   2.944   3.636   2.146 -0.0751  0.3556 -0.5701
 7045SOL    HW132594   2.887   3.697   2.099  2.9978  2.6448 -1.3205
 7045SOL    HW232595   3.013   3.618   2.082 -0.2826  0.6421 -0.8740
 7046SOL     OW32596   4.422   1.387   1.021  0.5689 -0.4851  0.5912
 7046SOL    HW132597   4.491   1.357   0.962  0.2210  0.3485 -0.2470
 7046SOL    HW232598   4.392   1.313   1.074 -1.7747  0.6355  0.8262
 7047SOL     OW32599   1.792   1.292   5.196  0.0923 -0.0866  0.6187
 7047SOL    HW132600   1.777   1.216   5.253 -0.0037 -1.4926 -1.2605
 7047SOL    HW232601   1.732   1.274   5.124 -2.5881  0.1417  2.7794
 7048SOL     OW32602   3.877   3.363   3.495  0.2582 -1.0244  0.0425
 7048SOL    HW132603   3.828   3.439   3.527  0.0720 -0.0339 -2.5548
 7048SOL    HW232604   3.942   3.420   3.452  0.3433 -0.3990  1.0075
 7049SOL     OW32605   3.023   2.057   7.808 -0.7632 -0.5200 -0.0855
 7049SOL    HW132606   2.954   2.097   7.860 -0.0546  0.7599 -0.1369
 7049SOL    HW232607   3.047   2.140   7.766 -0.0864  0.9086  3.1977
 7050SOL     OW32608   0.221   0.630   3.502 -0.2976  0.3742  0.5919
 7050SOL    HW132609   0.302   0.612   3.454 -0.3533 -1.1752  1.0650
 7050SOL    HW232610   0.192   0.715   3.468  0.7974  1.0453  1.3396
 7051SOL     OW32611   3.675   4.223  13.179 -0.4777 -0.5400  0.2110
 7051SOL    HW132612   3.721   4.306  13.191  0.1110 -0.7891 -0.3640
 7051SOL    HW232613   3.642   4.221  13.269  0.7144 -1.1785  0.6269
 7052SOL     OW32614   0.581   3.772   4.238  0.2800  0.3226 -0.5862
 7052SOL    HW132615   0.528   3.749   4.314  1.2377  0.3427  0.0740
 7052SOL    HW232616   0.643   3.700   4.228 -0.1367 -0.3913  1.9396
 7053SOL     OW32617   1.483   0.921   7.704  0.6676 -0.3226  0.2698
 7053SOL    HW132618   1.564   0.873   7.723  1.2379 -0.1463 -1.7057
 7053SOL    HW232619   1.437   0.853   7.655 -1.0947  1.8732 -1.0678
 7054SOL     OW32620   3.788   3.803   7.338  0.1991 -0.7195 -0.4750
 7054SOL    HW132621   3.763   3.765   7.422 -0.3782 -0.7174 -0.6484
 7054SOL    HW232622   3.769   3.894   7.359 -0.6895 -0.8959 -0.5125
 7055SOL     OW32623   0.796   2.197   6.299  0.3644  0.5063 -0.6365
 7055SOL    HW132624   0.805   2.210   6.204  2.3328 -2.7396 -0.8755
 7055SOL    HW232625   0.883   2.162   6.315  0.4449  0.9325 -0.1432
 7056SOL     OW32626   2.532   1.502   7.917  0.3964  0.4960 -0.4659
 7056SOL    HW132627   2.589   1.432   7.951 -0.8962  1.3167  3.3236
 7056SOL    HW232628   2.502   1.464   7.834  0.2857 -0.2574 -0.0809
 7057SOL     OW32629   0.788   0.876   2.556 -0.6455  0.4061 -0.5341
 7057SOL    HW132630   0.873   0.897   2.595 -0.1673 -0.6771 -1.0108
 7057SOL    HW232631   0.789   0.784   2.583  1.2291  1.0981  1.8082
 7058SOL     OW32632   0.861   2.296   2.006  0.3563  0.1270 -0.0739
 7058SOL    HW132633   0.839   2.383   2.039 -2.0479  0.1224 -1.7151
 7058SOL    HW232634   0.838   2.303   1.913 -1.8466  0.8871  0.5511
 7059SOL     OW32635   4.039   4.368  13.271  0.3700 -0.5020  0.1068
 7059SOL    HW132636   4.045   4.312  13.349  1.1088 -1.5288 -0.7046
 7059SOL    HW232637   4.126   4.361  13.233  0.3562  0.5058 -0.1261
 7060SOL     OW32638   3.925   0.244   3.420  0.7417  0.2497  0.0039
 7060SOL    HW132639   4.005   0.295   3.425 -0.1167  1.4978  0.9013
 7060SOL    HW232640   3.856   0.305   3.446  1.8841  1.5327 -0.0050
 7061SOL     OW32641   1.653   2.659  10.115  0.0536 -0.6432 -0.4994
 7061SOL    HW132642   1.607   2.581  10.083 -0.9000  1.0647 -3.3340
 7061SOL    HW232643   1.703   2.626  10.189 -0.5805 -0.3817  0.0426
 7062SOL     OW32644   3.284   1.393   7.982  0.0424  0.6985 -0.3406
 7062SOL    HW132645   3.328   1.384   8.066  1.9347 -0.5338 -1.4731
 7062SOL    HW232646   3.288   1.488   7.971 -1.1743  0.4924 -2.5788
 7063SOL     OW32647   2.654   1.111   7.737 -0.1437 -0.0429  0.3111
 7063SOL    HW132648   2.662   1.019   7.711 -1.1593 -0.4616  1.4258
 7063SOL    HW232649   2.668   1.147   7.650 -2.0961  0.0960  0.0378
 7064SOL     OW32650   0.325   3.300  10.487  0.3249  0.6513 -0.2944
 7064SOL    HW132651   0.283   3.384  10.505 -1.2143  0.3847 -2.6740
 7064SOL    HW232652   0.246   3.249  10.468  0.5123 -0.4256  1.7684
 7065SOL     OW32653   1.739   3.483   3.770 -1.1646 -0.2839  0.0875
 7065SOL    HW132654   1.725   3.559   3.714 -0.1806  0.4640  0.8733
 7065SOL    HW232655   1.737   3.411   3.707 -0.3132 -0.4084  0.2055
 7066SOL     OW32656   3.006   4.133   3.221  0.0972  0.3924 -0.3176
 7066SOL    HW132657   3.049   4.075   3.157  0.0785 -2.5623  2.3739
 7066SOL    HW232658   2.927   4.082   3.236  0.4259  0.2491  0.8903
 7067SOL     OW32659   2.603   4.720  10.463 -0.2986 -0.2836  0.0557
 7067SOL    HW132660   2.666   0.064  10.483 -0.9810  0.1857  0.5951
 7067SOL    HW232661   2.656   4.641  10.456  0.5792  0.2830  0.2100
 7068SOL     OW32662   1.993   2.306   2.020 -0.4190  0.8052 -0.5795
 7068SOL    HW132663   2.022   2.335   2.106 -2.2759  2.1942 -0.4226
 7068SOL    HW232664   1.973   2.380   1.962 -1.7606  1.5262  0.8129
 7069SOL     OW32665   3.293   1.232   5.216  0.2854  0.7395 -0.1764
 7069SOL    HW132666   3.230   1.298   5.246  1.0921  1.6762 -0.5398
 7069SOL    HW232667   3.319   1.197   5.301 -0.0155 -0.6400 -0.6553
 7070SOL     OW32668   3.512   2.333   4.192  0.1038 -0.4547 -0.1919
 7070SOL    HW132669   3.418   2.346   4.186  0.1607 -0.5555 -1.4622
 7070SOL    HW232670   3.518   2.266   4.260  0.6603 -1.1968 -0.9611
 7071SOL     OW32671   4.620   0.890   8.204  0.0702 -0.7196  0.0790
 7071SOL    HW132672   4.649   0.812   8.251  0.3920 -1.3958 -1.2418
 7071SOL    HW232673   4.701   0.940   8.192  0.7402 -1.2590  2.3621
 7072SOL     OW32674   2.271   4.153   6.170 -0.2297 -0.3577  0.2119
 7072SOL    HW132675   2.188   4.184   6.206  0.4802  0.7871  0.8564
 7072SOL    HW232676   2.278   4.195   6.085  1.3989 -0.8283  0.1208
 7073SOL     OW32677   1.806   4.702  14.994 -0.6281  0.2481  0.1746
 7073SOL    HW132678   1.870   4.632  15.005 -1.5048 -0.3798  1.3105
 7073SOL    HW232679   1.745   4.651  14.940 -0.8883 -0.1808  0.8627
 7074SOL     OW32680   0.210   3.429  10.872 -0.5254  0.1214  0.1070
 7074SOL    HW132681   0.292   3.428  10.922  0.1952  3.6809 -0.9538
 7074SOL    HW232682   0.182   3.520  10.885 -0.5866  0.4998 -2.6037
 7075SOL     OW32683   0.478   4.203   1.433  0.3835 -0.2401  0.0308
 7075SOL    HW132684   0.400   4.148   1.440 -0.3070  0.8579  0.9064
 7075SOL    HW232685   0.502   4.207   1.526  3.1218  1.2363 -0.7251
 7076SOL     OW32686   1.790   0.256  11.379  0.6882  0.2613 -0.1522
 7076SOL    HW132687   1.741   0.200  11.319  1.8797 -2.4054  1.3528
 7076SOL    HW232688   1.799   0.203  11.458  0.1615  1.0893  0.4635
 7077SOL     OW32689   2.997   0.420  16.928 -0.1789 -0.7709  0.2536
 7077SOL    HW132690   2.922   0.475  16.907  0.2974 -0.3576 -0.3412
 7077SOL    HW232691   3.065   0.456  16.871 -2.4113  3.2064  0.0973
 7078SOL     OW32692   2.018   4.249   2.565  0.0040 -0.0409 -0.2878
 7078SOL    HW132693   2.029   4.154   2.557 -0.7820 -0.0977 -0.7609
 7078SOL    HW232694   2.027   4.277   2.474  1.3508 -2.2410 -0.8341
 7079SOL     OW32695   3.360   3.431  16.939  0.0602  0.7237 -0.3936
 7079SOL    HW132696   3.401   3.470  17.016  1.6340  0.7225 -1.2510
 7079SOL    HW232697   3.310   3.367  16.990  0.1015  0.5022 -0.6318
 7080SOL     OW32698   1.056   2.465   4.786  0.0190  0.0885  0.5381
 7080SOL    HW132699   1.004   2.526   4.838  0.4309  1.1927 -0.3703
 7080SOL    HW232700   1.086   2.527   4.721  0.1948 -0.8439 -0.2619
 7081SOL     OW32701   1.491   2.191   7.619  0.2535  0.4232  0.1831
 7081SOL    HW132702   1.423   2.164   7.680 -0.5142 -0.0370 -0.8857
 7081SOL    HW232703   1.444   2.266   7.582  1.6547  0.2331 -1.9983
 7082SOL     OW32704   2.147   2.602  10.689  0.2389 -0.0615  0.2121
 7082SOL    HW132705   2.129   2.685  10.645 -0.5498 -0.3493 -0.0233
 7082SOL    HW232706   2.088   2.540  10.646  1.4385 -1.4640  0.6071
 7083SOL     OW32707   1.818   2.366   9.415  0.2578  0.0481  0.1230
 7083SOL    HW132708   1.758   2.307   9.369  1.8033 -1.6319  0.2091
 7083SOL    HW232709   1.885   2.382   9.349 -0.4061  0.0367 -0.5529
 7084SOL     OW32710   2.681   3.124   8.596  0.0198  0.1642 -0.0433
 7084SOL    HW132711   2.753   3.116   8.658  0.5846 -1.7134 -0.9454
 7084SOL    HW232712   2.685   3.219   8.583  2.1095  0.1730  0.6665
 7085SOL     OW32713   0.272   3.456  17.150  0.3262  0.1179  0.3703
 7085SOL    HW132714   0.264   3.370  17.108  0.5980 -0.1420  0.8525
 7085SOL    HW232715   0.313   3.499  17.076  0.3720 -1.3613 -0.4659
 7086SOL     OW32716   4.721   3.612   8.438 -0.2401  0.3103  0.1768
 7086SOL    HW132717   4.719   3.667   8.516  1.5166 -0.0517  0.4913
 7086SOL    HW232718   0.078   3.564   8.453 -0.2083  1.1219  2.6403
 7087SOL     OW32719   0.741   3.662   8.603  0.4151  0.0098  0.3519
 7087SOL    HW132720   0.747   3.568   8.619 -0.1363 -0.0075  0.4831
 7087SOL    HW232721   0.713   3.656   8.511  0.8822  1.6736  0.0995
 7088SOL     OW32722   3.440   1.833   5.659 -0.5387 -0.0540 -0.6134
 7088SOL    HW132723   3.415   1.887   5.734  0.8374  0.6664 -0.6687
 7088SOL    HW232724   3.404   1.746   5.676  0.3282 -0.3626 -0.3706
 7089SOL     OW32725   1.196   1.828   6.341  0.0053  0.0507  0.7888
 7089SOL    HW132726   1.133   1.756   6.344  0.7961 -0.6429  0.6970
 7089SOL    HW232727   1.254   1.781   6.280 -2.3373 -0.3464 -1.1110
 7090SOL     OW32728   3.748   1.072   2.058 -0.4375 -0.5426 -0.1925
 7090SOL    HW132729   3.799   1.131   2.003  1.1044 -2.7582 -1.1331
 7090SOL    HW232730   3.744   1.129   2.135 -0.9953 -3.0354  1.6405
 7091SOL     OW32731   3.875   1.441  12.396  0.2456  0.1171  0.0806
 7091SOL    HW132732   3.898   1.534  12.393 -0.9821  0.5087  2.8681
 7091SOL    HW232733   3.954   1.412  12.351  0.0321 -1.6461  0.8362
 7092SOL     OW32734   1.308   2.414   7.551  0.1171  0.2251  0.3551
 7092SOL    HW132735   1.216   2.389   7.560  0.2881 -0.4803  0.1311
 7092SOL    HW232736   1.314   2.493   7.605  0.5051 -0.1559  0.8555
 7093SOL     OW32737   0.212   1.706  13.579 -0.2422  0.2884 -0.1779
 7093SOL    HW132738   0.292   1.704  13.527  0.2318  2.8800  0.4236
 7093SOL    HW232739   0.214   1.615  13.608 -1.6115  0.9885  2.1514
 7094SOL     OW32740   2.397   1.675   8.920 -0.6352 -0.2579 -0.0181
 7094SOL    HW132741   2.305   1.700   8.926 -0.2515  0.9810  0.8232
 7094SOL    HW232742   2.395   1.592   8.967  1.2109 -0.5324 -0.4098
 7095SOL     OW32743   2.186   2.496   3.882  0.6639  0.3080  0.5303
 7095SOL    HW132744   2.251   2.476   3.949  0.4825 -0.3475  0.5102
 7095SOL    HW232745   2.228   2.463   3.802 -0.3299  1.4429 -0.4656
 7096SOL     OW32746   1.058   0.175  12.875  0.3638  0.5695 -0.0337
 7096SOL    HW132747   0.966   0.196  12.862 -0.6217 -2.4701  2.1449
 7096SOL    HW232748   1.095   0.263  12.870  1.0261  0.3911  1.6359
 7097SOL     OW32749   2.190   4.005  12.652  0.5997  0.3668  0.4701
 7097SOL    HW132750   2.285   4.013  12.653  0.5802  0.7361 -0.6842
 7097SOL    HW232751   2.170   4.087  12.696  1.0338 -1.5088  4.1279
 7098SOL     OW32752   1.489   3.292   8.574  0.0030  0.2892  0.6582
 7098SOL    HW132753   1.460   3.226   8.637  1.1950  1.1339  2.0854
 7098SOL    HW232754   1.569   3.254   8.537  0.1898  0.9025  0.4319
 7099SOL     OW32755   0.127   3.674   7.879  0.4866 -0.6157 -0.4374
 7099SOL    HW132756   0.061   3.647   7.942 -0.3898  0.6278 -0.8257
 7099SOL    HW232757   0.116   3.769   7.889  2.9001 -0.6774  2.6642
 7100SOL     OW32758   1.870   4.613   7.048  0.7558 -0.4341  0.0898
 7100SOL    HW132759   1.888   4.601   7.141  2.1595 -0.0589 -0.1367
 7100SOL    HW232760   1.820   4.694   7.050 -1.1691 -1.5795 -0.9666
 7101SOL     OW32761   1.223   0.438   3.050 -0.0953  0.1928  0.0512
 7101SOL    HW132762   1.214   0.534   3.044  2.8678  0.3461 -1.7010
 7101SOL    HW232763   1.148   0.397   3.007 -1.3825  1.8838  0.6444
 7102SOL     OW32764   3.735   0.972   3.684  0.2405 -0.5006  0.1924
 7102SOL    HW132765   3.705   0.915   3.614  0.0765 -0.6350  0.3731
 7102SOL    HW232766   3.721   0.910   3.755 -1.7819  1.8274  1.8167
 7103SOL     OW32767   0.719   2.651   3.894 -0.3671 -0.1478  0.5199
 7103SOL    HW132768   0.629   2.664   3.865  0.6749  1.3228 -2.1612
 7103SOL    HW232769   0.764   2.674   3.813 -1.6960  0.9586  0.0877
 7104SOL     OW32770   1.022   4.389   1.983 -0.4524  0.5276 -0.3387
 7104SOL    HW132771   1.014   4.443   1.904 -0.9899 -1.5987 -1.7554
 7104SOL    HW232772   1.069   4.455   2.034  0.6232 -0.1477 -0.4641
 7105SOL     OW32773   2.308   1.067  10.035  0.0620 -0.3454  0.0715
 7105SOL    HW132774   2.342   1.133   9.974 -0.2452  1.2340  1.6207
 7105SOL    HW232775   2.280   1.120  10.109  0.2150 -0.1285 -0.0253
 7106SOL     OW32776   4.612   1.833   3.763  0.0871 -0.2625 -0.6157
 7106SOL    HW132777   4.640   1.844   3.854 -3.0652  1.4170  0.1681
 7106SOL    HW232778   4.570   1.917   3.743 -0.0486 -0.5833 -1.6753
 7107SOL     OW32779   3.265   2.506   4.545 -0.4721 -0.8870 -0.2235
 7107SOL    HW132780   3.188   2.449   4.551 -0.1489 -0.9441  3.1691
 7107SOL    HW232781   3.274   2.509   4.450 -1.0536  2.4171 -0.1563
 7108SOL     OW32782   0.925   0.971   7.995 -0.5611 -0.5029  0.3137
 7108SOL    HW132783   0.939   0.910   7.923 -2.4790 -1.0866  0.4287
 7108SOL    HW232784   1.009   1.016   7.996 -0.3392 -0.8858 -1.1986
 7109SOL     OW32785   0.945   1.001   5.474 -0.7390 -0.0431 -0.0929
 7109SOL    HW132786   0.974   0.924   5.524 -0.7509  0.7389  1.1231
 7109SOL    HW232787   0.935   1.059   5.549 -0.0077  0.2154 -0.1962
 7110SOL     OW32788   3.949   2.487  12.374 -0.0547 -0.6080 -0.0715
 7110SOL    HW132789   3.933   2.405  12.328 -0.1456 -0.9831  0.6322
 7110SOL    HW232790   4.044   2.484  12.383 -0.1655  0.9147  1.5201
 7111SOL     OW32791   4.541   3.625   6.039  0.3776  0.2007 -0.7057
 7111SOL    HW132792   4.576   3.699   6.088  2.6092 -0.9803 -0.5030
 7111SOL    HW232793   4.622   3.573   6.045  1.2310  1.7726  1.4843
 7112SOL     OW32794   3.382   0.567  15.842 -0.6912  0.0760 -0.2560
 7112SOL    HW132795   3.466   0.612  15.850 -2.3233  2.6714  2.3091
 7112SOL    HW232796   3.323   0.636  15.873 -0.1896 -0.2156  1.3371
 7113SOL     OW32797   1.066   3.598   7.244  0.1943  0.4343  0.2435
 7113SOL    HW132798   1.153   3.571   7.215 -0.4180 -0.2457 -0.9075
 7113SOL    HW232799   1.091   3.678   7.292 -1.5184  0.9300  0.2915
 7114SOL     OW32800   2.949   1.444   6.338 -0.3157 -0.1420 -0.0863
 7114SOL    HW132801   2.976   1.499   6.265  0.2284 -0.4831 -0.1413
 7114SOL    HW232802   3.000   1.485   6.407 -1.6182  0.0146  0.7845
 7115SOL     OW32803   4.011   3.990   8.142  0.7048 -0.1550  0.2793
 7115SOL    HW132804   4.001   3.896   8.123  3.3966  0.2648 -3.2187
 7115SOL    HW232805   3.926   3.998   8.186  1.4531  1.2320  1.4513
 7116SOL     OW32806   2.176   0.785   1.842  0.5824 -0.0513 -0.3794
 7116SOL    HW132807   2.163   0.843   1.917 -0.5438  0.2277 -0.7878
 7116SOL    HW232808   2.103   0.724   1.856  2.1590 -1.9362 -0.3328
 7117SOL     OW32809   3.270   4.139   5.574 -0.0154  0.3989 -0.2010
 7117SOL    HW132810   3.201   4.079   5.601  0.1969 -0.2642 -1.1172
 7117SOL    HW232811   3.235   4.168   5.489  0.1394 -0.5306 -0.5873
 7118SOL     OW32812   2.455   2.014   7.797 -0.2761 -0.0670  0.3607
 7118SOL    HW132813   2.453   1.926   7.835  0.0422 -0.3206 -0.2013
 7118SOL    HW232814   2.416   2.062   7.870 -1.1965 -0.9635  0.4529
 7119SOL     OW32815   3.500   4.421   3.316  0.0782 -0.0442 -0.0476
 7119SOL    HW132816   3.405   4.416   3.328  0.0416 -2.1818 -1.1597
 7119SOL    HW232817   3.521   4.348   3.375  1.3473 -1.8507 -2.7241
 7120SOL     OW32818   0.033   2.047   7.676  0.4438 -0.1449 -0.3912
 7120SOL    HW132819   4.690   1.982   7.659 -0.9211  2.0769 -3.3915
 7120SOL    HW232820   0.101   1.985   7.701  1.5776  1.0204 -0.6350
 7121SOL     OW32821   1.893   0.764  11.298 -0.4568  0.2928  0.3003
 7121SOL    HW132822   1.982   0.798  11.308  0.1596 -2.0648  2.8413
 7121SOL    HW232823   1.891   0.702  11.225 -2.3791  1.7861 -0.9148
 7122SOL     OW32824   3.173   3.390   4.496 -0.4983  0.1037  0.5561
 7122SOL    HW132825   3.120   3.385   4.417 -1.4448  0.8612  1.1353
 7122SOL    HW232826   3.257   3.352   4.471  1.2409  3.4148  1.4056
 7123SOL     OW32827   3.481   0.100  17.174 -0.1801 -0.4190  0.1626
 7123SOL    HW132828   3.453   0.008  17.178  0.6440 -0.5582  3.1003
 7123SOL    HW232829   3.514   0.108  17.264  1.4254 -0.8648 -0.3826
 7124SOL     OW32830   4.685   2.148   6.979  0.0459 -0.1724  0.2022
 7124SOL    HW132831   0.011   2.081   7.025  0.6262 -1.0692 -1.7455
 7124SOL    HW232832   4.603   2.106   6.955 -0.0157  0.5782 -0.8996
 7125SOL     OW32833   1.914   1.162   8.195 -0.3307  0.2981  0.5870
 7125SOL    HW132834   1.934   1.072   8.221  0.5624 -0.1103 -1.4816
 7125SOL    HW232835   1.989   1.211   8.227  1.0826 -1.1959 -0.4530
 7126SOL     OW32836   1.841   4.246   4.648  0.2062 -0.6106  0.4158
 7126SOL    HW132837   1.919   4.283   4.607 -0.5646 -1.0713 -1.4932
 7126SOL    HW232838   1.819   4.309   4.716  0.9874  2.2112 -1.9337
 7127SOL     OW32839   4.458   0.033   3.975  0.1505  0.2849  0.3175
 7127SOL    HW132840   4.382   4.702   3.990  0.1943  0.1859  0.1731
 7127SOL    HW232841   4.529   4.693   3.978  0.2955  0.4561  0.5445
 7128SOL     OW32842   0.099   0.178  17.485  0.1744  0.0689 -0.1113
 7128SOL    HW132843   0.144   0.263  17.478 -2.2741  1.4066  0.2320
 7128SOL    HW232844   0.065   0.189  17.574 -1.3232 -1.2703 -0.5224
 7129SOL     OW32845   1.820   0.009   9.853 -0.1116  0.1692  0.3831
 7129SOL    HW132846   1.752   0.033   9.916  2.3646 -0.8467  3.4492
 7129SOL    HW232847   1.779   0.052   9.778 -0.5992  2.2603  1.8468
 7130SOL     OW32848   0.939   2.116  14.394 -0.3901  0.4620  0.4860
 7130SOL    HW132849   0.925   2.178  14.323  2.3810  0.1936 -0.2817
 7130SOL    HW232850   1.016   2.144  14.442  1.5150 -0.3322 -2.1080
 7131SOL     OW32851   4.208   0.735   2.847 -0.0369  0.8585 -0.4834
 7131SOL    HW132852   4.242   0.723   2.759 -0.0934  0.7365 -0.4896
 7131SOL    HW232853   4.212   0.830   2.850  1.1748  0.7734  0.5149
 7132SOL     OW32854   3.912   0.226   1.722  0.1093 -0.0341 -0.6052
 7132SOL    HW132855   3.851   0.155   1.702 -1.4959  0.3261  3.1065
 7132SOL    HW232856   3.928   0.258   1.633 -0.8657  1.2392 -0.3192
 7133SOL     OW32857   1.660   0.855   0.987  0.6207  0.5935 -0.4088
 7133SOL    HW132858   1.661   0.947   1.011  0.0835  0.1963  1.1233
 7133SOL    HW232859   1.566   0.842   0.985  0.5565  0.9765  0.1909
 7134SOL     OW32860   1.945   1.017   5.006 -0.5127  0.4473 -0.5106
 7134SOL    HW132861   1.978   0.934   4.971 -0.4169 -1.0453  3.0458
 7134SOL    HW232862   1.920   1.000   5.097  0.6169 -2.8551 -0.8391
 7135SOL     OW32863   3.231   1.956   4.969 -0.2897  0.5018 -0.4004
 7135SOL    HW132864   3.261   2.042   4.998 -2.1567 -0.5530  4.6123
 7135SOL    HW232865   3.185   1.998   4.895  0.6166 -0.6323 -1.6090
 7136SOL     OW32866   0.981   2.559  15.453  0.2659 -0.0098 -0.0983
 7136SOL    HW132867   1.035   2.579  15.530  1.6193 -0.9903 -0.7858
 7136SOL    HW232868   1.049   2.551  15.386  0.2869 -2.6074  0.2254
 7137SOL     OW32869   0.751   4.225   2.563 -0.2168 -0.4533  0.3114
 7137SOL    HW132870   0.747   4.139   2.521  0.5121 -0.5988  0.5561
 7137SOL    HW232871   0.726   4.195   2.650  2.4835  0.1568  1.2669
 7138SOL     OW32872   2.364   2.235  11.044  0.1666  0.3163 -0.0378
 7138SOL    HW132873   2.360   2.280  11.128 -0.7242  0.7818 -0.3327
 7138SOL    HW232874   2.338   2.307  10.987  0.5530 -1.1522 -2.0662
 7139SOL     OW32875   2.585   1.892  14.537 -0.0899 -0.0497  0.1112
 7139SOL    HW132876   2.513   1.902  14.599  0.2669 -1.9109  0.8322
 7139SOL    HW232877   2.616   1.983  14.531  1.1358 -0.5377 -1.0521
 7140SOL     OW32878   0.528   4.266   6.741  0.4185  0.4297  1.0826
 7140SOL    HW132879   0.479   4.323   6.683  0.9998  0.1447  0.3033
 7140SOL    HW232880   0.616   4.299   6.723  0.7368 -0.5923  0.7487
 7141SOL     OW32881   1.936   0.756   9.937  0.8456  0.1360 -0.4014
 7141SOL    HW132882   1.935   0.718   9.849  0.4543 -0.0165 -0.3342
 7141SOL    HW232883   1.988   0.833   9.915  0.6887  0.6708  1.1613
 7142SOL     OW32884   1.380   1.824   5.265 -0.2379 -0.2202 -0.5388
 7142SOL    HW132885   1.385   1.843   5.171  0.7359  0.1672 -0.4131
 7142SOL    HW232886   1.316   1.887   5.298 -0.1964 -0.1741 -0.5463
 7143SOL     OW32887   0.057   3.033  10.619  0.1305  0.1339  0.1689
 7143SOL    HW132888   0.006   3.005  10.543  0.2055 -0.2560  0.2591
 7143SOL    HW232889   0.024   3.119  10.647 -2.6178 -1.5042  2.0337
 7144SOL     OW32890   4.071   4.053   1.449  0.1550  0.7692  0.0084
 7144SOL    HW132891   4.119   4.006   1.381 -2.1290  0.5067 -1.4177
 7144SOL    HW232892   4.010   3.981   1.468  1.8428  0.0430  2.6096
 7145SOL     OW32893   0.986   4.373  13.472 -0.0631 -0.3886  0.2758
 7145SOL    HW132894   0.940   4.334  13.397 -1.6751  1.8243  0.1212
 7145SOL    HW232895   1.044   4.301  13.495  1.3487  0.9049  0.7133
 7146SOL     OW32896   1.018   0.591   8.269  0.3759  0.5113  0.1804
 7146SOL    HW132897   0.956   0.656   8.303 -0.5616  0.1029 -0.7326
 7146SOL    HW232898   1.091   0.653   8.266 -0.0881  1.1246  1.3876
 7147SOL     OW32899   2.376   2.499   2.500  0.1651 -0.3364 -0.2969
 7147SOL    HW132900   2.424   2.555   2.562 -0.2017 -1.3381  0.8756
 7147SOL    HW232901   2.284   2.519   2.516  0.3856  0.7020 -0.2943
 7148SOL     OW32902   0.673   2.461   6.919 -0.7279  0.0359  0.2447
 7148SOL    HW132903   0.597   2.426   6.965 -0.1197  0.4313  1.5486
 7148SOL    HW232904   0.635   2.475   6.832 -2.9960  0.4346  1.2980
 7149SOL     OW32905   2.814   0.206  15.512  0.2174 -0.2347 -0.0418
 7149SOL    HW132906   2.897   0.253  15.518 -0.2941  0.6799 -0.1455
 7149SOL    HW232907   2.761   0.285  15.507 -1.1941 -1.3177 -2.0186
 7150SOL     OW32908   2.763   0.828  15.139  0.1983 -0.1712 -0.0052
 7150SOL    HW132909   2.805   0.753  15.097  1.2633  0.7644 -0.6144
 7150SOL    HW232910   2.834   0.878  15.180  1.3130 -0.7459 -1.2275
 7151SOL     OW32911   3.294   1.266  14.172 -0.0655 -0.0754  0.0296
 7151SOL    HW132912   3.339   1.297  14.093  0.4355  2.3010  1.2596
 7151SOL    HW232913   3.284   1.347  14.222  0.1682  0.5139 -0.8810
 7152SOL     OW32914   3.915   4.711   6.860  0.4435 -0.3772  0.1714
 7152SOL    HW132915   3.917   0.079   6.882 -0.2809 -0.6821  1.5005
 7152SOL    HW232916   3.998   4.696   6.815  0.6224 -0.4734  0.5403
 7153SOL     OW32917   1.316   3.637  12.536 -0.1034  0.3206 -0.4765
 7153SOL    HW132918   1.273   3.710  12.492 -1.0959 -0.6343 -1.0720
 7153SOL    HW232919   1.251   3.570  12.518  1.2039 -0.8299 -0.9462
 7154SOL     OW32920   3.231   2.179   3.689 -0.4732 -0.0087 -0.4193
 7154SOL    HW132921   3.288   2.219   3.623 -1.1498 -1.5733 -1.9470
 7154SOL    HW232922   3.254   2.089   3.666  0.7110  0.2148 -0.1331
 7155SOL     OW32923   3.727   1.551   2.568  0.0924  0.6744 -0.0524
 7155SOL    HW132924   3.773   1.502   2.500  1.4480  0.5722  0.9387
 7155SOL    HW232925   3.721   1.637   2.526 -0.5458  0.3738 -0.5638
 7156SOL     OW32926   3.225   3.219  15.187  0.2075  0.6402  0.4334
 7156SOL    HW132927   3.271   3.274  15.250  2.5928 -1.0655  0.1877
 7156SOL    HW232928   3.222   3.282  15.115 -2.1518 -0.6647 -0.6281
 7157SOL     OW32929   1.524   4.478   3.997 -0.5850  0.6041  1.0697
 7157SOL    HW132930   1.486   4.537   3.932 -0.1903 -0.9788 -0.6234
 7157SOL    HW232931   1.467   4.401   3.990 -0.9955  0.9880  0.2701
 7158SOL     OW32932   1.177   3.203   5.453  0.2849  0.1193  0.4045
 7158SOL    HW132933   1.096   3.253   5.469  0.1147 -0.4747  1.3588
 7158SOL    HW232934   1.187   3.157   5.536  2.4438  0.3130  0.2319
 7159SOL     OW32935   0.611   2.114   4.730 -0.2853 -0.3128 -0.8343
 7159SOL    HW132936   0.589   2.207   4.731 -0.7710 -0.3894 -3.7019
 7159SOL    HW232937   0.706   2.111   4.733 -0.3912 -0.9855  1.6663
 7160SOL     OW32938   1.477   4.120   5.523  0.4389 -0.3638 -0.0670
 7160SOL    HW132939   1.484   4.213   5.543  1.4627 -1.1666  3.3633
 7160SOL    HW232940   1.416   4.093   5.592  1.2925 -1.2454  0.3474
 7161SOL     OW32941   4.626   3.862   7.452  0.0728  0.4371  0.5147
 7161SOL    HW132942   4.647   3.954   7.437 -1.1963  0.3965 -1.4984
 7161SOL    HW232943   4.550   3.847   7.395  0.5371 -0.5807  0.1620
 7162SOL     OW32944   2.091   4.140  10.018  0.7103 -0.0066 -0.1946
 7162SOL    HW132945   2.176   4.100  10.001  1.9592  1.7304  2.1274
 7162SOL    HW232946   2.097   4.231   9.990  0.7914 -0.7243 -2.5051
 7163SOL     OW32947   4.520   3.117   9.273  0.4846 -0.0687  0.2938
 7163SOL    HW132948   4.535   3.069   9.191  4.9125  0.9136  0.5283
 7163SOL    HW232949   4.556   3.050   9.332  0.1840  0.8851  1.5516
 7164SOL     OW32950   3.334   2.011   6.911 -0.3590  0.1931  0.2187
 7164SOL    HW132951   3.250   1.965   6.906  0.3293 -1.1042  0.4168
 7164SOL    HW232952   3.399   1.944   6.931  0.3857  0.6799 -0.5856
 7165SOL     OW32953   1.379   4.440   8.991  0.0675 -0.2504 -0.3668
 7165SOL    HW132954   1.450   4.474   9.045  2.4030 -1.8298 -2.5000
 7165SOL    HW232955   1.312   4.508   9.001 -1.4617 -1.6542 -1.1359
 7166SOL     OW32956   1.178   2.803  11.833  0.1317 -0.3112 -0.2794
 7166SOL    HW132957   1.221   2.748  11.898  0.0334 -1.9193 -1.5747
 7166SOL    HW232958   1.087   2.822  11.857  0.9295  0.9684  1.7605
 7167SOL     OW32959   2.832   2.073   2.874  0.8190  0.4577  0.2791
 7167SOL    HW132960   2.850   1.990   2.918  0.9952 -0.4701 -1.5107
 7167SOL    HW232961   2.914   2.116   2.897  1.8887 -2.1654  1.4001
 7168SOL     OW32962   4.075   0.091   1.137  0.1377  0.0438 -0.3620
 7168SOL    HW132963   4.049   0.147   1.064 -0.0424  1.8215  1.0479
 7168SOL    HW232964   4.170   0.105   1.141  0.2108 -1.1478  2.2111
 7169SOL     OW32965   2.296   2.648   1.915 -0.2719  0.0279 -0.0575
 7169SOL    HW132966   2.363   2.590   1.949  0.6505  1.2252  0.1399
 7169SOL    HW232967   2.351   2.726   1.912 -0.4963  0.1591 -1.0399
 7170SOL     OW32968   4.069   1.093  16.467 -0.1502 -0.7274  0.4128
 7170SOL    HW132969   4.160   1.115  16.450  0.7214 -0.3785  5.4217
 7170SOL    HW232970   4.062   1.107  16.562  3.3218 -0.1302  0.5722
 7171SOL     OW32971   0.855   4.709   7.126 -0.0695 -0.1059 -0.3863
 7171SOL    HW132972   0.873   4.664   7.209 -0.3689  2.1489  0.8972
 7171SOL    HW232973   0.761   4.697   7.116 -0.3238  1.4583  0.1716
 7172SOL     OW32974   1.275   4.601   1.346 -0.2726  0.1689 -0.2204
 7172SOL    HW132975   1.325   4.661   1.291  1.3820 -0.7761  0.2714
 7172SOL    HW232976   1.272   4.663   1.418  0.9419 -0.7361  0.6016
 7173SOL     OW32977   4.087   0.743   7.629 -0.4770  0.5781 -0.1965
 7173SOL    HW132978   4.135   0.803   7.572  0.1652  0.0291 -0.2242
 7173SOL    HW232979   4.106   0.773   7.718 -1.4628  0.2251  0.1396
 7174SOL     OW32980   2.056   3.050   0.468 -0.0257  0.8004  0.6206
 7174SOL    HW132981   2.131   3.008   0.427 -1.8444 -2.1413  0.3568
 7174SOL    HW232982   1.984   3.014   0.417 -0.7461  0.6002  1.7782
 7175SOL     OW32983   0.390   2.383   4.920  0.1587  0.2980 -0.3586
 7175SOL    HW132984   0.454   2.453   4.921  0.4802 -0.0063  0.8410
 7175SOL    HW232985   0.327   2.421   4.858 -1.8489 -1.5099  0.5464
 7176SOL     OW32986   4.070   4.255   5.229 -0.2007  0.1487  0.2557
 7176SOL    HW132987   4.157   4.293   5.217 -0.5366  0.0490 -2.5213
 7176SOL    HW232988   4.017   4.327   5.194  0.2738 -0.6650 -2.1368
 7177SOL     OW32989   4.071   0.337  10.582 -0.2999 -0.3571  0.0999
 7177SOL    HW132990   3.982   0.370  10.599  0.4263  1.5505  0.1981
 7177SOL    HW232991   4.050   0.247  10.558 -1.5231 -0.3395  1.1266
 7178SOL     OW32992   3.894   4.195   0.748  0.4997  0.2836  0.5781
 7178SOL    HW132993   3.899   4.101   0.732  0.2045  0.0103  2.1463
 7178SOL    HW232994   3.823   4.227   0.691  3.0131  2.6553 -1.1952
 7179SOL     OW32995   0.860   1.611   4.369  0.3652  0.0235  0.7658
 7179SOL    HW132996   0.951   1.620   4.397  0.4433 -1.2019  0.9078
 7179SOL    HW232997   0.817   1.608   4.454  0.4945 -1.7644  0.7569
 7180SOL     OW32998   1.304   0.535   1.555 -0.5906  0.5120 -0.0461
 7180SOL    HW132999   1.278   0.545   1.463 -1.2491 -1.5879 -0.0897
 7180SOL    HW233000   1.371   0.599   1.578 -0.2485  0.5121 -1.0243
 7181SOL     OW33001   4.156   3.759   9.475  0.2029  0.0942 -0.0226
 7181SOL    HW133002   4.199   3.687   9.429  0.9368  0.9030 -0.6248
 7181SOL    HW233003   4.193   3.830   9.421  1.4213 -2.5551 -2.6896
 7182SOL     OW33004   2.091   3.989  12.383 -0.3744  0.4718 -0.2555
 7182SOL    HW133005   2.110   3.966  12.473  0.4329 -1.3403 -0.8928
 7182SOL    HW233006   2.057   3.902  12.362 -1.0223  0.9644 -1.2846
 7183SOL     OW33007   2.612   0.606   3.992  0.5491  0.3010  0.1128
 7183SOL    HW133008   2.523   0.592   3.958  1.3193 -0.6405 -1.5124
 7183SOL    HW233009   2.619   0.701   3.991  1.6958  0.2006 -0.6379
 7184SOL     OW33010   4.502   3.513  13.453  0.1968 -0.3668 -0.1081
 7184SOL    HW133011   4.440   3.569  13.500  0.8765 -1.3427  1.9418
 7184SOL    HW233012   4.553   3.489  13.530  0.7918 -1.5718 -0.8728
 7185SOL     OW33013   1.607   2.883   3.097 -0.1545  0.2977 -0.1396
 7185SOL    HW133014   1.633   2.923   3.014  0.5332 -1.9167 -0.9763
 7185SOL    HW233015   1.542   2.950   3.117 -2.4039 -2.2332  0.9600
 7186SOL     OW33016   4.142   1.436  17.667 -0.4575 -0.0869  0.3806
 7186SOL    HW133017   4.172   1.388   0.043  0.9454  0.2822  0.0501
 7186SOL    HW233018   4.225   1.478  17.646  0.2019  0.0635  3.3183
 7187SOL     OW33019   2.841   4.063   2.129 -0.2373 -0.0848 -0.8347
 7187SOL    HW133020   2.914   4.096   2.181 -1.6400  0.3450  0.8730
 7187SOL    HW233021   2.825   4.144   2.080 -1.9655 -0.3621 -0.7138
 7188SOL     OW33022   3.139   0.185   0.174  0.0865 -0.1820 -0.5482
 7188SOL    HW133023   3.095   0.100   0.177 -1.2369  0.5715  1.3789
 7188SOL    HW233024   3.075   0.252   0.149 -1.1480 -1.9114 -2.0245
 7189SOL     OW33025   1.957   4.164   8.763  0.0592 -0.3393 -0.3185
 7189SOL    HW133026   1.945   4.200   8.851  1.9770 -0.1908 -0.1332
 7189SOL    HW233027   1.910   4.081   8.771 -0.7647  0.1329 -0.1602
 7190SOL     OW33028   4.375   2.862   7.949 -0.0615  0.6217 -0.0300
 7190SOL    HW133029   4.421   2.854   7.865 -1.0497 -0.5983 -0.4418
 7190SOL    HW233030   4.445   2.896   8.006 -2.1435 -0.2305  3.0319
 7191SOL     OW33031   1.082   0.106   3.185 -0.7992  0.2234 -0.4058
 7191SOL    HW133032   1.147   0.176   3.186  1.4711 -1.9001  0.7152
 7191SOL    HW233033   1.016   0.145   3.243 -1.2227  0.5487 -1.1027
 7192SOL     OW33034   2.622   1.286  11.252 -0.3969 -0.4768  0.7582
 7192SOL    HW133035   2.554   1.245  11.198  0.5547 -1.8245  0.5861
 7192SOL    HW233036   2.573   1.270  11.333 -0.1922  1.7395  1.3186
 7193SOL     OW33037   0.543   1.016  16.134 -0.0877 -0.4740 -0.2316
 7193SOL    HW133038   0.560   0.933  16.179 -1.1806  1.3452  3.4647
 7193SOL    HW233039   0.514   0.976  16.052  2.0227 -1.2671 -0.6098
 7194SOL     OW33040   1.191   3.101   7.252  0.1205  0.7380 -0.4486
 7194SOL    HW133041   1.141   3.157   7.192 -1.0385  1.0617  0.8142
 7194SOL    HW233042   1.278   3.137   7.240  0.0126  1.0913 -0.1703
 7195SOL     OW33043   1.593   3.114  10.031  0.0848  0.0839 -0.4001
 7195SOL    HW133044   1.562   3.064   9.955 -0.3003 -0.4947  0.1361
 7195SOL    HW233045   1.685   3.094  10.013 -0.0747 -0.7618 -0.2597
 7196SOL     OW33046   1.037   2.698   2.232 -0.0109 -0.6750  0.2726
 7196SOL    HW133047   1.024   2.693   2.327 -0.4213 -0.5958  0.2200
 7196SOL    HW233048   1.097   2.624   2.223 -0.1956 -0.7383 -0.4145
 7197SOL     OW33049   4.637   1.263  15.601  0.3640  0.6089 -0.0646
 7197SOL    HW133050   4.658   1.353  15.626  0.7728  0.3211  0.6246
 7197SOL    HW233051   4.675   1.220  15.677 -0.9570 -1.0713 -0.3383
 7198SOL     OW33052   3.872   1.546   0.364 -0.1586  0.3466  0.4414
 7198SOL    HW133053   3.868   1.623   0.421 -0.0888  1.0346 -0.4781
 7198SOL    HW233054   3.787   1.509   0.386 -0.4431 -0.5006 -2.0979
 7199SOL     OW33055   1.149   4.474   2.669  0.4609  0.1884  0.0375
 7199SOL    HW133056   1.174   4.502   2.757  0.1488 -0.9922  0.5081
 7199SOL    HW233057   1.211   4.402   2.657  0.2675 -0.0819  0.6793
 7200SOL     OW33058   3.117   0.975   3.739  0.8301  0.3869  0.0725
 7200SOL    HW133059   3.036   0.926   3.744  1.5378 -0.7036  0.8263
 7200SOL    HW233060   3.158   0.948   3.657  2.2625  0.8757  0.6241
 7201SOL     OW33061   1.909   4.255   5.127 -0.9124  0.3613 -0.3247
 7201SOL    HW133062   1.926   4.237   5.220  0.7102 -0.3715 -0.7561
 7201SOL    HW233063   1.877   4.345   5.128 -1.4223  0.1792  0.2944
 7202SOL     OW33064   3.034   0.898   8.791 -0.4791  0.3040 -0.0779
 7202SOL    HW133065   2.990   0.813   8.802 -1.6591  0.6367 -2.2112
 7202SOL    HW233066   3.124   0.866   8.787 -0.2546  0.8296  1.1047
 7203SOL     OW33067   1.776   0.662   5.642 -0.6928  0.0051 -0.1630
 7203SOL    HW133068   1.847   0.713   5.603  1.2988 -0.8849  2.3050
 7203SOL    HW233069   1.727   0.626   5.569 -1.4645 -1.7888  1.2188
 7204SOL     OW33070   1.853   0.776  12.078  0.2408  0.5606  0.1439
 7204SOL    HW133071   1.895   0.691  12.089  0.8880  0.7559 -0.7798
 7204SOL    HW233072   1.901   0.803  12.000  0.0422 -1.0145 -0.5218
 7205SOL     OW33073   1.996   1.236   3.912  0.0412  0.6250 -0.0323
 7205SOL    HW133074   2.043   1.202   3.835 -0.1784  1.2946 -0.4649
 7205SOL    HW233075   2.062   1.239   3.981 -0.9338  0.0674  0.9238
 7206SOL     OW33076   4.464   3.544  10.336  0.5003  0.3361  0.2710
 7206SOL    HW133077   4.417   3.603  10.395 -3.6844 -1.0715 -1.6735
 7206SOL    HW233078   4.427   3.457  10.352 -1.5758  0.8345 -1.9208
 7207SOL     OW33079   3.725   2.352   3.263  0.2207 -0.0471 -0.6778
 7207SOL    HW133080   3.749   2.280   3.205  0.3489 -0.9023  0.4497
 7207SOL    HW233081   3.746   2.417   3.195  1.7009  1.4778  1.2425
 7208SOL     OW33082   3.627   3.975   3.452 -0.1498  0.0575  0.7048
 7208SOL    HW133083   3.684   3.974   3.374  1.0940  1.5469  1.5949
 7208SOL    HW233084   3.599   4.066   3.445 -0.0527 -0.0178 -0.7572
 7209SOL     OW33085   3.155   1.148   3.940  0.0329 -0.1397 -0.3592
 7209SOL    HW133086   3.243   1.176   3.915 -0.5490  0.5512 -1.6109
 7209SOL    HW233087   3.138   1.088   3.867 -1.4181 -0.7652  0.5062
 7210SOL     OW33088   2.472   2.435   9.550 -0.1472  0.5240 -0.1314
 7210SOL    HW133089   2.486   2.490   9.473 -0.6631  1.8563  0.7244
 7210SOL    HW233090   2.392   2.388   9.524 -0.3895  0.2801  1.0340
 7211SOL     OW33091   1.341   2.133  10.927 -0.0661 -0.4007  0.4049
 7211SOL    HW133092   1.415   2.124  10.867 -0.3092 -2.5361  0.4267
 7211SOL    HW233093   1.370   2.127  11.018 -0.7138  0.5764  0.6731
 7212SOL     OW33094   1.327   2.007   2.699  0.3427 -0.6914  0.6560
 7212SOL    HW133095   1.279   1.926   2.711  3.4794 -2.0929  3.5391
 7212SOL    HW233096   1.368   1.986   2.615 -1.4973  0.1274 -0.4631
 7213SOL     OW33097   0.998   4.336   5.440 -0.3676  0.5910 -0.1062
 7213SOL    HW133098   1.002   4.393   5.517  1.3226  0.7251 -0.2834
 7213SOL    HW233099   1.090   4.315   5.426  0.1128  2.5380  0.0394
 7214SOL     OW33100   1.837   2.901   3.486  0.1746 -0.4426  0.0459
 7214SOL    HW133101   1.832   2.834   3.554 -1.2941  2.1867  2.5757
 7214SOL    HW233102   1.859   2.848   3.410  1.6556 -0.7293  0.6727
 7215SOL     OW33103   1.926   1.902  11.834  0.3582 -0.7323  0.2340
 7215SOL    HW133104   1.889   1.908  11.745  1.4443  1.5627 -0.0568
 7215SOL    HW233105   1.957   1.811  11.835 -1.4398 -1.3699 -0.4688
 7216SOL     OW33106   0.233   0.105   2.546  0.0157 -0.2526 -0.1904
 7216SOL    HW133107   0.174   0.176   2.520  0.1720 -0.5214 -1.2412
 7216SOL    HW233108   0.207   0.084   2.636 -1.1378 -0.4953 -0.5822
 7217SOL     OW33109   2.889   3.050   3.416  0.4402  0.1080  0.0430
 7217SOL    HW133110   2.818   3.092   3.368  0.4968  0.1927  0.0354
 7217SOL    HW233111   2.855   2.961   3.402  3.3238 -0.6461 -2.0396
 7218SOL     OW33112   0.774   2.122   0.394  0.1599 -0.4864  0.3798
 7218SOL    HW133113   0.812   2.198   0.437 -0.6606  0.0192  0.1913
 7218SOL    HW233114   0.698   2.101   0.448 -0.4316  1.6094  0.3475
 7219SOL     OW33115   3.990   0.477   7.082 -0.0397  0.2868 -0.5335
 7219SOL    HW133116   4.081   0.464   7.108 -0.2347 -1.4388 -0.7303
 7219SOL    HW233117   3.993   0.559   7.032 -3.0374  0.9417  0.3266
 7220SOL     OW33118   3.186   0.782   4.144 -0.0646 -0.5141  0.2673
 7220SOL    HW133119   3.150   0.868   4.167  4.0087  1.4841 -0.9665
 7220SOL    HW233120   3.162   0.730   4.221 -0.5853 -0.1737  0.3398
 7221SOL     OW33121   0.070   3.503   2.998  0.5132  0.3892 -0.6617
 7221SOL    HW133122   0.107   3.477   3.083  0.3628 -1.5131 -1.1850
 7221SOL    HW233123   0.144   3.503   2.938 -0.5379 -1.0033 -1.9444
 7222SOL     OW33124   1.093   0.823  15.279 -0.2511 -0.1382 -1.0592
 7222SOL    HW133125   1.129   0.904  15.316 -0.7025 -0.7061  0.6242
 7222SOL    HW233126   1.000   0.841  15.284 -0.0221  0.8262 -0.2319
 7223SOL     OW33127   0.012   2.431   6.448  0.0362 -0.5017  0.8389
 7223SOL    HW133128   4.661   2.379   6.422 -0.2417  1.6688 -2.7689
 7223SOL    HW233129   0.078   2.363   6.433  0.2199 -0.1158 -0.1153
 7224SOL     OW33130   3.275   4.229   8.780  0.3380  0.2100 -0.0095
 7224SOL    HW133131   3.222   4.270   8.848 -1.3111  1.5205 -2.1390
 7224SOL    HW233132   3.233   4.144   8.766 -3.0676  1.7984  0.6509
 7225SOL     OW33133   4.141   4.684   6.735  0.9399 -0.0096  0.3096
 7225SOL    HW133134   4.214   0.018   6.753  1.5193 -1.5883  3.1222
 7225SOL    HW233135   4.112   4.713   6.648 -1.4799 -0.9190  0.7959
 7226SOL     OW33136   4.515   3.507   3.019 -0.1519  0.2208 -0.1337
 7226SOL    HW133137   4.606   3.519   2.993 -0.4185  3.5898  0.4796
 7226SOL    HW233138   4.509   3.576   3.085  3.7577  1.1350 -0.7258
 7227SOL     OW33139   2.857   0.622   6.155 -0.5659 -0.4422  0.0211
 7227SOL    HW133140   2.810   0.676   6.219  1.7786 -0.7612  1.9985
 7227SOL    HW233141   2.845   0.530   6.177  0.7354 -0.6892 -0.3022
 7228SOL     OW33142   3.355   4.605   2.616 -0.6078 -0.0363  0.9601
 7228SOL    HW133143   3.308   4.550   2.679  0.1185 -1.6096  0.1285
 7228SOL    HW233144   3.421   4.627   2.681  0.4170 -0.0135 -0.0988
 7229SOL     OW33145   4.588   0.657   2.372  0.3025 -0.6271 -0.4953
 7229SOL    HW133146   4.587   0.658   2.467 -0.1036  0.0642 -0.5118
 7229SOL    HW233147   4.590   0.563   2.352 -1.1243 -0.5334 -1.0988
 7230SOL     OW33148   2.699   1.119  16.695  0.2566 -0.9338  0.1003
 7230SOL    HW133149   2.618   1.162  16.667 -0.7307 -2.0604  1.2246
 7230SOL    HW233150   2.675   1.088  16.783  0.0039  0.3026  0.4682
 7231SOL     OW33151   3.200   0.361   2.756 -0.3639 -0.2417  0.2011
 7231SOL    HW133152   3.154   0.405   2.685  0.6667  1.9900  0.9150
 7231SOL    HW233153   3.287   0.400   2.756  0.2884 -1.7187 -2.5329
 7232SOL     OW33154   0.202   1.248  16.269 -0.4955 -0.3523 -1.2827
 7232SOL    HW133155   0.219   1.340  16.287 -5.3169 -0.0181  1.5637
 7232SOL    HW233156   0.120   1.236  16.317  0.4325  1.2843  0.7077
 7233SOL     OW33157   2.818   0.746   2.142 -0.6803 -0.6208  0.1173
 7233SOL    HW133158   2.806   0.839   2.159  2.4418  0.0585 -1.4081
 7233SOL    HW233159   2.823   0.715   2.233  0.9329 -1.3566 -0.2347
 7234SOL     OW33160   4.408   4.000   5.878 -0.4013  0.0228  0.4826
 7234SOL    HW133161   4.478   4.040   5.930  0.1806  0.1434 -0.3954
 7234SOL    HW233162   4.361   4.080   5.857 -1.7405 -0.9223 -0.1162
 7235SOL     OW33163   0.146   2.689  12.847  0.4356  0.8351  0.9423
 7235SOL    HW133164   0.173   2.744  12.773 -1.4349 -0.4214 -0.7039
 7235SOL    HW233165   0.235   2.666  12.872 -0.0906 -1.6701  0.5344
 7236SOL     OW33166   0.573   0.275   0.726 -0.4647 -0.0508 -0.1446
 7236SOL    HW133167   0.515   0.350   0.709  1.1191  1.4104  0.9024
 7236SOL    HW233168   0.553   0.224   0.648 -1.0923 -0.1558  0.0816
 7237SOL     OW33169   2.026   1.870   6.977  0.0219  0.2095 -0.2804
 7237SOL    HW133170   2.084   1.942   6.952  0.5945 -0.2162 -0.1625
 7237SOL    HW233171   2.035   1.866   7.072 -1.6517 -2.8528 -0.2581
 7238SOL     OW33172   2.576   1.375   2.102  0.4674  0.4884 -0.6604
 7238SOL    HW133173   2.610   1.463   2.112  2.4839 -0.1850 -1.6474
 7238SOL    HW233174   2.642   1.338   2.044 -0.3965 -2.8149  0.4804
 7239SOL     OW33175   2.411   1.816   1.118 -0.1729  0.2794 -0.1456
 7239SOL    HW133176   2.343   1.847   1.059 -1.2301  1.0612  1.5122
 7239SOL    HW233177   2.484   1.825   1.056 -1.8240 -1.2421 -2.3448
 7240SOL     OW33178   0.705   2.369   5.073  0.5434  0.1138  0.8389
 7240SOL    HW133179   0.792   2.352   5.037 -0.1102  0.5596 -0.9728
 7240SOL    HW233180   0.667   2.443   5.026  0.8995 -1.9441 -2.6590
 7241SOL     OW33181   0.622   1.128   4.393  0.1341 -0.5176  0.4240
 7241SOL    HW133182   0.718   1.129   4.393  0.1351  0.2179  2.4892
 7241SOL    HW233183   0.603   1.085   4.310  0.1111  1.7488 -0.7266
 7242SOL     OW33184   0.648   3.079   1.666  0.5461  0.8285 -0.2431
 7242SOL    HW133185   0.639   3.092   1.760 -0.8090 -0.6068 -0.1704
 7242SOL    HW233186   0.672   3.168   1.641  0.1308  0.4897 -1.8381
 7243SOL     OW33187   3.381   3.063  14.769  0.2774 -0.2725 -0.7090
 7243SOL    HW133188   3.404   2.971  14.756  0.7915 -0.3905  1.0257
 7243SOL    HW233189   3.405   3.103  14.685  0.5157  1.0138 -0.0379
 7244SOL     OW33190   2.904   4.645   7.428  0.0643 -0.6328  0.3507
 7244SOL    HW133191   2.921   4.633   7.334 -1.4788 -0.3899  0.0345
 7244SOL    HW233192   2.924   4.557   7.459  0.3509 -0.4037  0.8184
 7245SOL     OW33193   3.798   1.764   5.266  0.0443 -0.5746  0.1210
 7245SOL    HW133194   3.891   1.784   5.264 -0.5689  2.1174 -0.7999
 7245SOL    HW233195   3.782   1.767   5.360 -1.8444  0.7966 -0.2482
 7246SOL     OW33196   0.384   1.067   7.384  0.5014 -0.0958 -0.0653
 7246SOL    HW133197   0.297   1.068   7.425 -0.1539 -0.7792 -1.4450
 7246SOL    HW233198   0.433   1.047   7.464 -0.6613 -0.4787  0.5709
 7247SOL     OW33199   2.537   2.950   2.397  0.3901 -0.3478  0.2823
 7247SOL    HW133200   2.483   3.027   2.414 -1.0855 -1.4187  0.4436
 7247SOL    HW233201   2.613   2.993   2.359  0.0023 -0.0318 -0.1383
 7248SOL     OW33202   2.398   4.486   2.633  0.0078  0.6114 -0.3070
 7248SOL    HW133203   2.463   4.493   2.563  0.7873 -0.8705  0.2661
 7248SOL    HW233204   2.319   4.516   2.588 -0.5717 -0.1152  0.2319
 7249SOL     OW33205   2.195   1.366   2.342 -0.0015 -0.4869  0.7576
 7249SOL    HW133206   2.120   1.308   2.352 -0.8110  0.3061 -0.8246
 7249SOL    HW233207   2.212   1.354   2.249 -0.9752  1.5001  0.3176
 7250SOL     OW33208   2.192   1.699  10.396 -0.1564 -0.2123  0.0568
 7250SOL    HW133209   2.214   1.646  10.473 -1.0686 -3.0044 -1.5752
 7250SOL    HW233210   2.185   1.785  10.437  0.7835 -0.3268  0.4588
 7251SOL     OW33211   4.412   1.198  10.373 -0.1540 -0.2507 -0.0865
 7251SOL    HW133212   4.433   1.121  10.319 -1.7651 -1.1536  0.5712
 7251SOL    HW233213   4.501   1.227  10.391 -0.2357 -1.7168  2.6767
 7252SOL     OW33214   0.901   3.888   7.595 -0.2513 -0.1316  0.0613
 7252SOL    HW133215   0.845   3.817   7.626  0.2124 -0.2331  0.6788
 7252SOL    HW233216   0.898   3.935   7.678  4.0383  0.4847 -0.1322
 7253SOL     OW33217   2.537   3.368   2.992  0.1225  0.0833  0.3418
 7253SOL    HW133218   2.528   3.430   3.065 -1.1547  0.0943  0.1681
 7253SOL    HW233219   2.455   3.386   2.947  0.9177  2.6815 -0.0811
 7254SOL     OW33220   4.124   3.332   1.993  0.6217 -0.3454  0.0828
 7254SOL    HW133221   4.208   3.349   1.949  0.3261 -0.7527 -0.6500
 7254SOL    HW233222   4.067   3.370   1.926  0.0778 -2.1756 -0.5050
 7255SOL     OW33223   1.003   3.702  17.259 -0.3952 -0.6212 -0.5615
 7255SOL    HW133224   1.010   3.640  17.332  0.4555 -0.6100 -0.6427
 7255SOL    HW233225   1.007   3.785  17.306 -1.9838 -0.1983 -1.1576
 7256SOL     OW33226   1.027   2.029   6.297 -0.0566  0.7097 -0.3812
 7256SOL    HW133227   1.083   1.957   6.329  0.4221  1.3591  0.2477
 7256SOL    HW233228   1.100   2.088   6.278  1.0673 -0.1995  1.0843
 7257SOL     OW33229   0.666   1.988   2.724  0.9245 -0.5066 -0.3758
 7257SOL    HW133230   0.680   2.025   2.637 -0.3566  1.7639  0.3765
 7257SOL    HW233231   0.758   1.967   2.737  0.8466  0.0082  0.9916
 7258SOL     OW33232   0.303   1.534   6.625  0.1148 -0.0735 -0.1060
 7258SOL    HW133233   0.257   1.570   6.701 -0.6974  2.1281 -1.6290
 7258SOL    HW233234   0.328   1.611   6.573  3.9021  0.5031  2.5863
 7259SOL     OW33235   0.189   3.873   3.881 -0.6022 -0.0589  0.2293
 7259SOL    HW133236   0.245   3.830   3.945  0.5784  2.8770  1.1311
 7259SOL    HW233237   0.125   3.916   3.936 -1.3573 -1.0635  0.1437
 7260SOL     OW33238   4.493   2.303  14.114 -0.3932  0.7106 -0.2717
 7260SOL    HW133239   4.499   2.275  14.205  3.4631 -1.3496 -1.1992
 7260SOL    HW233240   4.436   2.232  14.084  0.9386  0.6559 -2.5828
 7261SOL     OW33241   3.449   0.296   5.155 -0.3121 -0.1722  0.2223
 7261SOL    HW133242   3.356   0.283   5.174 -0.6202  2.6700  0.6727
 7261SOL    HW233243   3.477   0.384   5.182  0.7844  0.3091 -2.5061
 7262SOL     OW33244   0.136   1.366   1.142  0.7244 -0.0927 -0.0780
 7262SOL    HW133245   0.073   1.304   1.179  2.1588 -0.8330  1.1236
 7262SOL    HW233246   0.105   1.451   1.176 -0.0547 -0.6490  0.6088
 7263SOL     OW33247   0.141   4.465   3.456 -0.3991 -0.3430  0.3525
 7263SOL    HW133248   0.202   4.456   3.383 -0.9256 -0.1209 -0.1119
 7263SOL    HW233249   0.068   4.416   3.419 -1.5427  0.4013  1.6270
 7264SOL     OW33250   2.373   0.040   8.467  0.2985 -0.3318  0.2159
 7264SOL    HW133251   2.404   0.089   8.544 -0.1814  0.7256 -0.2666
 7264SOL    HW233252   2.371   0.104   8.396 -1.0160 -0.8994 -0.2558
 7265SOL     OW33253   4.224   0.432   2.789 -0.3105  0.2649 -0.5350
 7265SOL    HW133254   4.133   0.408   2.806 -0.5151  1.0572 -0.4934
 7265SOL    HW233255   4.247   0.473   2.872  0.6849 -1.9153  0.2475
 7266SOL     OW33256   0.965   2.961   3.240 -0.5276  0.0037  0.1416
 7266SOL    HW133257   1.038   2.912   3.279 -0.2741 -0.7717 -1.3027
 7266SOL    HW233258   1.018   3.035   3.210 -1.0938  0.6427  0.7211
 7267SOL     OW33259   1.918   0.645   9.700  0.4389  0.5372  0.4528
 7267SOL    HW133260   1.969   0.573   9.663 -1.1833  0.7571 -2.2081
 7267SOL    HW233261   1.944   0.718   9.644  1.8595 -0.0852  0.3087
 7268SOL     OW33262   1.794   0.747  14.063  0.0597  0.1962  0.3981
 7268SOL    HW133263   1.709   0.724  14.099 -0.0685 -0.7286 -0.4884
 7268SOL    HW233264   1.838   0.663  14.071 -0.1498  0.2750  2.2447
 7269SOL     OW33265   0.272   0.503  14.293 -0.2483 -0.1026  0.0933
 7269SOL    HW133266   0.250   0.491  14.385  1.5092  0.1034  0.5413
 7269SOL    HW233267   0.302   0.414  14.272  0.1380  0.0671 -0.0659
 7270SOL     OW33268   0.463   3.897   4.891 -0.9263 -0.2639 -0.2830
 7270SOL    HW133269   0.453   3.825   4.953  0.2178 -0.2728 -0.1167
 7270SOL    HW233270   0.372   3.928   4.883 -0.6206  0.5478 -0.6326
 7271SOL     OW33271   4.470   0.176   6.033  0.3078  0.8410  0.4229
 7271SOL    HW133272   4.426   0.239   5.975 -0.5870 -0.7091 -0.5653
 7271SOL    HW233273   4.393   0.122   6.049  0.1181  0.5803 -1.3022
 7272SOL     OW33274   1.380   3.614   0.626  0.2821  0.2356 -0.1026
 7272SOL    HW133275   1.332   3.697   0.622 -0.8487 -0.3971  0.2595
 7272SOL    HW233276   1.341   3.570   0.550 -0.2418  1.7090 -0.6816
 7273SOL     OW33277   2.460   3.979  16.133 -0.7713  0.4865  0.3457
 7273SOL    HW133278   2.433   4.066  16.104 -0.9043  0.7683  1.3223
 7273SOL    HW233279   2.375   3.950  16.166  0.7414 -4.7260 -0.4098
 7274SOL     OW33280   1.583   0.016   6.538  0.3265 -0.2303 -0.1497
 7274SOL    HW133281   1.491   0.003   6.563  0.5549 -1.2196  0.1836
 7274SOL    HW233282   1.572   0.037   6.445  0.4082 -0.4722 -0.2149
 7275SOL     OW33283   1.171   2.439   2.758  0.8360  0.0536  0.4983
 7275SOL    HW133284   1.193   2.390   2.679  1.7306  0.9543  0.1898
 7275SOL    HW233285   1.083   2.463   2.729  1.0936 -0.6371 -0.8375
 7276SOL     OW33286   2.947   4.659   7.159 -0.4053  0.2177 -0.1607
 7276SOL    HW133287   2.999   0.015   7.160 -0.2085  0.0966 -0.6133
 7276SOL    HW233288   2.865   4.707   7.147 -0.0993  0.5537 -0.9408
 7277SOL     OW33289   4.517   0.691   5.054 -0.0176  0.3477 -0.5072
 7277SOL    HW133290   4.567   0.612   5.077 -0.8802  0.9293  3.4242
 7277SOL    HW233291   4.592   0.735   5.014 -0.2841 -1.5732 -3.0454
 7278SOL     OW33292   4.431   3.557   5.786  0.0620  0.2797 -0.1097
 7278SOL    HW133293   4.440   3.594   5.874 -1.7982  2.0899 -0.6819
 7278SOL    HW233294   4.512   3.507   5.775  0.8441  1.0779  1.9756
 7279SOL     OW33295   2.866   2.415   5.863  0.0695  0.6228  0.0780
 7279SOL    HW133296   2.905   2.439   5.946 -1.7779 -0.1248  1.1614
 7279SOL    HW233297   2.927   2.403   5.790  0.4325 -1.4359  0.7301
 7280SOL     OW33298   3.755   0.388  14.946  0.0720  0.6098 -0.7527
 7280SOL    HW133299   3.790   0.455  15.004  0.4655 -2.9554  3.1279
 7280SOL    HW233300   3.829   0.328  14.942 -0.6131 -0.2972  0.2578
 7281SOL     OW33301   3.174   2.695   7.041 -0.1190  0.2461  0.1516
 7281SOL    HW133302   3.128   2.611   7.038 -1.3822  1.0053 -1.8648
 7281SOL    HW233303   3.120   2.756   6.990  1.0698  0.9638 -0.2520
 7282SOL     OW33304   1.669   1.400   7.139  0.2233  0.2326  0.2153
 7282SOL    HW133305   1.584   1.357   7.128  0.3617  0.6912 -2.4780
 7282SOL    HW233306   1.704   1.335   7.200 -1.0782 -0.9067 -0.2508
 7283SOL     OW33307   1.135   2.154   0.907  0.2466  0.7402 -0.2122
 7283SOL    HW133308   1.138   2.080   0.968  2.3224 -1.4309 -2.9615
 7283SOL    HW233309   1.046   2.141   0.873 -0.1655  2.2066  0.3364
 7284SOL     OW33310   0.738   2.700  10.246  0.5912  0.2258 -0.5932
 7284SOL    HW133311   0.752   2.692  10.340 -1.2495 -0.1622 -0.3420
 7284SOL    HW233312   0.746   2.792  10.222 -3.2227  0.5618 -0.6175
 7285SOL     OW33313   0.012   0.327  11.411  0.2114 -0.3000  0.3789
 7285SOL    HW133314   0.046   0.388  11.346 -2.6750  0.3122 -0.5352
 7285SOL    HW233315   0.066   0.250  11.395  1.1533  0.7257 -1.4040
 7286SOL     OW33316   1.650   4.308   7.384 -0.1501  0.5825 -0.1261
 7286SOL    HW133317   1.585   4.259   7.435  1.5914 -1.2948  0.2923
 7286SOL    HW233318   1.608   4.323   7.300 -0.3020 -1.1934 -0.3804
 7287SOL     OW33319   4.454   3.083   2.946  0.9610  0.0136 -0.2963
 7287SOL    HW133320   4.441   3.137   3.023  1.1713 -1.8881  1.0734
 7287SOL    HW233321   4.366   3.055   2.919 -0.1300  2.3534  0.9127
 7288SOL     OW33322   0.104   3.151   3.285  0.6300  0.1074  0.3768
 7288SOL    HW133323   0.078   3.104   3.206  3.4131  3.9154 -2.8143
 7288SOL    HW233324   0.094   3.083   3.352 -0.8267 -0.3348 -0.2968
 7289SOL     OW33325   1.519   0.828   2.288  0.2300 -0.0380 -0.5877
 7289SOL    HW133326   1.431   0.848   2.254 -0.6351 -0.0266  1.6388
 7289SOL    HW233327   1.525   0.739   2.253  1.6959 -0.6949  1.3539
 7290SOL     OW33328   3.066   2.116  10.289 -0.0634  0.1014  0.7255
 7290SOL    HW133329   3.138   2.084  10.343  0.1985  0.1134  0.3850
 7290SOL    HW233330   2.999   2.118  10.357 -1.4311  0.0431 -0.6362
 7291SOL     OW33331   1.094   1.981   3.248 -0.2033 -0.1462 -0.1940
 7291SOL    HW133332   1.093   1.886   3.264 -1.6117 -0.1830 -0.5358
 7291SOL    HW233333   1.189   1.986   3.237 -0.2587  2.1533  0.4095
 7292SOL     OW33334   1.354   1.151   9.316  0.4025  0.3718 -0.7746
 7292SOL    HW133335   1.316   1.233   9.347 -0.8231 -0.6993  0.5203
 7292SOL    HW233336   1.380   1.172   9.226 -1.2399 -0.5594 -1.4750
 7293SOL     OW33337   0.469   1.512   1.949 -0.4575  0.4936  0.3323
 7293SOL    HW133338   0.452   1.478   2.037  4.8615 -2.3149  0.2995
 7293SOL    HW233339   0.559   1.481   1.938 -0.2089  1.7386 -1.0508
 7294SOL     OW33340   3.354   4.258   3.847 -0.2287 -0.1243 -0.3809
 7294SOL    HW133341   3.309   4.178   3.819 -2.7580  1.3208 -0.3872
 7294SOL    HW233342   3.276   4.314   3.850 -1.6490 -1.9862 -2.5495
 7295SOL     OW33343   0.733   1.702   7.536  0.0317  0.4719 -0.1143
 7295SOL    HW133344   0.725   1.782   7.483  1.3618  0.1016 -0.8494
 7295SOL    HW233345   0.773   1.642   7.474 -0.1651  1.1495 -0.8966
 7296SOL     OW33346   1.998   3.080   5.894  0.7562 -0.3321  0.1348
 7296SOL    HW133347   2.007   2.999   5.945  1.2308  0.2908  1.0366
 7296SOL    HW233348   1.980   3.147   5.960  2.6713 -0.1104  0.4344
 7297SOL     OW33349   1.495   0.201  15.356  0.5966 -0.1017 -0.1124
 7297SOL    HW133350   1.470   0.228  15.268 -0.7710  1.7950  0.8714
 7297SOL    HW233351   1.411   0.165  15.385 -0.1507  1.6794 -0.0526
 7298SOL     OW33352   4.458   3.053   4.114  0.0441 -0.3561  0.1818
 7298SOL    HW133353   4.511   3.029   4.191  0.3392 -1.4208 -0.3461
 7298SOL    HW233354   4.491   2.997   4.043 -0.7801 -0.7181  0.0842
 7299SOL     OW33355   1.518   1.569   1.859  0.2685 -0.5475 -0.0070
 7299SOL    HW133356   1.456   1.547   1.789  1.8060 -0.0488 -1.5273
 7299SOL    HW233357   1.600   1.593   1.815 -0.2386 -0.4074 -0.8848
 7300SOL     OW33358   4.195   3.620  14.300 -0.3906  0.2973 -0.0267
 7300SOL    HW133359   4.238   3.535  14.288  2.0396  1.8028 -2.0309
 7300SOL    HW233360   4.117   3.594  14.349 -0.8309  0.5722 -0.5845
 7301SOL     OW33361   0.988   1.911  13.957  0.1079 -0.1405  0.4231
 7301SOL    HW133362   0.906   1.957  13.972 -0.3088 -0.4589 -0.9064
 7301SOL    HW233363   0.960   1.845  13.895 -0.5614 -0.8432  1.4766
 7302SOL     OW33364   3.992   1.380   7.222 -0.5532 -0.4531 -0.3501
 7302SOL    HW133365   3.900   1.394   7.240 -0.2907  0.4149  0.2919
 7302SOL    HW233366   4.008   1.337   7.306  4.9721  2.0798 -0.0614
 7303SOL     OW33367   4.623   0.366   6.533  0.3618 -0.3765  0.1050
 7303SOL    HW133368   4.531   0.362   6.507 -0.0032 -0.0113  1.3626
 7303SOL    HW233369   4.660   0.304   6.470  1.4828 -1.2407  1.6053
 7304SOL     OW33370   2.916   3.909  16.900  0.2378  0.3081  0.2637
 7304SOL    HW133371   2.865   3.849  16.955 -0.8249 -1.5346 -2.7328
 7304SOL    HW233372   2.875   3.992  16.925 -0.0698  1.4934 -4.0603
 7305SOL     OW33373   1.418   2.132   3.828  0.1169 -0.9909 -0.0591
 7305SOL    HW133374   1.495   2.156   3.775  1.3426 -3.9411  0.3679
 7305SOL    HW233375   1.399   2.221   3.858 -2.1637 -1.6421  0.3502
 7306SOL     OW33376   0.252   0.228  12.931 -0.1655 -0.3180 -0.1414
 7306SOL    HW133377   0.268   0.301  12.871  0.1744 -0.4177 -0.1686
 7306SOL    HW233378   0.336   0.184  12.935  1.6852  3.2379 -0.4664
 7307SOL     OW33379   4.070   3.597   8.409 -0.1932 -0.7799  0.8463
 7307SOL    HW133380   4.067   3.692   8.403  0.2216 -0.8638 -0.6005
 7307SOL    HW233381   4.034   3.567   8.493 -1.4092 -1.7513 -0.0275
 7308SOL     OW33382   3.356   0.599   9.345 -0.2198 -0.3037 -0.5622
 7308SOL    HW133383   3.379   0.686   9.313 -0.9003 -0.0785 -0.4415
 7308SOL    HW233384   3.278   0.580   9.292 -0.5592 -2.8181  0.8398
 7309SOL     OW33385   0.508   1.987   3.617  0.2640  0.1902  0.8059
 7309SOL    HW133386   0.478   2.036   3.540  0.7480 -3.5265 -1.7448
 7309SOL    HW233387   0.600   1.986   3.591  0.1756 -0.7789  0.5313
 7310SOL     OW33388   0.642   3.822   8.101 -0.0610  0.1306 -0.4115
 7310SOL    HW133389   0.682   3.806   8.016  0.6683 -1.7568  0.2824
 7310SOL    HW233390   0.550   3.811   8.078 -0.0508 -0.5448 -0.1484
 7311SOL     OW33391   4.235   2.049  13.834  0.7728 -0.2033  0.0290
 7311SOL    HW133392   4.257   2.038  13.926  0.1196 -0.1526  0.1953
 7311SOL    HW233393   4.141   2.067  13.832  0.8218  0.0338 -0.1303
 7312SOL     OW33394   0.687   1.024   6.576  0.1109 -0.1411  0.7294
 7312SOL    HW133395   0.737   0.977   6.643  1.0245 -2.2322 -1.3952
 7312SOL    HW233396   0.763   1.038   6.519  0.4748 -1.9721  0.7437
 7313SOL     OW33397   3.906   1.296  15.565  0.1626  0.5618  0.7603
 7313SOL    HW133398   3.845   1.357  15.522 -0.9851 -0.1036  1.4250
 7313SOL    HW233399   3.983   1.352  15.555  1.0912 -0.5849  1.5294
 7314SOL     OW33400   1.552   4.467   1.888 -0.2650 -0.5008 -0.1275
 7314SOL    HW133401   1.472   4.500   1.847 -1.4113 -0.6989  1.9019
 7314SOL    HW233402   1.569   4.393   1.831  0.4519 -0.5617  0.1645
 7315SOL     OW33403   3.970   1.476  11.627  0.3715 -0.0715 -0.3229
 7315SOL    HW133404   3.875   1.482  11.618  0.1153 -0.7117  1.7957
 7315SOL    HW233405   3.978   1.389  11.589  1.7875 -0.1215  0.0876
 7316SOL     OW33406   3.944   1.772  15.729 -0.3934 -0.2381 -0.1880
 7316SOL    HW133407   3.939   1.862  15.762  2.0453 -0.5785  1.1394
 7316SOL    HW233408   4.018   1.740  15.781  0.5464 -1.5166 -2.2977
 7317SOL     OW33409   0.992   3.600  11.755 -0.1976  0.2423 -1.0907
 7317SOL    HW133410   0.994   3.533  11.823  0.0977  0.2296 -1.1101
 7317SOL    HW233411   0.925   3.561  11.698 -2.4500  1.8270  0.4675
 7318SOL     OW33412   1.144   3.045   3.715  0.0055 -0.5056 -0.4500
 7318SOL    HW133413   1.219   2.989   3.696  0.0812  0.0774 -1.8577
 7318SOL    HW233414   1.071   2.985   3.701 -0.6977 -0.0639  1.3346
 7319SOL     OW33415   3.483   3.696   5.871  0.0724 -0.0320 -0.3670
 7319SOL    HW133416   3.444   3.735   5.793 -0.0838  0.0992 -0.2219
 7319SOL    HW233417   3.470   3.770   5.931  1.4563 -0.5958  0.6261
 7320SOL     OW33418   3.766   2.363   8.539  0.2300 -0.5686  0.0801
 7320SOL    HW133419   3.831   2.430   8.563  1.4594 -2.1868  1.2395
 7320SOL    HW233420   3.780   2.285   8.592  1.3397  1.0161  2.0895
 7321SOL     OW33421   4.505   3.006  16.359 -0.6294  0.5535  0.0876
 7321SOL    HW133422   4.582   3.012  16.416  0.5018 -0.9271 -1.2888
 7321SOL    HW233423   4.461   2.926  16.387  0.4020 -0.4167 -1.0894
 7322SOL     OW33424   2.758   3.171   6.972  0.2424 -0.2043  0.3690
 7322SOL    HW133425   2.836   3.178   6.915 -0.6853  0.4426 -0.8244
 7322SOL    HW233426   2.687   3.178   6.908  1.8666 -1.6427 -1.6258
 7323SOL     OW33427   0.122   0.048  13.371 -0.3733  0.3719  0.4710
 7323SOL    HW133428   0.095   0.100  13.447  1.5761  1.0689  0.6859
 7323SOL    HW233429   0.165   0.117  13.321 -0.1496 -0.6306 -0.7123
 7324SOL     OW33430   1.769   3.072   4.606 -0.5000  0.5248  0.2594
 7324SOL    HW133431   1.774   3.166   4.625 -0.9431  0.5465  0.2733
 7324SOL    HW233432   1.823   3.081   4.527 -0.4493  0.9811  0.3467
 7325SOL     OW33433   0.041   2.616   1.600  0.5621  0.3199  0.2002
 7325SOL    HW133434   0.020   2.700   1.640  0.3964  0.6824 -0.6471
 7325SOL    HW233435   4.680   2.576   1.603  1.0013 -0.4994  1.6817
 7326SOL     OW33436   4.120   0.416   5.079  0.4057 -0.2193  0.0013
 7326SOL    HW133437   4.066   0.376   5.011  0.9623 -0.7295 -0.1440
 7326SOL    HW233438   4.096   0.507   5.069 -0.2393 -0.4021 -0.0820
 7327SOL     OW33439   4.056   3.139   4.292  0.6431  0.0863  0.4976
 7327SOL    HW133440   4.043   3.133   4.387  1.5392 -1.5636  0.5109
 7327SOL    HW233441   4.089   3.052   4.271  2.0632  0.6894  0.2233
 7328SOL     OW33442   4.426   0.635   3.242 -0.0697  0.1558 -0.2292
 7328SOL    HW133443   4.339   0.655   3.277  0.7057  1.8205  0.7762
 7328SOL    HW233444   4.475   0.661   3.321 -1.0026  1.8317 -0.1860
 7329SOL     OW33445   2.503   1.262   6.349  0.1095  0.4773  0.2411
 7329SOL    HW133446   2.411   1.256   6.376  0.4812  1.4499  1.7216
 7329SOL    HW233447   2.517   1.356   6.342  0.4805  0.4125  0.1131
 7330SOL     OW33448   2.272   2.691   1.609  0.5521  0.3232 -0.1005
 7330SOL    HW133449   2.366   2.671   1.605  0.4855  0.1431 -0.8233
 7330SOL    HW233450   2.261   2.744   1.530 -0.9948 -0.5420 -0.4567
 7331SOL     OW33451   3.134   1.221  17.653  0.4166 -0.5666  0.0392
 7331SOL    HW133452   3.176   1.231   0.037  1.5648 -0.3048 -0.5529
 7331SOL    HW233453   3.091   1.304  17.635 -0.9147 -1.7024 -2.0172
 7332SOL     OW33454   4.304   0.757   5.277  0.5695  0.1291  0.3047
 7332SOL    HW133455   4.370   0.724   5.216  0.9312 -0.9059  1.2661
 7332SOL    HW233456   4.343   0.842   5.299  0.7534  0.0728  0.1975
 7333SOL     OW33457   3.517   1.097   4.050  0.2814  0.3346 -0.1988
 7333SOL    HW133458   3.435   1.089   4.098  0.1399 -0.9777 -0.6527
 7333SOL    HW233459   3.483   1.064   3.966  1.8851  1.5455 -1.3256
 7334SOL     OW33460   2.815   4.476   2.322 -0.0762  0.3309  0.5116
 7334SOL    HW133461   2.818   4.525   2.240 -0.0393 -1.3042 -0.4732
 7334SOL    HW233462   2.908   4.457   2.339  0.5331  1.1455 -1.9537
 7335SOL     OW33463   3.035   2.460   3.557 -0.3488 -0.1952 -0.7904
 7335SOL    HW133464   3.045   2.367   3.536  0.2990 -0.6704  1.6500
 7335SOL    HW233465   3.098   2.507   3.502  2.2730 -2.0951  0.6165
 7336SOL     OW33466   3.481   2.678  15.647  0.0066 -0.1632 -0.0031
 7336SOL    HW133467   3.508   2.586  15.644  0.7411 -0.0082  2.4595
 7336SOL    HW233468   3.425   2.680  15.569  0.9556  0.8897 -0.6640
 7337SOL     OW33469   1.770   1.299   5.520  0.5395 -0.2891 -0.4159
 7337SOL    HW133470   1.791   1.357   5.446  3.4911 -0.4396  0.2846
 7337SOL    HW233471   1.725   1.355   5.583 -0.9122 -0.0925 -1.6076
 7338SOL     OW33472   2.244   4.419   8.474 -0.8133 -0.0001 -0.3170
 7338SOL    HW133473   2.227   4.448   8.564  0.3458 -1.2954  0.3369
 7338SOL    HW233474   2.162   4.373   8.458 -1.4946  1.0178  0.2104
 7339SOL     OW33475   0.806   3.469   8.193  0.4747  0.7352  0.1799
 7339SOL    HW133476   0.721   3.427   8.178  0.8003 -1.0991  3.5522
 7339SOL    HW233477   0.814   3.516   8.110  1.0841  0.5321  0.1223
 7340SOL     OW33478   2.154   2.775   7.767 -0.1106 -0.1363 -0.0761
 7340SOL    HW133479   2.216   2.718   7.812  1.1491 -0.0120 -1.6865
 7340SOL    HW233480   2.187   2.775   7.677  0.9604 -0.1445  0.3168
 7341SOL     OW33481   1.611   4.285   3.084  0.1746  0.7622  0.4243
 7341SOL    HW133482   1.693   4.290   3.134 -0.0673  0.3658  0.8670
 7341SOL    HW233483   1.565   4.353   3.134 -0.8897  0.8570 -0.6821
 7342SOL     OW33484   1.203   0.021   6.327 -0.2032 -0.0004 -0.0834
 7342SOL    HW133485   1.140   0.063   6.386 -0.4743 -0.9722  0.3195
 7342SOL    HW233486   1.247   4.703   6.401 -0.4498  0.7545  0.5021
 7343SOL     OW33487   4.405   0.391   8.286 -0.4442  0.2790  0.1465
 7343SOL    HW133488   4.460   0.429   8.218  0.1470 -0.8868 -0.0224
 7343SOL    HW233489   4.371   0.318   8.234  0.4630  0.5991 -0.9003
 7344SOL     OW33490   2.188   2.776   7.473  0.1460 -0.2234  0.3998
 7344SOL    HW133491   2.105   2.772   7.424 -0.0371  0.2342  0.6727
 7344SOL    HW233492   2.206   2.682   7.474 -0.7208 -0.3915  0.1847
 7345SOL     OW33493   3.370   2.180   5.007  0.1144  0.3095 -0.0970
 7345SOL    HW133494   3.436   2.217   5.066  0.3153  0.7388 -0.5986
 7345SOL    HW233495   3.408   2.182   4.920  1.6299  1.4228  0.6059
 7346SOL     OW33496   1.786   4.561   6.514 -0.0671 -0.0641  0.2156
 7346SOL    HW133497   1.822   4.562   6.603 -0.7300  2.1367  0.4462
 7346SOL    HW233498   1.703   4.606   6.526  0.3085  0.5687  0.4104
 7347SOL     OW33499   2.656   0.683   1.026 -0.1423  0.0568 -0.2683
 7347SOL    HW133500   2.647   0.591   1.001 -2.6859  0.0026  0.8768
 7347SOL    HW233501   2.567   0.708   1.048  0.3043 -0.1125  1.7160
 7348SOL     OW33502   2.857   4.110   2.924  0.5023 -0.2419 -0.3460
 7348SOL    HW133503   2.805   4.049   2.871 -0.2714  1.2004 -1.2456
 7348SOL    HW233504   2.922   4.061   2.974 -1.8867 -2.8517  0.2103
 7349SOL     OW33505   3.689   1.635  13.230  0.2387 -0.1083  0.4580
 7349SOL    HW133506   3.661   1.706  13.287 -0.2711 -0.4531  0.6425
 7349SOL    HW233507   3.638   1.658  13.153  1.9069  0.4919 -0.4561
 7350SOL     OW33508   2.680   4.345   6.229 -0.5108 -0.6900  0.4408
 7350SOL    HW133509   2.633   4.284   6.173  1.8105 -2.6878  0.6526
 7350SOL    HW233510   2.767   4.307   6.244 -0.1554  0.3338  1.0188
 7351SOL     OW33511   1.089   1.346   2.563 -0.0696  0.0144 -0.1135
 7351SOL    HW133512   1.167   1.375   2.609 -0.5580  0.8112  0.2146
 7351SOL    HW233513   1.078   1.421   2.505  1.1113  0.9752  0.9013
 7352SOL     OW33514   3.119   2.903  16.486  0.4684  0.1224 -0.0517
 7352SOL    HW133515   3.067   2.956  16.545 -1.0374  0.2802 -1.5190
 7352SOL    HW233516   3.053   2.908  16.417  0.3341 -1.0386 -0.0065
 7353SOL     OW33517   1.841   2.681  10.867 -0.4779  0.1479 -0.0106
 7353SOL    HW133518   1.828   2.639  10.782  1.8739 -0.8639  0.1310
 7353SOL    HW233519   1.753   2.679  10.904 -0.3830 -1.1362  0.1510
 7354SOL     OW33520   1.972   2.459   5.638 -0.0244  0.5723 -0.0776
 7354SOL    HW133521   2.049   2.476   5.584  0.4705  0.6650  0.6618
 7354SOL    HW233522   1.984   2.365   5.650 -0.1137  0.2276 -2.6509
 7355SOL     OW33523   4.090   0.625  14.997  0.0370 -0.1414  1.4381
 7355SOL    HW133524   4.105   0.534  14.969  2.4406  1.3511 -2.2339
 7355SOL    HW233525   4.121   0.622  15.087 -1.0845 -1.0574  1.7930
 7356SOL     OW33526   2.375   2.220   1.498 -0.6639  0.1782  0.0528
 7356SOL    HW133527   2.279   2.214   1.503 -0.7466  1.2011 -0.4912
 7356SOL    HW233528   2.392   2.135   1.456  0.1528 -0.0298  0.8134
 7357SOL     OW33529   0.741   3.676   0.134 -0.2778 -0.3619  0.1293
 7357SOL    HW133530   0.758   3.630   0.051 -0.3563  1.2195 -0.7734
 7357SOL    HW233531   0.825   3.650   0.171  1.3053  0.3427 -2.9159
 7358SOL     OW33532   3.795   4.239   2.939  0.1555  0.0489  0.1795
 7358SOL    HW133533   3.856   4.180   2.895  1.0674  0.1501  1.3045
 7358SOL    HW233534   3.854   4.312   2.958  0.4697 -0.4898  1.3200
 7359SOL     OW33535   3.673   4.253   7.632 -0.1726 -0.3591  0.2865
 7359SOL    HW133536   3.744   4.316   7.623 -2.4582  2.4876  1.9174
 7359SOL    HW233537   3.697   4.182   7.692  0.2059 -1.3715 -1.0763
 7360SOL     OW33538   1.319   1.419   9.421 -0.2878 -0.2253 -0.4289
 7360SOL    HW133539   1.398   1.456   9.461 -0.1167 -0.0579 -0.9197
 7360SOL    HW233540   1.294   1.494   9.367  1.0340  0.0949 -0.5972
 7361SOL     OW33541   3.396   0.834   7.110  0.2795  0.2324  0.0117
 7361SOL    HW133542   3.483   0.819   7.147  0.9435 -1.6638 -2.4097
 7361SOL    HW233543   3.429   0.908   7.059  2.0736  0.1143  0.9901
 7362SOL     OW33544   2.367   1.913   8.780 -0.4616  0.3030 -0.4853
 7362SOL    HW133545   2.377   1.839   8.841 -0.2874  1.9533  1.4991
 7362SOL    HW233546   2.326   1.978   8.837 -0.7640 -0.8721  0.6308
 7363SOL     OW33547   4.691   0.037   4.573  0.0939  0.0368 -0.2224
 7363SOL    HW133548   4.680   0.016   4.481  0.3656 -2.1094  0.2405
 7363SOL    HW233549   0.039   4.703   4.594 -0.9774 -0.9222  0.7595
 7364SOL     OW33550   3.674   3.645   6.450  0.2371 -0.8217 -0.5585
 7364SOL    HW133551   3.648   3.595   6.527  0.4071  1.3726  0.9122
 7364SOL    HW233552   3.594   3.632   6.398 -0.3704  3.0507 -0.5647
 7365SOL     OW33553   4.339   3.636  10.566  0.2069  0.3558 -0.1639
 7365SOL    HW133554   4.257   3.618  10.611 -1.1405  0.7026 -2.4596
 7365SOL    HW233555   4.398   3.582  10.619 -2.3500 -1.6371  0.6433
 7366SOL     OW33556   0.216   1.086   7.600  0.1420 -0.3557 -0.0863
 7366SOL    HW133557   0.148   1.028   7.636  0.1655 -1.4784 -1.8556
 7366SOL    HW233558   0.198   1.167   7.647  0.4602  0.2597 -1.0279
 7367SOL     OW33559   0.141   1.987  16.646 -0.2952  0.3488 -0.1474
 7367SOL    HW133560   0.186   1.957  16.724  0.5268 -0.2588 -0.8588
 7367SOL    HW233561   0.095   2.065  16.680 -0.0603  0.3846  0.0835
 7368SOL     OW33562   0.239   1.617   7.443  0.3094  0.1330  0.1755
 7368SOL    HW133563   0.223   1.523   7.435 -0.7945  0.4841 -1.6397
 7368SOL    HW233564   0.285   1.622   7.527 -0.7848 -0.3497  0.8113
 7369SOL     OW33565   2.607   1.132   4.175  0.1536  0.3052  0.0454
 7369SOL    HW133566   2.699   1.158   4.173  0.4331 -0.6222  0.4720
 7369SOL    HW233567   2.590   1.172   4.260 -3.2235 -0.1132 -0.4485
 7370SOL     OW33568   4.378   4.559   7.860 -0.2372 -0.4088 -0.0774
 7370SOL    HW133569   4.339   4.580   7.945  1.8294  0.8429  0.5483
 7370SOL    HW233570   4.448   4.624   7.858 -2.0076  1.4849 -0.4710
 7371SOL     OW33571   1.469   2.693   6.460 -0.0062  0.3127  0.0423
 7371SOL    HW133572   1.520   2.628   6.510  0.6537 -0.0184 -1.0487
 7371SOL    HW233573   1.528   2.719   6.389 -0.8826  2.5484  0.1378
 7372SOL     OW33574   2.197   3.138  11.819 -0.1357 -0.7221  0.6908
 7372SOL    HW133575   2.142   3.181  11.885 -0.7884  0.3162 -0.5166
 7372SOL    HW233576   2.153   3.133  11.734  0.9274  2.8593 -0.0553
 7373SOL     OW33577   3.493   0.983  13.602 -0.5126  0.2879 -0.0860
 7373SOL    HW133578   3.403   0.972  13.572 -0.4369  0.5904 -0.4200
 7373SOL    HW233579   3.475   1.058  13.658 -2.2489 -0.5669  0.4993
 7374SOL     OW33580   3.494   3.933   8.089 -0.3754 -0.1426 -0.1796
 7374SOL    HW133581   3.508   3.966   8.177 -1.7429  0.3084 -0.1321
 7374SOL    HW233582   3.398   3.939   8.085 -0.3075 -0.2611 -2.2955
 7375SOL     OW33583   1.877   0.874   2.575 -0.6897 -0.0960  0.1469
 7375SOL    HW133584   1.943   0.818   2.533 -1.2786 -0.6171 -0.0941
 7375SOL    HW233585   1.898   0.862   2.668 -1.3959 -0.6162  0.2405
 7376SOL     OW33586   1.229   3.874  10.788 -0.3451  0.3973 -0.1726
 7376SOL    HW133587   1.274   3.792  10.769 -2.8283 -1.5131  2.1167
 7376SOL    HW233588   1.292   3.937  10.753 -1.5053  1.0417 -1.1009
 7377SOL     OW33589   3.918   2.733   8.310 -0.6148 -0.6988 -0.0857
 7377SOL    HW133590   3.939   2.806   8.252  1.8124 -1.1309  0.2445
 7377SOL    HW233591   3.912   2.662   8.247  0.2516 -1.2334  0.4376
 7378SOL     OW33592   0.933   3.737   2.527  1.0034 -0.2078 -0.1979
 7378SOL    HW133593   0.930   3.643   2.510  2.0835 -0.4196  0.8016
 7378SOL    HW233594   0.951   3.734   2.621  1.4673  1.0851 -0.2431
 7379SOL     OW33595   4.161   4.144   4.318 -0.2813 -0.5781  0.0683
 7379SOL    HW133596   4.143   4.156   4.412 -1.1939 -0.0758 -0.1802
 7379SOL    HW233597   4.139   4.229   4.282  1.6901  0.4852  1.3565
 7380SOL     OW33598   2.608   0.665   1.768  0.4197 -0.1929 -0.0695
 7380SOL    HW133599   2.615   0.594   1.705  1.6482  0.0222 -0.1655
 7380SOL    HW233600   2.689   0.706   1.738 -0.2557  1.2916  0.1051
 7381SOL     OW33601   0.516   3.700   9.806  0.4701 -0.2927 -0.0803
 7381SOL    HW133602   0.455   3.642   9.852  0.3861  0.4011  0.6790
 7381SOL    HW233603   0.488   3.781   9.848 -1.6863 -1.0608 -0.0728
 7382SOL     OW33604   4.018   1.379   8.259 -0.4172 -0.4149  0.5283
 7382SOL    HW133605   4.037   1.428   8.339 -1.6169  0.2973  0.3897
 7382SOL    HW233606   4.070   1.299   8.266  0.0242 -0.0945  0.8576
 7383SOL     OW33607   2.322   4.690   9.866  0.3580  0.5825  0.8803
 7383SOL    HW133608   2.293   4.706   9.777  1.7079 -1.4889  0.0616
 7383SOL    HW233609   2.241   4.668   9.913 -0.2426  0.5373 -0.1887
 7384SOL     OW33610   2.480   1.931   5.826  0.3976  0.6099  0.5544
 7384SOL    HW133611   2.509   1.953   5.915 -4.5994  2.1320  1.7842
 7384SOL    HW233612   2.434   2.010   5.800  0.4626 -0.2963 -2.2662
 7385SOL     OW33613   2.194   0.387   8.377 -0.3893 -0.7503  0.1355
 7385SOL    HW133614   2.178   0.365   8.468 -1.4550 -1.9115 -0.3386
 7385SOL    HW233615   2.287   0.412   8.384 -0.9350  0.7380  2.1540
 7386SOL     OW33616   1.236   3.155   8.355  0.0107  0.1874  0.9268
 7386SOL    HW133617   1.172   3.172   8.286  0.4101 -1.0699  0.2515
 7386SOL    HW233618   1.220   3.222   8.421 -1.3882  2.8223 -2.0946
 7387SOL     OW33619   2.424   3.867   2.671  0.0226 -0.3604 -0.2810
 7387SOL    HW133620   2.343   3.834   2.633 -0.3563 -0.0060  0.2355
 7387SOL    HW233621   2.433   3.954   2.632  0.0946 -0.1475  0.2101
 7388SOL     OW33622   0.763   2.402  11.208 -0.1649 -0.2127  0.0989
 7388SOL    HW133623   0.708   2.325  11.191 -0.5343  0.1028 -0.1422
 7388SOL    HW233624   0.696   2.470  11.202  0.5519  0.5879  1.3879
 7389SOL     OW33625   3.954   1.796   8.870 -0.0745 -0.4374 -0.3890
 7389SOL    HW133626   3.976   1.817   8.961  0.3863  0.3378 -0.6778
 7389SOL    HW233627   3.863   1.825   8.867  0.6340  1.7366 -0.5746
 7390SOL     OW33628   2.637   3.052   1.927  0.1009 -0.3934 -0.4963
 7390SOL    HW133629   2.726   3.029   1.955 -0.0964 -0.0171  0.4351
 7390SOL    HW233630   2.649   3.123   1.863  2.0377  0.8679  1.2487
 7391SOL     OW33631   1.818   3.704   8.117  0.3116  0.5754 -0.1485
 7391SOL    HW133632   1.864   3.769   8.063  2.2702 -0.8699 -0.1950
 7391SOL    HW233633   1.778   3.648   8.050 -1.5883 -0.1486  1.5849
 7392SOL     OW33634   4.548   1.496   8.793 -0.7122 -0.3678  0.1377
 7392SOL    HW133635   4.485   1.520   8.861  1.8449  1.6996  1.7614
 7392SOL    HW233636   4.619   1.557   8.811 -1.4773 -0.0045  1.9037
 7393SOL     OW33637   0.674   3.741   9.468  0.0158 -0.5763  0.0123
 7393SOL    HW133638   0.705   3.655   9.497 -0.1849 -0.4184  0.7060
 7393SOL    HW233639   0.607   3.758   9.534 -0.5780 -1.6061 -0.3219
 7394SOL     OW33640   0.617   2.553   7.956  0.0761  0.3385 -0.2106
 7394SOL    HW133641   0.633   2.570   7.863 -0.2567 -1.2307 -0.5465
 7394SOL    HW233642   0.670   2.618   8.002  0.9560 -0.9890  0.6550
 7395SOL     OW33643   1.992   0.443   0.380 -0.1790  0.5329 -0.1554
 7395SOL    HW133644   2.024   0.398   0.302  0.3119  1.2354 -0.3621
 7395SOL    HW233645   2.045   0.400   0.447  0.5680  1.5819 -0.0759
 7396SOL     OW33646   3.237   0.633   5.699 -0.3588 -0.7461  0.3088
 7396SOL    HW133647   3.207   0.702   5.758 -0.9086  0.5730 -1.5210
 7396SOL    HW233648   3.240   0.551   5.748 -2.2784 -1.4729 -0.8019
 7397SOL     OW33649   1.288   1.815  12.356 -0.3707  0.3825  0.0083
 7397SOL    HW133650   1.361   1.826  12.417  1.6450  1.1146 -2.5519
 7397SOL    HW233651   1.331   1.865  12.287  4.6296 -0.5998  2.3542
 7398SOL     OW33652   1.692   2.636   1.152 -0.2501 -0.0868 -0.4606
 7398SOL    HW133653   1.733   2.720   1.175 -2.5783  0.7054  0.8456
 7398SOL    HW233654   1.744   2.615   1.074 -0.0505  3.4580 -1.3228
 7399SOL     OW33655   0.512   1.042  13.751 -0.5164  0.0116  0.4503
 7399SOL    HW133656   0.464   0.985  13.692  1.4796 -1.0645 -0.1131
 7399SOL    HW233657   0.482   1.007  13.835  4.1191 -1.6206  1.4328
 7400SOL     OW33658   0.342   3.821   2.747  0.0182  0.4431  0.0834
 7400SOL    HW133659   0.350   3.727   2.733 -0.2305  0.4588 -0.1754
 7400SOL    HW233660   0.404   3.839   2.676 -1.0901  1.6128 -0.5813
 7401SOL     OW33661   2.732   2.544   6.694 -0.3054  0.5527 -0.1760
 7401SOL    HW133662   2.819   2.510   6.671 -0.6662 -0.9324  0.6978
 7401SOL    HW233663   2.696   2.575   6.611 -2.3030  0.0926  0.5198
 7402SOL     OW33664   2.984   1.940   3.096 -0.0917 -0.0227  0.1368
 7402SOL    HW133665   3.071   1.927   3.132 -0.3728  0.9196  1.1690
 7402SOL    HW233666   2.966   2.018   3.148 -1.0672 -0.6958  0.8149
 7403SOL     OW33667   0.956   2.675   4.326 -0.2624 -0.0209  0.4749
 7403SOL    HW133668   0.979   2.637   4.241  0.6094  0.1240  0.6389
 7403SOL    HW233669   1.016   2.749   4.324 -0.5242  0.2059  1.3747
 7404SOL     OW33670   4.166   0.566   2.395  0.1817  0.4482  0.5818
 7404SOL    HW133671   4.166   0.478   2.356 -0.2300  1.0466 -0.7485
 7404SOL    HW233672   4.094   0.559   2.457  0.9397  0.8261  1.5093
 7405SOL     OW33673   4.495   1.549   1.911  0.5613  0.0483 -0.2748
 7405SOL    HW133674   4.586   1.549   1.941  0.3600 -2.1913  0.3613
 7405SOL    HW233675   4.508   1.505   1.827  0.7409 -0.4201  0.0010
 7406SOL     OW33676   4.086   2.584   7.315  0.2689 -0.0229 -0.0814
 7406SOL    HW133677   4.029   2.569   7.240 -0.9125  2.2002  0.3679
 7406SOL    HW233678   4.172   2.582   7.273  0.7444  2.4733  0.7752
 7407SOL     OW33679   4.122   3.021   8.659  0.6248  0.3800  0.4929
 7407SOL    HW133680   4.048   3.016   8.720  0.3416  0.6322  0.1727
 7407SOL    HW233681   4.080   2.976   8.585 -1.0303 -1.0755  2.2869
 7408SOL     OW33682   3.042   0.366   5.600 -0.3802  0.4911 -1.1619
 7408SOL    HW133683   3.054   0.287   5.653  0.8356  2.9219  2.1276
 7408SOL    HW233684   2.984   0.423   5.650 -3.3222 -3.2315 -0.3429
 7409SOL     OW33685   3.601   1.143   7.628  0.3019  0.4966  0.6338
 7409SOL    HW133686   3.556   1.134   7.712  0.5736 -1.6976  0.5485
 7409SOL    HW233687   3.556   1.079   7.572  0.7376  0.9325 -0.2196
 7410SOL     OW33688   3.851   1.085  16.301  0.5679 -0.1172 -0.0975
 7410SOL    HW133689   3.929   1.079  16.357 -0.2571  1.0523  1.1618
 7410SOL    HW233690   3.867   1.179  16.293  0.8189 -0.1670 -0.1802
 7411SOL     OW33691   3.921   1.576   7.535  0.4609 -0.5045 -0.0504
 7411SOL    HW133692   3.921   1.612   7.624 -0.5884  1.6209 -0.9203
 7411SOL    HW233693   3.830   1.597   7.514  1.6320  2.6858 -1.8916
 7412SOL     OW33694   2.164   1.783  14.332  0.6915  0.2595 -0.5627
 7412SOL    HW133695   2.165   1.836  14.413  1.8143  0.5274 -0.7456
 7412SOL    HW233696   2.157   1.852  14.266  0.0115  2.1543  1.4801
 7413SOL     OW33697   4.079   0.910  16.108 -0.4350  0.2062  0.7816
 7413SOL    HW133698   4.150   0.969  16.083 -1.0588  1.6007  2.2560
 7413SOL    HW233699   4.118   0.867  16.185  1.1746 -3.6920 -2.1708
 7414SOL     OW33700   4.277   3.459   7.724  0.2177  0.3876  0.3135
 7414SOL    HW133701   4.239   3.377   7.754 -1.5732  1.3543  0.6881
 7414SOL    HW233702   4.242   3.464   7.635  0.3240  0.0574  0.2527
 7415SOL     OW33703   0.397   3.199  11.786 -0.5140  0.1702 -0.2950
 7415SOL    HW133704   0.368   3.154  11.865 -1.9628  0.4451 -0.6647
 7415SOL    HW233705   0.319   3.218  11.734 -0.4261  2.7307  0.5026
 7416SOL     OW33706   0.809   3.109   4.554  0.5892 -0.0355 -0.1595
 7416SOL    HW133707   0.783   3.037   4.612  1.0226  0.4891  0.6795
 7416SOL    HW233708   0.767   3.086   4.471  0.2710 -0.6284  0.1667
 7417SOL     OW33709   2.728   1.102   6.302  0.2181 -0.1688  0.4304
 7417SOL    HW133710   2.638   1.133   6.302  0.6395  1.0952 -1.4071
 7417SOL    HW233711   2.712   1.008   6.305 -1.8498  0.2500  1.8715
 7418SOL     OW33712   0.300   3.140   2.893 -0.0155  0.4135  0.3492
 7418SOL    HW133713   0.379   3.161   2.943  1.2526 -0.9000 -1.0989
 7418SOL    HW233714   0.232   3.109   2.952 -1.0263 -0.3807 -1.2523
 7419SOL     OW33715   1.059   1.719  16.791 -0.0190 -0.2532 -0.0129
 7419SOL    HW133716   1.090   1.713  16.882 -0.5301 -1.1379  0.1035
 7419SOL    HW233717   0.989   1.653  16.789  0.4444 -0.8191  1.8851
 7420SOL     OW33718   1.982   1.716   8.408 -0.2273 -0.0483  0.4594
 7420SOL    HW133719   2.051   1.654   8.430  0.5847  1.1911  1.4159
 7420SOL    HW233720   1.907   1.656   8.406 -0.5236  0.3150  0.7298
 7421SOL     OW33721   3.505   4.212  11.208  0.3455  0.6296 -0.2604
 7421SOL    HW133722   3.509   4.125  11.248 -2.4501  0.4940 -0.3024
 7421SOL    HW233723   3.547   4.192  11.124 -0.2934 -0.7923 -0.2267
 7422SOL     OW33724   1.077   4.411   9.829  0.2041  0.2615 -0.8396
 7422SOL    HW133725   1.154   4.359   9.851  0.1559  0.5111 -0.0669
 7422SOL    HW233726   1.010   4.344   9.814 -0.0349  0.7830 -2.0610
 7423SOL     OW33727   3.317   0.893   8.802  0.5096 -0.5225  0.0765
 7423SOL    HW133728   3.325   0.952   8.877 -0.9023 -0.2760  0.0358
 7423SOL    HW233729   3.330   0.950   8.726  1.0191 -0.4212  0.2396
 7424SOL     OW33730   3.962   2.709   6.100  0.5892  0.2436 -0.1820
 7424SOL    HW133731   4.046   2.679   6.135  1.2536  2.0221 -0.2711
 7424SOL    HW233732   3.990   2.787   6.053  1.0812  1.1490  1.6306
 7425SOL     OW33733   2.479   1.725   9.721  0.0550 -0.5559 -0.4607
 7425SOL    HW133734   2.486   1.635   9.752  1.5118 -0.4656 -0.5434
 7425SOL    HW233735   2.569   1.741   9.750  0.1496 -1.0172 -0.4983
 7426SOL     OW33736   3.023   2.073   4.672 -0.2036  0.3645 -0.0368
 7426SOL    HW133737   3.099   2.074   4.614 -1.1335 -1.4528 -1.2872
 7426SOL    HW233738   3.058   2.123   4.745 -0.2452 -1.0032  0.9125
 7427SOL     OW33739   0.714   0.767   5.391  0.1273 -0.2675 -0.1986
 7427SOL    HW133740   0.775   0.787   5.321 -0.1891 -2.6403 -1.1658
 7427SOL    HW233741   0.704   0.850   5.437  0.3355  0.0368 -0.7115
 7428SOL     OW33742   4.539   1.365   7.096 -0.1844 -0.1979  0.3357
 7428SOL    HW133743   4.608   1.310   7.058  0.9255  1.8538 -0.6035
 7428SOL    HW233744   4.589   1.439   7.130  0.0048  0.4370 -1.3159
 7429SOL     OW33745   4.126   1.581   2.935 -0.0406 -0.4944  0.5672
 7429SOL    HW133746   4.151   1.629   3.014 -0.9133  0.5569  0.2050
 7429SOL    HW233747   4.130   1.490   2.964  0.0824  0.1081  2.4137
 7430SOL     OW33748   1.961   4.307  14.909 -0.8415  0.1228 -0.0702
 7430SOL    HW133749   1.951   4.394  14.948 -0.8620 -0.4305  1.1549
 7430SOL    HW233750   1.878   4.299  14.862 -3.1068  2.2245  3.6027
 7431SOL     OW33751   1.867   1.150   6.113 -0.5861  0.6070 -0.4765
 7431SOL    HW133752   1.871   1.054   6.114  1.1980  0.6873  0.0434
 7431SOL    HW233753   1.902   1.146   6.024  0.8561  1.1970  0.0744
 7432SOL     OW33754   1.444   4.431  15.538 -0.0256 -0.9767 -0.0505
 7432SOL    HW133755   1.430   4.425  15.443  1.5596  1.6504 -0.4492
 7432SOL    HW233756   1.376   4.373  15.571  0.5043 -0.5942  1.7204
 7433SOL     OW33757   1.235   3.201  12.020 -0.1559 -0.4513  0.2979
 7433SOL    HW133758   1.316   3.152  12.032 -0.9702 -1.2300  2.5477
 7433SOL    HW233759   1.175   3.130  12.040 -0.4990  0.1930  1.5674
 7434SOL     OW33760   0.298   0.506   2.715 -0.2458  0.0909 -0.2639
 7434SOL    HW133761   0.205   0.499   2.737 -0.2391  0.7596 -0.0171
 7434SOL    HW233762   0.336   0.460   2.790 -1.8204 -1.9947 -0.7531
 7435SOL     OW33763   1.433   3.818   2.438  0.2772  0.3558  0.0646
 7435SOL    HW133764   1.388   3.866   2.508 -3.6908 -0.7554 -1.7559
 7435SOL    HW233765   1.379   3.740   2.451 -1.3103  1.2934 -0.8910
 7436SOL     OW33766   0.836   4.601   6.254  0.1474 -0.0807 -0.0917
 7436SOL    HW133767   0.859   4.614   6.162 -2.4668  0.6229 -0.6515
 7436SOL    HW233768   0.761   4.661   6.256 -1.1958 -1.7179 -0.9247
 7437SOL     OW33769   4.394   4.366   4.457  0.1116 -0.0899  0.0363
 7437SOL    HW133770   4.424   4.324   4.377 -0.8150 -0.7374  0.0327
 7437SOL    HW233771   4.342   4.295   4.496  0.4075  1.3755  3.1266
 7438SOL     OW33772   3.091   3.393   3.699  0.5031 -0.4267 -0.0953
 7438SOL    HW133773   3.076   3.444   3.779 -0.5191  0.3110 -0.7602
 7438SOL    HW233774   3.007   3.350   3.684 -0.7889  1.9657  0.3039
 7439SOL     OW33775   3.634   4.376  16.713 -0.1886 -0.2249 -0.6846
 7439SOL    HW133776   3.633   4.424  16.631  0.3201 -2.7936 -2.1869
 7439SOL    HW233777   3.689   4.428  16.772 -1.9482  1.7068 -0.7613
 7440SOL     OW33778   3.562   0.509   3.994  0.4679  0.1295 -0.3441
 7440SOL    HW133779   3.504   0.513   3.918 -0.4336 -0.7606  0.2936
 7440SOL    HW233780   3.545   0.416   4.013  1.3097  0.0379 -0.0479
 7441SOL     OW33781   0.737   0.004   0.544 -0.3872 -0.1179 -0.1789
 7441SOL    HW133782   0.673   0.036   0.480  0.2083  2.2409  0.4129
 7441SOL    HW233783   0.735   4.633   0.535 -0.9321 -0.0927 -0.2897
 7442SOL     OW33784   0.624   0.825  10.945 -0.1623  0.2025 -0.2846
 7442SOL    HW133785   0.558   0.787  11.003  1.0981 -2.4988 -0.5905
 7442SOL    HW233786   0.625   0.747  10.889  2.0762  0.3805 -0.4761
 7443SOL     OW33787   2.873   1.020  17.314 -0.0021 -0.7556 -0.4628
 7443SOL    HW133788   2.950   1.012  17.371 -1.6583  0.0115  1.9009
 7443SOL    HW233789   2.817   0.953  17.353 -0.9630 -0.7032 -1.7733
 7444SOL     OW33790   3.233   2.021   8.654  0.0882 -0.1901 -0.1771
 7444SOL    HW133791   3.267   2.023   8.743 -2.1199 -0.6167  0.6570
 7444SOL    HW233792   3.215   1.928   8.640  0.5242 -0.0693 -1.5932
 7445SOL     OW33793   2.426   2.764  11.871 -0.5584  0.0403  0.3463
 7445SOL    HW133794   2.458   2.733  11.955 -0.3496 -0.8382 -0.0602
 7445SOL    HW233795   2.491   2.820  11.829  0.4394  0.0887  1.9622
 7446SOL     OW33796   1.543   3.850   9.279  0.9798 -0.0924 -0.0717
 7446SOL    HW133797   1.626   3.893   9.256 -0.3617  1.1464 -2.6001
 7446SOL    HW233798   1.477   3.911   9.247  0.9829 -0.1379 -0.1641
 7447SOL     OW33799   3.808   4.464   0.274  0.5943  0.2630 -0.0479
 7447SOL    HW133800   3.805   4.372   0.301  1.6539 -0.8446 -3.7879
 7447SOL    HW233801   3.716   4.483   0.289  0.8614  1.4059  0.1406
 7448SOL     OW33802   3.378   2.886   4.751  0.6876 -0.3199  0.2843
 7448SOL    HW133803   3.408   2.811   4.699  0.4992  0.9232 -1.6579
 7448SOL    HW233804   3.307   2.905   4.689  1.9807 -1.2768 -1.4990
 7449SOL     OW33805   0.929   2.454   8.323  0.0250  0.1257 -0.4642
 7449SOL    HW133806   0.868   2.427   8.392  0.8207 -0.8045 -0.1224
 7449SOL    HW233807   0.953   2.541   8.355 -2.0958 -0.3223  2.3683
 7450SOL     OW33808   3.225   1.759   3.166 -0.0543 -0.6457 -0.0152
 7450SOL    HW133809   3.293   1.826   3.166 -0.9861  0.2952 -0.6055
 7450SOL    HW233810   3.251   1.715   3.085  0.7238  0.9927 -0.6622
 7451SOL     OW33811   3.447   0.812   4.044 -0.3009 -0.4149  0.1917
 7451SOL    HW133812   3.467   0.787   3.954 -1.4366  4.0303 -1.3261
 7451SOL    HW233813   3.359   0.776   4.058  0.9462 -2.7510  2.0402
 7452SOL     OW33814   2.997   1.105   7.680 -0.0401  0.5925  0.1217
 7452SOL    HW133815   2.968   1.051   7.606  1.7512 -1.0466  0.6327
 7452SOL    HW233816   3.024   1.184   7.633  1.4407 -1.2207 -2.0674
 7453SOL     OW33817   4.407   3.440   6.967  0.7517  0.4873 -0.2256
 7453SOL    HW133818   4.415   3.469   7.058  0.1456  1.1830 -0.3964
 7453SOL    HW233819   4.314   3.459   6.955  0.7229 -0.5841 -1.7329
 7454SOL     OW33820   3.686   1.763   2.387  0.1109 -0.5826  0.1491
 7454SOL    HW133821   3.754   1.822   2.354  0.7329 -1.4543 -0.1135
 7454SOL    HW233822   3.648   1.818   2.455 -0.1468  0.0734 -0.5211
 7455SOL     OW33823   3.188   3.166   5.319  0.3658 -0.0928  0.0423
 7455SOL    HW133824   3.167   3.226   5.247  3.4125  0.7942 -0.0910
 7455SOL    HW233825   3.262   3.208   5.362  0.4105 -1.2983  1.1303
 7456SOL     OW33826   0.476   3.667   5.047 -0.0245  0.4225 -0.4266
 7456SOL    HW133827   0.546   3.697   5.106  1.1237 -2.4138 -0.3534
 7456SOL    HW233828   0.411   3.626   5.104 -0.2922 -1.5258 -2.1547
 7457SOL     OW33829   1.235   1.747   9.715  0.9092 -0.1642 -0.2111
 7457SOL    HW133830   1.260   1.726   9.805  3.0988  1.0452 -0.5312
 7457SOL    HW233831   1.221   1.657   9.685  1.8487 -0.4531  0.2453
 7458SOL     OW33832   1.728   3.200  14.109 -0.1423 -0.3440 -0.9606
 7458SOL    HW133833   1.637   3.227  14.118  0.0560  0.4585 -1.2796
 7458SOL    HW233834   1.749   3.227  14.019  1.0755 -1.7475 -1.0926
 7459SOL     OW33835   2.326   1.129   6.538 -0.2202 -0.2174  0.3132
 7459SOL    HW133836   2.300   1.059   6.597  0.1132 -1.1035 -0.5921
 7459SOL    HW233837   2.314   1.088   6.452  1.9308 -1.6739  0.7321
 7460SOL     OW33838   2.945   1.607   4.429 -0.0553  0.4674 -0.3266
 7460SOL    HW133839   2.989   1.666   4.490  1.7389 -2.1067  0.8456
 7460SOL    HW233840   2.854   1.602   4.458 -0.1938 -2.0127 -1.1768
 7461SOL     OW33841   0.944   2.048   1.809 -0.3212  0.1394 -0.0587
 7461SOL    HW133842   0.988   2.033   1.725  0.0062  0.7628  0.0042
 7461SOL    HW233843   0.855   2.017   1.794 -0.2470 -0.6416  1.1300
 7462SOL     OW33844   2.065   0.641  13.345 -0.7210  0.6866 -0.0525
 7462SOL    HW133845   2.053   0.690  13.263 -1.1534  1.2596  0.3562
 7462SOL    HW233846   1.979   0.647  13.385 -1.2494 -1.6527 -0.8470
 7463SOL     OW33847   2.716   2.148  13.906 -0.0438 -0.2047  0.1102
 7463SOL    HW133848   2.660   2.216  13.870 -0.7830  0.2948  2.1702
 7463SOL    HW233849   2.649   2.085  13.932 -0.6674  0.7142  0.7415
 7464SOL     OW33850   1.955   0.644   1.850 -0.4504  0.7067  0.7005
 7464SOL    HW133851   1.871   0.688   1.841 -0.7536  0.3569  1.8723
 7464SOL    HW233852   1.937   0.572   1.789  1.4868  0.7906  0.0302
 7465SOL     OW33853   4.719   2.952   5.657 -0.4423  0.4604  0.0644
 7465SOL    HW133854   0.019   3.043   5.675 -1.8585  1.0971 -1.2724
 7465SOL    HW233855   0.046   2.914   5.728  2.0645  1.4990 -1.2151
 7466SOL     OW33856   2.735   3.189  14.165  0.1407  0.8035 -0.2117
 7466SOL    HW133857   2.790   3.187  14.087  2.2463 -0.9886  1.3420
 7466SOL    HW233858   2.764   3.275  14.197 -2.6134  2.0514 -1.0415
 7467SOL     OW33859   2.736   0.531   6.805 -0.5516  0.0501  0.7556
 7467SOL    HW133860   2.777   0.458   6.852 -0.2485 -0.7476 -0.7375
 7467SOL    HW233861   2.646   0.517   6.836 -0.7487  0.6618  0.4652
 7468SOL     OW33862   3.166   3.679   5.133 -0.6795  0.3541  0.6419
 7468SOL    HW133863   3.186   3.759   5.182  1.3845  0.5472 -0.5334
 7468SOL    HW233864   3.212   3.702   5.053 -0.0580  1.0767  1.2021
 7469SOL     OW33865   1.990   1.847   5.771  0.1167  0.1774  0.1135
 7469SOL    HW133866   2.022   1.904   5.841 -5.4147  0.2759  2.5790
 7469SOL    HW233867   1.909   1.888   5.740  0.3951 -0.3378 -1.2783
 7470SOL     OW33868   1.967   0.540   2.850 -0.2087 -0.0690 -0.4287
 7470SOL    HW133869   1.909   0.492   2.791  0.1188 -1.8665  0.7287
 7470SOL    HW233870   1.943   0.633   2.845  1.5437  0.4628  1.0690
 7471SOL     OW33871   0.741   2.615   3.598 -0.1708  0.0277 -0.3099
 7471SOL    HW133872   0.804   2.608   3.527  1.0373 -1.3289  0.8866
 7471SOL    HW233873   0.664   2.608   3.541  1.6863  0.8944 -2.8921
 7472SOL     OW33874   3.920   2.423   6.615  0.1345 -0.2167  0.0758
 7472SOL    HW133875   3.867   2.491   6.655  0.8321 -0.5184  1.4847
 7472SOL    HW233876   3.915   2.454   6.524  0.9257 -0.2363  0.0238
 7473SOL     OW33877   0.981   0.922  10.832 -0.3865 -0.2169 -0.0551
 7473SOL    HW133878   1.025   1.002  10.861 -0.5277 -0.1234 -0.1020
 7473SOL    HW233879   0.938   0.887  10.910  1.1837  1.8549  1.7515
 7474SOL     OW33880   1.052   4.540   4.687 -0.2392 -0.3201 -0.8216
 7474SOL    HW133881   0.964   4.571   4.667 -1.0577  0.1462  3.3898
 7474SOL    HW233882   1.074   4.569   4.776  2.0846 -0.7016 -1.2673
 7475SOL     OW33883   0.687   3.693   8.320 -0.0566  0.0729 -0.3744
 7475SOL    HW133884   0.673   3.755   8.248 -0.6076 -0.7907 -1.0154
 7475SOL    HW233885   0.742   3.625   8.280  0.1984  0.2399 -0.3079
 7476SOL     OW33886   4.192   1.024   1.974 -0.3772 -0.0417 -0.1165
 7476SOL    HW133887   4.187   1.120   1.979  3.3474  0.2221 -1.3957
 7476SOL    HW233888   4.161   1.003   1.886 -0.2432  1.6749 -0.5819
 7477SOL     OW33889   0.032   1.213  15.852 -0.3315  0.5200  0.1403
 7477SOL    HW133890   0.092   1.158  15.903 -0.1862 -0.6261 -1.2893
 7477SOL    HW233891   0.092   1.287  15.850 -0.9557  1.0974  2.5714
 7478SOL     OW33892   1.424   4.018  17.519 -0.3245 -0.4096  0.0597
 7478SOL    HW133893   1.338   4.049  17.547 -0.5394 -2.1615  1.3190
 7478SOL    HW233894   1.422   3.923  17.520  0.0759 -0.4158  0.1453
 7479SOL     OW33895   2.776   4.006   3.299 -0.1778  0.4200  0.1472
 7479SOL    HW133896   2.763   3.912   3.311  2.1398 -0.0720 -1.2257
 7479SOL    HW233897   2.686   4.039   3.309 -0.6961 -0.4074 -1.7254
 7480SOL     OW33898   0.798   0.756   5.803 -0.8018 -0.0321 -0.2158
 7480SOL    HW133899   0.742   0.831   5.784 -2.9874 -1.8232 -0.8791
 7480SOL    HW233900   0.870   0.802   5.846 -1.3485 -0.0180  0.6891
 7481SOL     OW33901   1.841   4.262   1.800  0.5559 -0.1865 -0.0356
 7481SOL    HW133902   1.746   4.260   1.788  0.7672  1.3030 -2.0283
 7481SOL    HW233903   1.866   4.248   1.708  2.9083  3.2030  0.0846
 7482SOL     OW33904   4.054   1.896   5.279 -0.4905  0.0306  0.1868
 7482SOL    HW133905   4.141   1.898   5.240 -1.0244 -1.9871 -1.1150
 7482SOL    HW233906   4.028   1.982   5.245 -1.6307 -0.5238 -0.3305
 7483SOL     OW33907   0.287   1.201   6.672  0.5293  0.4430  0.2821
 7483SOL    HW133908   0.368   1.210   6.620 -0.0124 -1.5850 -0.9098
 7483SOL    HW233909   0.300   1.255   6.750  1.2594  2.6451 -1.3575
 7484SOL     OW33910   3.178   2.069   2.599  0.3665 -0.0088 -0.0736
 7484SOL    HW133911   3.116   1.997   2.590  1.8125 -1.2774  0.0433
 7484SOL    HW233912   3.233   2.038   2.527 -2.0544  0.4759 -2.0894
 7485SOL     OW33913   1.874   2.808   5.505 -0.2638 -0.3512 -0.0277
 7485SOL    HW133914   1.843   2.760   5.428 -0.9055 -3.3203  2.0803
 7485SOL    HW233915   1.825   2.762   5.574  1.0103 -2.0936 -0.2847
 7486SOL     OW33916   4.700   3.969   0.388 -0.0957  0.0637 -0.0742
 7486SOL    HW133917   4.666   4.058   0.391  0.0378  0.0867  1.0296
 7486SOL    HW233918   4.717   3.953   0.296  2.4301 -0.3139  0.4580
 7487SOL     OW33919   3.920   3.127   6.422  0.4028  0.2098 -0.1226
 7487SOL    HW133920   3.984   3.149   6.490  1.2658  1.8409 -1.4551
 7487SOL    HW233921   3.943   3.035   6.410 -1.7171 -0.7593  3.2887
 7488SOL     OW33922   3.747   2.652   2.689 -0.7628  0.3309 -0.0782
 7488SOL    HW133923   3.720   2.727   2.741  0.3690  0.2960  0.5591
 7488SOL    HW233924   3.758   2.588   2.759 -0.8251  0.9498  0.4977
 7489SOL     OW33925   1.870   1.809  13.459 -0.1918 -0.0529 -0.3309
 7489SOL    HW133926   1.961   1.821  13.429 -0.7821  0.2514 -2.0450
 7489SOL    HW233927   1.871   1.892  13.507  0.8391 -0.0311 -0.3902
 7490SOL     OW33928   2.416   0.169   3.067  0.4959  0.2118 -0.5294
 7490SOL    HW133929   2.395   0.257   3.098 -1.1819 -0.2316 -0.3655
 7490SOL    HW233930   2.338   0.150   3.015 -1.8097  1.4714  2.4542
 7491SOL     OW33931   3.903   1.935  17.275  0.2082  0.3286  0.2369
 7491SOL    HW133932   3.909   2.030  17.283  1.6433  0.3432 -1.2793
 7491SOL    HW233933   3.878   1.923  17.184 -2.0622 -0.8871  0.9989
 7492SOL     OW33934   0.263   1.341   5.817 -0.0281 -0.3270 -0.6004
 7492SOL    HW133935   0.237   1.259   5.776 -1.0899 -0.4919  0.3974
 7492SOL    HW233936   0.349   1.309   5.845 -0.8296 -2.1640 -0.2301
 7493SOL     OW33937   1.498   2.463  10.023 -0.0805 -0.1275 -0.3315
 7493SOL    HW133938   1.456   2.380  10.048  1.9571 -0.7840  0.9400
 7493SOL    HW233939   1.486   2.457   9.928  0.8898 -0.9214 -0.4020
 7494SOL     OW33940   3.886   3.099   5.288 -0.1011  0.4299  0.0385
 7494SOL    HW133941   3.804   3.138   5.257 -0.1560  0.0220 -0.3260
 7494SOL    HW233942   3.884   3.139   5.375  1.6209 -2.4292  1.4044
 7495SOL     OW33943   3.881   1.986   7.464 -0.5038 -0.1599 -0.2536
 7495SOL    HW133944   3.947   1.985   7.533  0.5422 -0.7607 -1.2787
 7495SOL    HW233945   3.831   2.065   7.483 -0.0878  0.0828 -0.1664
 7496SOL     OW33946   4.480   3.594   9.424 -0.0450  0.3913  1.0033
 7496SOL    HW133947   4.571   3.568   9.439  0.0580 -0.3689 -0.9433
 7496SOL    HW233948   4.435   3.532   9.480 -0.0524 -1.4363 -1.0135
 7497SOL     OW33949   1.123   3.491   5.735 -0.4801  0.4911  0.6234
 7497SOL    HW133950   1.106   3.585   5.733 -1.3372  0.2869 -3.1453
 7497SOL    HW233951   1.050   3.456   5.683  1.0402 -0.9504 -0.5220
 7498SOL     OW33952   3.301   4.669   3.379  0.5261 -0.1285  0.1622
 7498SOL    HW133953   3.363   4.706   3.443 -1.0511  1.3589  0.8309
 7498SOL    HW233954   3.280   4.590   3.429 -0.9335  1.7521  2.5255
 7499SOL     OW33955   2.663   4.457   4.592  0.3647 -0.0469  0.3825
 7499SOL    HW133956   2.584   4.432   4.546 -0.8595  2.5117  1.1082
 7499SOL    HW233957   2.631   4.453   4.682  0.2454  0.6706  0.3706
 7500SOL     OW33958   2.114   3.919   4.749  0.6834 -0.1788  0.4428
 7500SOL    HW133959   2.063   3.842   4.777  0.9760 -1.3732 -2.3085
 7500SOL    HW233960   2.089   3.987   4.812 -0.1679 -1.1000  1.1037
 7501SOL     OW33961   4.289   1.010   2.810 -0.1097  0.2538  0.2347
 7501SOL    HW133962   4.312   1.021   2.717 -0.2809 -0.6706  0.0800
 7501SOL    HW233963   4.363   1.056   2.850 -0.2632 -0.2936  1.1403
 7502SOL     OW33964   0.100   4.454  12.066 -0.2635 -0.4682 -0.1454
 7502SOL    HW133965   0.173   4.498  12.023 -0.6167 -0.1942 -0.4628
 7502SOL    HW233966   0.135   4.373  12.103 -1.3635 -0.5003  0.8091
 7503SOL     OW33967   0.047   2.047  11.619  0.4124 -0.4634 -0.2483
 7503SOL    HW133968   0.057   2.026  11.712 -0.1780  2.5400  0.4828
 7503SOL    HW233969   0.135   2.078  11.597  0.3548 -0.6393 -0.7061
 7504SOL     OW33970   3.871   0.927   8.581  0.0439  0.0378 -0.0409
 7504SOL    HW133971   3.883   0.998   8.518  1.6678 -1.9495 -1.9853
 7504SOL    HW233972   3.949   0.944   8.634 -1.6902  1.0631  2.1766
 7505SOL     OW33973   4.349   4.646  14.055 -0.1015 -0.0847  0.2185
 7505SOL    HW133974   4.269   4.611  14.015 -0.1813  1.0393 -0.5963
 7505SOL    HW233975   4.384   4.705  13.989 -0.3625 -1.3737 -1.0713
 7506SOL     OW33976   1.077   0.070   3.545  0.3223 -0.0729 -0.1268
 7506SOL    HW133977   1.002   0.126   3.524  0.4900 -1.0039 -3.2239
 7506SOL    HW233978   1.036   4.709   3.538 -0.2185  0.0949  1.1564
 7507SOL     OW33979   1.479   1.708   4.451  0.0193 -0.2167  0.0368
 7507SOL    HW133980   1.564   1.745   4.474 -1.7802  2.2987  2.6488
 7507SOL    HW233981   1.427   1.785   4.429  1.1480  0.0915 -1.5397
 7508SOL     OW33982   0.081   2.282  11.255 -0.2037 -0.0370 -1.0653
 7508SOL    HW133983   0.024   2.211  11.224 -0.0957 -0.9556  0.8289
 7508SOL    HW233984   0.066   2.294  11.349 -1.1310 -0.0149 -1.2092
 7509SOL     OW33985   3.818   2.606  13.297 -0.0157  0.1013 -0.2134
 7509SOL    HW133986   3.822   2.668  13.224  1.0911  0.8293  0.4516
 7509SOL    HW233987   3.742   2.551  13.280  1.2029 -0.9370 -2.3408
 7510SOL     OW33988   2.029   0.450   7.361 -0.4341  0.4501  0.0954
 7510SOL    HW133989   2.100   0.513   7.376  0.5574 -0.3724 -1.1026
 7510SOL    HW233990   2.074   0.379   7.408  1.3192 -0.0639 -2.3973
 7511SOL     OW33991   2.108   3.252  15.407 -0.6050 -0.0510  0.4563
 7511SOL    HW133992   2.142   3.176  15.361 -1.1818 -0.5682  0.8802
 7511SOL    HW233993   2.019   3.219  15.424 -0.2645 -1.1275  0.1570
 7512SOL     OW33994   4.349   0.173   8.146 -0.1798  0.0741  0.0850
 7512SOL    HW133995   4.318   0.156   8.057 -2.8729 -2.5145  1.5411
 7512SOL    HW233996   4.425   0.116   8.155 -0.6692 -0.7117 -0.7787
 7513SOL     OW33997   0.538   2.431  12.647  0.4776  0.4605  0.1563
 7513SOL    HW133998   0.608   2.367  12.652  0.7139  0.7297  0.2676
 7513SOL    HW233999   0.463   2.379  12.617  0.9375 -0.9385  1.4639
 7514SOL     OW34000   2.476   3.170   7.600  0.1492 -0.3548  0.4936
 7514SOL    HW134001   2.529   3.094   7.622  1.6408  1.2326  2.3308
 7514SOL    HW234002   2.392   3.137   7.633  0.6715 -1.6259  0.5298
 7515SOL     OW34003   3.181   1.159   9.160 -0.0715  0.0264  0.1960
 7515SOL    HW134004   3.241   1.133   9.090 -0.2529  0.5957 -0.1747
 7515SOL    HW234005   3.192   1.093   9.228  0.8663 -0.8796 -0.8288
 7516SOL     OW34006   3.429   2.258   2.297 -0.0233 -0.1867  0.2770
 7516SOL    HW134007   3.490   2.329   2.277  0.6881 -0.0155  2.9778
 7516SOL    HW234008   3.412   2.270   2.391 -0.3751 -0.6770  0.2755
 7517SOL     OW34009   3.949   1.104   3.424  0.2296  0.8641  0.5059
 7517SOL    HW134010   3.894   1.140   3.355 -0.7370 -0.4130  0.6117
 7517SOL    HW234011   3.975   1.176   3.482 -1.3962  0.0113  2.2994
 7518SOL     OW34012   4.248   2.328   7.955  0.3476  0.1238 -0.5073
 7518SOL    HW134013   4.299   2.408   7.950 -0.1485  0.5495  1.1010
 7518SOL    HW234014   4.272   2.301   8.044  0.5255  2.0645  0.0273
 7519SOL     OW34015   2.380   3.908   6.164  0.3156 -0.0905 -0.2039
 7519SOL    HW134016   2.344   3.996   6.168  0.1437 -0.2912  2.7350
 7519SOL    HW234017   2.389   3.895   6.258  1.1997 -0.5835 -0.3515
 7520SOL     OW34018   0.918   0.282   3.332 -0.1658 -0.0494  0.8690
 7520SOL    HW134019   0.823   0.290   3.342 -0.7872 -1.7106 -3.6738
 7520SOL    HW234020   0.951   0.369   3.352  0.1414  0.1544 -0.5587
 7521SOL     OW34021   1.046   4.694  10.332  0.0474 -0.0237  0.5349
 7521SOL    HW134022   1.062   0.056  10.369 -0.6696 -0.0558  0.9233
 7521SOL    HW234023   1.129   4.650  10.350 -0.1823  0.7111  3.4747
 7522SOL     OW34024   0.428   3.086  10.866  0.0609  0.5589  0.2121
 7522SOL    HW134025   0.514   3.106  10.830 -0.6409  0.7751 -1.4011
 7522SOL    HW234026   0.399   3.019  10.803 -1.4530  1.5687 -0.1939
 7523SOL     OW34027   1.607   2.715  16.935  0.5587  0.4342 -0.6462
 7523SOL    HW134028   1.600   2.718  16.839 -1.1947  0.0384 -0.5435
 7523SOL    HW234029   1.701   2.703  16.946  0.0841 -2.5101  0.1213
 7524SOL     OW34030   4.489   2.000   7.599 -0.1679  0.1722  0.3161
 7524SOL    HW134031   4.426   1.962   7.538  0.4318 -2.8373  1.5976
 7524SOL    HW234032   4.445   2.027   7.680 -2.6346  1.9811 -1.6169
 7525SOL     OW34033   1.936   0.353   6.736  0.4492 -0.2681 -0.0736
 7525SOL    HW134034   1.853   0.309   6.723 -0.0181  0.4331  0.5359
 7525SOL    HW234035   1.939   0.374   6.830 -0.1654 -0.6046  0.0153
 7526SOL     OW34036   1.897   2.623   0.969  0.7743  0.1717 -0.5185
 7526SOL    HW134037   1.961   2.555   0.951  1.4344  1.2265 -2.1662
 7526SOL    HW234038   1.953   2.684   1.017 -0.0619  0.3254  0.2626
 7527SOL     OW34039   1.956   0.808   2.826 -0.2976 -0.0907 -0.1378
 7527SOL    HW134040   2.031   0.856   2.792 -0.3678  1.0538  1.3063
 7527SOL    HW234041   1.932   0.860   2.903  2.1391 -0.9168  1.1881
 7528SOL     OW34042   3.543   4.115  12.578  0.9030  0.0486 -0.0865
 7528SOL    HW134043   3.525   4.150  12.491  2.0668 -2.3491 -1.3016
 7528SOL    HW234044   3.461   4.076  12.608  0.4435  0.3221 -0.9765
 7529SOL     OW34045   4.191   1.906   4.864  0.3491  0.6410 -0.5720
 7529SOL    HW134046   4.242   1.855   4.801  1.6944 -0.7098  1.6458
 7529SOL    HW234047   4.172   1.853   4.941  0.6230 -0.8143 -1.5056
 7530SOL     OW34048   4.670   1.355  12.021 -0.0949  0.7820  0.0348
 7530SOL    HW134049   4.623   1.347  12.104  3.5592 -0.5586  1.9785
 7530SOL    HW234050   4.599   1.366  11.958 -1.9314 -1.9880  1.5920
 7531SOL     OW34051   2.625   4.114   3.982  0.0517 -0.0135 -0.2402
 7531SOL    HW134052   2.719   4.132   3.977 -0.2058  1.1748 -0.7682
 7531SOL    HW234053   2.634   4.083   4.072  2.6938  1.0724 -0.1400
 7532SOL     OW34054   3.619   0.396   6.898 -0.5294  0.2057  0.3063
 7532SOL    HW134055   3.567   0.471   6.927 -1.1844 -0.5053  0.9785
 7532SOL    HW234056   3.553   0.330   6.880 -1.0340  0.9100 -0.4361
 7533SOL     OW34057   3.319   2.420  14.255  0.0159  0.2736 -0.4120
 7533SOL    HW134058   3.305   2.352  14.320  3.6459 -1.4510 -1.4035
 7533SOL    HW234059   3.234   2.463  14.250 -1.0128 -1.9418 -1.7925
 7534SOL     OW34060   0.299   2.752   6.701  0.1210  0.1078  0.3428
 7534SOL    HW134061   0.261   2.839   6.717  0.7367  0.3891  0.2704
 7534SOL    HW234062   0.236   2.719   6.637  1.2328 -2.3632  0.5346
 7535SOL     OW34063   0.757   0.224  10.418  0.4980  0.1799 -0.0256
 7535SOL    HW134064   0.742   0.257  10.330 -1.8748 -2.2931 -0.5346
 7535SOL    HW234065   0.852   0.227  10.418  0.5426 -1.2838  0.2414
 7536SOL     OW34066   4.437   0.913  12.575 -0.3025  0.5050  0.2877
 7536SOL    HW134067   4.367   0.910  12.641  0.5746 -1.5001  1.1363
 7536SOL    HW234068   4.412   0.840  12.517  1.5764  1.0377 -1.1650
 7537SOL     OW34069   2.265   4.294   6.994 -0.6075  0.0990 -0.5087
 7537SOL    HW134070   2.187   4.349   6.983 -1.6012 -1.2126 -0.0588
 7537SOL    HW234071   2.326   4.359   7.030  0.6294 -0.8847 -0.8293
 7538SOL     OW34072   3.619   3.459   7.275 -0.0120  0.1167  0.1744
 7538SOL    HW134073   3.690   3.500   7.225 -0.4090 -0.3097 -0.7356
 7538SOL    HW234074   3.539   3.502   7.246 -0.4075 -1.1736 -0.6514
 7539SOL     OW34075   0.179   4.494   6.221  0.4111 -0.5676  0.0930
 7539SOL    HW134076   0.204   4.403   6.237 -0.1293 -0.8325 -0.5564
 7539SOL    HW234077   0.252   4.539   6.264  2.1372 -1.9831 -1.3661
 7540SOL     OW34078   0.243   4.635  17.516  0.3403  0.4726  0.2847
 7540SOL    HW134079   0.288   4.594  17.442 -0.4566 -1.8855  1.1255
 7540SOL    HW234080   0.204   4.712  17.474 -2.8831 -1.2477  0.1129
 7541SOL     OW34081   1.207   1.366   7.765 -0.0279  0.0296  0.5975
 7541SOL    HW134082   1.284   1.379   7.710  0.0063 -2.1028  0.1678
 7541SOL    HW234083   1.228   1.283   7.806 -1.4696 -0.2161  0.8611
 7542SOL     OW34084   4.302   4.324   7.261  0.5350  0.1553  0.3028
 7542SOL    HW134085   4.220   4.322   7.310  0.0781  1.7116 -0.4004
 7542SOL    HW234086   4.359   4.282   7.325  2.2208  2.2652  0.1903
 7543SOL     OW34087   3.314   4.379   5.735  0.2964  0.1731 -0.1562
 7543SOL    HW134088   3.307   4.307   5.672 -1.9117  1.2788 -1.1710
 7543SOL    HW234089   3.338   4.444   5.669 -0.8329 -0.8866 -1.6188
 7544SOL     OW34090   2.686   4.575  15.848 -0.6503  0.1272 -0.6069
 7544SOL    HW134091   2.649   4.579  15.936 -2.2092 -3.3721 -1.1084
 7544SOL    HW234092   2.659   4.488  15.819 -1.1239  0.6809 -1.7805
 7545SOL     OW34093   4.270   2.648  12.706  0.3531 -0.0817  0.2163
 7545SOL    HW134094   4.202   2.589  12.741 -0.1027 -0.8080 -1.8863
 7545SOL    HW234095   4.340   2.584  12.716  0.7812  0.4810  0.8086
 7546SOL     OW34096   1.874   0.542  11.148  0.1118 -0.3416  0.2822
 7546SOL    HW134097   1.807   0.499  11.094  1.1349 -1.1064 -0.3853
 7546SOL    HW234098   1.935   0.471  11.170  0.9265  0.8034  1.7295
 7547SOL     OW34099   4.644   1.778  11.847 -0.1205 -0.1845 -0.4375
 7547SOL    HW134100   4.712   1.713  11.829  0.2404  0.6719 -2.1647
 7547SOL    HW234101   4.569   1.745  11.798  0.6896 -0.3175 -1.5874
 7548SOL     OW34102   4.404   3.611   7.223 -0.2943  0.1507 -0.9950
 7548SOL    HW134103   4.457   3.664   7.164  0.1583 -0.5028 -1.1820
 7548SOL    HW234104   4.361   3.675   7.279 -0.6173  0.0255 -1.0969
 7549SOL     OW34105   3.035   4.016  16.329  0.0969  0.1044  0.9734
 7549SOL    HW134106   3.034   4.006  16.234  0.4240  0.2051  0.9609
 7549SOL    HW234107   3.086   3.940  16.358 -1.3363 -1.4060 -0.4359
 7550SOL     OW34108   4.052   3.631  12.232 -0.1812  0.7775 -0.2375
 7550SOL    HW134109   4.034   3.542  12.262  1.1650  0.7868  0.5817
 7550SOL    HW234110   3.971   3.676  12.258 -1.9475 -1.6336 -1.4869
 7551SOL     OW34111   2.643   2.070   8.762  0.1997  0.3009 -0.1789
 7551SOL    HW134112   2.615   1.978   8.762  1.1400  0.0113  0.1868
 7551SOL    HW234113   2.632   2.090   8.854 -1.7077  1.5017 -0.6726
 7552SOL     OW34114   2.602   4.217   8.604 -0.5252 -0.0257  0.3204
 7552SOL    HW134115   2.697   4.215   8.602 -0.5068  1.0106  0.1071
 7552SOL    HW234116   2.585   4.153   8.673  0.6091 -1.3844 -0.6886
 7553SOL     OW34117   4.001   3.733   0.561  0.3994  0.2650 -0.4012
 7553SOL    HW134118   4.076   3.791   0.548  0.9061  0.3150  2.7852
 7553SOL    HW234119   4.041   3.649   0.582  1.4637  0.9070  0.1615
 7554SOL     OW34120   0.064   3.145  12.702  0.1432 -0.5205  0.3970
 7554SOL    HW134121   0.065   3.109  12.791  1.3019 -0.0725  0.5683
 7554SOL    HW234122   0.087   3.235  12.723 -0.7341 -0.3214  0.5299
 7555SOL     OW34123   1.686   4.307   4.410  0.1990  0.0030  0.5255
 7555SOL    HW134124   1.696   4.286   4.503 -0.5943 -0.4825  0.4995
 7555SOL    HW234125   1.613   4.368   4.406  0.1101 -0.2197 -1.0136
 7556SOL     OW34126   3.601   2.859   0.440 -0.2625  0.0317  0.5994
 7556SOL    HW134127   3.526   2.834   0.386  0.5517 -0.8527 -0.1091
 7556SOL    HW234128   3.645   2.924   0.385 -0.7589 -0.1848 -0.0537
 7557SOL     OW34129   0.637   3.144   1.264 -0.0203  0.2490 -0.0275
 7557SOL    HW134130   0.654   3.050   1.259 -2.0771 -0.0980 -0.6454
 7557SOL    HW234131   0.724   3.177   1.284  0.1196  0.2182 -0.5887
 7558SOL     OW34132   3.269   1.011   6.724 -0.8241 -0.4137  0.4280
 7558SOL    HW134133   3.187   1.061   6.722  0.1332  1.1007 -0.5979
 7558SOL    HW234134   3.334   1.080   6.734 -1.1215 -0.2561  1.3186
 7559SOL     OW34135   2.822   0.238  16.261  0.1685 -0.1293  0.2449
 7559SOL    HW134136   2.823   0.254  16.355 -1.0916  1.9650 -0.0930
 7559SOL    HW234137   2.736   0.271  16.235 -0.1676 -2.0427 -1.0892
 7560SOL     OW34138   1.760   1.846  14.466  0.2801  0.0560 -0.0737
 7560SOL    HW134139   1.737   1.779  14.401 -0.4964 -1.2744  1.5969
 7560SOL    HW234140   1.833   1.802  14.509 -0.2857 -1.3508 -0.5577
 7561SOL     OW34141   0.544   1.331   4.028  0.6406  0.0618  0.0197
 7561SOL    HW134142   0.558   1.422   4.000  2.6982 -0.4744 -0.7074
 7561SOL    HW234143   0.504   1.301   3.947 -0.2428 -1.9950  1.2380
 7562SOL     OW34144   2.753   0.558   8.513 -0.5026  0.3421  0.1781
 7562SOL    HW134145   2.829   0.615   8.522 -0.8099  0.7090  0.4389
 7562SOL    HW234146   2.683   0.602   8.561 -1.4256 -2.8967  1.7827
 7563SOL     OW34147   1.591   2.636   7.372 -0.5864 -0.0244 -0.4724
 7563SOL    HW134148   1.658   2.690   7.330  2.1536 -1.9598  1.4363
 7563SOL    HW234149   1.515   2.687   7.344 -1.3220 -0.6379  0.4027
 7564SOL     OW34150   4.500   1.988   8.706  0.1399 -0.4301 -0.1408
 7564SOL    HW134151   4.442   1.957   8.636  1.0095 -3.0515  0.2836
 7564SOL    HW234152   4.575   1.941   8.670 -0.1352 -1.5082  0.6805
 7565SOL     OW34153   3.889   2.192  10.762 -0.1802 -0.4809  0.3953
 7565SOL    HW134154   3.901   2.179  10.668  2.1925  0.0207  0.6122
 7565SOL    HW234155   3.972   2.240  10.771  0.0402 -1.0974  1.7394
 7566SOL     OW34156   1.333   0.855   1.022  0.2305  0.0033 -0.3089
 7566SOL    HW134157   1.245   0.873   0.988 -0.4689 -0.2251  1.3763
 7566SOL    HW234158   1.322   0.768   1.061 -0.0106  0.2120  0.0937
 7567SOL     OW34159   2.185   2.258   8.155 -0.2581  0.2867  0.1092
 7567SOL    HW134160   2.258   2.316   8.136 -0.6439  1.6019  2.5670
 7567SOL    HW234161   2.155   2.305   8.234 -0.0373  1.4381 -0.4874
 7568SOL     OW34162   1.633   4.601   7.283  0.3306 -0.3298  0.0043
 7568SOL    HW134163   1.544   4.617   7.250 -0.3286 -1.9765  1.0319
 7568SOL    HW234164   1.670   4.577   7.198  1.8232  0.5818  0.3923
 7569SOL     OW34165   1.345   3.139   2.315 -0.6769 -0.5112  0.3612
 7569SOL    HW134166   1.272   3.082   2.290  0.8975 -2.1759 -0.4598
 7569SOL    HW234167   1.421   3.106   2.267 -0.5608  0.6033 -0.2138
 7570SOL     OW34168   0.447   3.652   5.668  0.5298  0.0369 -0.0354
 7570SOL    HW134169   0.464   3.719   5.734  0.8896 -1.4667  1.4056
 7570SOL    HW234170   0.519   3.673   5.609  0.5467 -0.9301 -0.3539
 7571SOL     OW34171   1.034   1.715   5.141 -0.5334 -0.2762 -0.3003
 7571SOL    HW134172   1.044   1.764   5.060  0.9318 -2.1289 -1.2593
 7571SOL    HW234173   0.977   1.640   5.120 -1.4204  0.2720  0.1687
 7572SOL     OW34174   0.020   3.035   8.584 -0.1134 -0.0310  0.2795
 7572SOL    HW134175   4.720   2.966   8.646  0.6855 -0.8072 -0.2674
 7572SOL    HW234176   0.045   3.104   8.645  0.6132  1.1731 -1.3885
 7573SOL     OW34177   0.019   1.577   2.960  0.8958  0.2826  0.0345
 7573SOL    HW134178   4.679   1.537   2.903 -0.2152 -1.4002  2.5095
 7573SOL    HW234179   0.081   1.618   2.900  1.1028 -0.1360 -0.0375
 7574SOL     OW34180   3.591   1.566  16.010  0.7585 -0.1004 -0.3464
 7574SOL    HW134181   3.636   1.651  16.010 -0.0972  0.3526 -1.8263
 7574SOL    HW234182   3.506   1.586  15.971  0.5298  1.1574  0.7832
 7575SOL     OW34183   1.771   2.809   7.228  0.0846  0.1987 -0.4910
 7575SOL    HW134184   1.692   2.859   7.209  0.7281  1.4172  0.0423
 7575SOL    HW234185   1.833   2.881   7.231 -0.2458  0.4869 -0.4902
 7576SOL     OW34186   0.053   1.535   1.947 -0.0767 -0.3843  0.1078
 7576SOL    HW134187   0.093   1.621   1.962  0.1533 -0.6785  1.1876
 7576SOL    HW234188   0.089   1.499   1.866 -2.0472 -3.4263  0.6110
 7577SOL     OW34189   1.510   3.164   3.684 -0.0124  0.6346 -0.7563
 7577SOL    HW134190   1.447   3.236   3.686 -2.3662 -1.4113 -1.0790
 7577SOL    HW234191   1.499   3.123   3.770 -0.3660 -0.9040 -1.5267
 7578SOL     OW34192   0.379   1.118   2.274 -0.0125 -0.1699  0.0036
 7578SOL    HW134193   0.416   1.052   2.332 -0.7646  1.2342  2.0530
 7578SOL    HW234194   0.420   1.121   2.187 -1.9472  1.4389 -0.8659
 7579SOL     OW34195   3.892   0.854   6.955  0.5840  0.4333  0.9437
 7579SOL    HW134196   3.846   0.849   7.039 -0.6242  1.0140  0.3249
 7579SOL    HW234197   3.823   0.839   6.890  0.7995  2.8848  0.1386
 7580SOL     OW34198   0.479   0.437   4.665  0.5409  0.3930 -0.5399
 7580SOL    HW134199   0.394   0.410   4.632  1.7711 -0.9944 -2.5450
 7580SOL    HW234200   0.456   0.528   4.684 -0.7065 -0.3201  1.3308
 7581SOL     OW34201   3.308   1.102   4.989 -0.8429 -0.1178 -0.1950
 7581SOL    HW134202   3.402   1.113   5.008 -1.0441 -0.8347  1.2602
 7581SOL    HW234203   3.279   1.125   5.078 -2.7897  1.0098 -1.1200
 7582SOL     OW34204   1.740   3.783   2.620 -0.5647 -0.2132 -0.5296
 7582SOL    HW134205   1.681   3.725   2.670 -1.3648  0.5170 -0.6251
 7582SOL    HW234206   1.706   3.761   2.534 -1.3429 -0.9435 -0.0427
 7583SOL     OW34207   1.488   2.203   2.835  0.1248 -0.2056  0.2348
 7583SOL    HW134208   1.451   2.163   2.756 -1.1827  1.4895 -0.0048
 7583SOL    HW234209   1.443   2.170   2.913 -0.4695 -1.2317 -0.5520
 7584SOL     OW34210   0.369   3.924   2.060  0.5831  0.0107 -0.1111
 7584SOL    HW134211   0.308   3.911   2.133  0.8436 -2.9963 -0.4488
 7584SOL    HW234212   0.360   3.845   2.008 -1.0849  0.4554 -0.5171
 7585SOL     OW34213   4.422   1.661  10.362 -0.4508  0.5308  0.1685
 7585SOL    HW134214   4.445   1.606  10.287  0.5527 -1.4114  1.9037
 7585SOL    HW234215   4.362   1.727  10.329  1.4096 -0.4953 -5.3659
 7586SOL     OW34216   0.058   1.786   4.074 -0.2918 -0.2233  0.1064
 7586SOL    HW134217   0.088   1.867   4.034 -0.5530 -0.6538 -0.9513
 7586SOL    HW234218   0.141   1.739   4.076  1.5584  3.0234  0.1050
 7587SOL     OW34219   0.276   1.088   5.110  0.0584 -0.3700  0.3883
 7587SOL    HW134220   0.350   1.033   5.135  1.0241  0.7546 -0.0106
 7587SOL    HW234221   0.304   1.174   5.141  0.6885 -0.6374  0.5582
 7588SOL     OW34222   0.470   3.996  15.834  0.3784  0.2289 -0.4292
 7588SOL    HW134223   0.515   3.986  15.918 -0.4935 -0.0825  0.0023
 7588SOL    HW234224   0.499   4.083  15.806 -2.2636  1.1381 -0.3989
 7589SOL     OW34225   2.282   3.595   7.156 -0.0795 -0.1238 -0.0481
 7589SOL    HW134226   2.374   3.618   7.171  0.3789 -0.5372 -2.1963
 7589SOL    HW234227   2.293   3.507   7.119 -3.4788 -0.5902  0.0844
 7590SOL     OW34228   2.610   0.538   1.320  0.0765 -0.7046 -0.1435
 7590SOL    HW134229   2.557   0.610   1.354  0.3388  0.6225 -2.5372
 7590SOL    HW234230   2.572   0.533   1.232 -1.3089 -1.0712  0.4804
 7591SOL     OW34231   1.900   1.073   4.722 -0.0698  0.3826 -0.0600
 7591SOL    HW134232   1.853   1.154   4.702 -0.5326  0.1899  0.2416
 7591SOL    HW234233   1.928   1.081   4.813 -1.2378  1.7741  0.1719
 7592SOL     OW34234   2.528   0.471   3.397 -0.7087  0.3555 -0.0850
 7592SOL    HW134235   2.599   0.478   3.334  0.6487 -0.3746  1.3735
 7592SOL    HW234236   2.567   0.536   3.455 -1.1666  0.3094  0.2863
 7593SOL     OW34237   2.325   2.013   5.444 -0.2424  0.2724  0.5648
 7593SOL    HW134238   2.407   1.969   5.464 -1.1968 -1.3845  0.9397
 7593SOL    HW234239   2.300   1.984   5.355  3.2359  1.5269 -0.7917
 7594SOL     OW34240   4.721   0.411  16.301 -0.2048  0.2377  0.1015
 7594SOL    HW134241   4.692   0.350  16.233 -3.1890  1.1247  0.5933
 7594SOL    HW234242   4.669   0.491  16.294  1.0782  1.2740  2.5677
 7595SOL     OW34243   1.099   1.584  11.068 -0.3850  0.2218  0.0060
 7595SOL    HW134244   1.049   1.612  11.144 -0.6039 -0.8481  0.2616
 7595SOL    HW234245   1.171   1.646  11.053 -0.7795  0.3622 -1.3315
 7596SOL     OW34246   2.699   1.004   3.076  0.6558 -0.4477  0.1307
 7596SOL    HW134247   2.772   0.946   3.098  0.5701 -0.3389  0.7139
 7596SOL    HW234248   2.752   1.075   3.040  0.9781 -0.9126 -0.3059
 7597SOL     OW34249   1.952   1.606   2.869  0.0870  0.0616 -0.1644
 7597SOL    HW134250   1.966   1.649   2.785 -0.7818  0.7689  0.0571
 7597SOL    HW234251   1.902   1.531   2.837 -0.2976  1.1935 -2.1610
 7598SOL     OW34252   2.832   1.681  10.773  0.3441 -0.3675  0.0352
 7598SOL    HW134253   2.912   1.653  10.729  0.9867  2.1156 -0.3460
 7598SOL    HW234254   2.771   1.609  10.754  0.2140 -0.0398 -0.7869
 7599SOL     OW34255   2.578   2.703  12.122 -0.0605 -0.0052  0.1342
 7599SOL    HW134256   2.526   2.739  12.194 -0.2354 -0.7228  0.3709
 7599SOL    HW234257   2.657   2.757  12.120 -0.9543  1.3216  0.5616
 7600SOL     OW34258   0.662   4.120   7.524  0.4702  0.2941 -0.4202
 7600SOL    HW134259   0.682   4.190   7.462  2.8354 -1.7699 -1.9389
 7600SOL    HW234260   0.738   4.063   7.513  0.7395  0.5653  0.0099
 7601SOL     OW34261   3.737   1.935   6.339  0.1789 -0.6959  0.1629
 7601SOL    HW134262   3.753   1.987   6.417 -0.5164 -1.0620  0.5526
 7601SOL    HW234263   3.687   1.996   6.285 -1.8385 -2.8191 -0.3650
 7602SOL     OW34264   0.784   0.121   7.586 -0.3454 -0.4386  0.0214
 7602SOL    HW134265   0.780   0.197   7.644  1.5066 -1.4766  1.5111
 7602SOL    HW234266   0.845   0.154   7.521  0.3551  0.4037  1.1008
 7603SOL     OW34267   4.599   1.534   3.747  0.5461  0.2498  1.0163
 7603SOL    HW134268   4.596   1.629   3.755 -0.6087  0.5550 -2.6679
 7603SOL    HW234269   4.568   1.511   3.834  0.1763 -1.1676  0.5231
 7604SOL     OW34270   4.674   3.410   5.683  0.7750 -0.8438  0.2184
 7604SOL    HW134271   0.012   3.466   5.727  0.0249  0.5124 -0.4336
 7604SOL    HW234272   0.000   3.373   5.611 -1.1668  0.7978 -2.0092
 7605SOL     OW34273   2.535   2.275   5.340  0.1091  0.2472 -0.3629
 7605SOL    HW134274   2.577   2.196   5.372  0.5112  1.6935  2.6937
 7605SOL    HW234275   2.501   2.257   5.252  1.2958 -2.2809 -0.2911
 7606SOL     OW34276   1.452   0.445   7.635  0.2310 -0.6763 -0.5867
 7606SOL    HW134277   1.453   0.399   7.718  0.4621  0.2108 -0.0961
 7606SOL    HW234278   1.543   0.462   7.612  0.1110 -0.0774 -0.6260
 7607SOL     OW34279   1.131   1.645  13.628 -0.2824  0.0018  0.2226
 7607SOL    HW134280   1.061   1.661  13.691 -0.8834 -0.4414 -0.3387
 7607SOL    HW234281   1.193   1.717  13.637 -1.2664  1.2227 -3.0031
 7608SOL     OW34282   1.481   2.056   4.842 -0.1668  0.6064  0.0017
 7608SOL    HW134283   1.506   2.148   4.848 -0.9559  0.8115  0.0956
 7608SOL    HW234284   1.568   2.018   4.857 -0.6784 -0.1480  1.0886
 7609SOL     OW34285   2.448   3.599   4.417  0.5626  0.4983  0.0456
 7609SOL    HW134286   2.444   3.603   4.513  0.9470 -0.2609  0.0920
 7609SOL    HW234287   2.448   3.691   4.391 -0.3529  1.0058  1.8013
 7610SOL     OW34288   0.743   0.623   4.284  0.2786 -0.1301  0.2804
 7610SOL    HW134289   0.673   0.639   4.348 -0.9532  2.3560 -1.7069
 7610SOL    HW234290   0.781   0.709   4.269  1.8407 -0.8866 -0.0732
 7611SOL     OW34291   2.223   0.310  14.387  0.5140 -1.0130 -0.4447
 7611SOL    HW134292   2.285   0.251  14.343  2.3983 -0.7660  1.9529
 7611SOL    HW234293   2.272   0.332  14.465 -0.0659 -1.1977 -0.0288
 7612SOL     OW34294   0.387   0.970   5.683 -0.4862  0.0827 -0.2626
 7612SOL    HW134295   0.302   1.014   5.672 -1.5283 -2.0685 -0.9164
 7612SOL    HW234296   0.361   0.879   5.691 -0.4320  0.1009  0.0941
 7613SOL     OW34297   2.566   1.111   2.789  0.2139 -0.2483  0.2814
 7613SOL    HW134298   2.513   1.065   2.724 -0.7140  0.3369  0.6202
 7613SOL    HW234299   2.608   1.183   2.741 -0.3772 -0.9875 -1.3422
 7614SOL     OW34300   2.669   3.559   0.875 -0.6204  0.8115 -0.1417
 7614SOL    HW134301   2.641   3.558   0.784 -2.4991 -0.8460  0.4692
 7614SOL    HW234302   2.758   3.523   0.867 -0.5818  1.2374 -1.6500
 7615SOL     OW34303   4.561   2.656   3.783 -0.3189  0.0912 -0.0079
 7615SOL    HW134304   4.620   2.668   3.858  1.2944 -0.8010 -1.1478
 7615SOL    HW234305   4.621   2.617   3.720  0.1482 -1.7495  1.5823
 7616SOL     OW34306   1.005   0.177   5.829 -0.0790  0.0824  0.3732
 7616SOL    HW134307   0.965   0.167   5.915 -4.0043 -0.0041 -1.4115
 7616SOL    HW234308   1.026   0.269   5.844 -0.6197 -0.1688  2.6441
 7617SOL     OW34309   2.839   1.732   4.909  0.1236 -0.0095  0.2097
 7617SOL    HW134310   2.878   1.797   4.967  0.4554 -1.0437  1.1487
 7617SOL    HW234311   2.884   1.661   4.955  0.0549 -0.2724 -0.1311
 7618SOL     OW34312   3.520   1.758   6.366 -0.9261  0.9157 -0.1396
 7618SOL    HW134313   3.599   1.801   6.334 -1.1034  2.1185  1.0064
 7618SOL    HW234314   3.472   1.837   6.391 -0.3075  1.1442  0.3527
 7619SOL     OW34315   3.831   0.764  12.406 -0.5482 -0.2167 -0.1359
 7619SOL    HW134316   3.850   0.811  12.487 -1.5657  0.6576 -0.4012
 7619SOL    HW234317   3.757   0.815  12.374 -0.0252  1.8406  1.9837
 7620SOL     OW34318   2.259   3.876   7.231  0.3743 -0.5390  0.1405
 7620SOL    HW134319   2.187   3.884   7.294  1.0693  1.2495  0.7261
 7620SOL    HW234320   2.248   3.791   7.189 -0.2911 -1.0380  1.3142
 7621SOL     OW34321   0.405   1.174   3.058  0.4880  0.1655  0.2045
 7621SOL    HW134322   0.449   1.091   3.037 -0.6771 -0.2286 -0.6651
 7621SOL    HW234323   0.344   1.178   2.985  0.1838 -0.6330  0.4126
 7622SOL     OW34324   3.657   4.692   2.368  0.3092  0.2645  0.3693
 7622SOL    HW134325   3.672   4.688   2.462  0.8013 -0.4834  0.2600
 7622SOL    HW234326   3.573   4.653   2.344  0.9486 -1.4143  0.9083
 7623SOL     OW34327   4.535   2.350  14.532 -0.2382  0.1126  0.3460
 7623SOL    HW134328   4.606   2.413  14.520  0.2957 -0.2481  1.6079
 7623SOL    HW234329   4.463   2.412  14.548  0.5012  0.8122  0.9216
 7624SOL     OW34330   4.664   3.646  12.746 -0.3209 -0.4794 -0.2053
 7624SOL    HW134331   4.634   3.730  12.781 -2.8898 -0.1942 -2.9951
 7624SOL    HW234332   4.588   3.591  12.727  0.2281 -1.6039  0.8859
 7625SOL     OW34333   2.570   1.508  15.225  0.3326  0.2457 -0.9554
 7625SOL    HW134334   2.577   1.550  15.139 -1.1822  0.0800 -1.1644
 7625SOL    HW234335   2.520   1.428  15.211  2.2422 -0.8535 -1.5420
 7626SOL     OW34336   1.260   3.806   9.382  0.9454 -0.6445  0.5641
 7626SOL    HW134337   1.217   3.722   9.368  1.1529 -0.5772 -0.4554
 7626SOL    HW234338   1.269   3.832   9.291 -1.0158  0.2737  0.6437
 7627SOL     OW34339   1.297   2.533  11.322  0.5806  0.1346  0.0277
 7627SOL    HW134340   1.227   2.581  11.276  0.1180 -0.5470  0.0220
 7627SOL    HW234341   1.274   2.547  11.414  0.4793  0.6646 -0.0796
 7628SOL     OW34342   4.148   4.546  12.937 -0.0813 -0.1924  0.7958
 7628SOL    HW134343   4.100   4.544  12.854  1.0728 -2.3952  0.1890
 7628SOL    HW234344   4.082   4.573  13.002  0.3439 -0.0742  1.1769
 7629SOL     OW34345   4.339   2.673   1.371 -0.7830  0.1220 -0.2265
 7629SOL    HW134346   4.329   2.768   1.377  3.3262  0.6176 -1.3516
 7629SOL    HW234347   4.363   2.671   1.278  2.6778  3.1313  0.6015
 7630SOL     OW34348   4.283   2.420   5.835  0.3554  0.8555  0.5748
 7630SOL    HW134349   4.333   2.446   5.911  0.0342  0.9449  0.7552
 7630SOL    HW234350   4.214   2.483   5.818 -1.4242 -1.3667 -0.4956
 7631SOL     OW34351   2.311   3.199   6.122 -0.1909  0.5026  0.3665
 7631SOL    HW134352   2.319   3.126   6.060 -1.4804 -0.7769  1.7214
 7631SOL    HW234353   2.374   3.176   6.190  1.5180 -2.4080 -2.1769
 7632SOL     OW34354   2.767   3.079   2.321 -0.3275 -0.1256  0.1174
 7632SOL    HW134355   2.736   3.169   2.315  0.8655  0.2897  0.2590
 7632SOL    HW234356   2.859   3.087   2.345 -0.6277  0.8417  0.9463
 7633SOL     OW34357   1.617   3.365   2.086  0.1249  0.0584 -0.0508
 7633SOL    HW134358   1.683   3.297   2.097  1.8872  1.7620 -0.2450
 7633SOL    HW234359   1.578   3.342   2.001  1.5278 -0.9023 -0.4272
 7634SOL     OW34360   0.281   2.375   6.722  0.3000 -0.0720  0.4636
 7634SOL    HW134361   0.317   2.425   6.649 -0.9361  1.9183  1.2136
 7634SOL    HW234362   0.243   2.296   6.684 -1.0798 -0.0070  1.6854
 7635SOL     OW34363   3.241   0.975   5.724 -0.1265  0.7143  0.1848
 7635SOL    HW134364   3.227   0.953   5.816 -1.7187  3.2630  0.5699
 7635SOL    HW234365   3.153   0.949   5.695 -0.2064 -1.6794  2.5440
 7636SOL     OW34366   3.345   0.851  16.928  0.2214 -0.1634  0.1175
 7636SOL    HW134367   3.380   0.932  16.964  0.7486 -0.5437  0.4508
 7636SOL    HW234368   3.406   0.840  16.855  0.1264 -0.8434  0.1385
 7637SOL     OW34369   1.948   3.909   7.998  0.3420 -0.1765 -0.7464
 7637SOL    HW134370   1.933   4.004   8.005  1.7374  0.0045 -0.1505
 7637SOL    HW234371   2.038   3.926   7.969  0.0708 -1.9768 -2.6386
 7638SOL     OW34372   0.574   1.918   3.222 -0.1497 -0.1142 -0.0522
 7638SOL    HW134373   0.538   1.849   3.279 -0.8960  0.7654  0.5476
 7638SOL    HW234374   0.607   1.976   3.291  0.6088 -0.8324  0.1890
 7639SOL     OW34375   0.400   2.631   2.534 -0.2341 -0.2969 -0.2864
 7639SOL    HW134376   0.493   2.652   2.535  0.0434 -1.6800  1.6698
 7639SOL    HW234377   0.361   2.693   2.596  0.4162 -1.6922  1.5177
 7640SOL     OW34378   2.907   4.106   5.319 -0.0706 -0.2027 -0.5759
 7640SOL    HW134379   2.858   4.128   5.398 -0.2289  1.4336 -1.1267
 7640SOL    HW234380   2.862   4.023   5.303 -1.0075 -0.1926  2.0104
 7641SOL     OW34381   2.955   2.643   1.170  0.4620  0.3677 -0.1740
 7641SOL    HW134382   3.000   2.688   1.098  0.4763 -0.4354 -0.6684
 7641SOL    HW234383   3.032   2.624   1.223  1.0421 -0.5209 -1.3252
 7642SOL     OW34384   4.503   0.447  13.724 -0.1075 -0.5282 -1.1793
 7642SOL    HW134385   4.556   0.525  13.708  0.6035 -0.8610 -0.4341
 7642SOL    HW234386   4.428   0.455  13.665 -0.8607  0.0925 -0.1560
 7643SOL     OW34387   4.117   1.702  13.191 -0.0168  0.1738 -0.2314
 7643SOL    HW134388   4.145   1.750  13.268  2.4515  0.2518 -1.1956
 7643SOL    HW234389   4.199   1.688  13.143  0.9712  1.4953  1.0942
 7644SOL     OW34390   3.159   4.224   2.443  0.0950 -0.6051  0.0716
 7644SOL    HW134391   3.144   4.194   2.533  0.8279 -0.3039  0.2885
 7644SOL    HW234392   3.247   4.187   2.438 -0.5774 -1.7441 -3.5521
 7645SOL     OW34393   0.117   4.164   5.165 -0.5657  0.3706 -0.2692
 7645SOL    HW134394   0.079   4.205   5.243 -0.0005  1.1185 -0.3799
 7645SOL    HW234395   0.121   4.245   5.114 -1.0285  0.4423 -0.1931
 7646SOL     OW34396   3.801   4.452  13.188  0.0126 -0.3665  0.2665
 7646SOL    HW134397   3.885   4.424  13.223  0.8696  1.2510 -0.4929
 7646SOL    HW234398   3.785   4.527  13.246  3.5048  1.6712 -1.4246
 7647SOL     OW34399   0.248   3.808  15.131  0.2602 -0.0128  0.0086
 7647SOL    HW134400   0.217   3.785  15.043 -0.9106 -0.3882  0.5191
 7647SOL    HW234401   0.305   3.879  15.101  2.1135 -1.2909  0.4947
 7648SOL     OW34402   3.724   1.924   7.833  0.3131 -0.2063  0.4209
 7648SOL    HW134403   3.703   1.918   7.926 -0.0932 -2.4194  0.1989
 7648SOL    HW234404   3.786   1.997   7.833 -0.7726  0.7205  1.9657
 7649SOL     OW34405   2.966   2.732   6.576  0.8444 -0.1756  0.0292
 7649SOL    HW134406   2.998   2.644   6.596 -1.3277 -1.3565 -1.8251
 7649SOL    HW234407   2.952   2.764   6.665 -2.4583  0.7993 -0.8705
 7650SOL     OW34408   3.305   1.211  15.861  0.7222  0.1531  0.4108
 7650SOL    HW134409   3.391   1.220  15.821  0.2606  2.1428 -0.1233
 7650SOL    HW234410   3.319   1.236  15.952  1.7859  0.7290  0.0892
 7651SOL     OW34411   3.688   0.032   1.884  0.5691  0.0962  0.1246
 7651SOL    HW134412   3.596   0.026   1.913  0.3737 -2.8462 -1.1940
 7651SOL    HW234413   3.687   0.059   1.793 -0.5184 -1.7649 -0.4155
 7652SOL     OW34414   4.482   2.724   2.283  0.1378 -0.1412 -0.4682
 7652SOL    HW134415   4.394   2.688   2.288 -0.1811  0.6429 -0.5274
 7652SOL    HW234416   4.509   2.668   2.210 -1.2564 -0.1126 -0.9927
 7653SOL     OW34417   2.004   0.020  12.370 -0.4095  0.0409  0.2243
 7653SOL    HW134418   1.914   4.724  12.345  0.1408  2.2027 -3.6193
 7653SOL    HW234419   2.035   4.659  12.341 -0.5938  0.7973 -2.2512
 7654SOL     OW34420   0.439   4.569   7.502 -0.0076  0.5480  0.7870
 7654SOL    HW134421   0.387   4.569   7.422  0.9521 -1.9934  0.1478
 7654SOL    HW234422   0.381   4.531   7.568 -0.6494 -0.3637 -0.2881
 7655SOL     OW34423   2.310   4.461   6.308  0.2941  0.1518 -0.1309
 7655SOL    HW134424   2.216   4.453   6.293  0.1826  0.1237  0.5498
 7655SOL    HW234425   2.351   4.454   6.222  1.8774  2.5181  0.4111
 7656SOL     OW34426   1.313   2.650   7.663  0.0104 -0.4761  0.3365
 7656SOL    HW134427   1.246   2.711   7.693 -0.6071 -2.0640  2.1734
 7656SOL    HW234428   1.402   2.681   7.681  0.4035 -0.4272 -1.6430
 7657SOL     OW34429   0.900   3.349   6.512  0.6518 -0.7772 -0.4370
 7657SOL    HW134430   0.976   3.330   6.568 -0.6711 -0.1791  1.5636
 7657SOL    HW234431   0.897   3.273   6.454 -0.2599  1.1684 -2.9152
 7658SOL     OW34432   2.253   2.126  14.846  0.1389  0.1413  0.2132
 7658SOL    HW134433   2.286   2.102  14.933  2.5486 -1.1804 -1.0871
 7658SOL    HW234434   2.291   2.057  14.792 -0.9178  1.7724 -2.6045
 7659SOL     OW34435   0.189   0.727   2.113  0.4347  0.2392 -0.2405
 7659SOL    HW134436   0.216   0.763   2.029  2.4955  0.6731  0.6188
 7659SOL    HW234437   0.155   0.639   2.094 -0.7876  0.5844  0.3261
 7660SOL     OW34438   1.389   2.875  16.082 -0.5469 -0.1953 -0.0347
 7660SOL    HW134439   1.392   2.802  16.020 -1.7184 -1.3754  1.2919
 7660SOL    HW234440   1.360   2.947  16.027 -0.5669  0.1389  0.4171
 7661SOL     OW34441   4.569   3.327   7.652  0.4135  0.1262  0.0534
 7661SOL    HW134442   4.574   3.273   7.730 -2.1438 -0.6059 -0.2830
 7661SOL    HW234443   4.502   3.388   7.682 -0.4100  0.2054 -1.9076
 7662SOL     OW34444   2.141   3.468   2.634 -0.0953 -0.1469  0.1218
 7662SOL    HW134445   2.187   3.489   2.552 -1.4393  0.6594 -0.4267
 7662SOL    HW234446   2.059   3.514   2.616 -1.0833 -1.6940  0.7419
 7663SOL     OW34447   1.368   3.938   9.576 -0.2462 -0.4528  0.3381
 7663SOL    HW134448   1.315   3.880   9.520 -0.2432 -0.5892  0.4773
 7663SOL    HW234449   1.295   3.966   9.630 -1.6716 -1.9383 -0.8248
 7664SOL     OW34450   2.527   3.483   7.903  0.4492 -0.9087 -0.1732
 7664SOL    HW134451   2.561   3.406   7.949 -1.4080 -0.9757  1.1030
 7664SOL    HW234452   2.545   3.447   7.817 -1.2785 -0.0636 -0.8871
 7665SOL     OW34453   1.029   0.642   2.955 -0.1265  0.5138  0.4523
 7665SOL    HW134454   0.976   0.639   3.035  0.1534  2.6189  0.7209
 7665SOL    HW234455   0.968   0.604   2.891  0.3310  0.8458 -0.1706
 7666SOL     OW34456   0.747   1.941  13.028  0.1304 -0.7071 -0.0424
 7666SOL    HW134457   0.744   2.036  13.040 -0.3210 -0.5595 -1.2806
 7666SOL    HW234458   0.663   1.931  12.982  1.1829  0.6171 -2.2815
 7667SOL     OW34459   1.645   3.419   7.038 -0.0543  0.4194  0.1188
 7667SOL    HW134460   1.580   3.359   7.001  1.1939  0.4242 -2.0808
 7667SOL    HW234461   1.634   3.419   7.133 -0.4503  0.7196  0.0712
 7668SOL     OW34462   0.187   1.230   2.533 -0.0202  0.4632  0.1456
 7668SOL    HW134463   0.118   1.165   2.549  0.6599  0.0374  1.3307
 7668SOL    HW234464   0.146   1.315   2.518 -0.4971  0.0299 -1.0839
 7669SOL     OW34465   0.947   0.292  15.201  0.7599 -0.0267  0.6982
 7669SOL    HW134466   0.855   0.268  15.217  0.3402  1.5242  0.5814
 7669SOL    HW234467   0.960   0.270  15.109  0.1898  0.5993  0.4690
 7670SOL     OW34468   3.859   4.083  15.908 -0.1560 -0.0035  0.1421
 7670SOL    HW134469   3.817   4.110  15.826 -0.0953  0.6954  0.3427
 7670SOL    HW234470   3.898   4.166  15.936  0.4320 -0.9311  2.0633
 7671SOL     OW34471   1.675   1.994   8.413 -0.0747  0.1390  0.2079
 7671SOL    HW134472   1.689   1.916   8.466 -0.2059 -0.9646 -1.3690
 7671SOL    HW234473   1.590   1.969   8.377 -0.3593 -0.8855  1.6124
 7672SOL     OW34474   4.145   1.954   3.283  0.4759 -0.1881  0.1171
 7672SOL    HW134475   4.190   2.007   3.217  1.7761 -1.2376  0.1629
 7672SOL    HW234476   4.202   1.976   3.357 -1.4177  0.4262  1.4008
 7673SOL     OW34477   3.727   1.435   7.274  0.2375  0.6706  0.5230
 7673SOL    HW134478   3.658   1.423   7.209  2.1101  0.4039 -1.3998
 7673SOL    HW234479   3.680   1.408   7.353  0.1771 -0.3623  0.1306
 7674SOL     OW34480   2.656   3.167   3.309 -0.1168 -0.1772 -0.3397
 7674SOL    HW134481   2.631   3.111   3.235 -3.1208 -1.3898  1.6149
 7674SOL    HW234482   2.570   3.208   3.318 -0.3618 -0.1879 -2.6387
 7675SOL     OW34483   0.937   0.698   1.822  0.3149  0.0287  0.5893
 7675SOL    HW134484   1.013   0.756   1.818 -0.2904  1.0019  3.3193
 7675SOL    HW234485   0.981   0.615   1.800  2.0891  1.2356 -0.3985
 7676SOL     OW34486   4.162   2.522   4.276 -0.3726 -0.6607  0.0414
 7676SOL    HW134487   4.240   2.531   4.331  0.1942  0.5944 -0.9800
 7676SOL    HW234488   4.100   2.511   4.348 -0.1251  0.0720  0.3605
 7677SOL     OW34489   3.704   4.097   5.031  0.3924 -0.5091  0.7415
 7677SOL    HW134490   3.681   4.179   5.076  0.2425  0.1025 -0.4650
 7677SOL    HW234491   3.706   4.030   5.099  0.7704 -1.7169 -0.4788
 7678SOL     OW34492   2.477   1.193   1.084 -0.1001 -0.4133  0.7394
 7678SOL    HW134493   2.534   1.240   1.024  0.3146 -2.0290 -0.1086
 7678SOL    HW234494   2.389   1.199   1.047 -0.3102 -0.0327  1.2885
 7679SOL     OW34495   1.851   1.631   4.123  0.0401 -0.5209  0.0044
 7679SOL    HW134496   1.883   1.572   4.191  1.9231  0.8665  0.3106
 7679SOL    HW234497   1.856   1.718   4.162 -1.2529 -1.1907  1.6322
 7680SOL     OW34498   1.025   2.156  14.831  0.2690  0.4626 -0.0320
 7680SOL    HW134499   0.993   2.233  14.785 -1.0952 -0.2533 -0.2871
 7680SOL    HW234500   0.963   2.086  14.809 -0.4683  0.8342  0.8836
 7681SOL     OW34501   3.159   0.035  17.164 -0.2023 -0.3219  0.2549
 7681SOL    HW134502   3.118   4.684  17.123  0.0201 -0.1051 -0.3784
 7681SOL    HW234503   3.244   0.037  17.120 -0.9980 -0.9640 -1.2844
 7682SOL     OW34504   0.396   1.347   4.245 -0.3315 -0.4068  0.5632
 7682SOL    HW134505   0.461   1.358   4.314 -3.0253  3.4607  2.5033
 7682SOL    HW234506   0.443   1.314   4.169 -0.0845  2.3556 -0.5123
 7683SOL     OW34507   4.682   4.618   3.235  0.3053  0.0646  0.1136
 7683SOL    HW134508   0.040   4.656   3.207 -0.7322  2.9611  0.9068
 7683SOL    HW234509   4.628   4.698   3.237  0.5734  0.2468  0.0908
 7684SOL     OW34510   2.552   3.843   2.956  0.2095 -1.2539  0.4221
 7684SOL    HW134511   2.636   3.802   2.935 -0.1274 -1.2686 -0.9420
 7684SOL    HW234512   2.499   3.852   2.877 -1.5312 -1.4506  1.5676
 7685SOL     OW34513   2.404   2.795   3.772 -0.4313  0.0511 -0.1210
 7685SOL    HW134514   2.341   2.815   3.703 -0.5236  0.9164  0.2181
 7685SOL    HW234515   2.437   2.711   3.741 -1.2603  0.4681 -2.1250
 7686SOL     OW34516   2.996   1.888   0.198 -0.1260  0.1286  0.1164
 7686SOL    HW134517   3.013   1.856   0.109 -1.7733 -3.6734  1.1587
 7686SOL    HW234518   3.066   1.852   0.252 -1.3738 -1.3912  0.7257
 7687SOL     OW34519   4.392   2.863  10.145  0.0605  0.0929 -0.0611
 7687SOL    HW134520   4.433   2.916  10.077 -0.3398  1.4997  0.8127
 7687SOL    HW234521   4.322   2.824  10.091 -0.4205  1.8229 -0.7069
 7688SOL     OW34522   0.218   1.172  12.490 -0.0054  0.2411  0.2473
 7688SOL    HW134523   0.263   1.214  12.564  1.9306 -0.6856 -0.4014
 7688SOL    HW234524   0.242   1.224  12.413 -1.2557 -1.0073 -0.9648
 7689SOL     OW34525   1.929   3.815   3.111 -0.0523  0.6777  0.2261
 7689SOL    HW134526   1.885   3.837   3.029  0.0913 -0.6040 -0.2006
 7689SOL    HW234527   1.918   3.898   3.157 -0.4624  0.1241  1.1416
 7690SOL     OW34528   0.857   2.853   6.176  0.4892 -0.8192 -0.0741
 7690SOL    HW134529   0.930   2.821   6.123  2.2144 -2.1401  3.1109
 7690SOL    HW234530   0.835   2.768   6.215  2.0332 -1.0579  0.2903
 7691SOL     OW34531   0.067   4.085   3.112  0.0508  0.4315 -0.1119
 7691SOL    HW134532   0.159   4.104   3.098  0.0198 -0.0877 -1.0211
 7691SOL    HW234533   0.048   4.063   3.020  1.4179  1.7212 -0.6960
 7692SOL     OW34534   3.449   4.528  15.267  0.3022  0.1227 -0.2143
 7692SOL    HW134535   3.517   4.517  15.333 -0.3268 -1.0194  0.2423
 7692SOL    HW234536   3.477   4.481  15.188  1.8067  0.5545  0.0675
 7693SOL     OW34537   3.521   4.282  16.007  0.0613  0.1253 -0.1142
 7693SOL    HW134538   3.481   4.331  15.935 -0.3063  2.0096  1.3672
 7693SOL    HW234539   3.585   4.231  15.958 -2.2435 -1.7746 -1.1042
 7694SOL     OW34540   4.553   0.965   5.369 -0.1765 -0.6203 -0.3831
 7694SOL    HW134541   4.587   0.969   5.280 -0.0897 -0.9411 -0.3651
 7694SOL    HW234542   4.616   1.019   5.418 -1.7134 -1.1368  2.1633
 7695SOL     OW34543   3.705   3.315   4.493  0.1159  0.2969 -0.5592
 7695SOL    HW134544   3.799   3.335   4.485  0.3532 -1.3669 -1.9420
 7695SOL    HW234545   3.704   3.258   4.417  0.0595  0.1351 -0.4370
 7696SOL     OW34546   1.235   4.062   0.977  0.3772 -0.1379  0.2115
 7696SOL    HW134547   1.243   4.130   0.911 -1.4428 -0.4335 -0.3038
 7696SOL    HW234548   1.287   4.102   1.046  0.4010  1.1770 -0.5680
 7697SOL     OW34549   0.636   1.825   7.270 -1.0455  0.6029 -0.4066
 7697SOL    HW134550   0.621   1.789   7.183  0.9159  2.0132 -1.3264
 7697SOL    HW234551   0.552   1.868   7.283  0.3609  3.5173 -0.9076
 7698SOL     OW34552   2.901   1.366   0.605  0.2585  0.1543 -0.4490
 7698SOL    HW134553   2.851   1.407   0.676  0.1573  1.1246 -1.0969
 7698SOL    HW234554   2.923   1.443   0.553  0.2456  1.0754  0.9057
 7699SOL     OW34555   2.340   1.255   6.081  0.1223  0.4686 -0.2228
 7699SOL    HW134556   2.278   1.268   6.009 -0.1837  2.2231  0.3698
 7699SOL    HW234557   2.401   1.326   6.062  0.1408  1.1355  2.3511
 7700SOL     OW34558   1.878   0.668   9.008 -0.0994  0.2740  0.0685
 7700SOL    HW134559   1.798   0.658   9.060 -0.5506 -0.1491 -0.7104
 7700SOL    HW234560   1.858   0.607   8.937 -0.6512  0.8604 -0.2821
 7701SOL     OW34561   0.595   1.674   7.030 -0.3609  0.1246  0.2885
 7701SOL    HW134562   0.628   1.600   7.081  0.2708  0.0839 -0.1632
 7701SOL    HW234563   0.514   1.643   6.991 -0.4384  1.5014 -0.6429
 7702SOL     OW34564   2.394   3.067   6.735  0.1303 -0.3789 -0.0450
 7702SOL    HW134565   2.414   3.093   6.646 -0.1978 -1.8442 -0.5478
 7702SOL    HW234566   2.362   2.979   6.716 -3.0578  1.0869 -1.4423
 7703SOL     OW34567   4.205   2.949   4.175 -0.2074  0.4109 -0.3441
 7703SOL    HW134568   4.189   2.922   4.085  1.0289 -0.5757 -0.2638
 7703SOL    HW234569   4.267   3.022   4.166 -0.4034  0.7688  1.1498
 7704SOL     OW34570   3.246   2.844   9.885 -0.2249  0.0655 -0.1454
 7704SOL    HW134571   3.193   2.794   9.946  1.3936  1.2585  2.2503
 7704SOL    HW234572   3.175   2.900   9.854 -0.6220  0.0126  0.7008
 7705SOL     OW34573   2.388   0.650   8.582 -0.5522 -0.1235 -0.1060
 7705SOL    HW134574   2.335   0.606   8.649 -0.4281 -0.6306 -0.3447
 7705SOL    HW234575   2.461   0.673   8.638 -1.4761  1.1048  0.6072
 7706SOL     OW34576   0.916   1.302  17.558 -0.5020 -0.1476  0.2851
 7706SOL    HW134577   0.846   1.238  17.569 -0.0640 -0.5204  0.9032
 7706SOL    HW234578   0.964   1.304  17.641  1.7580 -0.7913 -1.0149
 7707SOL     OW34579   3.285   4.570  14.027  0.3903 -0.4469 -0.1431
 7707SOL    HW134580   3.251   4.500  13.971  1.4218 -0.5140 -0.6754
 7707SOL    HW234581   3.200   4.613  14.027  1.3683  1.4267  1.6261
 7708SOL     OW34582   2.647   3.492   7.149 -0.0937 -0.4424 -0.8060
 7708SOL    HW134583   2.629   3.570   7.202 -0.3776 -0.5325 -0.7704
 7708SOL    HW234584   2.575   3.486   7.086 -0.5867  0.8651 -0.3642
 7709SOL     OW34585   3.915   2.725   4.262  0.2952 -0.1275  0.8093
 7709SOL    HW134586   3.944   2.672   4.336  1.4549 -0.7032 -0.0607
 7709SOL    HW234587   3.888   2.799   4.317 -0.5505 -1.1809  1.8320
 7710SOL     OW34588   2.586   3.563  15.404 -0.1694  0.4002 -0.6832
 7710SOL    HW134589   2.537   3.483  15.425 -1.1968  1.2807  0.2507
 7710SOL    HW234590   2.515   3.621  15.429  0.1968  0.2156  0.7777
 7711SOL     OW34591   4.399   0.114   6.680 -0.3374 -0.7420 -0.0504
 7711SOL    HW134592   4.490   0.129   6.707  0.3117  0.7535 -3.0703
 7711SOL    HW234593   4.348   0.193   6.699  0.7040  0.2522 -1.3470
 7712SOL     OW34594   1.030   1.316   8.092  0.1870  0.0498  0.4708
 7712SOL    HW134595   1.007   1.277   8.177 -1.5899  0.4735  0.1948
 7712SOL    HW234596   1.109   1.368   8.107  1.9149 -2.1407 -1.1063
 7713SOL     OW34597   0.733   0.883  11.477  0.3745  0.7192 -0.2791
 7713SOL    HW134598   0.771   0.930  11.551 -2.2428  0.3085  1.3096
 7713SOL    HW234599   0.764   0.932  11.400 -3.4884  1.9710 -1.0499
 7714SOL     OW34600   3.744   0.024  14.187  0.0931  0.6831  0.0192
 7714SOL    HW134601   3.833   0.058  14.196  0.6035  0.4119 -3.9819
 7714SOL    HW234602   3.707   0.063  14.266  2.0034 -0.4712  1.4802
 7715SOL     OW34603   0.477   1.527  10.312  0.6268  0.8762  0.2319
 7715SOL    HW134604   0.520   1.567  10.388 -0.9867  0.9476  1.1200
 7715SOL    HW234605   0.515   1.440  10.303  0.4987  0.6025  2.1727
 7716SOL     OW34606   0.858   0.163   8.162  0.4605 -0.3351 -0.2968
 7716SOL    HW134607   0.882   0.080   8.123  0.0009 -0.4617 -0.3076
 7716SOL    HW234608   0.942   0.191   8.200  0.6151 -1.5049  0.2068
 7717SOL     OW34609   4.651   4.261   6.652 -0.5531 -0.0922 -0.2272
 7717SOL    HW134610   4.657   4.257   6.747  1.1834  0.5028 -0.3236
 7717SOL    HW234611   4.585   4.194   6.632 -0.0767 -0.5457 -0.2653
 7718SOL     OW34612   1.731   1.059   3.886  0.0474 -0.2288  0.2729
 7718SOL    HW134613   1.792   1.003   3.934  0.2062 -0.3923 -0.1137
 7718SOL    HW234614   1.798   1.125   3.864 -2.3349  2.2894  0.6282
 7719SOL     OW34615   2.361   0.349   7.411 -0.0456  0.2769  0.0169
 7719SOL    HW134616   2.455   0.363   7.405  0.3679 -3.4771 -2.3408
 7719SOL    HW234617   2.369   0.281   7.477 -2.2063  2.4903  2.5443
 7720SOL     OW34618   4.251   1.877   2.522 -0.7899 -0.2060  0.2612
 7720SOL    HW134619   4.234   1.866   2.428  0.7145 -1.1737  0.0940
 7720SOL    HW234620   4.318   1.813   2.544 -0.6204 -0.3100 -0.5334
 7721SOL     OW34621   1.538   3.253   9.261 -0.4931  0.1806 -0.1622
 7721SOL    HW134622   1.612   3.313   9.271  0.9628 -0.8883 -4.7058
 7721SOL    HW234623   1.471   3.305   9.305 -1.9989 -1.3402 -0.6374
 7722SOL     OW34624   3.798   4.585   2.620  0.0916 -0.3697  0.3994
 7722SOL    HW134625   3.885   4.610   2.652  0.1663  0.7867 -0.7264
 7722SOL    HW234626   3.744   4.560   2.695 -0.1965 -2.2912 -0.4667
 7723SOL     OW34627   4.002   1.335   3.927  0.4027 -0.5102  0.4000
 7723SOL    HW134628   3.912   1.311   3.907  0.9063 -1.0683 -1.2048
 7723SOL    HW234629   4.027   1.254   3.971  0.2434 -0.4562  0.5918
 7724SOL     OW34630   3.903   0.834   3.040  0.5411 -0.0695 -0.3892
 7724SOL    HW134631   3.873   0.806   2.953 -1.3782  2.0543 -0.4058
 7724SOL    HW234632   3.977   0.773   3.046  0.8229  0.2888 -0.2253
 7725SOL     OW34633   2.341   0.913   3.665  0.2728 -0.7736  0.2139
 7725SOL    HW134634   2.295   0.848   3.612 -0.3440  0.2739 -0.5419
 7725SOL    HW234635   2.397   0.958   3.602 -1.6459  0.5378 -0.5457
 7726SOL     OW34636   2.256   1.889  13.894 -0.1000 -0.3686  0.5967
 7726SOL    HW134637   2.169   1.867  13.926 -0.7361 -0.7788 -1.4262
 7726SOL    HW234638   2.284   1.950  13.963  1.2760 -1.7964  1.3153
 7727SOL     OW34639   1.882   1.376   8.549 -0.1160 -0.7653 -0.0034
 7727SOL    HW134640   1.844   1.360   8.635  2.3000  1.2451  1.4045
 7727SOL    HW234641   1.946   1.306   8.543  0.4641 -0.1182 -1.3672
 7728SOL     OW34642   1.840   2.002   4.823 -0.6702  0.2095  0.1120
 7728SOL    HW134643   1.843   1.977   4.915 -3.9352  1.9843  0.6637
 7728SOL    HW234644   1.898   2.077   4.813 -2.5186  1.4187 -1.4616
 7729SOL     OW34645   0.054   0.132  14.963 -0.5246 -0.3589  0.1377
 7729SOL    HW134646   4.722   0.106  14.891  0.5252 -2.3792  0.0532
 7729SOL    HW234647   0.124   0.071  14.985 -0.3819  0.3285  1.6000
 7730SOL     OW34648   4.122   1.610   5.667  0.2131 -0.1037 -0.0431
 7730SOL    HW134649   4.135   1.588   5.574 -1.3566 -0.8294 -0.0848
 7730SOL    HW234650   4.183   1.684   5.671  1.4864 -1.1892  0.5470
 7731SOL     OW34651   0.275   3.640   7.495  0.4338 -0.2594 -0.7824
 7731SOL    HW134652   0.310   3.622   7.582 -2.5039 -0.6052  0.3396
 7731SOL    HW234653   0.357   3.641   7.445  0.6440 -0.0348 -0.4270
 7732SOL     OW34654   0.120   2.659   6.539 -0.2472  0.1673 -0.2830
 7732SOL    HW134655   0.167   2.686   6.461  0.9479 -0.4803  0.2150
 7732SOL    HW234656   0.069   2.583   6.511 -2.7815  1.8708 -0.3564
 7733SOL     OW34657   3.944   2.484  12.039 -0.0518  0.4434 -0.4949
 7733SOL    HW134658   3.885   2.415  12.068 -0.9391  0.8278 -1.3899
 7733SOL    HW234659   3.989   2.489  12.123  1.1557 -3.2040 -0.9191
 7734SOL     OW34660   0.203   4.196   6.185 -0.6299 -0.3143 -0.0198
 7734SOL    HW134661   0.275   4.189   6.122 -0.4465 -0.6551  0.2286
 7734SOL    HW234662   0.144   4.239   6.123 -0.4221  0.1056  0.0670
 7735SOL     OW34663   3.787   1.436  16.819 -0.0851  0.4598 -0.5615
 7735SOL    HW134664   3.821   1.514  16.775  1.4992 -0.0222 -0.1684
 7735SOL    HW234665   3.781   1.376  16.744  1.8323 -0.3968 -0.0353
 7736SOL     OW34666   2.590   2.009   0.920 -0.1927  0.6318  0.2391
 7736SOL    HW134667   2.646   1.978   0.850  0.0086  2.0610 -0.2447
 7736SOL    HW234668   2.511   1.970   0.881  0.7410  1.5268 -2.5201
 7737SOL     OW34669   3.973   2.289   8.042 -0.2599 -0.4025  0.9325
 7737SOL    HW134670   3.905   2.235   8.002 -1.0545  1.3761 -0.1458
 7737SOL    HW234671   4.043   2.274   7.978 -0.8529  0.0862  0.1659
 7738SOL     OW34672   3.154   2.882  11.089  0.9818 -0.4412  0.5828
 7738SOL    HW134673   3.227   2.850  11.143  0.5402 -1.5283  0.5289
 7738SOL    HW234674   3.165   2.823  11.015 -0.0827  0.4400 -0.2760
 7739SOL     OW34675   3.408   2.540   3.353  0.1355 -0.1886 -0.2231
 7739SOL    HW134676   3.333   2.580   3.396  1.3352 -0.2217  1.9619
 7739SOL    HW234677   3.488   2.576   3.392 -1.0467  0.8185  1.2804
 7740SOL     OW34678   0.287   3.320   4.831  0.5850 -0.3166 -0.1901
 7740SOL    HW134679   0.317   3.398   4.784 -1.0175  0.8525  0.7490
 7740SOL    HW234680   0.208   3.339   4.880  1.0625  1.4428 -0.1075
 7741SOL     OW34681   2.968   0.026  13.572 -0.1324  0.0254 -0.2103
 7741SOL    HW134682   2.878   4.719  13.569 -0.3116  0.6107 -1.0534
 7741SOL    HW234683   3.026   4.687  13.531 -1.2630 -2.1582  1.5922
 7742SOL     OW34684   1.552   1.937   9.739 -0.2756 -0.6416  0.0793
 7742SOL    HW134685   1.639   1.900   9.724 -0.5766 -1.2856 -0.0811
 7742SOL    HW234686   1.546   1.981   9.654 -3.2926  1.7540  1.5467
 7743SOL     OW34687   1.346   2.597   9.243  0.0707 -0.3543  0.2496
 7743SOL    HW134688   1.355   2.684   9.202 -1.6634  0.5923  1.8677
 7743SOL    HW234689   1.260   2.602   9.284  0.3998  0.5321  0.8298
 7744SOL     OW34690   3.847   2.151   5.827  0.1522 -0.0505  0.0165
 7744SOL    HW134691   3.757   2.142   5.858  0.8540 -0.4139  1.9530
 7744SOL    HW234692   3.841   2.216   5.757 -0.9733  0.7645  0.8688
 7745SOL     OW34693   4.092   0.829   5.719 -0.1536  0.1501  0.4334
 7745SOL    HW134694   3.998   0.812   5.713 -0.7034  2.8242  1.2525
 7745SOL    HW234695   4.117   0.801   5.631  1.2989  1.4766  0.4284
 7746SOL     OW34696   3.831   4.670   6.480 -0.3450  0.7188 -0.2288
 7746SOL    HW134697   3.790   4.695   6.563 -1.1592  1.6967 -0.9207
 7746SOL    HW234698   3.923   4.696   6.489 -0.0167 -0.2773 -0.7099
 7747SOL     OW34699   0.284   2.317  12.550  0.5425  0.5055  0.2636
 7747SOL    HW134700   0.196   2.352  12.540  0.6759 -0.4830 -4.0494
 7747SOL    HW234701   0.281   2.258  12.475  2.3991 -1.5587  1.7965
 7748SOL     OW34702   1.535   0.495   3.658 -0.5244 -0.1045  0.2641
 7748SOL    HW134703   1.608   0.433   3.663  0.4908  0.9826 -1.0052
 7748SOL    HW234704   1.508   0.504   3.749  0.7488  1.1168  0.5328
 7749SOL     OW34705   4.098   2.256   8.581 -0.0705  0.1726 -0.6944
 7749SOL    HW134706   4.061   2.246   8.493 -0.8209  2.1273 -0.5918
 7749SOL    HW234707   4.089   2.351   8.592 -0.3929  0.0018  0.4425
 7750SOL     OW34708   3.379   1.037   8.998 -0.1184 -0.2137 -0.2297
 7750SOL    HW134709   3.462   0.990   9.007 -0.2699  0.0034  2.4530
 7750SOL    HW234710   3.420   1.111   9.044  0.8456 -1.8077  1.4754
 7751SOL     OW34711   2.674   1.352   9.340 -0.0266 -0.1360 -0.2813
 7751SOL    HW134712   2.636   1.267   9.360  0.4466  0.0694  1.4868
 7751SOL    HW234713   2.672   1.400   9.424 -0.2069  1.0762 -0.9731
 7752SOL     OW34714   0.722   0.869   8.157  0.5475  0.1020  0.0145
 7752SOL    HW134715   0.779   0.880   8.080 -1.4494  1.0858 -1.3210
 7752SOL    HW234716   0.676   0.953   8.164  1.6450  0.6450  0.5772
 7753SOL     OW34717   1.992   2.120   6.459 -0.1709 -0.4318  0.3917
 7753SOL    HW134718   1.973   2.075   6.377  0.9875 -2.2194  1.1064
 7753SOL    HW234719   2.053   2.059   6.501 -0.3806 -1.7935 -1.2680
 7754SOL     OW34720   4.503   2.469  12.716  0.0440  0.2197 -0.2204
 7754SOL    HW134721   4.578   2.418  12.747 -0.8777  0.3411  2.2185
 7754SOL    HW234722   4.539   2.535  12.657  2.7515 -2.2245 -1.2607
 7755SOL     OW34723   3.197   4.052   8.136 -0.6591  0.3422  0.0454
 7755SOL    HW134724   3.192   4.083   8.045  1.2085 -1.5122 -0.6976
 7755SOL    HW234725   3.108   4.022   8.154 -0.7470  1.0405  0.7368
 7756SOL     OW34726   1.360   2.831   9.085 -0.2625  0.0471  0.2908
 7756SOL    HW134727   1.311   2.913   9.082  3.0415  2.0464  0.6461
 7756SOL    HW234728   1.421   2.842   9.012 -0.2935 -0.7775  0.1397
 7757SOL     OW34729   0.696   0.048   9.994  0.2934  0.4959 -0.3952
 7757SOL    HW134730   0.779   0.014  10.027 -1.0130 -2.8383 -0.5522
 7757SOL    HW234731   0.667   4.699   9.940 -1.0883  0.2540  0.6623
 7758SOL     OW34732   0.270   4.451   7.686  0.2751  0.1402 -0.0980
 7758SOL    HW134733   0.210   4.516   7.723 -0.6070 -1.8411  1.9999
 7758SOL    HW234734   0.211   4.377   7.672 -0.2884  0.3263  1.2819
 7759SOL     OW34735   3.839   0.148  12.863  0.2801 -0.0345  0.0032
 7759SOL    HW134736   3.805   0.211  12.927 -0.9283  0.1173 -0.7991
 7759SOL    HW234737   3.813   0.186  12.779 -1.2591 -1.6712 -0.2564
 7760SOL     OW34738   0.627   4.086   1.112 -0.1042  0.2944 -0.1544
 7760SOL    HW134739   0.590   4.000   1.095  1.3517 -0.6055  1.2336
 7760SOL    HW234740   0.590   4.137   1.039 -1.4126  1.5338  1.3769
 7761SOL     OW34741   1.337   3.593  13.832  0.1613 -0.0217 -0.0735
 7761SOL    HW134742   1.417   3.622  13.787 -0.8007  1.6850 -0.6928
 7761SOL    HW234743   1.339   3.671  13.889  1.5326  0.6880 -1.0819
 7762SOL     OW34744   3.125   4.069  15.328 -0.0777  0.4576 -0.0977
 7762SOL    HW134745   3.131   4.116  15.245 -1.7661 -0.8023 -0.9139
 7762SOL    HW234746   3.062   3.999  15.314  0.4336  0.1001 -0.5587
 7763SOL     OW34747   4.130   4.319   4.856  0.9788  0.5824  0.3511
 7763SOL    HW134748   4.071   4.262   4.905  0.7208  1.2258  0.8004
 7763SOL    HW234749   4.120   4.402   4.902 -1.0346  0.3834  0.2979
 7764SOL     OW34750   3.879   4.271   3.730 -0.5462 -1.1974  0.5187
 7764SOL    HW134751   3.911   4.194   3.683 -0.5720 -0.2625 -1.0255
 7764SOL    HW234752   3.867   4.336   3.662  2.1718 -0.3990  0.7741
 7765SOL     OW34753   3.797   0.794  13.953  0.5237 -0.3537  0.6350
 7765SOL    HW134754   3.864   0.782  13.886  1.2477 -1.2012  1.5004
 7765SOL    HW234755   3.713   0.772  13.913  0.3678  0.7430  0.3747
 7766SOL     OW34756   3.765   1.435   5.441  0.3469  0.0948 -0.4335
 7766SOL    HW134757   3.764   1.426   5.536  1.4206  0.1091 -0.4275
 7766SOL    HW234758   3.672   1.453   5.423  0.4287 -0.4718 -1.4313
 7767SOL     OW34759   3.291   4.065   6.486  0.2362  0.2907 -0.2071
 7767SOL    HW134760   3.231   3.995   6.512  2.3483 -1.3894  0.1693
 7767SOL    HW234761   3.368   4.055   6.541  1.0754 -0.0085 -1.4304
 7768SOL     OW34762   2.550   4.346   3.177  0.4661 -0.0688  0.1851
 7768SOL    HW134763   2.525   4.262   3.139 -1.9363  0.0486  1.5395
 7768SOL    HW234764   2.629   4.356   3.123  2.0677  0.3340  2.6029
 7769SOL     OW34765   3.265   0.264   6.694  0.1333  0.2022  0.4384
 7769SOL    HW134766   3.170   0.256   6.694  0.2508 -1.3159 -1.1279
 7769SOL    HW234767   3.278   0.170   6.678 -1.2724  0.0787  0.0247
 7770SOL     OW34768   0.555   2.506   7.614 -0.4768 -0.0133 -0.0284
 7770SOL    HW134769   0.622   2.541   7.555 -3.1645 -0.1587 -3.1019
 7770SOL    HW234770   0.480   2.566   7.612 -0.1482  0.3286 -1.9880
 7771SOL     OW34771   3.659   0.769   7.645  0.3256 -0.2154  0.2233
 7771SOL    HW134772   3.711   0.833   7.596  0.2297 -0.9942 -0.8890
 7771SOL    HW234773   3.726   0.703   7.660  0.5300  0.2971  1.6258
 7772SOL     OW34774   4.454   2.492   6.077  0.0972 -0.3657 -0.1174
 7772SOL    HW134775   4.476   2.524   6.164 -0.0337  0.2636 -0.3162
 7772SOL    HW234776   4.495   2.406   6.072  0.6315  0.0202 -2.8453
 7773SOL     OW34777   2.070   4.445   3.080 -0.4374 -0.3686 -0.2732
 7773SOL    HW134778   2.163   4.450   3.105 -0.8475  0.3023  1.1106
 7773SOL    HW234779   2.071   4.395   2.998 -1.9146 -1.3001  0.2749
 7774SOL     OW34780   2.791   1.934   0.736  0.2138  0.2783  0.0287
 7774SOL    HW134781   2.782   1.950   0.642  0.2747 -2.8952 -0.5102
 7774SOL    HW234782   2.782   1.839   0.732  3.1017  0.0071 -0.3168
 7775SOL     OW34783   0.715   3.027  13.755  0.2449 -0.0899 -0.2620
 7775SOL    HW134784   0.747   3.100  13.808 -1.1294 -1.2169  2.1599
 7775SOL    HW234785   0.681   3.077  13.681  0.1476  0.6908  0.3045
 7776SOL     OW34786   1.476   0.112  17.200 -0.4729 -0.0269 -0.1805
 7776SOL    HW134787   1.532   0.045  17.238  1.1774  1.2539 -0.3569
 7776SOL    HW234788   1.503   0.198  17.232  2.9340 -0.8274 -0.9132
 7777SOL     OW34789   0.398   2.358  16.357 -0.8241  0.4997  0.2883
 7777SOL    HW134790   0.483   2.318  16.373 -0.3840  0.9724 -0.9447
 7777SOL    HW234791   0.418   2.447  16.329  0.4770 -0.9446 -3.3529
 7778SOL     OW34792   4.485   1.053   2.029 -0.0275 -0.4542  0.3930
 7778SOL    HW134793   4.498   1.129   1.972  0.2905 -2.8519 -2.7620
 7778SOL    HW234794   4.573   1.031   2.057  0.6341 -1.2908 -2.3070
 7779SOL     OW34795   0.548   2.093   1.811  0.1393 -0.2138  0.7073
 7779SOL    HW134796   0.488   2.138   1.870 -1.3126 -0.8952 -0.2716
 7779SOL    HW234797   0.507   2.008   1.802 -0.1157 -0.0922  0.7302
 7780SOL     OW34798   1.800   3.131  14.357  0.1198  0.3058 -0.7102
 7780SOL    HW134799   1.750   3.167  14.284  0.1959 -0.0704 -0.9496
 7780SOL    HW234800   1.822   3.045  14.319 -1.5227 -0.8271  0.9317
 7781SOL     OW34801   4.131   3.607  12.728 -0.3463  0.3426 -0.0544
 7781SOL    HW134802   4.068   3.565  12.670 -1.5279  0.9017  0.8238
 7781SOL    HW234803   4.128   3.700  12.707 -2.8390 -0.0346 -1.3569
 7782SOL     OW34804   3.447   1.526   3.826 -0.1455  0.6662 -0.5015
 7782SOL    HW134805   3.523   1.560   3.873 -0.7406 -0.7986  1.5367
 7782SOL    HW234806   3.380   1.568   3.881 -0.1360 -0.6028  0.4786
 7783SOL     OW34807   4.147   0.805   3.529 -0.3752  0.0948  0.2393
 7783SOL    HW134808   4.107   0.844   3.607 -1.0433 -1.5736  0.7266
 7783SOL    HW234809   4.209   0.743   3.568 -0.4773  0.9384  1.7582
 7784SOL     OW34810   1.796   0.937   7.489 -0.1359  0.0987 -0.0383
 7784SOL    HW134811   1.824   1.026   7.513 -2.1907  1.4009 -2.5020
 7784SOL    HW234812   1.859   0.881   7.534 -1.4238 -0.0820  1.5301
 7785SOL     OW34813   1.529   4.565   2.137  0.9253  0.3358  0.9365
 7785SOL    HW134814   1.505   4.564   2.044 -2.3424  0.6053  1.7510
 7785SOL    HW234815   1.581   4.485   2.136  0.3925 -0.0154  1.4405
 7786SOL     OW34816   3.484   0.786  16.706  0.0511  0.2054  0.1526
 7786SOL    HW134817   3.545   0.850  16.670 -0.0538 -0.4522 -1.2179
 7786SOL    HW234818   3.441   0.755  16.626 -1.1105  0.7503  0.5532
 7787SOL     OW34819   3.468   2.609   5.777 -0.0540 -0.7014 -0.4799
 7787SOL    HW134820   3.510   2.576   5.856  0.7951 -0.1001 -0.6724
 7787SOL    HW234821   3.531   2.574   5.713 -0.2646 -1.2466 -0.3891
 7788SOL     OW34822   4.556   0.221  14.137  0.1840 -0.1392 -0.5401
 7788SOL    HW134823   4.472   0.196  14.098 -0.0877 -0.7652  0.4180
 7788SOL    HW234824   4.605   0.253  14.062  1.9314  0.2486  0.7638
 7789SOL     OW34825   4.357   1.923   5.325  0.2696  1.2982  1.0344
 7789SOL    HW134826   4.392   1.836   5.342 -1.4105  0.5351  0.6089
 7789SOL    HW234827   4.395   1.953   5.243  1.3272 -1.9260  0.3585
 7790SOL     OW34828   3.498   1.821  15.500  0.1247 -0.6489  0.2425
 7790SOL    HW134829   3.462   1.885  15.438 -1.9285 -1.3960  0.6741
 7790SOL    HW234830   3.533   1.892  15.553 -0.9086 -0.0702  0.1485
 7791SOL     OW34831   2.650   0.753  13.840 -0.4110  1.0781 -0.6194
 7791SOL    HW134832   2.610   0.834  13.808  0.0961  1.6784  0.2466
 7791SOL    HW234833   2.678   0.704  13.762 -1.9136 -0.1009 -0.4132
 7792SOL     OW34834   4.662   1.072  14.095  0.7517  0.5255 -0.3962
 7792SOL    HW134835   4.619   1.144  14.048 -1.2520  0.0966  0.7931
 7792SOL    HW234836   0.013   1.037  14.048  1.0109 -1.3854  1.4198
 7793SOL     OW34837   0.568   4.274   0.558  0.3502 -0.4313 -0.0560
 7793SOL    HW134838   0.654   4.272   0.600 -1.3282  1.0973  3.4404
 7793SOL    HW234839   0.510   4.335   0.603  0.9657 -0.4208  0.7235
 7794SOL     OW34840   2.947   4.705   6.784 -0.3298  0.2952  0.4160
 7794SOL    HW134841   2.859   0.009   6.761 -0.0626  1.9110  1.4312
 7794SOL    HW234842   2.977   0.070   6.797 -2.4930  1.2246 -1.0740
 7795SOL     OW34843   3.301   0.114  16.824  0.3214 -0.2436 -0.1593
 7795SOL    HW134844   3.212   0.124  16.790 -0.2150 -2.4788  0.5860
 7795SOL    HW234845   3.309   0.196  16.873 -0.0496 -0.9309  1.0432
 7796SOL     OW34846   0.719   0.019   5.327  0.1696 -0.7452 -0.4857
 7796SOL    HW134847   0.730   4.690   5.406 -0.1483  0.1031  0.1352
 7796SOL    HW234848   0.790   4.705   5.275 -0.2528 -0.4728 -1.2650
 7797SOL     OW34849   1.822   0.203   1.468  0.2629 -0.1037  0.1299
 7797SOL    HW134850   1.799   0.112   1.489  3.9043 -1.2469 -0.8081
 7797SOL    HW234851   1.800   0.196   1.375 -0.1962  0.1849  0.2167
 7798SOL     OW34852   3.709   0.115   8.660  0.2903 -0.6114  0.9084
 7798SOL    HW134853   3.720   0.210   8.658 -2.0954 -0.3750 -0.7031
 7798SOL    HW234854   3.727   0.083   8.748 -0.2353 -1.1357  0.8258
 7799SOL     OW34855   0.649   2.837   8.007 -0.1118 -0.3368  0.1017
 7799SOL    HW134856   0.604   2.814   7.926  0.1513 -0.8876  0.1122
 7799SOL    HW234857   0.625   2.928   8.025  0.7376 -0.4540  1.8907
 7800SOL     OW34858   3.646   4.700   4.636  0.7186 -0.3676  0.5702
 7800SOL    HW134859   3.722   4.666   4.589 -0.1165  0.4523 -1.3713
 7800SOL    HW234860   3.679   0.056   4.676 -0.4693  0.9063 -1.0351
 7801SOL     OW34861   1.724   1.773   8.593  0.0782 -0.0926  0.1600
 7801SOL    HW134862   1.697   1.749   8.682 -0.4124 -0.8112 -0.1889
 7801SOL    HW234863   1.819   1.779   8.595  0.0453  0.2681  0.8414
 7802SOL     OW34864   4.549   3.279   5.358 -0.0871  0.2660  0.2132
 7802SOL    HW134865   4.642   3.278   5.382  0.3119 -1.5020 -1.5069
 7802SOL    HW234866   4.498   3.269   5.439  1.4514  0.7662  1.2507
 7803SOL     OW34867   3.019   0.167   8.173  0.1173 -0.5459 -0.5481
 7803SOL    HW134868   3.043   0.098   8.111  1.9897  0.6267 -1.1334
 7803SOL    HW234869   2.948   0.133   8.227 -0.9023  0.6316 -1.1398
 7804SOL     OW34870   1.940   2.361  15.439  0.3080  0.3951  0.2272
 7804SOL    HW134871   1.917   2.418  15.512 -0.4777  0.4275 -0.0434
 7804SOL    HW234872   1.942   2.422  15.365 -0.9931  1.6151  1.2049
 7805SOL     OW34873   3.899   3.807  15.953 -0.0751  0.5591 -0.1153
 7805SOL    HW134874   3.883   3.769  15.866  0.5618  1.5595 -0.6792
 7805SOL    HW234875   3.871   3.897  15.936  0.4052  0.6955 -0.1827
 7806SOL     OW34876   2.844   1.491  15.246  0.7875 -0.2269  0.0942
 7806SOL    HW134877   2.756   1.527  15.254  1.2547  0.8768  0.3159
 7806SOL    HW234878   2.881   1.554  15.184 -1.9938 -0.9464 -2.3012
 7807SOL     OW34879   0.904   2.971   7.763  0.2938  0.1201 -0.8531
 7807SOL    HW134880   0.810   2.973   7.743 -0.0817 -1.0330  0.7944
 7807SOL    HW234881   0.923   3.059   7.796 -1.6209  0.3449 -0.3060
 7808SOL     OW34882   1.750   2.099   3.512  0.0152 -0.8757 -0.1122
 7808SOL    HW134883   1.691   2.036   3.472 -1.1720  0.8126 -1.0486
 7808SOL    HW234884   1.832   2.051   3.520 -1.0754 -2.3616  1.9623
 7809SOL     OW34885   1.978   2.288   7.527  0.1983  0.0719  0.5929
 7809SOL    HW134886   1.889   2.320   7.514 -0.0177 -0.7127  0.0998
 7809SOL    HW234887   2.000   2.324   7.613  1.4202 -1.4273  0.9028
 7810SOL     OW34888   0.742   0.117   6.201 -0.3950 -0.1612  0.0975
 7810SOL    HW134889   0.786   0.196   6.233 -1.7248  0.7387 -0.2834
 7810SOL    HW234890   0.655   0.156   6.198 -0.3348 -0.1211 -1.0936
 7811SOL     OW34891   3.200   4.264   7.585  0.7373  0.1445 -0.0266
 7811SOL    HW134892   3.272   4.310   7.542 -0.2698 -1.2091 -3.2313
 7811SOL    HW234893   3.208   4.295   7.675  2.2006 -0.6661  0.1173
 7812SOL     OW34894   3.840   0.879   1.387  0.0622  0.1486  0.2464
 7812SOL    HW134895   3.881   0.796   1.364  0.5236  0.2079  0.8693
 7812SOL    HW234896   3.836   0.869   1.482 -3.2872  0.1316  0.0734
 7813SOL     OW34897   4.143   0.656   3.282  0.0441 -0.0561  0.0934
 7813SOL    HW134898   4.082   0.584   3.263  0.2235 -0.4008  0.8127
 7813SOL    HW234899   4.115   0.654   3.373  1.3108  1.8921  0.5111
 7814SOL     OW34900   0.512   3.213   8.616  0.3641  0.2979  0.4620
 7814SOL    HW134901   0.467   3.286   8.660 -1.3557 -0.6981  0.3640
 7814SOL    HW234902   0.457   3.182   8.544  1.3691 -1.5495  0.4884
 7815SOL     OW34903   4.605   2.973   3.879 -0.2697  0.2519 -0.8796
 7815SOL    HW134904   4.577   2.894   3.831 -1.0479 -0.2772  0.4460
 7815SOL    HW234905   4.577   3.046   3.824  1.0857  2.5006  1.4152
 7816SOL     OW34906   3.286   4.406   4.165 -0.6322  0.4926 -0.4195
 7816SOL    HW134907   3.197   4.426   4.191 -0.4551  2.0954 -1.0665
 7816SOL    HW234908   3.276   4.313   4.144 -0.4856 -0.0267  1.7485
 7817SOL     OW34909   3.665   2.944   2.426  0.6206  0.0312 -0.4702
 7817SOL    HW134910   3.672   3.039   2.427 -1.1154  0.1738 -1.3534
 7817SOL    HW234911   3.597   2.930   2.492  0.3394  0.9517 -0.5619
 7818SOL     OW34912   0.676   2.278   4.245 -0.0995 -0.0601 -0.2580
 7818SOL    HW134913   0.655   2.355   4.298 -1.3447 -2.1309  2.3088
 7818SOL    HW234914   0.711   2.328   4.172 -0.3554  0.7026  0.1440
 7819SOL     OW34915   1.862   0.609  15.358 -0.4984 -0.3091  0.3387
 7819SOL    HW134916   1.914   0.662  15.418  1.8861 -3.4126  1.0486
 7819SOL    HW234917   1.784   0.583  15.408  1.3849 -0.1970  3.3314
 7820SOL     OW34918   0.336   1.038  17.261  0.6014  0.6581 -0.6064
 7820SOL    HW134919   0.392   1.048  17.338  1.2110  0.0830 -0.9760
 7820SOL    HW234920   0.382   1.095  17.199 -0.5302  1.4035 -0.7599
 7821SOL     OW34921   3.872   3.150   7.154  0.2267 -0.0499 -0.0626
 7821SOL    HW134922   3.815   3.189   7.087 -1.2047  1.3110  1.9654
 7821SOL    HW234923   3.814   3.154   7.229 -0.4488 -0.6842 -0.5512
 7822SOL     OW34924   2.393   2.458   2.204 -0.1651 -0.1752 -0.3943
 7822SOL    HW134925   2.386   2.433   2.297 -3.6265 -0.3029 -0.6969
 7822SOL    HW234926   2.429   2.546   2.206 -0.2617 -0.1289 -0.8299
 7823SOL     OW34927   1.966   2.198   5.307 -0.1770 -0.1975 -0.0408
 7823SOL    HW134928   2.049   2.209   5.353 -2.0552  0.3762  3.2133
 7823SOL    HW234929   1.907   2.148   5.363 -1.2382  0.9893 -0.1097
 7824SOL     OW34930   2.977   4.587   5.140  0.2816 -0.0803  0.4640
 7824SOL    HW134931   2.919   4.637   5.198 -1.3818 -1.7656  0.2572
 7824SOL    HW234932   3.039   4.550   5.203  1.1808  0.5035 -0.0836
 7825SOL     OW34933   2.540   4.543  14.304 -0.3976  0.1603  0.2731
 7825SOL    HW134934   2.524   4.462  14.352 -2.0078 -0.0844 -0.7100
 7825SOL    HW234935   2.572   4.515  14.219 -0.7574 -0.5131  0.3634
 7826SOL     OW34936   0.750   3.257   3.069  0.1573 -0.2234  0.2773
 7826SOL    HW134937   0.766   3.334   3.123  1.4940 -1.3434  1.5185
 7826SOL    HW234938   0.831   3.262   3.017  0.2136  0.6115  0.4459
 7827SOL     OW34939   0.493   0.302  13.681  0.1711 -0.6286  0.5815
 7827SOL    HW134940   0.529   0.382  13.642 -0.1257  0.8545  3.3951
 7827SOL    HW234941   0.522   0.250  13.606  0.4701  1.2938 -0.6260
 7828SOL     OW34942   0.248   2.684   7.354  0.0421  0.1433  0.3982
 7828SOL    HW134943   0.295   2.631   7.290  0.6977  0.6414  0.4700
 7828SOL    HW234944   0.261   2.773   7.320 -0.5443  0.4139  0.8773
 7829SOL     OW34945   3.481   1.883   3.200  0.5924  0.2468  0.4251
 7829SOL    HW134946   3.483   1.903   3.293 -1.0324  0.0140  0.5115
 7829SOL    HW234947   3.550   1.817   3.190  0.3303  0.0854 -0.3681
 7830SOL     OW34948   1.708   3.474   9.338 -0.3061  0.1747 -1.1660
 7830SOL    HW134949   1.756   3.551   9.367 -1.1883  0.7337 -1.1920
 7830SOL    HW234950   1.625   3.488   9.384  0.8912 -1.2867  1.4368
 7831SOL     OW34951   1.940   1.156  14.162  0.6213  1.1987  0.0770
 7831SOL    HW134952   1.903   1.236  14.200  0.9584  1.6070 -0.4524
 7831SOL    HW234953   1.952   1.185  14.072  1.7992 -0.2090 -0.2215
 7832SOL     OW34954   3.994   4.072   8.559  0.0252 -0.1790  0.0445
 7832SOL    HW134955   3.937   4.060   8.483 -0.6411 -0.8499  0.6439
 7832SOL    HW234956   3.997   3.982   8.591 -3.6075 -0.1164  0.5907
 7833SOL     OW34957   1.060   4.621   4.963 -0.0004 -0.0062  0.3651
 7833SOL    HW134958   1.133   4.629   5.026 -1.7926  0.7915  2.3407
 7833SOL    HW234959   1.010   4.542   4.984  0.2438 -0.6381 -1.4939
 7834SOL     OW34960   1.209   3.067   5.978  0.2027  0.6417 -0.4571
 7834SOL    HW134961   1.260   2.989   6.000  1.4477  1.7219  0.5024
 7834SOL    HW234962   1.211   3.107   6.065  0.3764 -0.9074  0.2675
 7835SOL     OW34963   0.348   0.535   9.871  0.0840  0.3015 -0.3412
 7835SOL    HW134964   0.286   0.608   9.871 -0.8569 -0.5155  1.2744
 7835SOL    HW234965   0.426   0.587   9.889  0.4500 -0.5720  0.5977
 7836SOL     OW34966   2.258   4.439  11.632  0.2150  0.4504 -0.5253
 7836SOL    HW134967   2.226   4.529  11.635 -2.0074 -0.2977 -1.6901
 7836SOL    HW234968   2.187   4.386  11.596 -0.0454 -0.3060  1.1213
 7837SOL     OW34969   1.603   1.246   5.016  0.5237  0.1519 -0.2987
 7837SOL    HW134970   1.536   1.299   5.060  1.5569 -1.4790  3.1881
 7837SOL    HW234971   1.601   1.290   4.931 -1.0175  1.1718  0.2525
 7838SOL     OW34972   1.223   2.108  11.326  0.0626  0.0063 -0.0461
 7838SOL    HW134973   1.178   2.191  11.346  0.0764 -0.0876  0.3764
 7838SOL    HW234974   1.200   2.105  11.233 -0.3326  1.7564 -0.0093
 7839SOL     OW34975   4.284   3.898  10.576  0.2847  0.7864 -0.3361
 7839SOL    HW134976   4.296   3.878  10.669 -0.3950 -0.2926 -0.4854
 7839SOL    HW234977   4.300   3.812  10.537  1.7342  0.1072  1.7862
 7840SOL     OW34978   1.160   2.371  11.545  0.2463  0.3191  0.3149
 7840SOL    HW134979   1.223   2.355  11.615 -0.8891  2.0035  1.7114
 7840SOL    HW234980   1.096   2.424  11.592  0.9444  1.1373  0.3372
 7841SOL     OW34981   2.884   3.001   4.266  0.2110  0.1846  0.1535
 7841SOL    HW134982   2.853   3.081   4.309  1.0274  0.7329 -0.2847
 7841SOL    HW234983   2.824   2.987   4.192 -0.8941  0.9714  0.8893
 7842SOL     OW34984   0.314   3.051   4.815 -0.4074 -0.4050 -0.2811
 7842SOL    HW134985   0.289   3.036   4.906  0.1201  1.0533  0.1047
 7842SOL    HW234986   0.306   3.146   4.817  0.1274 -0.3778  0.5835
 7843SOL     OW34987   1.982   0.424   3.577 -0.2759  0.1940  0.3587
 7843SOL    HW134988   1.994   0.459   3.489  1.4796 -2.4642 -0.4476
 7843SOL    HW234989   2.053   0.359   3.579  0.3171  0.8450  0.6283
 7844SOL     OW34990   2.350   1.128   8.920 -0.0635 -0.8315 -0.3583
 7844SOL    HW134991   2.289   1.077   8.867 -0.6595  0.5797 -1.0591
 7844SOL    HW234992   2.311   1.214   8.902 -0.4874 -1.0694 -0.5843
 7845SOL     OW34993   1.074   2.667   5.143 -0.9723  0.2543 -0.2523
 7845SOL    HW134994   1.083   2.743   5.202  0.3295 -1.4884  1.7944
 7845SOL    HW234995   1.166   2.640   5.146 -1.6271 -1.8890  0.4752
 7846SOL     OW34996   2.977   3.766   8.275 -0.4988  0.0646  0.0647
 7846SOL    HW134997   3.022   3.684   8.296 -0.2956  0.3268  0.6451
 7846SOL    HW234998   3.011   3.773   8.186  0.5844 -0.1823  0.4620
 7847SOL     OW34999   4.502   2.748   7.735  0.1635 -0.2236 -0.0865
 7847SOL    HW135000   4.590   2.712   7.732  1.0853  1.9823  0.2020
 7847SOL    HW235001   4.447   2.694   7.679  1.9567 -0.5369 -1.5450
 7848SOL     OW35002   4.063   2.615   1.660  0.0760  0.4262  0.1249
 7848SOL    HW135003   4.121   2.688   1.679  1.2934 -0.9606  1.7166
 7848SOL    HW235004   3.995   2.662   1.612  0.2944 -1.9220 -2.4762
 7849SOL     OW35005   0.966   0.819   4.251 -0.0036  0.0782 -0.1610
 7849SOL    HW135006   1.034   0.771   4.299  2.2457  1.5928 -1.7981
 7849SOL    HW235007   1.025   0.848   4.181 -0.3857  1.7301  0.1949
 7850SOL     OW35008   4.315   2.072  13.539  0.1531 -0.0571  0.0450
 7850SOL    HW135009   4.266   2.130  13.481 -3.7117 -1.8112  1.5834
 7850SOL    HW235010   4.407   2.074  13.511  0.3860  0.0280  0.8213
 7851SOL     OW35011   1.022   1.998   2.077 -0.0774 -0.5001 -0.3690
 7851SOL    HW135012   1.064   1.912   2.072  1.5674  0.2083  1.0458
 7851SOL    HW235013   0.996   2.014   1.987 -3.0459 -0.7328  0.4312
 7852SOL     OW35014   3.684   3.018   8.981 -0.7440  0.2944 -1.0070
 7852SOL    HW135015   3.613   3.073   8.949  1.7385  3.1733 -1.4995
 7852SOL    HW235016   3.633   2.943   9.014  2.8824 -0.6101  2.5971
 7853SOL     OW35017   0.903   1.936   4.427 -0.2071 -0.1668 -0.0884
 7853SOL    HW135018   0.940   1.919   4.340  0.2110 -0.5843  0.1715
 7853SOL    HW235019   0.820   1.890   4.416 -0.6040  0.5210  0.0272
 7854SOL     OW35020   3.578   0.940   2.626 -0.0083  0.1761  0.1014
 7854SOL    HW135021   3.578   1.002   2.700  0.1780 -1.7407  1.7198
 7854SOL    HW235022   3.607   0.867   2.681  1.3712  0.7840  0.1860
 7855SOL     OW35023   2.092   3.461   5.333  0.2783 -0.2554 -0.3452
 7855SOL    HW135024   2.167   3.426   5.380 -0.6877 -1.0975  0.5770
 7855SOL    HW235025   2.052   3.391   5.280  1.9545 -0.3307 -1.5176
 7856SOL     OW35026   4.678   2.045   2.662  0.4271 -0.2438 -0.3281
 7856SOL    HW135027   4.669   2.060   2.568  0.1339  0.2147 -0.2236
 7856SOL    HW235028   0.044   2.037   2.689  0.3376  0.1891  0.0992
 7857SOL     OW35029   2.407   2.307   1.195  0.2739  0.0826 -0.0986
 7857SOL    HW135030   2.331   2.261   1.230  1.4863 -1.6577  0.2686
 7857SOL    HW235031   2.458   2.306   1.276 -0.0516 -0.1202  0.1039
 7858SOL     OW35032   0.895   1.892  15.467 -0.1035  0.4220 -0.4538
 7858SOL    HW135033   0.859   1.918  15.382  1.0866  1.2465 -0.7048
 7858SOL    HW235034   0.907   1.797  15.456  1.0112  0.5035  0.0915
 7859SOL     OW35035   1.988   0.733   4.940  0.1243 -0.2487  0.0283
 7859SOL    HW135036   2.027   0.654   4.978 -0.0082 -0.7278 -0.8490
 7859SOL    HW235037   2.054   0.748   4.873 -0.8067  2.7773 -0.2226
 7860SOL     OW35038   3.802   2.679   5.789  0.0742 -0.4903  0.0192
 7860SOL    HW135039   3.895   2.667   5.770  0.1296 -0.1078  0.0499
 7860SOL    HW235040   3.799   2.773   5.773  0.4692 -0.4344  0.2898
 7861SOL     OW35041   4.348   0.087   6.991 -0.4713 -0.1287  0.0223
 7861SOL    HW135042   4.398   0.153   6.944 -1.4329 -0.3573 -1.3263
 7861SOL    HW235043   4.404   0.011   6.978 -0.5956 -0.2840  0.4023
 7862SOL     OW35044   0.998   0.962   8.506  0.3661  0.2846 -0.3922
 7862SOL    HW135045   1.092   0.944   8.503  0.1560 -0.7238 -0.9208
 7862SOL    HW235046   0.963   0.874   8.492 -1.2248  0.6018  1.4344
 7863SOL     OW35047   2.537   0.618  16.052 -0.1681  0.2550 -0.8553
 7863SOL    HW135048   2.538   0.600  16.146 -0.1914 -1.8798 -1.2633
 7863SOL    HW235049   2.599   0.691  16.044 -0.8107  0.9983  0.8864
 7864SOL     OW35050   0.725   1.919   5.043 -0.6505  0.8097 -0.3264
 7864SOL    HW135051   0.798   1.893   4.986 -0.7641  0.8042 -0.4688
 7864SOL    HW235052   0.647   1.942   4.991 -1.0438  0.5082  0.1350
 7865SOL     OW35053   3.472   1.944   3.985  0.2459  0.7030 -0.3122
 7865SOL    HW135054   3.556   1.978   3.956 -1.2441  2.5437 -2.4420
 7865SOL    HW235055   3.426   1.939   3.901  0.9702  0.5960 -0.7023
 7866SOL     OW35056   3.727   4.626   4.059 -0.5283  0.6748  0.6830
 7866SOL    HW135057   3.785   4.551   4.064  0.2960  1.1716 -1.3576
 7866SOL    HW235058   3.641   4.582   4.058 -1.0396  1.7055 -1.2848
 7867SOL     OW35059   0.066   4.424   0.691  0.0576 -0.5381  0.4762
 7867SOL    HW135060   0.105   4.492   0.636 -0.8909 -0.5223 -0.1643
 7867SOL    HW235061   0.139   4.385   0.740 -0.5281 -2.7488 -0.4239
 7868SOL     OW35062   4.328   2.740  13.329 -0.4028 -0.3626 -0.2571
 7868SOL    HW135063   4.371   2.816  13.290 -1.1048 -0.1671 -0.6500
 7868SOL    HW235064   4.351   2.757  13.421  1.1274 -0.5281 -0.6027
 7869SOL     OW35065   0.405   1.061  15.844 -0.7329  0.2760  0.2835
 7869SOL    HW135066   0.344   1.020  15.783 -0.0884 -1.9554  1.1171
 7869SOL    HW235067   0.353   1.080  15.922 -1.7153 -3.0438  0.4431
 7870SOL     OW35068   0.882   4.647   7.994  0.4186  0.1037  0.1141
 7870SOL    HW135069   0.933   4.662   7.915  1.8215  0.3050  1.0678
 7870SOL    HW235070   0.844   4.569   7.954  1.0835  0.0512 -0.4077
 7871SOL     OW35071   0.108   1.498   3.509  0.5392 -0.4448 -0.7036
 7871SOL    HW135072   0.068   1.585   3.517 -1.5599 -1.2062 -2.8200
 7871SOL    HW235073   0.030   1.449   3.484  0.1467  0.5063 -1.3695
 7872SOL     OW35074   3.403   0.549   2.640 -0.0631  0.6217 -0.4387
 7872SOL    HW135075   3.390   0.626   2.584 -2.5550  1.0052  0.6964
 7872SOL    HW235076   3.439   0.492   2.571  1.7802  1.2685 -0.0307
 7873SOL     OW35077   2.656   2.309   3.807  0.3597  0.2102 -0.2979
 7873SOL    HW135078   2.672   2.380   3.746 -1.5866  1.5204  0.7040
 7873SOL    HW235079   2.581   2.270   3.763  1.2321 -2.2047  0.3418
 7874SOL     OW35080   4.391   1.466  15.614  0.5184 -0.4704  0.1261
 7874SOL    HW135081   4.418   1.554  15.589 -0.5414 -0.5362 -1.2363
 7874SOL    HW235082   4.471   1.412  15.615  1.0661  0.3549  0.8327
 7875SOL     OW35083   1.882   0.178   4.312 -0.5168 -0.0511  0.1544
 7875SOL    HW135084   1.866   0.237   4.385  2.6475  0.2055  0.6301
 7875SOL    HW235085   1.881   0.231   4.232 -0.5405 -1.4129 -0.7387
 7876SOL     OW35086   4.177   3.093  16.810 -0.5244 -0.0659 -0.2858
 7876SOL    HW135087   4.222   3.107  16.893  2.0509  1.7581 -1.9784
 7876SOL    HW235088   4.237   3.132  16.746 -0.5593 -1.4403 -1.1452
 7877SOL     OW35089   1.694   3.358   1.766  0.7565 -0.8975  0.2899
 7877SOL    HW135090   1.600   3.367   1.782  0.7247 -0.7159 -0.0040
 7877SOL    HW235091   1.699   3.263   1.757  0.3843 -0.9628  0.7179
 7878SOL     OW35092   2.954   3.078  12.435 -0.3606 -0.3573  0.0269
 7878SOL    HW135093   2.870   3.046  12.468 -1.2723  2.3390  0.3104
 7878SOL    HW235094   2.984   3.129  12.510 -0.3547 -1.6289  0.8932
 7879SOL     OW35095   3.064   4.002  13.365 -0.2972  0.2382 -0.7023
 7879SOL    HW135096   3.054   4.091  13.331 -0.4661 -0.5494 -2.7019
 7879SOL    HW235097   3.064   3.944  13.289 -0.2397 -2.0092  0.9966
 7880SOL     OW35098   3.584   3.906  10.145 -0.4280  0.7677 -0.4404
 7880SOL    HW135099   3.493   3.876  10.150  0.5143 -2.0630 -0.1995
 7880SOL    HW235100   3.598   3.889  10.052 -1.4443 -0.0190 -0.4517
 7881SOL     OW35101   1.800   3.938   0.019 -0.0720 -0.5231 -0.1472
 7881SOL    HW135102   1.828   3.981   0.100  1.6372 -0.7342 -0.6092
 7881SOL    HW235103   1.876   3.881   0.001 -0.5476 -0.7863 -1.2854
 7882SOL     OW35104   1.205   3.358  16.291 -0.1779  0.2007  0.5373
 7882SOL    HW135105   1.185   3.410  16.368 -1.3069 -1.4356  1.3726
 7882SOL    HW235106   1.119   3.320  16.272  0.3010 -0.6675  0.0962
 7883SOL     OW35107   2.705   0.463  15.502  0.3763  0.0666  0.3131
 7883SOL    HW135108   2.611   0.455  15.484  0.2514  0.4089  0.8141
 7883SOL    HW235109   2.714   0.547  15.547  1.8153  0.2877 -0.3688
 7884SOL     OW35110   2.242   0.983   5.210 -0.4165 -0.7910  0.1568
 7884SOL    HW135111   2.197   0.960   5.291  0.3088 -0.3769  0.6810
 7884SOL    HW235112   2.200   1.069   5.201 -0.3818 -0.7738  0.1614
 7885SOL     OW35113   3.204   4.151   8.402  0.3336  0.1449 -0.0603
 7885SOL    HW135114   3.150   4.076   8.427  0.0770 -0.5110 -2.5283
 7885SOL    HW235115   3.199   4.139   8.307 -0.7442 -3.6880  0.4890
 7886SOL     OW35116   1.780   2.725   2.890 -0.2816  0.0067  0.4246
 7886SOL    HW135117   1.721   2.667   2.844 -0.1097 -0.9840  1.4449
 7886SOL    HW235118   1.837   2.656   2.924 -0.5269  0.1885  1.2251
 7887SOL     OW35119   2.677   1.619  11.068  0.0237 -0.3223  0.3561
 7887SOL    HW135120   2.621   1.620  11.146 -0.2066  1.9463  0.1440
 7887SOL    HW235121   2.763   1.614  11.111 -0.1727  0.0506  0.7922
 7888SOL     OW35122   3.836   3.175  10.629 -0.4634  0.7497 -0.1099
 7888SOL    HW135123   3.875   3.105  10.681 -0.8260 -0.2598 -1.1948
 7888SOL    HW235124   3.813   3.111  10.562 -1.6747  2.0827 -0.9735
 7889SOL     OW35125   4.433   3.667   1.894 -0.5388 -0.2793 -0.5312
 7889SOL    HW135126   4.385   3.662   1.977 -2.2106 -0.5969 -1.5291
 7889SOL    HW235127   4.444   3.575   1.872  1.6885 -0.0752 -0.2363
 7890SOL     OW35128   1.319   1.751  11.015 -0.0585  0.5051 -0.2240
 7890SOL    HW135129   1.357   1.811  10.952  1.2235 -0.3360 -0.2570
 7890SOL    HW235130   1.393   1.691  11.017  2.1887  3.2644 -0.9312
 7891SOL     OW35131   3.778   2.844   5.203  0.0816  0.1233  0.4267
 7891SOL    HW135132   3.748   2.899   5.130 -2.5203  0.5065  1.7989
 7891SOL    HW235133   3.863   2.882   5.224  1.0147 -0.8740 -1.4675
 7892SOL     OW35134   1.419   2.377  12.680  0.2613  0.6295 -0.2111
 7892SOL    HW135135   1.464   2.298  12.711 -1.0307 -0.5730 -1.3796
 7892SOL    HW235136   1.429   2.359  12.586  0.0063  0.6737 -0.2456
 7893SOL     OW35137   1.622   0.986   8.007 -0.3762 -0.1827 -0.0528
 7893SOL    HW135138   1.668   0.930   8.070  0.9147 -0.6807 -1.4387
 7893SOL    HW235139   1.547   0.929   7.991 -0.5699  0.1667 -0.3699
 7894SOL     OW35140   1.363   4.399   4.722 -0.1089 -0.7081  1.2488
 7894SOL    HW135141   1.347   4.422   4.631  0.5283  2.1760  1.8635
 7894SOL    HW235142   1.279   4.355   4.738  0.3467 -0.8405  3.3558
 7895SOL     OW35143   1.580   2.638   4.789 -0.3916  0.0933  0.2649
 7895SOL    HW135144   1.556   2.698   4.860 -1.6327  0.7571 -0.7282
 7895SOL    HW235145   1.562   2.693   4.713  2.6757  1.9777  0.8980
 7896SOL     OW35146   3.882   1.712   2.949  0.0570  0.1556 -0.0999
 7896SOL    HW135147   3.883   1.756   3.034 -0.1333  1.8216 -0.9759
 7896SOL    HW235148   3.969   1.672   2.957  0.3205  1.1825  2.2059
 7897SOL     OW35149   2.294   2.822  10.200 -0.0949 -0.2013  0.3145
 7897SOL    HW135150   2.235   2.829  10.124  1.0053 -0.4110 -0.5678
 7897SOL    HW235151   2.239   2.764  10.252 -1.0955  0.2013 -0.2839
 7898SOL     OW35152   4.308   2.447   9.618 -0.5237  0.2766  0.0109
 7898SOL    HW135153   4.319   2.542   9.626  4.2260 -0.2877  0.2840
 7898SOL    HW235154   4.384   2.401   9.654 -0.2237  0.2838 -0.6185
 7899SOL     OW35155   0.739   2.036  14.756  0.0740  0.1112 -0.1042
 7899SOL    HW135156   0.647   2.056  14.739 -0.4721 -0.7659  1.7488
 7899SOL    HW235157   0.769   2.011  14.669 -0.2115  1.9688 -0.7376
 7900SOL     OW35158   2.657   2.018   1.617 -0.1837  0.0835  0.9080
 7900SOL    HW135159   2.606   2.099   1.619 -0.2382  0.1783 -4.3069
 7900SOL    HW235160   2.664   1.991   1.709  0.3065 -0.2728  0.7684
 7901SOL     OW35161   3.561   0.935   6.574  0.0735 -0.0906  0.2967
 7901SOL    HW135162   3.515   1.003   6.525 -0.6679 -0.8249 -0.0189
 7901SOL    HW235163   3.536   0.865   6.514  0.3501  0.2802 -0.2479
 7902SOL     OW35164   3.645   1.799   3.705  0.2369  0.2062  0.4770
 7902SOL    HW135165   3.656   1.726   3.767  2.7479 -2.6157 -3.3342
 7902SOL    HW235166   3.665   1.874   3.762  0.3664 -0.1710  0.9320
 7903SOL     OW35167   2.748   4.006   4.544  0.0739  0.5304  0.1713
 7903SOL    HW135168   2.666   4.024   4.589 -0.9680 -2.1160 -0.6935
 7903SOL    HW235169   2.760   3.925   4.592 -2.1659  0.0794 -0.0261
 7904SOL     OW35170   3.398   0.788   7.727 -0.3411  0.1383 -0.1007
 7904SOL    HW135171   3.373   0.880   7.744 -0.3512 -0.2915  2.2344
 7904SOL    HW235172   3.485   0.813   7.698  0.7581 -0.0249  2.9938
 7905SOL     OW35173   2.237   1.500   2.671 -0.3618  0.1992  0.1504
 7905SOL    HW135174   2.326   1.532   2.654  0.4896 -1.5627  1.1784
 7905SOL    HW235175   2.179   1.566   2.634 -0.7318 -0.4238 -0.4084
 7906SOL     OW35176   1.849   3.483   2.641 -0.0212  0.4046 -0.1484
 7906SOL    HW135177   1.764   3.518   2.668  0.0251  0.2185  0.2489
 7906SOL    HW235178   1.815   3.403   2.599  0.2394  0.8855 -1.2643
 7907SOL     OW35179   4.080   0.497   3.748  0.5903  0.3724 -0.8511
 7907SOL    HW135180   4.132   0.571   3.778  0.2856  0.7542 -1.2712
 7907SOL    HW235181   4.130   0.433   3.798 -0.9560 -1.2945 -1.4278
 7908SOL     OW35182   4.086   1.045   8.258 -0.1152  0.3291 -0.6668
 7908SOL    HW135183   4.065   0.952   8.258  1.6942 -0.0882 -0.5233
 7908SOL    HW235184   4.167   1.047   8.310 -0.3503  0.6054 -0.3107
 7909SOL     OW35185   1.501   1.421   5.649 -0.2543  0.5967 -0.5893
 7909SOL    HW135186   1.414   1.392   5.620 -0.8657 -0.0024  1.8207
 7909SOL    HW235187   1.530   1.491   5.591 -1.7375  2.0530  0.4236
 7910SOL     OW35188   0.011   1.247   8.687  0.0641 -0.2193  0.2732
 7910SOL    HW135189   0.008   1.163   8.641 -0.6604  0.0636 -0.2013
 7910SOL    HW235190   4.660   1.292   8.650  0.5644 -1.9616 -2.9467
 7911SOL     OW35191   1.929   4.723   0.156 -0.6178  0.2870 -0.6134
 7911SOL    HW135192   1.852   4.669   0.137 -0.8034  0.2800  0.1963
 7911SOL    HW235193   1.901   0.062   0.222  0.8328 -0.7334  0.9596
 7912SOL     OW35194   1.737   0.130   8.918 -0.5013  0.0313 -0.5404
 7912SOL    HW135195   1.815   0.129   8.862  0.0703  0.3479  0.2521
 7912SOL    HW235196   1.692   0.061   8.869  1.3696 -1.4913 -0.1332
 7913SOL     OW35197   4.069   0.556  11.658 -0.3475 -1.0475  0.2888
 7913SOL    HW135198   4.125   0.485  11.626 -0.0255 -0.3087 -0.7877
 7913SOL    HW235199   4.096   0.552  11.749  1.2567 -0.9354 -0.1961
 7914SOL     OW35200   2.649   4.615   8.425  0.6732 -0.1231 -0.3786
 7914SOL    HW135201   2.669   4.528   8.390  1.1401  0.5825 -1.8528
 7914SOL    HW235202   2.556   4.621   8.406  0.1488 -1.1351  1.8521
 7915SOL     OW35203   4.558   3.277  16.033 -0.1458  0.0703  0.4217
 7915SOL    HW135204   4.625   3.322  15.981  1.0911 -0.7085  1.3278
 7915SOL    HW235205   4.596   3.194  16.061 -0.3172  0.3624  1.4971
 7916SOL     OW35206   0.151   2.289   5.198 -0.5189  0.2513  0.0237
 7916SOL    HW135207   0.117   2.329   5.118 -1.5997 -1.0593 -0.1680
 7916SOL    HW235208   0.094   2.213   5.201  0.3684 -0.3384  2.1640
 7917SOL     OW35209   4.142   0.024  15.231 -0.0517 -0.2680 -0.5230
 7917SOL    HW135210   4.053   0.058  15.241  0.0913 -0.7313  2.1592
 7917SOL    HW235211   4.182   0.109  15.211  0.8626 -0.3860  0.8416
 7918SOL     OW35212   3.082   1.910  10.602 -0.2680  0.3306 -0.2154
 7918SOL    HW135213   3.054   1.876  10.517  2.5233 -1.3920 -0.4421
 7918SOL    HW235214   3.102   2.000  10.578  2.1715  0.0752  0.8109
 7919SOL     OW35215   1.087   2.132   2.768 -0.1978 -0.1751 -0.4714
 7919SOL    HW135216   1.172   2.089   2.760  0.7316  1.2328  1.7077
 7919SOL    HW235217   1.082   2.163   2.678  4.3397  1.7549 -0.0850
 7920SOL     OW35218   0.561   3.550  16.690  0.1484  0.1235  0.0184
 7920SOL    HW135219   0.649   3.540  16.726  1.0195  1.4111 -1.7754
 7920SOL    HW235220   0.586   3.588  16.606 -3.5823  4.4146  0.8236
 7921SOL     OW35221   2.356   0.003   3.738  0.3579 -0.1650 -0.2731
 7921SOL    HW135222   2.398   4.652   3.779  1.1798 -0.8300 -2.3469
 7921SOL    HW235223   2.426   0.038   3.684  1.5613 -1.1772  0.6226
 7922SOL     OW35224   1.260   0.686   8.809  0.1219 -0.2499  0.0405
 7922SOL    HW135225   1.210   0.636   8.744 -0.9143 -0.9703  1.3774
 7922SOL    HW235226   1.315   0.744   8.757  0.0760 -1.1281 -0.9851
 7923SOL     OW35227   2.157   0.962   6.310  0.2602 -0.5681 -0.2361
 7923SOL    HW135228   2.126   0.899   6.375 -1.1889 -1.0902 -1.4372
 7923SOL    HW235229   2.092   0.944   6.242 -2.8220  2.5045  1.9255
 7924SOL     OW35230   2.025   2.517  12.322 -0.6105  0.2367  0.0205
 7924SOL    HW135231   2.068   2.460  12.386 -0.7260 -0.2177 -0.3076
 7924SOL    HW235232   2.086   2.519  12.249  1.1329  2.4950  1.5437
 7925SOL     OW35233   3.403   0.724  11.184  0.3058  0.0521 -0.9415
 7925SOL    HW135234   3.476   0.779  11.154  2.0504  0.2923  3.7820
 7925SOL    HW235235   3.390   0.769  11.267  1.0646  1.1805 -1.4320
 7926SOL     OW35236   0.413   0.383   2.952 -0.0870 -0.3537  0.8229
 7926SOL    HW135237   0.467   0.457   2.982  1.3472 -1.1538  0.2088
 7926SOL    HW235238   0.480   0.320   2.926 -0.9616 -0.5205 -1.0347
 7927SOL     OW35239   4.602   1.425   4.556  0.0386  0.8267 -0.2439
 7927SOL    HW135240   4.618   1.432   4.462 -2.5552  1.9649 -0.5928
 7927SOL    HW235241   4.670   1.362   4.579 -1.0451  0.6105  2.3266
 7928SOL     OW35242   0.293   3.421  14.402  0.3097  0.1699  0.3873
 7928SOL    HW135243   0.366   3.420  14.340  1.4508 -0.2368  1.7316
 7928SOL    HW235244   0.291   3.514  14.426 -1.7305 -0.1424  1.4052
 7929SOL     OW35245   0.080   0.179   0.278  0.1366  1.1113 -0.1838
 7929SOL    HW135246   0.034   0.257   0.310 -1.2622 -0.5192  1.7371
 7929SOL    HW235247   0.028   0.104   0.304  0.8075 -0.4401 -3.4247
 7930SOL     OW35248   3.237   2.925   6.509  0.1589 -0.9555 -0.6086
 7930SOL    HW135249   3.267   2.874   6.584  1.4209  1.9998  0.8583
 7930SOL    HW235250   3.143   2.929   6.528  0.7139 -2.9600  2.5590
 7931SOL     OW35251   0.600   1.232   5.610 -0.8141 -0.1562 -0.0414
 7931SOL    HW135252   0.638   1.313   5.645 -0.0256 -0.2505 -0.6668
 7931SOL    HW235253   0.611   1.176   5.687  0.6661 -1.7045 -1.4006
 7932SOL     OW35254   1.305   3.959   5.690  0.0983 -0.0888 -0.5199
 7932SOL    HW135255   1.381   3.905   5.711 -0.3014 -0.1260  0.8513
 7932SOL    HW235256   1.247   3.944   5.765  0.5570  2.7827  0.4247
 7933SOL     OW35257   3.915   1.081   7.172  0.0215  0.3524 -0.6899
 7933SOL    HW135258   3.823   1.106   7.184  0.3185  0.6955  0.9372
 7933SOL    HW235259   3.949   1.133   7.099 -0.4627  0.8797 -0.5421
 7934SOL     OW35260   3.770   2.240  16.738  0.0893  0.3468  0.4245
 7934SOL    HW135261   3.722   2.209  16.661 -0.3358  1.7704  0.1188
 7934SOL    HW235262   3.708   2.309  16.762 -1.6500 -0.8407 -0.6086
 7935SOL     OW35263   1.022   2.859   1.141 -0.1719 -0.1844 -0.1713
 7935SOL    HW135264   1.026   2.775   1.186 -2.8754  0.7259  1.7923
 7935SOL    HW235265   1.105   2.860   1.094  0.2133  1.0343  0.5482
 7936SOL     OW35266   3.681   2.692   3.708  0.9520 -0.5974  0.3342
 7936SOL    HW135267   3.689   2.644   3.625  0.2058  1.3646 -0.8657
 7936SOL    HW235268   3.763   2.740   3.705  0.0614  0.8731 -0.0943
 7937SOL     OW35269   0.843   2.483   1.567 -0.1309  0.1686 -0.0039
 7937SOL    HW135270   0.922   2.531   1.546  0.9009 -0.4624  2.3893
 7937SOL    HW235271   0.781   2.519   1.504 -0.7712 -0.1994  0.4139
 7938SOL     OW35272   0.418   3.975   0.725 -0.1406  0.0669  0.2119
 7938SOL    HW135273   0.365   3.961   0.646  0.5643  1.7770 -0.5645
 7938SOL    HW235274   0.372   3.914   0.782 -0.8434 -0.7170 -1.1868
 7939SOL     OW35275   0.151   1.067   3.608 -0.1253 -0.0584  0.3676
 7939SOL    HW135276   0.134   1.153   3.646  2.3038 -0.3175  2.0385
 7939SOL    HW235277   0.207   1.093   3.535 -2.0067  2.2483 -0.2775
 7940SOL     OW35278   3.007   0.293   0.444 -0.1583  0.3343  0.2296
 7940SOL    HW135279   2.954   0.340   0.380 -2.9255 -1.0859  1.4560
 7940SOL    HW235280   3.086   0.341   0.423  2.0931 -2.8470  1.3385
 7941SOL     OW35281   3.411   3.737   1.608  0.0107  0.1871  0.0262
 7941SOL    HW135282   3.361   3.813   1.579  0.7234 -0.1212 -1.9657
 7941SOL    HW235283   3.428   3.699   1.522  1.7057 -0.8752  0.8514
 7942SOL     OW35284   3.676   1.646   7.509  0.1519  0.9495  0.1099
 7942SOL    HW135285   3.637   1.698   7.580  0.6835  0.6971  0.5841
 7942SOL    HW235286   3.594   1.617   7.469  0.5323  2.8904 -2.1130
 7943SOL     OW35287   2.987   0.422   8.096  0.2868 -0.4995 -0.3858
 7943SOL    HW135288   3.013   0.412   8.004 -0.3930  0.1144 -0.6499
 7943SOL    HW235289   2.994   0.333   8.131  0.3867 -0.4268 -0.2230
 7944SOL     OW35290   0.386   2.235   7.212 -0.4046 -0.4642  0.0084
 7944SOL    HW135291   0.397   2.264   7.121  2.0040 -0.6119  0.2453
 7944SOL    HW235292   0.301   2.272   7.236  0.3741  1.0741  0.3621
 7945SOL     OW35293   0.538   2.326   2.213  0.2970 -0.2165 -0.0522
 7945SOL    HW135294   0.459   2.371   2.242 -0.6980 -1.0346 -1.4781
 7945SOL    HW235295   0.609   2.332   2.276 -0.3577 -2.2565  0.8792
 7946SOL     OW35296   1.174   1.830  15.815 -0.1674 -0.2676  0.1242
 7946SOL    HW135297   1.198   1.828  15.907 -0.2021 -0.4671  0.1275
 7946SOL    HW235298   1.235   1.763  15.785  0.2572  0.0894  0.1766
 7947SOL     OW35299   1.081   2.000   3.883  0.5292  0.3256 -0.4238
 7947SOL    HW135300   1.112   1.993   3.973  0.7983 -0.5639 -0.5891
 7947SOL    HW235301   1.001   2.050   3.895 -0.0437 -0.2411 -1.8337
 7948SOL     OW35302   1.559   0.774   4.344 -0.1979  0.2444 -0.2830
 7948SOL    HW135303   1.552   0.682   4.369  1.6917 -0.1321 -1.0617
 7948SOL    HW235304   1.577   0.816   4.427 -0.5714 -2.4269  1.1537
 7949SOL     OW35305   4.519   1.931   2.230  0.2898  0.0658 -0.0289
 7949SOL    HW135306   4.435   1.912   2.188 -0.0326  2.8092 -0.6512
 7949SOL    HW235307   4.497   1.940   2.323  1.5069 -1.3394  0.4020
 7950SOL     OW35308   2.946   3.007   2.879  0.1711 -0.2923  0.5279
 7950SOL    HW135309   2.890   3.024   2.803 -0.2706 -0.0103  0.9223
 7950SOL    HW235310   2.982   3.093   2.901  0.4332  0.1749 -1.6386
 7951SOL     OW35311   0.416   3.604   7.986  0.2106  0.0517 -0.4226
 7951SOL    HW135312   0.467   3.550   7.927  1.7202  1.9799 -0.8704
 7951SOL    HW235313   0.348   3.635   7.927 -0.2237  1.8647  1.0148
 7952SOL     OW35314   3.101   4.712   7.974 -0.2478  0.1714  0.0380
 7952SOL    HW135315   3.116   0.056   7.909  1.8387 -0.0996  0.2148
 7952SOL    HW235316   3.056   4.650   7.917  0.0987  0.3997 -0.4898
 7953SOL     OW35317   1.412   1.985   4.428  0.8074 -0.1847  0.1593
 7953SOL    HW135318   1.330   2.016   4.466  0.4930 -2.1151  1.0485
 7953SOL    HW235319   1.455   2.066   4.402  3.2635 -1.1062  1.2916
 7954SOL     OW35320   1.952   0.688  10.921  0.5850  0.4674 -0.2348
 7954SOL    HW135321   1.937   0.643  11.004  1.3141  1.9643  0.7186
 7954SOL    HW235322   2.039   0.670  10.886 -0.3066 -2.7899 -0.7545
 7955SOL     OW35323   1.641   3.024  11.929 -0.4371 -0.1323  0.2400
 7955SOL    HW135324   1.714   3.085  11.923 -2.1635  1.7146 -1.5875
 7955SOL    HW235325   1.670   2.962  11.862 -1.3917  0.5107 -0.7501
 7956SOL     OW35326   3.081   0.789   8.385  0.3543 -0.2783  0.0206
 7956SOL    HW135327   3.046   0.855   8.446  3.0124  1.4541 -0.3272
 7956SOL    HW235328   3.007   0.768   8.329  0.9128 -0.8083 -0.5145
 7957SOL     OW35329   1.256   1.959   4.715  0.0084 -0.1736  0.3550
 7957SOL    HW135330   1.189   2.027   4.719  1.4261  1.1569  1.0105
 7957SOL    HW235331   1.333   2.011   4.737 -0.8604  1.6445 -0.9005
 7958SOL     OW35332   2.693   4.648   9.005  0.6577 -0.6619  0.0201
 7958SOL    HW135333   2.669   0.001   9.055  1.4440 -0.7092  0.4691
 7958SOL    HW235334   2.780   4.636   9.044  1.1223  1.3104 -0.4301
 7959SOL     OW35335   3.644   1.161   5.338  0.6609 -0.3024  0.5654
 7959SOL    HW135336   3.624   1.169   5.432  0.3225  1.1723  0.3600
 7959SOL    HW235337   3.628   1.252   5.313 -1.8457 -0.2034  2.4615
 7960SOL     OW35338   0.909   4.448   3.090  0.0737 -0.4021 -0.5925
 7960SOL    HW135339   0.916   4.373   3.149  2.2441  0.4932  0.3131
 7960SOL    HW235340   0.860   4.412   3.016  0.1851  2.0319 -1.8318
 7961SOL     OW35341   2.495   3.481   4.100  0.5378 -0.1027 -0.6388
 7961SOL    HW135342   2.406   3.495   4.132  0.4135 -2.1721 -0.0847
 7961SOL    HW235343   2.518   3.396   4.137 -0.3365  0.2558  0.7102
 7962SOL     OW35344   1.980   4.146   5.389 -0.0010  0.0387  0.2586
 7962SOL    HW135345   2.009   4.066   5.433  0.0014  0.4605  1.0215
 7962SOL    HW235346   1.898   4.153   5.440 -0.0121 -2.2006  0.5580
 7963SOL     OW35347   1.870   0.203  10.533  0.1305  0.1171 -0.2426
 7963SOL    HW135348   1.949   0.154  10.557  0.0485  1.0537  1.9776
 7963SOL    HW235349   1.808   0.196  10.606 -1.5198 -0.6549 -1.7293
 7964SOL     OW35350   2.816   2.561   1.989  0.1718  0.2729  0.9903
 7964SOL    HW135351   2.798   2.645   2.031  1.9182  1.5956 -0.9094
 7964SOL    HW235352   2.741   2.550   1.931 -0.0975  0.7548  1.2585
 7965SOL     OW35353   0.059   0.235   3.370  0.4198  0.2987 -0.4296
 7965SOL    HW135354   0.149   0.256   3.345  1.2230 -0.4200  1.8140
 7965SOL    HW235355   0.038   0.307   3.430  1.5846 -0.4494  0.8731
 7966SOL     OW35356   3.117   0.453  11.052  0.3620  0.0590 -0.0654
 7966SOL    HW135357   3.095   0.447  10.959  0.7403 -2.6617  0.0113
 7966SOL    HW235358   3.115   0.546  11.077  2.9263  0.7503 -2.3565
 7967SOL     OW35359   4.671   3.918   1.487 -0.5553 -0.0201 -0.1400
 7967SOL    HW135360   4.691   3.834   1.529 -1.6693  0.8522  2.1266
 7967SOL    HW235361   4.645   3.893   1.399 -1.7732 -0.5737  0.3842
 7968SOL     OW35362   0.548   2.597   3.417 -0.1048  0.0027 -0.5393
 7968SOL    HW135363   0.581   2.611   3.328  0.4290 -3.5462 -0.9032
 7968SOL    HW235364   0.455   2.602   3.399 -0.4196  0.7278  1.3195
 7969SOL     OW35365   0.316   1.564   1.721  0.0110 -0.8272  0.0140
 7969SOL    HW135366   0.342   1.539   1.810  1.1491  0.9212  0.1871
 7969SOL    HW235367   0.242   1.508   1.701 -1.5336  0.5023  2.0803
 7970SOL     OW35368   4.308   1.246  15.356  0.4205  0.4719 -0.0471
 7970SOL    HW135369   4.307   1.205  15.270 -1.0870 -0.3754  0.3655
 7970SOL    HW235370   4.295   1.338  15.335 -1.6651  0.4424  1.1719
 7971SOL     OW35371   0.028   2.826   2.244  0.2591  0.4770 -0.0081
 7971SOL    HW135372   0.052   2.915   2.216 -0.9918  0.8064 -0.0021
 7971SOL    HW235373   0.114   2.785   2.231  0.8478  1.2621  1.4422
 7972SOL     OW35374   0.369   3.212   8.915 -0.4671  0.0252 -0.2161
 7972SOL    HW135375   0.444   3.270   8.899 -1.3475  1.3094  0.3509
 7972SOL    HW235376   0.308   3.253   8.855 -2.7777 -0.7332  1.6303
 7973SOL     OW35377   1.632   1.325   2.898 -0.1807  1.1754  0.3943
 7973SOL    HW135378   1.642   1.391   2.967 -0.3292  0.0083  1.5296
 7973SOL    HW235379   1.714   1.329   2.850  1.5077  1.0317  3.2771
 7974SOL     OW35380   1.661   4.105   5.836 -1.2007  0.2454 -0.4029
 7974SOL    HW135381   1.729   4.076   5.775 -1.2797  2.0765 -1.3678
 7974SOL    HW235382   1.607   4.027   5.846  0.2522 -1.1575 -3.6169
 7975SOL     OW35383   4.441   1.091   8.304  0.2865  0.0923  0.4623
 7975SOL    HW135384   4.484   1.014   8.267  0.4707  0.3304  0.1853
 7975SOL    HW235385   4.418   1.064   8.393 -0.1305 -1.4239 -0.0962
 7976SOL     OW35386   2.309   3.091   2.404 -0.2382  0.5596 -0.1412
 7976SOL    HW135387   2.239   3.149   2.431  1.0790  0.6704  3.0040
 7976SOL    HW235388   2.289   3.081   2.311  0.2743  1.9713 -0.4030
 7977SOL     OW35389   3.632   4.687   6.679  0.1380 -0.3717 -0.0199
 7977SOL    HW135390   3.604   4.602   6.713  0.9019 -0.1724  1.1194
 7977SOL    HW235391   3.694   4.719   6.744  1.8975  0.1663 -1.9732
 7978SOL     OW35392   2.195   3.950  15.368 -0.0377  0.6619 -0.6025
 7978SOL    HW135393   2.155   3.947  15.281 -2.4672 -0.2705  0.5595
 7978SOL    HW235394   2.241   4.034  15.365  0.0735  0.6280  0.2720
 7979SOL     OW35395   2.133   2.820   3.047 -0.0894 -0.4430 -0.5788
 7979SOL    HW135396   2.181   2.902   3.032 -1.1002  0.1383 -0.6500
 7979SOL    HW235397   2.203   2.774   3.093 -1.8953  0.0006  2.6386
 7980SOL     OW35398   2.472   0.809  11.057  0.6294  0.5216  0.1474
 7980SOL    HW135399   2.468   0.716  11.035 -1.3071  0.6643 -0.1433
 7980SOL    HW235400   2.421   0.802  11.138  0.3838  0.5273 -0.0055
 7981SOL     OW35401   1.520   1.512  10.908  0.1085 -0.2132  0.1380
 7981SOL    HW135402   1.472   1.445  10.859 -1.0081 -1.2819  2.7127
 7981SOL    HW235403   1.499   1.482  10.996 -3.2808  0.8483 -0.2898
 7982SOL     OW35404   1.884   3.056   3.869 -0.4496 -0.4906  0.0622
 7982SOL    HW135405   1.876   3.120   3.798 -0.6777  1.7220  2.0748
 7982SOL    HW235406   1.950   3.098   3.924 -1.2273  1.7537 -0.7111
 7983SOL     OW35407   1.832   4.546   7.793  0.0755  0.2977 -1.1130
 7983SOL    HW135408   1.830   4.459   7.754  1.1695  0.4311 -1.4690
 7983SOL    HW235409   1.800   4.527   7.881 -0.4448  1.3603 -1.0628
 7984SOL     OW35410   0.238   4.713   4.035 -0.5015  0.2946 -0.1071
 7984SOL    HW135411   0.188   0.025   4.108 -1.7603 -0.9958 -0.3238
 7984SOL    HW235412   0.318   0.039   4.044  1.8042 -3.5094  0.7586
 7985SOL     OW35413   2.506   0.396   3.736  0.5426  0.1573 -0.2309
 7985SOL    HW135414   2.448   0.471   3.746 -2.2681 -1.8891 -0.9640
 7985SOL    HW235415   2.471   0.346   3.662  1.2511  2.0276 -1.8456
 7986SOL     OW35416   2.601   3.070   3.780  0.1008 -0.1932 -0.4604
 7986SOL    HW135417   2.514   3.058   3.818 -0.9245  1.4168 -2.2875
 7986SOL    HW235418   2.604   3.165   3.792 -0.2247 -0.1379 -0.8192
 7987SOL     OW35419   2.061   3.305   0.293  0.1486 -0.6346  0.4762
 7987SOL    HW135420   1.998   3.276   0.359  0.1865  1.6469  1.5037
 7987SOL    HW235421   2.136   3.333   0.346 -0.4358  1.1170  0.3432
 7988SOL     OW35422   3.858   1.621   1.378  0.3952 -0.5603 -0.1686
 7988SOL    HW135423   3.800   1.549   1.354  0.5588  0.2925 -3.1331
 7988SOL    HW235424   3.931   1.612   1.317 -0.2791 -1.4618 -0.8348
 7989SOL     OW35425   3.562   3.707   4.450  0.1003  0.2413  0.1032
 7989SOL    HW135426   3.487   3.763   4.468  2.2656  2.2243  2.9683
 7989SOL    HW235427   3.624   3.763   4.497  1.1503  0.2985 -1.3765
 7990SOL     OW35428   0.581   1.406   2.608 -0.7667 -0.3051 -0.3124
 7990SOL    HW135429   0.517   1.335   2.605 -1.7718  0.5995 -0.3425
 7990SOL    HW235430   0.666   1.365   2.592 -0.6432 -0.1357 -0.0865
 7991SOL     OW35431   0.496   3.581   2.906 -0.1768 -0.3671  0.3371
 7991SOL    HW135432   0.587   3.585   2.937  0.0542 -0.1527 -0.3649
 7991SOL    HW235433   0.446   3.619   2.979  1.3550  0.7192  0.8277
 7992SOL     OW35434   1.124   3.629   8.054 -0.2872  0.1863 -0.1811
 7992SOL    HW135435   1.192   3.679   8.009 -1.0465  0.6461 -0.8190
 7992SOL    HW235436   1.095   3.694   8.117  1.9623 -0.0979  1.1331
 7993SOL     OW35437   2.584   2.999  10.810 -0.1103  0.3250 -0.5146
 7993SOL    HW135438   2.587   3.071  10.746  1.0146 -0.5226 -1.4234
 7993SOL    HW235439   2.537   2.923  10.776 -0.0211 -0.0817  0.2878
 7994SOL     OW35440   3.862   1.526   3.214 -0.2970  0.3544  0.0234
 7994SOL    HW135441   3.923   1.510   3.286  1.0439 -1.3240 -1.5024
 7994SOL    HW235442   3.920   1.590   3.172 -0.4438 -0.4384 -1.3658
 7995SOL     OW35443   0.488   0.750   7.414 -0.2193 -0.7848  0.3326
 7995SOL    HW135444   0.436   0.724   7.338  1.5204 -0.1578 -1.0809
 7995SOL    HW235445   0.444   0.701   7.483  0.1670 -1.2436  0.2439
 7996SOL     OW35446   1.637   1.501   1.506 -0.0750 -0.2525  0.0713
 7996SOL    HW135447   1.700   1.428   1.504  0.0495 -0.1068 -1.1882
 7996SOL    HW235448   1.687   1.568   1.553  0.9456  0.1695 -1.5961
 7997SOL     OW35449   1.785   2.854   4.011  0.1051  0.0276  0.3820
 7997SOL    HW135450   1.832   2.924   3.967  2.3934 -0.9565  1.2763
 7997SOL    HW235451   1.832   2.775   3.984  0.9301  0.5999  0.1509
 7998SOL     OW35452   1.414   3.490  10.394  0.0465  0.6366 -0.3562
 7998SOL    HW135453   1.497   3.523  10.359 -0.4885 -0.0794 -2.3240
 7998SOL    HW235454   1.356   3.535  10.332 -1.4959 -1.3174 -0.3517
 7999SOL     OW35455   1.824   4.600   6.789  0.5434  0.0784  0.1732
 7999SOL    HW135456   1.851   4.602   6.880  0.6247  0.1676  0.1463
 7999SOL    HW235457   1.782   4.685   6.775 -0.9811 -0.5872  0.6734
 8000SOL     OW35458   2.987   2.556   6.112  0.1534  0.4568 -0.5385
 8000SOL    HW135459   2.957   2.588   6.197  2.0010  4.2484 -1.3455
 8000SOL    HW235460   2.999   2.640   6.068 -0.7582  0.8655 -0.0236
 8001SOL     OW35461   1.991   3.066   3.203 -0.3149 -0.0910  0.3207
 8001SOL    HW135462   1.971   3.057   3.110  0.1169  3.1357 -0.0598
 8001SOL    HW235463   2.007   2.974   3.225 -0.7890  0.2129  1.9601
 8002SOL     OW35464   3.379   2.783   9.382 -0.7494 -0.1135 -0.0417
 8002SOL    HW135465   3.371   2.708   9.323  0.1660  0.3866 -0.7801
 8002SOL    HW235466   3.418   2.846   9.322 -3.2820  2.1407  0.6523
 8003SOL     OW35467   0.770   1.703  10.263 -0.1376 -0.0834 -0.7589
 8003SOL    HW135468   0.789   1.777  10.321  0.2624 -1.4837  0.9044
 8003SOL    HW235469   0.722   1.645  10.322 -1.2453 -0.6769 -2.2443
 8004SOL     OW35470   3.458   0.654   2.104 -0.2090  0.7614 -0.4731
 8004SOL    HW135471   3.542   0.638   2.061 -0.6172 -1.6769 -0.4073
 8004SOL    HW235472   3.440   0.740   2.067 -3.0386  1.0589  1.5734
 8005SOL     OW35473   1.243   3.684   4.243 -0.5584  0.0183 -0.3934
 8005SOL    HW135474   1.278   3.627   4.174 -1.6464  0.8235 -1.5996
 8005SOL    HW235475   1.323   3.684   4.296 -1.3408  0.4404  0.7969
 8006SOL     OW35476   1.037   3.005   4.828 -0.5916 -0.3400 -0.0340
 8006SOL    HW135477   0.942   3.008   4.817 -0.6793  1.5706  1.3725
 8006SOL    HW235478   1.072   3.074   4.772 -0.6116  1.3580  2.0601
 8007SOL     OW35479   3.575   2.734   5.387 -0.7118 -0.2410  0.0384
 8007SOL    HW135480   3.659   2.745   5.343 -1.4986  1.0249 -1.1422
 8007SOL    HW235481   3.539   2.822   5.381 -0.7955 -0.1571  1.6573
 8008SOL     OW35482   4.268   3.741   6.318 -0.2732 -0.3808 -0.7615
 8008SOL    HW135483   4.224   3.657   6.311  1.5680 -1.2291 -1.9918
 8008SOL    HW235484   4.312   3.757   6.235 -1.3520  2.8760 -0.7151
 8009SOL     OW35485   0.915   2.268   8.079  0.4545 -0.7380  0.7405
 8009SOL    HW135486   0.844   2.238   8.136 -1.4172  0.9130 -0.7062
 8009SOL    HW235487   0.960   2.342   8.120 -1.7820  0.0230  1.8380
 8010SOL     OW35488   3.737   2.331  11.785  0.1406 -0.2942 -0.1647
 8010SOL    HW135489   3.745   2.314  11.878  1.4783  2.1512  0.1732
 8010SOL    HW235490   3.803   2.277  11.741 -1.7500 -1.5672 -1.4620
 8011SOL     OW35491   0.250   0.383  11.554  0.1367 -0.4064  0.0770
 8011SOL    HW135492   0.327   0.429  11.521  0.0071 -0.4953 -0.3499
 8011SOL    HW235493   0.283   0.293  11.560 -1.3453 -0.9746 -0.3262
 8012SOL     OW35494   4.142   1.747   9.336 -0.3132 -0.1233 -0.7686
 8012SOL    HW135495   4.131   1.764   9.429 -1.2363 -0.7197 -0.7701
 8012SOL    HW235496   4.184   1.661   9.334 -0.2445 -0.1224  0.8175
 8013SOL     OW35497   3.008   1.648   5.865  0.8908  0.3968  0.3482
 8013SOL    HW135498   2.920   1.657   5.900  1.1089 -1.8465  1.4083
 8013SOL    HW235499   3.009   1.729   5.814 -4.1445 -1.4317 -2.5902
 8014SOL     OW35500   1.401   3.425   3.708 -0.1757  0.0804  0.6757
 8014SOL    HW135501   1.492   3.453   3.716  0.1666 -1.1564  1.0897
 8014SOL    HW235502   1.375   3.511   3.742 -0.8595  0.2589 -0.3286
 8015SOL     OW35503   3.695   0.820   4.584 -0.4339  0.2817 -0.4637
 8015SOL    HW135504   3.756   0.887   4.614  0.3275 -0.0803 -1.1933
 8015SOL    HW235505   3.620   0.875   4.563 -0.7305  0.0541  0.0038
 8016SOL     OW35506   1.752   3.642   1.194 -0.2403 -0.2954 -0.0469
 8016SOL    HW135507   1.808   3.699   1.140 -0.6873 -0.7784 -1.0176
 8016SOL    HW235508   1.697   3.715   1.224  1.6932  0.5536  1.4146
 8017SOL     OW35509   3.681   1.314  17.285 -0.4116 -0.0512  0.4113
 8017SOL    HW135510   3.699   1.278  17.199  0.0946  0.2052  0.4148
 8017SOL    HW235511   3.750   1.378  17.302 -1.6465  0.8433  2.1727
 8018SOL     OW35512   1.294   3.713  10.528  0.2147 -0.0338  0.2112
 8018SOL    HW135513   1.326   3.630  10.492 -0.2573 -0.7933  1.5283
 8018SOL    HW235514   1.207   3.706  10.490  0.5365 -2.1308 -0.1647
 8019SOL     OW35515   3.087   3.456  17.326  0.2209  0.2345 -0.0087
 8019SOL    HW135516   3.106   3.413  17.242  0.7800  2.6851 -1.1630
 8019SOL    HW235517   3.166   3.438  17.376  0.5311 -1.6223 -1.1758
 8020SOL     OW35518   4.302   3.675  11.477 -0.1816  0.3023  0.4485
 8020SOL    HW135519   4.292   3.604  11.414 -0.1285  1.2941 -0.6843
 8020SOL    HW235520   4.395   3.695  11.483 -0.1600  0.1513  0.6047
 8021SOL     OW35521   1.697   0.349   0.772  0.0402 -0.1665 -0.5335
 8021SOL    HW135522   1.736   0.261   0.768  2.6032  0.9636 -0.7344
 8021SOL    HW235523   1.732   0.393   0.694 -0.8767  0.4452 -0.5902
 8022SOL     OW35524   3.328   1.543   6.329  0.4284  0.0809 -0.3218
 8022SOL    HW135525   3.379   1.617   6.297 -0.9568  2.0755  2.0922
 8022SOL    HW235526   3.344   1.477   6.262  0.2874  0.5761 -0.8446
 8023SOL     OW35527   4.604   1.364  14.737 -0.4740  0.8189 -0.1857
 8023SOL    HW135528   4.637   1.362  14.648 -0.6778 -0.7312 -0.2191
 8023SOL    HW235529   4.517   1.330  14.716 -0.3091  1.1819 -1.4290
 8024SOL     OW35530   3.466   4.722   5.078 -0.2801  0.4547 -0.1842
 8024SOL    HW135531   3.462   0.092   5.092 -0.3818  0.2652  0.9955
 8024SOL    HW235532   3.467   4.686   5.166  0.9063 -0.9141 -0.7551
 8025SOL     OW35533   1.987   3.030  12.175 -0.3855 -0.3089  0.1882
 8025SOL    HW135534   2.001   2.939  12.200  0.6008 -0.3266 -0.4413
 8025SOL    HW235535   2.063   3.072  12.214 -1.0138  0.1836  0.9019
 8026SOL     OW35536   0.617   4.100   4.940  0.3952 -0.0309 -0.3572
 8026SOL    HW135537   0.670   4.065   5.012 -0.4188 -1.4766 -0.4471
 8026SOL    HW235538   0.559   4.024   4.931  1.0082 -0.6103  0.4949
 8027SOL     OW35539   2.164   3.935  16.254 -0.4969 -0.2149  0.1659
 8027SOL    HW135540   2.183   3.844  16.231 -2.7653 -0.9807  1.2940
 8027SOL    HW235541   2.071   3.930  16.279 -0.7223  0.0227 -0.6217
 8028SOL     OW35542   0.868   3.701   9.146  0.0116 -0.1739 -0.3882
 8028SOL    HW135543   0.872   3.610   9.177  0.8572  0.3179  0.8930
 8028SOL    HW235544   0.922   3.691   9.067 -0.2670  1.1485 -0.7459
 8029SOL     OW35545   2.540   1.008  10.873  0.2515 -0.4382  0.1158
 8029SOL    HW135546   2.542   0.930  10.929 -0.0746 -0.5637 -0.0447
 8029SOL    HW235547   2.555   0.965  10.788 -2.9020  1.0589 -1.1774
 8030SOL     OW35548   1.053   2.381   3.341  0.4900  0.2256 -0.2911
 8030SOL    HW135549   1.130   2.428   3.312  0.8290 -0.7092 -0.9064
 8030SOL    HW235550   0.990   2.409   3.275  0.2038  2.5412  0.9380
 8031SOL     OW35551   1.248   3.738  11.300 -0.0025 -0.4322 -0.4057
 8031SOL    HW135552   1.226   3.720  11.391  0.5049  0.2132 -0.1493
 8031SOL    HW235553   1.170   3.788  11.279  0.2309  0.5786  1.0915
 8032SOL     OW35554   1.029   2.355  16.371  0.1975 -0.8767  0.0711
 8032SOL    HW135555   1.064   2.310  16.448  1.5636  0.1002  0.0288
 8032SOL    HW235556   1.029   2.284  16.308 -0.8510 -0.8836  0.0825
 8033SOL     OW35557   4.119   1.191  14.612  0.4907  0.0418  0.0639
 8033SOL    HW135558   4.115   1.127  14.683 -0.3686  0.2948  0.2416
 8033SOL    HW235559   4.051   1.158  14.554  1.2649  0.1863 -0.9241
 8034SOL     OW35560   3.498   4.588   5.330 -0.6600  0.4794 -0.7763
 8034SOL    HW135561   3.571   4.533   5.361 -0.9263 -0.6839 -2.2148
 8034SOL    HW235562   3.431   4.584   5.399  1.1266 -0.6884  0.8955
 8035SOL     OW35563   3.040   1.163   6.079  0.4260 -0.3232  0.1993
 8035SOL    HW135564   2.988   1.170   5.999  2.7955 -1.6592 -1.4690
 8035SOL    HW235565   3.000   1.228   6.137  0.1821  1.4945 -2.0478
 8036SOL     OW35566   3.426   1.007   3.803 -0.3237 -0.0130  0.7185
 8036SOL    HW135567   3.461   1.089   3.769 -0.6333  0.7800  2.3267
 8036SOL    HW235568   3.336   1.005   3.771 -0.6690  0.2231  1.6710
 8037SOL     OW35569   3.594   3.570   2.154  0.1561  0.5520 -0.5475
 8037SOL    HW135570   3.677   3.527   2.136  0.4263  0.6309  0.5375
 8037SOL    HW235571   3.582   3.605   2.066 -1.1926  1.7442  0.1089
 8038SOL     OW35572   3.281   4.716  15.141 -0.4083 -0.7964 -0.0005
 8038SOL    HW135573   3.344   4.650  15.171 -1.8758 -0.5954  3.5469
 8038SOL    HW235574   3.253   4.685  15.056 -1.5827  0.5709 -0.1160
 8039SOL     OW35575   0.706   0.134   8.661  0.0048 -0.7940  0.0409
 8039SOL    HW135576   0.668   0.185   8.733 -0.0224  0.1998 -0.6851
 8039SOL    HW235577   0.650   0.057   8.651 -0.8013 -0.3524  1.1088
 8040SOL     OW35578   1.252   3.443   0.425 -0.2109 -0.4880 -0.0931
 8040SOL    HW135579   1.277   3.400   0.343 -1.8493  1.6216 -1.7160
 8040SOL    HW235580   1.266   3.378   0.494  1.9163  0.2810  0.2064
 8041SOL     OW35581   3.161   2.173   8.420  0.1763 -0.5967 -0.1171
 8041SOL    HW135582   3.073   2.192   8.451  0.4769 -0.7110  0.8131
 8041SOL    HW235583   3.196   2.130   8.498  1.2257  1.7959  0.7424
 8042SOL     OW35584   2.147   1.956   6.020 -0.3599 -0.5326  0.4119
 8042SOL    HW135585   2.196   1.951   6.102 -0.1808 -1.3140  0.2551
 8042SOL    HW235586   2.194   2.025   5.973 -0.3811 -0.8137 -0.0175
 8043SOL     OW35587   1.029   2.310  11.272 -0.1492  0.3680 -0.0891
 8043SOL    HW135588   0.936   2.334  11.261 -0.5798 -1.4844 -0.4415
 8043SOL    HW235589   1.035   2.345  11.361  0.3842  0.3530 -0.1231
 8044SOL     OW35590   1.449   4.725   1.167  0.5267 -0.7951 -0.4026
 8044SOL    HW135591   1.543   4.715   1.177  0.5298  0.7510  1.0864
 8044SOL    HW235592   1.436   0.017   1.074  1.1653  0.9079 -0.1754
 8045SOL     OW35593   0.921   1.879   4.877  0.1910 -1.3586 -0.2566
 8045SOL    HW135594   0.902   1.959   4.827 -0.2678 -2.8387 -2.4942
 8045SOL    HW235595   0.914   1.815   4.806 -1.8871  0.7347 -1.9785
 8046SOL     OW35596   1.913   3.321  12.148 -0.3733 -0.2003  0.0963
 8046SOL    HW135597   1.863   3.294  12.071 -0.9005  0.2830  0.2740
 8046SOL    HW235598   1.932   3.239  12.193 -0.0327 -0.4118 -0.4266
 8047SOL     OW35599   0.561   2.223  11.126  0.3403 -0.4616  0.2111
 8047SOL    HW135600   0.500   2.248  11.056 -1.7439  0.8051  2.4769
 8047SOL    HW235601   0.503   2.165  11.176  1.1967 -0.8819  0.7019
 8048SOL     OW35602   4.683   2.920   4.277 -0.1353 -0.4307 -0.5137
 8048SOL    HW135603   0.036   2.952   4.232 -0.4537  0.0452 -0.7383
 8048SOL    HW235604   4.719   2.851   4.332 -0.4734  0.9212  1.3898
 8049SOL     OW35605   1.880   0.254   4.740  0.2446  0.2638 -0.5406
 8049SOL    HW135606   1.949   0.192   4.765  0.0295 -0.2052 -1.1171
 8049SOL    HW235607   1.826   0.258   4.818 -0.4669 -1.9692 -0.9240
 8050SOL     OW35608   2.578   3.775   3.554 -0.0528  0.6719 -0.7070
 8050SOL    HW135609   2.504   3.834   3.546 -0.4237  0.1789 -0.9152
 8050SOL    HW235610   2.577   3.729   3.638 -3.5130  0.9755 -0.5880
 8051SOL     OW35611   1.510   0.965   7.334 -0.1640  0.0102 -0.5515
 8051SOL    HW135612   1.417   0.958   7.358  0.4842 -2.3436  1.2019
 8051SOL    HW235613   1.530   1.045   7.382  0.1516  1.0524 -2.4188
 8052SOL     OW35614   3.843   3.073   6.047  0.0110 -0.4993 -0.5687
 8052SOL    HW135615   3.792   2.997   6.019  2.7174 -1.9248 -1.7134
 8052SOL    HW235616   3.784   3.144   6.023  1.0500 -0.0076 -1.6816
 8053SOL     OW35617   1.394   3.779   5.136  0.0989 -0.3420 -0.2100
 8053SOL    HW135618   1.456   3.768   5.064 -0.5972 -1.5600 -0.6106
 8053SOL    HW235619   1.344   3.858   5.114 -1.8090 -1.5984 -0.3965
 8054SOL     OW35620   4.118   3.245  11.657  0.3097 -0.0756  0.4115
 8054SOL    HW135621   4.194   3.213  11.609  0.9252 -0.3578  1.5716
 8054SOL    HW235622   4.060   3.296  11.601  1.3178  1.4119  0.7164
 8055SOL     OW35623   1.887   0.853   7.259  0.5360 -0.4050  0.4951
 8055SOL    HW135624   1.851   0.891   7.339 -0.2371 -1.8658  0.8407
 8055SOL    HW235625   1.806   0.846   7.208  1.0601  0.0622 -0.4066
 8056SOL     OW35626   2.711   1.736   1.354 -0.3944  0.1009 -0.2870
 8056SOL    HW135627   2.709   1.712   1.447 -4.8931 -0.8584 -0.6050
 8056SOL    HW235628   2.725   1.652   1.311  1.4647 -0.4761  1.4436
 8057SOL     OW35629   1.252   2.009   9.238 -0.3044 -0.2617 -0.3401
 8057SOL    HW135630   1.205   2.016   9.156  1.9250 -0.5160 -1.6502
 8057SOL    HW235631   1.236   2.096   9.274  0.3139 -0.3428  0.1394
 8058SOL     OW35632   2.131   2.762   0.023  0.0896  0.1881 -0.3002
 8058SOL    HW135633   2.047   2.799  17.698 -0.7692 -2.6740 -1.5836
 8058SOL    HW235634   2.168   2.767  17.636  1.6765 -0.9369  0.2842
 8059SOL     OW35635   2.573   1.109   9.365 -0.4869  0.5759  0.5069
 8059SOL    HW135636   2.629   1.067   9.301 -0.9390  3.1222 -1.5521
 8059SOL    HW235637   2.514   1.036   9.386 -0.5707  0.7134  0.7580
 8060SOL     OW35638   3.676   3.837   4.655  0.1817 -0.6036  0.6213
 8060SOL    HW135639   3.674   3.786   4.736 -0.1741  0.8761  1.5470
 8060SOL    HW235640   3.671   3.924   4.695 -0.8944 -0.0789 -0.6628
 8061SOL     OW35641   1.350   4.458   3.708  0.1349  0.0474 -0.4002
 8061SOL    HW135642   1.380   4.529   3.764  0.4766 -1.5453  1.4452
 8061SOL    HW235643   1.258   4.483   3.715 -0.3442 -1.1752 -2.4127
 8062SOL     OW35644   0.146   1.262   8.923 -0.1241 -0.3409 -0.3981
 8062SOL    HW135645   0.127   1.265   8.829  2.9698 -2.0245 -1.0957
 8062SOL    HW235646   0.066   1.216   8.946  0.4071 -1.3424 -0.5588
 8063SOL     OW35647   1.940   0.356   7.672  0.1295 -0.3267 -0.3132
 8063SOL    HW135648   2.006   0.288   7.681 -1.5655 -1.9608 -0.2292
 8063SOL    HW235649   1.946   0.386   7.763  1.0397  0.9812 -0.8068
 8064SOL     OW35650   3.545   2.132  17.475  0.2051  0.1926 -0.5747
 8064SOL    HW135651   3.520   2.098  17.389  0.0344  0.3262 -0.5760
 8064SOL    HW235652   3.601   2.061  17.507 -0.9946  0.4154  2.0136
 8065SOL     OW35653   2.149   4.600   4.324  0.0645  0.6262 -0.3966
 8065SOL    HW135654   2.164   4.694   4.323  1.5935  0.3926  0.2897
 8065SOL    HW235655   2.074   4.600   4.265 -0.5767  2.1735  0.4196
 8066SOL     OW35656   2.605   3.972   4.255 -0.2229 -0.2653  0.8945
 8066SOL    HW135657   2.523   3.961   4.302 -0.5714  2.1113  0.8249
 8066SOL    HW235658   2.647   4.029   4.318 -2.6283  0.6182  1.6502
 8067SOL     OW35659   1.336   0.130   3.478 -0.1040  0.9932 -0.1790
 8067SOL    HW135660   1.242   0.116   3.484  0.3575 -0.9483  2.5912
 8067SOL    HW235661   1.337   0.223   3.501  1.9510  0.7720  0.6349
 8068SOL     OW35662   3.081   3.670   3.403  0.0280 -0.4107  0.2524
 8068SOL    HW135663   2.994   3.708   3.388 -0.3279 -0.7711  1.4061
 8068SOL    HW235664   3.133   3.737   3.448 -1.4862 -0.2337  1.7425
 8069SOL     OW35665   1.627   2.759   4.539  0.2050 -0.4097 -0.1789
 8069SOL    HW135666   1.634   2.708   4.459  1.6174  0.5205 -0.6401
 8069SOL    HW235667   1.716   2.777   4.567 -0.3800 -0.9505  2.0884
 8070SOL     OW35668   3.682   2.967   4.989 -0.4290  0.2683 -0.2135
 8070SOL    HW135669   3.664   2.881   4.951 -0.1786 -0.2666  0.8799
 8070SOL    HW235670   3.720   3.008   4.912 -0.0008 -0.6758 -0.5010
 8071SOL     OW35671   1.147   4.133  17.565  0.0023 -0.1765 -0.1070
 8071SOL    HW135672   1.225   4.166  17.610 -1.2312  0.5935  1.4766
 8071SOL    HW235673   1.140   4.047  17.606  2.5091  0.3096  1.3333
 8072SOL     OW35674   0.845   4.564   5.907 -0.3062 -0.2581 -0.1155
 8072SOL    HW135675   0.821   4.562   5.814 -0.4061  0.5842 -0.1010
 8072SOL    HW235676   0.804   4.647   5.932 -0.5420 -0.4693  0.1978
 8073SOL     OW35677   3.796   3.729   0.929 -0.2051 -0.3039  0.3401
 8073SOL    HW135678   3.808   3.660   0.865  2.0269  0.1397  0.2812
 8073SOL    HW235679   3.792   3.801   0.866 -0.5338 -0.1046  0.5860
 8074SOL     OW35680   0.351   4.128   4.046  0.0734  0.5451 -0.6325
 8074SOL    HW135681   0.353   4.160   3.956 -0.1929  0.5558 -0.6350
 8074SOL    HW235682   0.374   4.036   4.033 -2.4122 -0.1573 -0.1173
 8075SOL     OW35683   2.749   2.781   7.103 -0.2809  0.0178  0.0842
 8075SOL    HW135684   2.778   2.781   7.194 -0.8065  1.3808  0.2505
 8075SOL    HW235685   2.709   2.695   7.093 -0.8637  0.1168  1.4775
 8076SOL     OW35686   0.367   3.915   8.974 -0.6907  0.2846  0.9494
 8076SOL    HW135687   0.312   3.950   9.044 -0.1822  2.0591  0.4729
 8076SOL    HW235688   0.441   3.887   9.029 -0.5050 -0.3170  0.3922
 8077SOL     OW35689   0.771   2.639  10.500  0.0829 -0.0566 -0.1202
 8077SOL    HW135690   0.749   2.558  10.547  3.5204 -0.3782  0.9742
 8077SOL    HW235691   0.747   2.698  10.571  0.5303  1.3660 -1.1552
 8078SOL     OW35692   1.199   1.941   5.873  0.1717  0.0868 -0.6348
 8078SOL    HW135693   1.209   1.847   5.865  1.4213  0.0231  1.7064
 8078SOL    HW235694   1.284   1.960   5.913  0.6604 -1.2281 -1.0741
 8079SOL     OW35695   1.912   2.257   8.036  0.1670  0.6945 -0.6358
 8079SOL    HW135696   1.983   2.318   8.053  0.5605  0.3014 -0.8777
 8079SOL    HW235697   1.848   2.322   8.006  0.2616  0.7177 -0.7863
 8080SOL     OW35698   0.966   2.333  17.680 -0.2894  0.4054 -0.3057
 8080SOL    HW135699   0.874   2.314  17.665  0.1718 -2.3194  0.3676
 8080SOL    HW235700   0.983   2.415  17.633 -0.6522  1.7339  1.8674
 8081SOL     OW35701   3.841   0.571  13.270 -0.1970 -0.3024  0.4574
 8081SOL    HW135702   3.881   0.656  13.287  0.7878 -0.9601  1.5021
 8081SOL    HW235703   3.779   0.568  13.343 -1.7832  2.7562 -0.7605
 8082SOL     OW35704   3.486   4.121   0.675  0.0120 -0.3320 -0.2987
 8082SOL    HW135705   3.537   4.047   0.707 -0.3371  1.6561  4.9253
 8082SOL    HW235706   3.548   4.186   0.642  2.3287 -1.1928  2.2772
 8083SOL     OW35707   0.774   2.221  13.117 -0.4199 -0.2046  0.0328
 8083SOL    HW135708   0.829   2.262  13.184 -1.0063 -0.0274  0.4094
 8083SOL    HW235709   0.690   2.257  13.146  0.5498  3.0810 -1.1898
 8084SOL     OW35710   2.468   0.544  16.329  0.1999  0.3906 -0.2999
 8084SOL    HW135711   2.470   0.554  16.424  1.5639 -1.5866 -0.1100
 8084SOL    HW235712   2.375   0.564  16.313  0.6588 -0.4962 -3.9858
 8085SOL     OW35713   1.779   1.736   3.574 -0.2498  1.0440  0.4817
 8085SOL    HW135714   1.758   1.767   3.662  1.7305 -3.1904  2.4680
 8085SOL    HW235715   1.841   1.666   3.595 -1.0990 -0.0294 -0.5698
 8086SOL     OW35716   3.348   4.628  11.277  0.2046  0.1402 -0.0281
 8086SOL    HW135717   3.335   4.716  11.313 -2.7386  0.0943 -1.0351
 8086SOL    HW235718   3.270   4.583  11.309 -0.7369  2.1129  0.4871
 8087SOL     OW35719   1.654   4.676   8.518  0.0211 -0.4509  0.4476
 8087SOL    HW135720   1.742   4.705   8.491 -0.1790  0.6074  0.9162
 8087SOL    HW235721   1.630   0.017   8.584  0.7281 -1.3496  1.6010
 8088SOL     OW35722   0.907   3.446   9.243 -0.3382 -0.0015  0.3863
 8088SOL    HW135723   0.972   3.472   9.309  0.5311 -2.5327  0.5093
 8088SOL    HW235724   0.837   3.415   9.301 -0.3687 -2.2025 -0.8287
 8089SOL     OW35725   2.422   2.970  10.433 -0.9533  1.1143 -0.1365
 8089SOL    HW135726   2.441   2.891  10.383 -0.6932  0.2630  1.3136
 8089SOL    HW235727   2.342   2.941  10.476 -1.1136 -0.7157 -1.6747
 8090SOL     OW35728   4.160   3.594   6.625  0.1841 -0.5992  0.3149
 8090SOL    HW135729   4.183   3.685   6.609  1.5657 -1.1512 -0.8181
 8090SOL    HW235730   4.092   3.573   6.561 -0.3368 -0.1996  0.7402
 8091SOL     OW35731   2.954   4.405   2.670  0.4688 -0.2088  0.3221
 8091SOL    HW135732   2.990   4.316   2.665  1.1849 -0.0678  2.8410
 8091SOL    HW235733   2.868   4.375   2.701  0.9493 -2.0102 -0.0533
 8092SOL     OW35734   3.954   2.934  16.360 -0.0044  0.2974 -0.4097
 8092SOL    HW135735   4.032   2.880  16.373 -0.3140  0.2267  1.1583
 8092SOL    HW235736   3.993   3.016  16.329  0.0230  0.1420 -0.7816
 8093SOL     OW35737   4.600   3.456   2.270  0.3610  0.1897 -0.2058
 8093SOL    HW135738   4.624   3.365   2.251 -0.1090  0.1195 -0.4668
 8093SOL    HW235739   4.506   3.439   2.259  0.3552 -0.1603  0.3862
 8094SOL     OW35740   1.486   0.366   5.723  0.5264 -0.1075 -0.2712
 8094SOL    HW135741   1.478   0.299   5.655  0.8319  0.1465 -0.5595
 8094SOL    HW235742   1.455   0.445   5.678 -0.8272 -0.8210 -0.5979
 8095SOL     OW35743   3.628   0.897   9.047  0.3907  0.0883 -0.2740
 8095SOL    HW135744   3.702   0.940   9.090  0.3006  0.1482 -0.1785
 8095SOL    HW235745   3.652   0.892   8.955  0.5187  1.8314 -0.3390
 8096SOL     OW35746   1.100   3.480   7.606 -0.3569 -0.0438 -0.9258
 8096SOL    HW135747   1.029   3.492   7.544  0.2237  0.5147 -1.4821
 8096SOL    HW235748   1.121   3.570   7.628  1.7374 -0.3803 -1.5025
 8097SOL     OW35749   3.916   2.912  15.998 -0.2443 -0.2568  0.1547
 8097SOL    HW135750   3.891   2.905  15.906  0.6054 -0.2406 -0.0781
 8097SOL    HW235751   3.982   2.981  15.988 -0.0947 -1.0514 -4.0293
 8098SOL     OW35752   4.203   4.688   8.961 -0.1300  0.6332 -0.8387
 8098SOL    HW135753   4.209   0.048   9.006  0.7130 -0.5245  1.2476
 8098SOL    HW235754   4.260   4.694   8.884  0.9319  0.0559 -0.1092
 8099SOL     OW35755   3.389   3.805   5.653  0.3295 -0.0106 -0.0795
 8099SOL    HW135756   3.319   3.825   5.592 -0.9876  0.0118  1.4364
 8099SOL    HW235757   3.399   3.896   5.682  0.2358 -0.5331  1.5996
 8100SOL     OW35758   0.546   1.952   2.421  0.1026  0.0505 -0.0236
 8100SOL    HW135759   0.542   1.914   2.334  1.0403 -2.2903  0.9621
 8100SOL    HW235760   0.561   1.873   2.473 -2.5557 -0.0464  0.5856
 8101SOL     OW35761   2.097   0.011   3.811 -0.9335 -0.0323  0.1616
 8101SOL    HW135762   2.121   0.022   3.903  0.0982  0.1035 -0.1290
 8101SOL    HW235763   2.186   4.713   3.787 -0.1953  0.7880  2.1021
 8102SOL     OW35764   1.712   3.415  15.720 -0.3754  0.2655 -0.0934
 8102SOL    HW135765   1.780   3.440  15.782  0.4866 -1.2525 -0.4226
 8102SOL    HW235766   1.739   3.477  15.652 -1.4593 -0.4705 -1.1990
 8103SOL     OW35767   1.017   3.759   3.566 -0.0164  0.4994  0.2020
 8103SOL    HW135768   1.029   3.778   3.659 -3.3229 -1.9629  1.1531
 8103SOL    HW235769   0.992   3.667   3.574 -1.5793  0.5333 -4.3587
 8104SOL     OW35770   2.700   1.886   7.422  0.2142  0.4996 -1.0840
 8104SOL    HW135771   2.752   1.841   7.489 -0.1377  0.6092 -0.7371
 8104SOL    HW235772   2.612   1.848   7.430 -0.1123  1.4781  0.0103
 8105SOL     OW35773   4.095   1.103   5.478 -0.0944  0.5739  0.5806
 8105SOL    HW135774   4.021   1.110   5.538 -2.0489 -1.5937 -1.5596
 8105SOL    HW235775   4.167   1.081   5.536  2.3399 -1.0908 -3.0490
 8106SOL     OW35776   4.548   4.069   2.683 -0.6909  0.3381 -0.4642
 8106SOL    HW135777   4.581   4.103   2.600 -0.8910  0.0340 -0.6709
 8106SOL    HW235778   4.508   3.985   2.658 -0.7271  0.6711 -1.5007
 8107SOL     OW35779   2.815   3.059  13.588 -0.2434 -0.1352  0.2751
 8107SOL    HW135780   2.833   3.079  13.497 -0.0778  3.6901  1.1422
 8107SOL    HW235781   2.818   3.143  13.633  1.0665  0.7172 -1.4131
 8108SOL     OW35782   0.184   1.268  10.857 -0.8840  0.4118 -0.3595
 8108SOL    HW135783   0.188   1.347  10.911  1.6102 -0.9570  1.4929
 8108SOL    HW235784   0.265   1.223  10.883  0.0817  1.6470 -1.2357
 8109SOL     OW35785   2.516   2.384   6.557  0.1692  0.0723 -0.2177
 8109SOL    HW135786   2.547   2.472   6.533  1.1312 -0.4914 -1.0703
 8109SOL    HW235787   2.502   2.395   6.651  1.8313  2.5268 -0.2412
 8110SOL     OW35788   1.660   0.205  12.235 -0.1146 -0.1443  0.5806
 8110SOL    HW135789   1.668   0.115  12.268 -0.5019 -0.8175 -1.1425
 8110SOL    HW235790   1.732   0.243  12.286  1.8859  0.1506 -2.4809
 8111SOL     OW35791   4.179   2.522  15.103 -0.6720  0.0372  0.2019
 8111SOL    HW135792   4.257   2.503  15.155  0.0199 -1.5862 -1.4066
 8111SOL    HW235793   4.125   2.571  15.164 -0.3823 -1.6392  1.7950
 8112SOL     OW35794   2.556   4.140   6.003  0.4729 -0.2475  0.2796
 8112SOL    HW135795   2.496   4.116   5.932  1.3063 -0.4738 -0.3424
 8112SOL    HW235796   2.539   4.058   6.049 -0.2847 -0.8864 -1.1120
 8113SOL     OW35797   1.892   2.297  14.724  0.1598  0.6995 -0.4683
 8113SOL    HW135798   1.909   2.227  14.661 -0.4101  1.7242 -1.7394
 8113SOL    HW235799   1.978   2.295  14.766  0.2009  0.6485 -0.5546
 8114SOL     OW35800   1.395   1.717   8.902 -0.1802 -0.1840 -0.4326
 8114SOL    HW135801   1.348   1.748   8.824 -2.0241 -0.1876  0.6700
 8114SOL    HW235802   1.342   1.749   8.974  1.9393 -0.4251  1.2291
 8115SOL     OW35803   3.524   0.761  10.897 -0.5264 -0.0506 -0.0983
 8115SOL    HW135804   3.530   0.685  10.955 -4.0739  0.2439  0.6182
 8115SOL    HW235805   3.563   0.834  10.946 -2.3784 -0.0174  1.3243
 8116SOL     OW35806   0.427   4.229   0.137  0.3939 -0.0274  0.3290
 8116SOL    HW135807   0.392   4.192   0.056 -0.3016 -0.8678  1.0216
 8116SOL    HW235808   0.393   4.170   0.204 -0.9644 -0.4890 -0.7767
 8117SOL     OW35809   1.749   1.794   7.738  0.3565 -0.4277 -0.1331
 8117SOL    HW135810   1.774   1.880   7.704  1.3453 -0.0916  1.4451
 8117SOL    HW235811   1.764   1.803   7.832 -0.8967  1.0090 -0.0854
 8118SOL     OW35812   4.436   0.929   3.667 -0.0071  0.5148  0.1453
 8118SOL    HW135813   4.525   0.898   3.679 -0.0871  0.9726  1.9951
 8118SOL    HW235814   4.443   1.012   3.619  1.7936 -0.7442 -1.7409
 8119SOL     OW35815   4.242   2.130  15.878  0.4769  0.6655 -0.2962
 8119SOL    HW135816   4.214   2.061  15.818 -0.6264 -0.2145  1.2317
 8119SOL    HW235817   4.159   2.169  15.906  1.8875  1.8871  2.2662
 8120SOL     OW35818   4.628   3.568  10.137  0.0988  0.2373 -0.3626
 8120SOL    HW135819   4.583   3.636  10.086  0.2481  0.8909  0.3673
 8120SOL    HW235820   4.566   3.570  10.210  0.0292 -2.1032 -0.3737
 8121SOL     OW35821   4.344   3.911   4.580  0.5106 -0.1022 -0.2020
 8121SOL    HW135822   4.354   3.815   4.583 -2.5168 -0.4009  0.2691
 8121SOL    HW235823   4.311   3.923   4.491  0.6208  1.2426 -0.0605
 8122SOL     OW35824   1.694   3.973  13.349  0.0045  0.4668  0.7590
 8122SOL    HW135825   1.757   4.043  13.332 -0.3205  0.7488  0.7115
 8122SOL    HW235826   1.620   4.020  13.388  0.4186 -0.0172  2.1007
 8123SOL     OW35827   3.155   0.883  13.718  0.2759 -0.0221  0.2236
 8123SOL    HW135828   3.161   0.945  13.645 -4.4464 -0.0542 -0.1494
 8123SOL    HW235829   3.178   0.932  13.797  0.0592  0.2323  0.1271
 8124SOL     OW35830   3.990   2.492   5.287 -0.0001 -0.0170 -0.1165
 8124SOL    HW135831   4.034   2.474   5.204 -1.0169  0.4704 -0.7565
 8124SOL    HW235832   3.902   2.508   5.254  0.5589  1.3481 -0.9619
 8125SOL     OW35833   3.378   1.490   7.657 -0.2111 -0.0158  0.5231
 8125SOL    HW135834   3.321   1.527   7.724 -1.4859 -0.1430 -0.4924
 8125SOL    HW235835   3.336   1.517   7.575  3.4880  0.0681 -1.3909
 8126SOL     OW35836   4.143   3.058   5.189 -0.2294  0.2450 -0.4772
 8126SOL    HW135837   4.053   3.087   5.201 -0.3223 -0.4113  0.3691
 8126SOL    HW235838   4.164   3.056   5.282 -0.0485 -1.0711 -0.5430
 8127SOL     OW35839   1.615   4.036   2.704 -0.2255  0.0886 -0.0550
 8127SOL    HW135840   1.620   4.121   2.660 -3.5672  0.1117 -0.3995
 8127SOL    HW235841   1.667   3.985   2.641 -0.5349 -1.0180  0.5870
 8128SOL     OW35842   3.514   2.397   7.386  0.0479 -0.4287  0.5611
 8128SOL    HW135843   3.550   2.468   7.438  1.2129 -0.0721 -0.7206
 8128SOL    HW235844   3.576   2.398   7.313  0.1580 -0.1144  0.6629
 8129SOL     OW35845   3.083   1.807  17.151 -0.0109  0.1563  0.3112
 8129SOL    HW135846   3.160   1.780  17.100  0.9526  2.5024  0.5431
 8129SOL    HW235847   3.046   1.879  17.100 -0.0933  0.5504  0.9290
 8130SOL     OW35848   2.304   0.585   3.775 -0.4858  0.1743 -0.2944
 8130SOL    HW135849   2.289   0.620   3.687 -1.5099  0.4575 -0.0081
 8130SOL    HW235850   2.333   0.666   3.817 -3.5336  0.4758  1.1937
 8131SOL     OW35851   3.369   3.143   9.672  0.4240  0.2578  0.2401
 8131SOL    HW135852   3.443   3.113   9.620 -0.7538  0.4213 -1.5221
 8131SOL    HW235853   3.296   3.096   9.632  1.1569  1.2305 -2.2703
 8132SOL     OW35854   0.507   2.641   8.552 -0.4412 -0.1275  0.8921
 8132SOL    HW135855   0.449   2.707   8.588 -3.1459 -2.7009  1.2277
 8132SOL    HW235856   0.567   2.623   8.625  0.2567 -0.1231  0.3192
 8133SOL     OW35857   4.098   0.107   7.153 -0.5327  0.3491 -0.0481
 8133SOL    HW135858   4.077   0.020   7.187  0.8125 -0.1697 -0.5137
 8133SOL    HW235859   4.148   0.083   7.074 -2.4652  0.1334 -1.2066
 8134SOL     OW35860   1.909   2.935  11.793  0.3673  0.1820 -0.2703
 8134SOL    HW135861   1.954   2.975  11.719  3.9863 -0.7670  1.4432
 8134SOL    HW235862   1.985   2.883  11.819  0.6152  0.3879 -0.5766
 8135SOL     OW35863   3.136   2.030   5.344  0.0360 -0.1288 -0.0900
 8135SOL    HW135864   3.056   2.042   5.396  0.4652 -1.9990  1.0015
 8135SOL    HW235865   3.170   2.119   5.332  0.3536 -0.2936 -0.3663
 8136SOL     OW35866   2.733   2.360   5.120  0.0947  0.5666 -0.0992
 8136SOL    HW135867   2.676   2.399   5.186  1.2654  2.8149 -0.4385
 8136SOL    HW235868   2.815   2.409   5.129  0.9172 -1.1203  1.7079
 8137SOL     OW35869   1.286   3.204   6.246 -0.3815  0.2540  0.2055
 8137SOL    HW135870   1.283   3.279   6.306 -1.3549  0.3579  0.0163
 8137SOL    HW235871   1.324   3.251   6.172  0.0156 -1.5174 -0.7170
 8138SOL     OW35872   3.634   4.406  15.765  0.0047  0.4709  0.0069
 8138SOL    HW135873   3.703   4.469  15.742  0.4387  0.0066  0.0498
 8138SOL    HW235874   3.574   4.463  15.813 -0.7783  0.0188 -0.4491
 8139SOL     OW35875   2.400   1.561   7.412 -0.2860 -0.4527 -0.7275
 8139SOL    HW135876   2.403   1.642   7.361 -0.1462  0.7343  1.1201
 8139SOL    HW235877   2.451   1.508   7.351  1.7111  0.5443  0.0700
 8140SOL     OW35878   4.078   1.012  14.805  0.4275 -0.2805 -0.1914
 8140SOL    HW135879   4.061   1.026  14.898  0.3775  0.9889 -0.3937
 8140SOL    HW235880   4.036   0.926  14.797 -1.1290  0.0607  4.1669
 8141SOL     OW35881   0.315   1.341   4.883 -0.4001 -0.0424  0.3681
 8141SOL    HW135882   0.219   1.341   4.880 -0.4186  2.2111  0.6109
 8141SOL    HW235883   0.329   1.351   4.977 -1.9154 -1.7169  0.7556
 8142SOL     OW35884   4.164   1.501  11.823 -0.0365  0.1365 -0.2284
 8142SOL    HW135885   4.094   1.479  11.762  1.0298 -0.6166 -1.1860
 8142SOL    HW235886   4.140   1.468  11.909  0.4344 -1.7584 -0.8347
 8143SOL     OW35887   0.734   2.623   8.730 -0.2655 -0.0506  0.6560
 8143SOL    HW135888   0.677   2.689   8.769 -0.0559  0.8393 -0.5199
 8143SOL    HW235889   0.812   2.630   8.785 -0.0807 -0.1515  0.4099
 8144SOL     OW35890   3.280   3.817   2.604 -0.2022 -0.1173  0.5979
 8144SOL    HW135891   3.269   3.895   2.549  3.6689  1.4319  1.9918
 8144SOL    HW235892   3.191   3.801   2.635 -1.3799  3.1369 -1.1148
 8145SOL     OW35893   3.594   1.352   4.419  0.3195  0.0215 -0.0934
 8145SOL    HW135894   3.652   1.399   4.479 -0.6259 -0.2513  1.0286
 8145SOL    HW235895   3.602   1.259   4.439  0.5283  0.0544 -0.0218
 8146SOL     OW35896   3.270   4.500   6.116  0.0328  0.3127 -0.1524
 8146SOL    HW135897   3.325   4.571   6.149 -0.7904  0.0437  1.8230
 8146SOL    HW235898   3.342   4.442   6.092 -0.8092  0.1884 -2.3764
 8147SOL     OW35899   4.678   1.545   3.219  0.0616  0.2920  0.2405
 8147SOL    HW135900   4.689   1.538   3.124  1.1506 -0.7999  0.4416
 8147SOL    HW235901   4.707   1.636   3.227  0.9540  0.1704 -1.6438
 8148SOL     OW35902   2.656   0.270   8.227  0.0689  0.7413 -0.3849
 8148SOL    HW135903   2.638   0.362   8.245 -0.6065  0.4517  0.4525
 8148SOL    HW235904   2.686   0.273   8.136  0.4996  0.9171 -0.2378
 8149SOL     OW35905   4.050   3.875  11.254  0.1559 -0.4733 -0.3975
 8149SOL    HW135906   4.145   3.870  11.261  0.2215  2.8499  1.0960
 8149SOL    HW235907   4.043   3.947  11.191 -0.9718  1.3761  1.7994
 8150SOL     OW35908   1.494   3.200  11.716  0.6713  0.0093  0.9290
 8150SOL    HW135909   1.416   3.146  11.704  0.2147  0.4249  2.0725
 8150SOL    HW235910   1.543   3.164  11.790  0.0886  1.9465  2.2654
 8151SOL     OW35911   2.106   4.118   7.105 -0.0917 -0.9474 -0.1220
 8151SOL    HW135912   2.171   4.166   7.053 -1.6854  0.6741 -0.5985
 8151SOL    HW235913   2.121   4.154   7.192  0.8740  0.3042 -0.8019
 8152SOL     OW35914   2.048   0.258  12.558 -0.3536  0.7989 -0.7735
 8152SOL    HW135915   2.081   0.189  12.501  0.4275  0.5436 -0.0008
 8152SOL    HW235916   2.121   0.260  12.619 -1.0880 -1.9260  0.1657
 8153SOL     OW35917   2.689   3.921   6.120 -0.0455 -0.6870  0.2718
 8153SOL    HW135918   2.763   3.865   6.098  0.2780  0.1958 -0.8451
 8153SOL    HW235919   2.647   3.905   6.036 -3.3930 -0.9373  1.9769
 8154SOL     OW35920   1.781   3.615   4.010  0.0800  0.0440 -0.0039
 8154SOL    HW135921   1.757   3.570   3.929 -0.8467 -0.7505  0.7038
 8154SOL    HW235922   1.701   3.667   4.024 -0.0214  0.5735 -2.6185
 8155SOL     OW35923   3.703   1.866   4.180 -0.0317  0.6386 -0.0406
 8155SOL    HW135924   3.624   1.825   4.146  0.1416  1.5119 -1.4749
 8155SOL    HW235925   3.767   1.857   4.110 -1.9311 -3.2423 -1.3003
 8156SOL     OW35926   3.751   2.853  16.219 -0.0602  0.0869  0.3806
 8156SOL    HW135927   3.819   2.856  16.286 -0.1584  0.9456  0.4404
 8156SOL    HW235928   3.804   2.830  16.142 -1.1766  0.6202 -0.5481
 8157SOL     OW35929   3.196   1.110   5.458 -0.1543 -0.0083  0.1865
 8157SOL    HW135930   3.148   1.181   5.502 -1.4820  0.3739 -1.8623
 8157SOL    HW235931   3.222   1.061   5.536  1.1621  1.6290  0.7821
 8158SOL     OW35932   3.864   0.188   8.149 -0.0620  0.3538 -0.0487
 8158SOL    HW135933   3.944   0.216   8.192 -0.0896 -0.3711  0.4570
 8158SOL    HW235934   3.893   0.104   8.114 -1.6859 -0.2902  0.1492
 8159SOL     OW35935   3.808   1.478  14.277 -0.4052  0.1876  0.4883
 8159SOL    HW135936   3.728   1.477  14.225 -0.3203 -2.1781  0.4305
 8159SOL    HW235937   3.770   1.496  14.364  0.7528 -0.8899  1.2084
 8160SOL     OW35938   3.969   2.440   5.879  0.6850  0.2379 -0.0133
 8160SOL    HW135939   3.953   2.501   5.951 -3.5600 -1.4065  0.4199
 8160SOL    HW235940   3.995   2.493   5.804 -1.7348 -0.4325 -1.3315
 8161SOL     OW35941   0.968   3.369   8.420  0.2411  0.2823  0.4992
 8161SOL    HW135942   0.929   3.391   8.335  0.5891 -0.4444  0.1585
 8161SOL    HW235943   0.888   3.356   8.471  0.5791  1.5350  1.3399
 8162SOL     OW35944   2.908   2.305   2.382  0.2047  0.2845 -0.2549
 8162SOL    HW135945   2.889   2.394   2.412  0.3953  0.2663 -0.0887
 8162SOL    HW235946   2.933   2.329   2.293  2.2884  2.8346  1.0552
 8163SOL     OW35947   1.388   3.447   0.857  0.3565  0.3469 -0.1444
 8163SOL    HW135948   1.368   3.359   0.889  2.1208 -0.2155 -0.6201
 8163SOL    HW235949   1.315   3.502   0.887  1.1009  1.1938  0.1148
 8164SOL     OW35950   0.718   0.463   6.952  0.3666  0.7261  0.1773
 8164SOL    HW135951   0.751   0.507   6.874 -0.5680 -0.5678 -0.9373
 8164SOL    HW235952   0.770   0.385   6.938  3.0447  2.9329 -2.0193
 8165SOL     OW35953   0.248   2.411  13.921  0.4776 -0.2274  0.0246
 8165SOL    HW135954   0.189   2.366  13.981  0.9940 -2.8915 -1.4629
 8165SOL    HW235955   0.241   2.367  13.837  0.6197 -0.6828  0.2517
 8166SOL     OW35956   4.038   4.358   7.373 -0.1015 -0.5752 -0.1991
 8166SOL    HW135957   4.011   4.285   7.429  0.2083  1.2820  2.3393
 8166SOL    HW235958   4.026   4.432   7.432  0.0273  0.5346 -1.5782
 8167SOL     OW35959   3.372   1.141  15.411 -0.1688 -0.2557  0.0992
 8167SOL    HW135960   3.323   1.153  15.329  2.8881  0.4371 -1.6343
 8167SOL    HW235961   3.364   1.046  15.422 -0.3132 -0.1009  1.2672
 8168SOL     OW35962   0.966   3.133   5.813 -0.6908  0.4466  0.3239
 8168SOL    HW135963   0.995   3.215   5.775  0.7192 -0.5571 -0.7813
 8168SOL    HW235964   1.029   3.131   5.885  0.2168  1.4355 -0.4637
 8169SOL     OW35965   3.986   1.380   9.643  0.8577 -0.0215  0.5726
 8169SOL    HW135966   4.017   1.290   9.630  0.8684 -0.1141  1.2439
 8169SOL    HW235967   4.003   1.393   9.736 -1.7418  1.8401  0.7989
 8170SOL     OW35968   4.609   3.250   6.985 -0.1756  0.1781  0.1124
 8170SOL    HW135969   4.597   3.231   7.078  1.0212 -0.4859  0.1461
 8170SOL    HW235970   4.530   3.302   6.972  0.7744  1.0607 -2.1794
 8171SOL     OW35971   0.511   2.056  15.586 -0.3764 -0.0576 -0.4763
 8171SOL    HW135972   0.481   2.077  15.674  1.8981 -1.0259  0.5194
 8171SOL    HW235973   0.446   1.990  15.562 -1.1000  0.2624  0.6117
 8172SOL     OW35974   0.686   3.534   9.654 -0.1087 -0.3936  0.0827
 8172SOL    HW135975   0.635   3.589   9.712 -1.3098 -1.6484  0.2057
 8172SOL    HW235976   0.745   3.492   9.717 -0.1568 -0.4409  0.0964
 8173SOL     OW35977   1.048   1.168   5.145 -0.4770 -0.1611  0.5525
 8173SOL    HW135978   1.127   1.121   5.118 -1.0835 -1.2015  0.6259
 8173SOL    HW235979   0.982   1.143   5.080 -1.0148  0.9350  0.6745
 8174SOL     OW35980   3.490   3.053  14.205  0.0088 -0.2652  0.5334
 8174SOL    HW135981   3.511   3.040  14.297  0.7525  2.7121  0.7869
 8174SOL    HW235982   3.447   2.971  14.181 -0.1677  0.1771 -0.6783
 8175SOL     OW35983   1.687   1.926   5.673 -0.8420  0.8340 -0.2518
 8175SOL    HW135984   1.640   1.982   5.735 -1.7695 -0.2283  0.0057
 8175SOL    HW235985   1.612   1.890   5.625 -1.4507  0.1711  1.1987
 8176SOL     OW35986   2.677   1.755  15.026  0.2780 -0.1349 -0.0625
 8176SOL    HW135987   2.627   1.676  15.008 -0.2007  0.1366  0.0919
 8176SOL    HW235988   2.764   1.722  15.049 -0.1796 -0.1956  1.5959
 8177SOL     OW35989   4.154   2.192  15.085  0.5237 -0.2042  0.0314
 8177SOL    HW135990   4.198   2.230  15.161  0.7938 -0.5911  0.0741
 8177SOL    HW235991   4.204   2.207  15.005 -0.6986  2.0114 -0.2980
 8178SOL     OW35992   0.431   2.719   1.767 -0.8328 -0.7521 -0.4461
 8178SOL    HW135993   0.486   2.655   1.813  1.3922  1.0578 -0.6087
 8178SOL    HW235994   0.494   2.768   1.714 -1.3460  0.9792  0.5414
 8179SOL     OW35995   1.506   0.521   5.246  0.6030 -0.3231  0.4702
 8179SOL    HW135996   1.490   0.607   5.206 -0.6239 -1.7805 -2.2206
 8179SOL    HW235997   1.419   0.505   5.284  0.0667 -0.5088 -0.8301
 8180SOL     OW35998   0.707   3.913  11.721  0.6679 -0.1970 -0.1016
 8180SOL    HW135999   0.780   3.857  11.746 -0.6605 -1.1292  1.7165
 8180SOL    HW236000   0.737   4.003  11.725 -0.5133  0.1947  0.0954
 8181SOL     OW36001   3.465   2.799   9.125 -0.0839  0.5830 -0.6501
 8181SOL    HW136002   3.399   2.732   9.109 -0.0389  0.7836 -1.6541
 8181SOL    HW236003   3.544   2.745   9.120 -0.2714  0.3268 -0.8144
 8182SOL     OW36004   3.300   0.833   1.994 -0.3164  0.6313  0.3365
 8182SOL    HW136005   3.221   0.832   1.940 -1.0241 -2.8940  1.4336
 8182SOL    HW236006   3.349   0.912   1.973  2.9359 -0.6046  3.1936
 8183SOL     OW36007   3.567   1.596  15.248 -0.0383 -0.4146  0.1789
 8183SOL    HW136008   3.570   1.501  15.235 -0.8400  0.0635 -3.4997
 8183SOL    HW236009   3.477   1.602  15.281  0.5260  2.6183  1.1596
 8184SOL     OW36010   3.610   3.516  11.396  0.1764  0.0115 -0.6338
 8184SOL    HW136011   3.519   3.537  11.417 -0.2500 -1.3713 -1.1194
 8184SOL    HW236012   3.642   3.606  11.406 -1.6255  0.5657  0.2220
 8185SOL     OW36013   4.516   2.898   8.199  0.4549  0.3053 -0.3453
 8185SOL    HW136014   4.463   2.822   8.221 -0.9714  1.2295 -0.6251
 8185SOL    HW236015   4.561   2.923   8.280 -0.0777 -1.8475  0.6248
 8186SOL     OW36016   0.219   4.379   2.605  0.2679 -0.2362  0.3861
 8186SOL    HW136017   0.287   4.390   2.538  0.1141  1.6507  0.5465
 8186SOL    HW236018   0.267   4.328   2.671  0.1980  0.3356  0.8822
 8187SOL     OW36019   4.382   1.879  15.042  0.4785 -0.6703 -0.5146
 8187SOL    HW136020   4.324   1.874  14.966  0.3187 -0.9117 -0.3770
 8187SOL    HW236021   4.333   1.900  15.121 -1.9177  1.0453 -2.4780
 8188SOL     OW36022   1.608   3.138   8.285 -0.1833  0.4838 -0.0030
 8188SOL    HW136023   1.664   3.076   8.239  0.7367  1.3019  0.0239
 8188SOL    HW236024   1.608   3.095   8.371  0.4991 -1.8671 -1.1658
 8189SOL     OW36025   3.746   2.233   5.358 -0.1762  0.3055  0.1300
 8189SOL    HW136026   3.757   2.275   5.444  2.4437 -1.9625  0.8948
 8189SOL    HW236027   3.703   2.151   5.385 -1.4308  0.2220 -2.1339
 8190SOL     OW36028   1.299   4.143   8.240 -0.1503 -0.6363  0.5347
 8190SOL    HW136029   1.290   4.173   8.331  0.7647  0.5740  0.2283
 8190SOL    HW236030   1.218   4.092   8.233  0.2050 -1.1828  0.3930
 8191SOL     OW36031   2.218   0.696  14.055 -0.0486 -0.2034  0.1695
 8191SOL    HW136032   2.203   0.669  14.145 -1.1207 -0.0160  0.0431
 8191SOL    HW236033   2.311   0.673  14.043  0.4338  1.6525  0.4831
 8192SOL     OW36034   3.586   0.370  12.820 -0.5492 -0.6193  0.5498
 8192SOL    HW136035   3.642   0.338  12.749  0.1175  2.2595 -0.2027
 8192SOL    HW236036   3.655   0.371  12.886 -2.3517 -0.5604  2.4397
 8193SOL     OW36037   3.741   4.646   7.290 -0.3290 -0.3527  0.6889
 8193SOL    HW136038   3.775   4.611   7.208  0.0718 -0.4482  0.8954
 8193SOL    HW236039   3.666   4.698   7.259  1.4448  0.7738 -1.7232
 8194SOL     OW36040   3.947   1.315  15.066  0.7647 -0.3859 -1.2498
 8194SOL    HW136041   3.913   1.333  14.979  2.3429  1.7389 -1.4144
 8194SOL    HW236042   3.944   1.401  15.107 -0.8778  0.3419 -2.9433
 8195SOL     OW36043   1.985   1.457   8.112 -0.9252  0.1337 -0.7659
 8195SOL    HW136044   2.031   1.422   8.189  0.2865  1.1990 -1.0131
 8195SOL    HW236045   2.035   1.413   8.044  1.0589  1.0544  0.0851
 8196SOL     OW36046   0.782   2.953   3.887  0.1691 -0.6342  0.0116
 8196SOL    HW136047   0.815   2.946   3.797 -0.4079  3.1771 -0.4957
 8196SOL    HW236048   0.751   3.044   3.888  1.2790 -0.3247  4.5532
 8197SOL     OW36049   4.431   4.643   5.829 -0.3329  0.3687 -0.3391
 8197SOL    HW136050   4.416   0.006   5.794 -2.1091  1.0348  2.1168
 8197SOL    HW236051   4.396   4.580   5.767  2.4047  0.7601 -2.2900
 8198SOL     OW36052   4.191   3.915   6.811 -0.2539  0.0511 -0.1956
 8198SOL    HW136053   4.101   3.893   6.835 -1.5108  4.1228 -1.1327
 8198SOL    HW236054   4.187   3.902   6.717  0.5905 -0.4516 -0.1569
 8199SOL     OW36055   1.597   2.046   9.104  0.0452  0.2173  0.0818
 8199SOL    HW136056   1.576   1.958   9.135  0.5688 -0.7302 -2.2022
 8199SOL    HW236057   1.570   2.042   9.012  0.2550  0.8156 -0.0062
 8200SOL     OW36058   4.529   1.218   0.222 -0.4168 -0.1434  0.7029
 8200SOL    HW136059   4.511   1.155   0.152  1.4552  1.6134 -1.3651
 8200SOL    HW236060   4.598   1.173   0.271 -0.4962 -1.2168 -0.1767
 8201SOL     OW36061   3.080   0.247   8.440 -0.3919  0.8508  1.1230
 8201SOL    HW136062   3.079   0.240   8.344  0.3060 -0.9872  1.2350
 8201SOL    HW236063   2.990   0.272   8.461 -0.7542  0.3265  0.2179
 8202SOL     OW36064   0.353   3.268   7.164  0.0653 -0.5547  0.3416
 8202SOL    HW136065   0.447   3.274   7.180  0.5859  0.1137 -2.8392
 8202SOL    HW236066   0.335   3.362   7.154  0.8844 -0.2875  1.3755
 8203SOL     OW36067   0.354   3.625   3.146 -0.1754  0.8363  0.4328
 8203SOL    HW136068   0.297   3.550   3.163  1.5387 -0.8013 -1.0360
 8203SOL    HW236069   0.408   3.618   3.225  0.6576  0.3033 -0.1713
 8204SOL     OW36070   2.399   1.078  16.707 -0.0073  0.9987 -0.2782
 8204SOL    HW136071   2.411   1.113  16.795 -0.2427  0.3209  0.0164
 8204SOL    HW236072   2.410   1.158  16.655  0.7054  1.0611 -0.0379
 8205SOL     OW36073   1.836   0.610  13.124  0.2884  0.0874  0.1596
 8205SOL    HW136074   1.907   0.673  13.116  0.6168 -0.2069  0.6882
 8205SOL    HW236075   1.898   0.542  13.095  0.2424 -0.3187  1.0001
 8206SOL     OW36076   3.498   1.226   0.853 -0.5210  0.1257 -0.2119
 8206SOL    HW136077   3.524   1.197   0.941 -0.3207  1.0213  0.0236
 8206SOL    HW236078   3.417   1.276   0.867 -1.0054 -1.3601  2.2797
 8207SOL     OW36079   4.485   1.168   8.853 -0.1777 -0.3881  0.2129
 8207SOL    HW136080   4.557   1.106   8.869 -0.0290 -0.5183 -0.8991
 8207SOL    HW236081   4.509   1.245   8.904 -2.7767  0.9949 -0.6388
 8208SOL     OW36082   2.856   4.161   8.658 -0.4016 -0.7352  0.1502
 8208SOL    HW136083   2.898   4.231   8.609 -2.5816  0.7729  0.4349
 8208SOL    HW236084   2.914   4.091   8.626  1.3680  1.8780 -2.2815
 8209SOL     OW36085   4.332   3.687   2.158 -0.5229  0.3324 -0.5373
 8209SOL    HW136086   4.275   3.764   2.161 -0.3826  0.3783  0.8604
 8209SOL    HW236087   4.313   3.643   2.242  1.0222 -1.4610 -1.1270
 8210SOL     OW36088   4.198   4.188   6.858 -0.6992  0.5067 -0.4112
 8210SOL    HW136089   4.175   4.205   6.949  2.7822 -0.7868  0.6974
 8210SOL    HW236090   4.212   4.093   6.855 -1.4994  0.3288  1.6886
 8211SOL     OW36091   2.641   2.352  10.505  0.0922  0.3029  0.7229
 8211SOL    HW136092   2.720   2.393  10.472 -0.5512  0.7292 -0.2773
 8211SOL    HW236093   2.622   2.406  10.582 -0.7367 -0.4194  1.0271
 8212SOL     OW36094   0.191   3.943   8.494  0.0679  0.1788 -0.4741
 8212SOL    HW136095   0.171   3.879   8.563  0.0475  2.1109  1.3382
 8212SOL    HW236096   0.271   3.983   8.528 -0.1225  1.5212 -1.5729
 8213SOL     OW36097   2.253   0.188   6.832  0.6981 -0.2152  0.4896
 8213SOL    HW136098   2.184   0.192   6.765  1.8264  0.1386 -0.6365
 8213SOL    HW236099   2.265   0.096   6.854 -1.5039 -0.1493  2.0126
 8214SOL     OW36100   2.360   1.641  10.849 -0.3830  0.3068 -0.0190
 8214SOL    HW136101   2.306   1.670  10.923 -0.2967 -1.7229  0.8460
 8214SOL    HW236102   2.346   1.717  10.792 -0.9623  1.0038  1.0425
 8215SOL     OW36103   2.781   2.905   7.540 -0.1480 -0.1695 -0.1656
 8215SOL    HW136104   2.689   2.911   7.515  0.3003  2.7313 -1.2047
 8215SOL    HW236105   2.799   2.811   7.541 -1.6094 -0.4357  0.3847
 8216SOL     OW36106   3.960   3.718   3.650  0.5136 -0.1498  0.0710
 8216SOL    HW136107   3.867   3.707   3.629  1.1743  1.5820 -3.7636
 8216SOL    HW236108   3.999   3.731   3.564  1.6223 -0.0411  0.6014
 8217SOL     OW36109   0.286   4.570   7.268 -0.2584  0.6267 -0.3565
 8217SOL    HW136110   0.258   4.509   7.200 -1.5588 -1.4760  2.0578
 8217SOL    HW236111   0.255   4.654   7.234  0.4337  0.6071 -1.0373
 8218SOL     OW36112   2.817   1.731   6.035  0.0845  0.0339  0.1762
 8218SOL    HW136113   2.857   1.818   6.029 -0.0582  0.2497  2.6383
 8218SOL    HW236114   2.778   1.737   6.122 -0.0515  0.0659  0.1133
 8219SOL     OW36115   3.425   3.731   3.188  0.1427 -0.1084  0.1783
 8219SOL    HW136116   3.429   3.795   3.116  2.0882  0.6283  0.9473
 8219SOL    HW236117   3.366   3.780   3.246 -0.3759 -2.3165  1.5211
 8220SOL     OW36118   3.472   3.491  15.724  0.0223 -0.6464 -0.2039
 8220SOL    HW136119   3.437   3.502  15.812 -0.2542 -0.9729 -0.2733
 8220SOL    HW236120   3.502   3.581  15.707 -1.4529 -0.0760  0.2316
 8221SOL     OW36121   0.954   0.320   2.231 -0.2493 -0.5526  0.4482
 8221SOL    HW136122   0.993   0.407   2.244 -0.5908 -0.3153 -0.1148
 8221SOL    HW236123   0.930   0.318   2.138  1.0066  0.8011  0.0877
 8222SOL     OW36124   4.052   1.121   2.338 -0.3178  0.3686  0.2227
 8222SOL    HW136125   4.036   1.048   2.278 -1.5015  0.4917  0.3802
 8222SOL    HW236126   3.998   1.094   2.412 -0.4199 -2.2634 -0.8060
 8223SOL     OW36127   3.479   1.691   7.250  0.1784  0.1532 -0.2924
 8223SOL    HW136128   3.513   1.730   7.169  0.1276 -0.8791 -0.8127
 8223SOL    HW236129   3.480   1.770   7.305 -0.7508  0.3007 -0.4751
 8224SOL     OW36130   4.153   0.623   1.710  0.0475  0.0277 -0.2915
 8224SOL    HW136131   4.179   0.690   1.647 -0.9703  0.2403 -0.4704
 8224SOL    HW236132   4.094   0.572   1.656 -1.4649  0.4651  0.9536
 8225SOL     OW36133   1.302   2.256   9.315  0.4050  0.7373 -0.1225
 8225SOL    HW136134   1.230   2.298   9.268  2.2015  1.2773 -2.3900
 8225SOL    HW236135   1.312   2.305   9.397  0.1866 -0.5332  0.6631
 8226SOL     OW36136   3.114   2.999   6.953  0.2349  0.4447 -0.4256
 8226SOL    HW136137   3.067   3.049   7.020 -2.1220  1.1269 -2.5914
 8226SOL    HW236138   3.184   2.967   7.010 -1.7583 -3.1654 -0.0357
 8227SOL     OW36139   3.795   3.189  10.123 -0.4218  0.4255  0.1983
 8227SOL    HW136140   3.757   3.194  10.211  0.4624  2.3932  0.4545
 8227SOL    HW236141   3.738   3.249  10.076  0.5577  0.6062 -0.7584
 8228SOL     OW36142   0.394   3.879   6.556 -0.2778  0.8195 -0.6750
 8228SOL    HW136143   0.386   3.948   6.490 -0.1745  0.8913 -0.6127
 8228SOL    HW236144   0.459   3.822   6.514 -1.1429 -0.2505 -0.5668
 8229SOL     OW36145   1.777   2.349   7.027  0.2207 -0.1728 -0.6088
 8229SOL    HW136146   1.772   2.285   7.098  3.3351  1.5781  1.1719
 8229SOL    HW236147   1.869   2.337   7.000  0.1397 -0.1186 -0.9171
 8230SOL     OW36148   1.024   0.887   5.879 -0.2891 -0.5211  0.3179
 8230SOL    HW136149   1.058   0.827   5.946 -0.3912 -1.7099 -0.6980
 8230SOL    HW236150   1.027   0.977   5.912  1.2210 -0.1937 -0.7081
 8231SOL     OW36151   3.263   1.058  13.922  0.1711 -0.0909 -0.3685
 8231SOL    HW136152   3.301   1.145  13.919  0.0514 -0.0230  0.1498
 8231SOL    HW236153   3.200   1.075  13.992 -0.1826 -1.0000 -0.4550
 8232SOL     OW36154   0.290   3.129   8.438  0.1947  0.1611  0.0921
 8232SOL    HW136155   0.247   3.045   8.421 -1.8040  1.0952  0.5663
 8232SOL    HW236156   0.322   3.138   8.349  0.0540  2.3808  0.2692
 8233SOL     OW36157   0.549   2.085   5.857 -0.0866  0.3095 -1.0685
 8233SOL    HW136158   0.557   2.067   5.950  0.7351  1.8996 -0.8414
 8233SOL    HW236159   0.629   2.044   5.825 -0.0001  0.3682 -0.9242
 8234SOL     OW36160   4.232   1.958   5.909  0.1946 -0.2843 -0.0021
 8234SOL    HW136161   4.180   2.028   5.948 -1.3228  0.0841 -2.6849
 8234SOL    HW236162   4.202   1.979   5.821  0.7541 -2.5134 -0.7262
 8235SOL     OW36163   2.988   1.070   2.021  0.4114 -0.0540 -0.2534
 8235SOL    HW136164   3.050   1.137   1.992  1.4566 -1.4917 -1.3436
 8235SOL    HW236165   3.005   1.064   2.115  1.7916  1.3728 -0.4284
 8236SOL     OW36166   0.600   2.014   0.217  0.0579 -0.8068  0.1176
 8236SOL    HW136167   0.654   1.939   0.243  0.1180 -0.2072  1.7605
 8236SOL    HW236168   0.641   2.083   0.270 -0.5969 -0.0548 -0.3633
 8237SOL     OW36169   3.332   2.499  11.999 -0.2431  0.1080 -0.0731
 8237SOL    HW136170   3.241   2.491  12.028 -0.3657  2.3465  0.1464
 8237SOL    HW236171   3.350   2.426  11.941 -4.1020 -0.3909 -0.6397
 8238SOL     OW36172   4.433   2.585   7.469  0.2883  0.4626  0.7788
 8238SOL    HW136173   4.514   2.615   7.427 -0.9375  1.1130 -1.1111
 8238SOL    HW236174   4.364   2.616   7.411  0.1910 -1.1885  0.0259
 8239SOL     OW36175   1.516   1.938   3.670 -0.0337 -0.3549  0.0974
 8239SOL    HW136176   1.600   1.896   3.688  0.6255  1.2519  0.8009
 8239SOL    HW236177   1.491   1.982   3.751 -0.4349 -0.8621  0.2529
 8240SOL     OW36178   3.929   0.104   9.288  0.4715  0.5077  0.1293
 8240SOL    HW136179   3.850   0.132   9.242  0.5882  2.0208  0.8602
 8240SOL    HW236180   3.888   0.080   9.371  1.6973 -0.9193  0.3300
 8241SOL     OW36181   4.175   0.643  17.326  0.4286  0.6894 -0.7585
 8241SOL    HW136182   4.151   0.672  17.413  0.7609  0.3900 -0.5682
 8241SOL    HW236183   4.226   0.564  17.345  0.8479  1.5802  1.7944
 8242SOL     OW36184   2.979   3.926  16.585  0.4482 -0.2285 -0.5690
 8242SOL    HW136185   3.001   3.844  16.539 -0.5714 -1.8908  1.9337
 8242SOL    HW236186   2.976   3.987  16.511 -2.0497  1.1847  0.7142
 8243SOL     OW36187   3.954   3.799  14.373  0.1538 -0.3026  0.5401
 8243SOL    HW136188   3.925   3.833  14.457  0.3035  0.7401  0.1728
 8243SOL    HW236189   3.938   3.706  14.388 -1.8531 -0.2620 -1.3809
 8244SOL     OW36190   0.637   4.557   4.857 -0.2256  0.6906  0.6285
 8244SOL    HW136191   0.635   4.559   4.953  0.8356 -1.2173  0.6961
 8244SOL    HW236192   0.703   4.488   4.845  0.7556  1.7278  0.0114
 8245SOL     OW36193   0.901   3.395   7.262 -0.1936 -0.6512 -0.0998
 8245SOL    HW136194   0.928   3.373   7.351  3.9603  1.0451 -0.9580
 8245SOL    HW236195   0.937   3.484   7.257  0.5739 -0.9623 -0.1166
 8246SOL     OW36196   2.403   4.718   8.844 -0.4373  0.0968 -0.7873
 8246SOL    HW136197   2.459   0.034   8.910 -1.9180  2.1895 -0.8295
 8246SOL    HW236198   2.471   4.670   8.796 -0.3447 -0.4199 -0.1368
 8247SOL     OW36199   3.679   2.299  14.199 -0.1700 -0.0635  0.0204
 8247SOL    HW136200   3.743   2.367  14.221 -0.8763 -0.1803  2.4634
 8247SOL    HW236201   3.669   2.263  14.288  0.8597 -1.0665 -0.2752
 8248SOL     OW36202   2.243   4.114   2.767 -0.0599  0.4994  0.3257
 8248SOL    HW136203   2.332   4.083   2.754  0.3445  0.5585  2.8505
 8248SOL    HW236204   2.202   4.060   2.700  1.9500 -0.4637 -0.1106
 8249SOL     OW36205   2.621   0.104   0.605 -0.0715  0.7651 -0.8630
 8249SOL    HW136206   2.580   0.026   0.567 -2.1293  0.4491  2.0251
 8249SOL    HW236207   2.699   0.074   0.650 -1.5072 -1.0001  0.4315
 8250SOL     OW36208   2.545   2.271   9.755 -0.1382 -0.1044  0.3133
 8250SOL    HW136209   2.513   2.313   9.676 -1.5942 -3.0283 -0.6731
 8250SOL    HW236210   2.531   2.180   9.730 -0.8130  0.0711  0.0576
 8251SOL     OW36211   4.275   0.103   2.000  0.4853 -0.0054  0.5929
 8251SOL    HW136212   4.273   0.067   1.912 -0.0543 -1.1404  1.0704
 8251SOL    HW236213   4.205   0.167   1.993 -0.8870 -1.5386  0.4062
 8252SOL     OW36214   4.445   4.536  14.880  0.0332  0.2934  0.5434
 8252SOL    HW136215   4.537   4.544  14.906  0.2288 -3.6922  1.0715
 8252SOL    HW236216   4.433   4.615  14.827 -1.1888  0.1548  0.6126
 8253SOL     OW36217   0.186   4.501   4.900 -0.0571 -0.6621  0.1451
 8253SOL    HW136218   0.269   4.456   4.918  1.0018  1.1642 -0.1713
 8253SOL    HW236219   0.207   4.572   4.839  0.1366 -0.2932  0.6404
 8254SOL     OW36220   2.041   0.728   6.435  0.3926 -0.0537  0.1636
 8254SOL    HW136221   2.064   0.644   6.474 -0.0247 -0.9830 -1.5738
 8254SOL    HW236222   1.976   0.698   6.372 -1.9751  0.7687  2.2202
 8255SOL     OW36223   1.010   2.643   6.687 -0.8434  0.2544 -0.1813
 8255SOL    HW136224   1.101   2.614   6.698 -0.4592  1.0155 -1.2860
 8255SOL    HW236225   1.022   2.737   6.672  0.3762  0.0628 -0.4028
 8256SOL     OW36226   4.022   2.861  16.793 -0.0119 -0.0525  0.0780
 8256SOL    HW136227   3.972   2.874  16.712  0.6301  2.9727  0.1630
 8256SOL    HW236228   4.085   2.932  16.807 -1.6927  1.1778  1.4252
 8257SOL     OW36229   1.091   0.875  11.436 -0.1993 -0.0141 -0.1332
 8257SOL    HW136230   1.016   0.916  11.393 -1.7454 -2.5824  0.1311
 8257SOL    HW236231   1.122   0.937  11.502 -0.7163 -0.6501  0.7073
 8258SOL     OW36232   3.705   0.184   1.017 -0.2459  0.4591 -0.0068
 8258SOL    HW136233   3.759   0.126   0.963 -4.7424 -0.4019 -3.6222
 8258SOL    HW236234   3.777   0.241   1.043 -2.0380  2.9144 -0.3942
 8259SOL     OW36235   0.263   3.324   5.898  0.2605  0.2788  0.2496
 8259SOL    HW136236   0.331   3.329   5.831 -0.2703  2.2537 -0.1523
 8259SOL    HW236237   0.291   3.246   5.946 -0.0027  0.2915  0.4295
 8260SOL     OW36238   1.041   3.494   4.315  0.0266 -0.3968 -0.4002
 8260SOL    HW136239   1.069   3.418   4.264 -0.7728  0.1325 -1.6164
 8260SOL    HW236240   1.106   3.560   4.292 -0.7530  0.4094 -0.2939
 8261SOL     OW36241   3.156   0.690   4.901  0.2734  0.0725 -0.0004
 8261SOL    HW136242   3.100   0.616   4.925 -1.2611  1.0606 -0.4914
 8261SOL    HW236243   3.226   0.652   4.849 -0.3550 -1.9192  0.6327
 8262SOL     OW36244   1.336   0.546   7.227 -0.3203  0.0906 -0.0232
 8262SOL    HW136245   1.280   0.591   7.290 -1.8018 -1.2759 -0.3730
 8262SOL    HW236246   1.354   0.469   7.280 -0.8060  0.1885  0.2893
 8263SOL     OW36247   2.318   3.437   9.275 -0.0472  0.6740  0.6007
 8263SOL    HW136248   2.363   3.521   9.270  1.1119 -0.0374 -0.9387
 8263SOL    HW236249   2.391   3.376   9.259 -0.4962  0.0082  1.0848
 8264SOL     OW36250   2.456   2.565   2.932  0.1318 -0.0796 -0.1670
 8264SOL    HW136251   2.526   2.525   2.984 -1.6371 -3.1817 -0.1836
 8264SOL    HW236252   2.514   2.582   2.857  0.6685  1.2993  0.5687
 8265SOL     OW36253   2.892   3.350   8.496  0.3912 -0.2334  0.2604
 8265SOL    HW136254   2.933   3.381   8.577 -0.1063  1.5622 -0.1770
 8265SOL    HW236255   2.800   3.368   8.515  1.2019  2.4988  1.5243
 8266SOL     OW36256   1.214   4.264   5.050 -0.6189  0.2480  0.1326
 8266SOL    HW136257   1.127   4.304   5.040  0.0407  2.1556  1.9892
 8266SOL    HW236258   1.274   4.336   5.034  1.5778 -1.0009  2.8243
 8267SOL     OW36259   4.500   1.905   6.801 -0.0573 -0.2735 -0.0606
 8267SOL    HW136260   4.412   1.943   6.809 -0.0306  0.5258 -3.6494
 8267SOL    HW236261   4.535   1.940   6.720 -1.2679  0.2059 -0.3747
 8268SOL     OW36262   2.109   0.397   3.885 -0.9105  0.1291  0.1827
 8268SOL    HW136263   2.155   0.465   3.836 -0.1708 -0.6344 -0.1819
 8268SOL    HW236264   2.185   0.361   3.931 -0.9950 -2.6667 -1.9272
 8269SOL     OW36265   1.314   1.546  16.215  0.4113  0.4280  0.1376
 8269SOL    HW136266   1.376   1.489  16.261 -0.5141 -0.3484  0.4437
 8269SOL    HW236267   1.249   1.543  16.286 -0.1979  1.3458 -0.3881
 8270SOL     OW36268   0.516   1.020   8.302 -0.0596 -0.2043 -0.4750
 8270SOL    HW136269   0.548   0.931   8.320 -3.0711 -1.4420 -1.1465
 8270SOL    HW236270   0.552   1.063   8.379 -1.6777 -0.7696  0.5856
 8271SOL     OW36271   2.020   3.683   3.333  0.3391 -0.2648  0.1893
 8271SOL    HW136272   2.099   3.734   3.350  0.5547 -0.8259  0.8744
 8271SOL    HW236273   1.991   3.725   3.252 -2.0218 -0.2376  1.0398
 8272SOL     OW36274   0.133   2.240   2.142 -0.6003  0.0556 -0.0097
 8272SOL    HW136275   0.052   2.260   2.095  0.1030  0.1900 -1.1717
 8272SOL    HW236276   0.137   2.323   2.190 -0.4963 -0.0979  0.2431
 8273SOL     OW36277   2.085   2.977   6.449  0.4558 -0.0743 -0.2596
 8273SOL    HW136278   2.173   2.999   6.482  1.1812 -2.1771 -0.7954
 8273SOL    HW236279   2.033   2.944   6.523  1.7526  1.6147  1.4280
 8274SOL     OW36280   1.715   4.398   8.873  0.2436  0.5624  0.1549
 8274SOL    HW136281   1.672   4.331   8.927  1.6500  0.5485  1.2311
 8274SOL    HW236282   1.807   4.384   8.895  0.5591  1.0046 -0.9132
 8275SOL     OW36283   2.638   0.480  12.115  0.2197 -0.4916 -0.0401
 8275SOL    HW136284   2.586   0.527  12.181 -0.2573 -0.3447 -0.5238
 8275SOL    HW236285   2.720   0.487  12.164 -0.4780  1.7208  0.8749
 8276SOL     OW36286   0.548   0.502   6.231 -0.2959 -0.0943 -0.5020
 8276SOL    HW136287   0.517   0.520   6.320 -0.0721  0.9766 -0.6336
 8276SOL    HW236288   0.576   0.591   6.206 -1.5607  0.1690 -1.0193
 8277SOL     OW36289   2.274   4.257   7.808  0.5497 -0.3470 -0.4883
 8277SOL    HW136290   2.360   4.297   7.818  0.6109 -0.5414 -0.2356
 8277SOL    HW236291   2.240   4.245   7.896  3.6782 -1.7304  0.5188
 8278SOL     OW36292   4.544   3.830   4.182 -0.4917 -0.1228  0.3031
 8278SOL    HW136293   4.467   3.799   4.230 -0.0123 -1.9243 -0.0747
 8278SOL    HW236294   4.501   3.862   4.103  0.2759  2.0758  0.7967
 8279SOL     OW36295   2.438   2.986   0.090 -0.3337 -0.0832 -0.7166
 8279SOL    HW136296   2.426   3.070   0.135 -2.9625  0.3511 -2.1668
 8279SOL    HW236297   2.516   2.955   0.134  0.4461 -0.0075 -2.0280
 8280SOL     OW36298   3.325   2.059  11.843  0.2963 -0.6999  0.0027
 8280SOL    HW136299   3.377   1.991  11.886  0.2264 -0.0570  1.1047
 8280SOL    HW236300   3.243   2.044  11.890  0.1319 -1.5441 -0.5623
 8281SOL     OW36301   4.090   0.713  14.249  0.1939 -0.0808  0.2529
 8281SOL    HW136302   4.165   0.676  14.295 -0.0834  1.0171  1.5813
 8281SOL    HW236303   4.030   0.639  14.255  2.5544 -1.8891  1.6227
 8282SOL     OW36304   0.869   1.427  12.892  0.3335 -0.0545  0.2552
 8282SOL    HW136305   0.821   1.497  12.846  0.7367  0.1635  0.1690
 8282SOL    HW236306   0.851   1.447  12.984 -0.1408 -1.3010  0.4346
 8283SOL     OW36307   4.667   4.190   3.892  0.2809 -0.4330  0.2461
 8283SOL    HW136308   4.590   4.148   3.854  0.6630 -1.8481  1.0203
 8283SOL    HW236309   0.009   4.155   3.834 -0.3125  1.2875 -1.4716
 8284SOL     OW36310   1.108   2.196  13.766  0.0759  0.7993 -0.3303
 8284SOL    HW136311   1.049   2.238  13.829  0.6086 -0.8935  1.2810
 8284SOL    HW236312   1.056   2.117  13.754  1.5211 -0.2665  0.4677
 8285SOL     OW36313   2.816   0.684   8.865 -0.1827  0.3521  0.1468
 8285SOL    HW136314   2.894   0.666   8.919  0.0713 -0.1911 -0.4008
 8285SOL    HW236315   2.771   0.599   8.866  0.0742  0.2138 -0.1468
 8286SOL     OW36316   0.513   4.617  11.024  0.1815 -0.0555 -0.0331
 8286SOL    HW136317   0.474   4.680  10.964 -0.0530  1.7472  1.9911
 8286SOL    HW236318   0.601   4.654  11.030  0.6002 -0.8876 -1.1659
 8287SOL     OW36319   0.170   4.037   9.391  0.3948 -0.1789 -0.4681
 8287SOL    HW136320   0.124   3.977   9.449  0.5989  0.3272  0.2163
 8287SOL    HW236321   0.159   3.994   9.306 -1.9373 -1.5772  0.5470
 8288SOL     OW36322   4.542   2.903   1.179  0.0947  0.2587 -0.5299
 8288SOL    HW136323   4.587   2.828   1.142 -0.6863  0.6053 -2.1470
 8288SOL    HW236324   4.454   2.887   1.146  0.7950 -2.3122 -1.0756
 8289SOL     OW36325   4.556   2.832  13.066 -0.6623  0.1674  0.1819
 8289SOL    HW136326   4.492   2.892  13.104  0.0638  0.2035  1.3240
 8289SOL    HW236327   4.545   2.826  12.971  2.1097  0.6501 -0.1753
 8290SOL     OW36328   3.351   0.491   3.437 -0.5094  0.1043  0.3497
 8290SOL    HW136329   3.372   0.566   3.493  2.9230  0.3181 -1.2217
 8290SOL    HW236330   3.417   0.490   3.368 -1.4909  0.4503 -0.5898
 8291SOL     OW36331   1.881   4.596   4.979 -0.2688 -0.2072  0.3665
 8291SOL    HW136332   1.935   4.669   4.949 -1.0186 -0.8340 -2.4568
 8291SOL    HW236333   1.921   4.577   5.064  0.4634  2.2741  0.5881
 8292SOL     OW36334   1.420   2.944  10.603  0.0262 -0.4058  0.1996
 8292SOL    HW136335   1.434   2.976  10.514  2.4561 -0.4687  0.5795
 8292SOL    HW236336   1.360   2.870  10.598  0.7761 -0.8586 -2.3350
 8293SOL     OW36337   1.497   0.487   1.295 -0.4941  1.2362  0.5901
 8293SOL    HW136338   1.514   0.526   1.209  1.4150  1.3542  1.0240
 8293SOL    HW236339   1.409   0.515   1.321 -1.1186 -0.3001  0.1538
 8294SOL     OW36340   3.779   1.022  14.659 -0.0356  0.2519  0.0335
 8294SOL    HW136341   3.817   1.091  14.713 -0.7942  0.6659  0.0322
 8294SOL    HW236342   3.824   1.045  14.579 -0.1570  2.7864  0.6984
 8295SOL     OW36343   2.115   4.110   3.710  0.2253 -1.1278  0.1489
 8295SOL    HW136344   2.092   4.081   3.798  3.1329  0.7982  1.5197
 8295SOL    HW236345   2.127   4.205   3.715  0.6664 -1.3150  2.6377
 8296SOL     OW36346   3.247   3.956   1.475 -0.1126 -0.9864 -0.4362
 8296SOL    HW136347   3.332   3.996   1.454 -0.5554 -0.4546 -1.1887
 8296SOL    HW236348   3.205   4.016   1.536 -0.7344 -1.3450 -0.5176
 8297SOL     OW36349   0.706   4.276  17.230  1.3276 -0.2049 -0.6487
 8297SOL    HW136350   0.751   4.274  17.145 -0.6756 -0.2688 -1.7323
 8297SOL    HW236351   0.747   4.357  17.257 -3.4008  1.3485  1.8797
 8298SOL     OW36352   4.277   0.952   0.239  0.5296 -0.3982  0.1438
 8298SOL    HW136353   4.306   0.975   0.327  2.6074 -2.2018 -0.0757
 8298SOL    HW236354   4.359   0.964   0.191  0.4383  0.4199  0.1920
 8299SOL     OW36355   3.227   3.344   9.469  0.3101 -0.7644 -0.1682
 8299SOL    HW136356   3.143   3.352   9.514 -0.7152  2.8794 -2.7311
 8299SOL    HW236357   3.237   3.252   9.447  0.0410 -0.8264 -0.0302
 8300SOL     OW36358   2.294   0.701   7.080 -0.2885  0.1635  0.2030
 8300SOL    HW136359   2.272   0.789   7.109  1.2978  0.6075  0.0691
 8300SOL    HW236360   2.209   0.661   7.099 -1.4004  1.6074 -1.7717
 8301SOL     OW36361   3.594   3.019   4.477  0.5898  0.1761  0.5320
 8301SOL    HW136362   3.598   3.050   4.386 -0.0355  0.3395  0.5605
 8301SOL    HW236363   3.563   2.929   4.475  1.6639 -0.1665 -0.8681
 8302SOL     OW36364   0.497   1.103   6.401 -0.0997 -0.1373 -0.5195
 8302SOL    HW136365   0.517   1.194   6.420  1.9130 -0.7804  0.4168
 8302SOL    HW236366   0.542   1.058   6.473 -0.6998 -0.1925 -0.1786
 8303SOL     OW36367   3.162   4.195   5.314 -0.5419 -0.2100 -0.0322
 8303SOL    HW136368   3.148   4.289   5.309 -2.6276 -0.5053  0.0564
 8303SOL    HW236369   3.072   4.168   5.332 -0.8833  0.3647 -0.9159
 8304SOL     OW36370   1.059   2.664   1.490  0.1728 -0.4810 -0.3244
 8304SOL    HW136371   1.087   2.740   1.438  0.0916  0.1040  0.4782
 8304SOL    HW236372   1.129   2.604   1.469  0.1346 -0.6618  0.0645
 8305SOL     OW36373   2.853   2.330  10.803  0.4077  0.1796  0.0435
 8305SOL    HW136374   2.785   2.312  10.868  0.0407  1.2836 -0.0300
 8305SOL    HW236375   2.885   2.418  10.823 -0.1921  0.1548  1.1215
 8306SOL     OW36376   4.323   4.475   3.659 -0.3544 -0.5403  0.1844
 8306SOL    HW136377   4.291   4.399   3.709  0.2816 -1.3466 -0.6346
 8306SOL    HW236378   4.288   4.549   3.709 -1.4110 -0.9338  0.0310
 8307SOL     OW36379   1.183   1.455   6.372 -0.3375 -0.7742 -0.2541
 8307SOL    HW136380   1.233   1.478   6.451  1.6754  0.3763 -1.8712
 8307SOL    HW236381   1.258   1.415   6.328 -0.0663  0.4975 -0.9396
 8308SOL     OW36382   1.501   4.682  11.251  0.0638  0.0976  0.2205
 8308SOL    HW136383   1.585   0.001  11.240  0.4175 -0.6905 -0.1783
 8308SOL    HW236384   1.522   4.601  11.206 -1.2669  0.0215 -0.2746
 8309SOL     OW36385   1.866   2.512   4.891 -0.0952  0.0387  0.1955
 8309SOL    HW136386   1.833   2.597   4.862 -1.8208 -1.3707 -2.0106
 8309SOL    HW236387   1.790   2.481   4.941 -0.5944 -0.4212 -0.8499
 8310SOL     OW36388   3.517   4.213   3.552 -0.0054 -0.8942 -0.6402
 8310SOL    HW136389   3.553   4.297   3.580 -1.7523 -1.1933  2.4102
 8310SOL    HW236390   3.441   4.212   3.610 -0.3200 -1.7169 -1.0718
 8311SOL     OW36391   2.441   1.179  11.084  0.2752  0.2921 -0.3750
 8311SOL    HW136392   2.446   1.266  11.045  0.8056  0.7190  0.6430
 8311SOL    HW236393   2.444   1.129  11.002 -0.1897  1.9255 -1.3866
 8312SOL     OW36394   3.076   4.476   2.370  0.2247 -0.0242 -0.2764
 8312SOL    HW136395   3.097   4.392   2.410 -0.6286  0.3550  0.9654
 8312SOL    HW236396   3.129   4.465   2.291 -0.2850  1.0933 -0.7767
 8313SOL     OW36397   2.725   0.165   3.628 -0.3813  0.4957 -0.3175
 8313SOL    HW136398   2.712   0.094   3.566  1.7043  0.3966 -0.6547
 8313SOL    HW236399   2.653   0.225   3.609 -0.3709  0.9431  1.0108
 8314SOL     OW36400   4.007   0.026  16.917  0.1367  0.2205 -0.0717
 8314SOL    HW136401   4.011   0.052  17.009 -0.1767  0.7522 -0.2088
 8314SOL    HW236402   3.918   0.054  16.894 -0.3639 -2.2231 -1.0523
 8315SOL     OW36403   2.546   3.738  11.782 -0.1254  0.6797  0.1050
 8315SOL    HW136404   2.591   3.736  11.866 -3.4844  0.6654  1.8987
 8315SOL    HW236405   2.567   3.655  11.738 -0.5647  1.0823 -0.8515
 8316SOL     OW36406   0.390   0.246   8.671  0.0023  0.0706 -0.4156
 8316SOL    HW136407   0.443   0.253   8.751  0.4975 -1.0892 -0.6496
 8316SOL    HW236408   0.337   0.171   8.699  0.1268  0.5979  1.2450
 8317SOL     OW36409   4.278   0.440   5.733 -0.3552 -0.0185 -0.5322
 8317SOL    HW136410   4.242   0.449   5.644  0.2817 -0.5024 -0.8325
 8317SOL    HW236411   4.214   0.495   5.779 -0.9229 -1.9658  0.9930
 8318SOL     OW36412   2.036   4.101   4.946  0.7195  0.3728  0.1904
 8318SOL    HW136413   1.985   4.156   5.006  0.3045  0.4028 -0.1867
 8318SOL    HW236414   2.117   4.099   4.997  1.5269  2.5565 -1.0231
 8319SOL     OW36415   1.741   2.450  12.446  0.4677  0.1894 -0.1402
 8319SOL    HW136416   1.783   2.417  12.525  1.2350  2.4101  0.3685
 8319SOL    HW236417   1.802   2.511  12.405  0.5416 -0.6821 -1.3361
 8320SOL     OW36418   3.338   3.435   8.040 -0.1552  0.5820 -0.6212
 8320SOL    HW136419   3.291   3.429   7.957 -1.1942 -0.3220  0.0291
 8320SOL    HW236420   3.329   3.344   8.068 -1.7176  1.1030  0.6294
 8321SOL     OW36421   4.700   3.306   8.068 -0.4834 -0.1348 -0.4067
 8321SOL    HW136422   4.696   3.319   8.163  1.4669 -1.5176 -0.1292
 8321SOL    HW236423   4.702   3.398   8.042  0.6347 -0.1384 -0.3316
 8322SOL     OW36424   2.728   0.265   6.912  0.6524  0.2667  0.0388
 8322SOL    HW136425   2.699   0.193   6.968  0.8073  0.1215 -0.0664
 8322SOL    HW236426   2.747   0.209   6.837 -0.4523 -2.2349  1.6295
 8323SOL     OW36427   4.336   2.750   5.828  0.0083  0.4470 -0.0413
 8323SOL    HW136428   4.431   2.742   5.841  0.4880  2.6382 -2.1240
 8323SOL    HW236429   4.337   2.742   5.732  1.2405 -1.3083  0.1128
 8324SOL     OW36430   3.441   0.807   1.664 -0.4287  0.1167 -0.5122
 8324SOL    HW136431   3.517   0.834   1.612 -0.2016 -1.1459 -0.8208
 8324SOL    HW236432   3.475   0.726   1.700 -0.5120  0.8595  1.2269
 8325SOL     OW36433   3.726   3.213   2.394 -0.2557 -0.1934 -0.0508
 8325SOL    HW136434   3.736   3.242   2.303  0.9798  0.2939  0.2303
 8325SOL    HW236435   3.811   3.242   2.427  0.4224  1.0480 -2.8809
 8326SOL     OW36436   1.879   1.873   4.281 -0.2121  0.1605 -0.0226
 8326SOL    HW136437   1.964   1.853   4.320  0.8547 -0.1600 -2.5266
 8326SOL    HW236438   1.823   1.888   4.357  1.0746 -1.9904  1.3229
 8327SOL     OW36439   3.313   3.406  17.482  0.3895  0.5916  0.2867
 8327SOL    HW136440   3.284   3.440  17.567 -3.1472  2.4769 -1.7308
 8327SOL    HW236441   3.407   3.393  17.496  0.4773 -2.4271 -3.0485
 8328SOL     OW36442   0.929   0.474   5.791 -0.0523 -0.4500  0.0969
 8328SOL    HW136443   1.014   0.478   5.835  0.0701 -0.7966 -0.1015
 8328SOL    HW236444   0.904   0.564   5.812 -0.6307 -0.3633 -0.9665
 8329SOL     OW36445   3.626   4.030  16.582  0.0187 -0.0568 -0.1675
 8329SOL    HW136446   3.582   4.070  16.507 -1.2524  0.1266  0.6792
 8329SOL    HW236447   3.590   3.942  16.589 -0.4944  0.2452  0.9885
 8330SOL     OW36448   2.965   3.697   8.002 -0.2258  0.3008  0.2392
 8330SOL    HW136449   2.871   3.712   7.996  0.5377  4.7379 -1.0433
 8330SOL    HW236450   2.995   3.774   7.953 -0.4435 -0.2056 -0.6862
 8331SOL     OW36451   1.812   4.015   8.478  0.2517  0.4068  0.6020
 8331SOL    HW136452   1.779   3.964   8.552  0.2771  0.0368  0.3572
 8331SOL    HW236453   1.735   4.006   8.421 -0.1742  0.9928  1.0773
 8332SOL     OW36454   1.474   3.179  16.799  0.0724 -0.3256 -0.2415
 8332SOL    HW136455   1.424   3.249  16.756 -0.9323 -1.1084 -0.3551
 8332SOL    HW236456   1.461   3.112  16.732  1.6786 -1.1793  0.3098
 8333SOL     OW36457   0.421   4.553   3.164  0.2400  0.4164 -0.2066
 8333SOL    HW136458   0.477   4.574   3.089 -1.5729  0.0487 -1.6629
 8333SOL    HW236459   0.347   4.611   3.144 -1.1037 -0.5860  1.8930
 8334SOL     OW36460   0.841   4.043   9.055 -0.1049  0.6380 -0.2501
 8334SOL    HW136461   0.786   4.116   9.084 -2.2373 -0.8957 -0.4669
 8334SOL    HW236462   0.833   3.984   9.130 -1.8087  0.4063 -0.6186
 8335SOL     OW36463   0.026   0.716   6.004 -0.4487 -0.1979 -0.4013
 8335SOL    HW136464   0.012   0.623   6.024  1.5948 -1.2713 -4.1008
 8335SOL    HW236465   4.709   0.752   6.082  0.9045 -1.9390  1.1663
 8336SOL     OW36466   0.808   1.346   6.376 -0.1155 -0.3757  0.0257
 8336SOL    HW136467   0.759   1.425   6.397 -2.1538 -2.7696  4.1797
 8336SOL    HW236468   0.883   1.383   6.329 -0.7510  2.0572  0.9185
 8337SOL     OW36469   1.067   2.987  10.569  0.6230  0.0647  0.1115
 8337SOL    HW136470   0.977   2.958  10.549 -0.3516  2.3300  1.2715
 8337SOL    HW236471   1.111   2.976  10.485 -0.1020 -2.1408  0.0082
 8338SOL     OW36472   3.408   3.658   7.708 -0.3053  0.1072 -0.0174
 8338SOL    HW136473   3.477   3.721   7.687  0.2077  0.5524  2.9028
 8338SOL    HW236474   3.383   3.676   7.799 -1.2244 -2.5370  0.2342
 8339SOL     OW36475   4.238   1.355  12.043  0.4187  0.0736 -0.6523
 8339SOL    HW136476   4.297   1.351  11.967 -0.2118 -0.1465 -1.1273
 8339SOL    HW236477   4.290   1.314  12.112 -0.3055 -0.9077 -0.6910
 8340SOL     OW36478   4.046   3.424   3.727 -0.0921  0.3065 -0.5186
 8340SOL    HW136479   3.988   3.495   3.702 -0.3039 -0.3476 -1.8759
 8340SOL    HW236480   4.004   3.347   3.690 -0.0683 -0.0102  0.1104
 8341SOL     OW36481   4.628   3.668   3.626  0.3711 -0.1332  0.0214
 8341SOL    HW136482   4.575   3.747   3.619  1.1555  0.4607  0.9292
 8341SOL    HW236483   4.593   3.630   3.707  2.1011 -2.8297 -0.4663
 8342SOL     OW36484   1.299   1.430  15.498 -0.4985 -0.5614 -0.0612
 8342SOL    HW136485   1.213   1.390  15.485 -0.6524 -1.2224  2.9196
 8342SOL    HW236486   1.357   1.381  15.440  0.5581 -0.6602  1.0689
 8343SOL     OW36487   4.340   0.436  13.999 -0.2924 -0.5096 -0.3375
 8343SOL    HW136488   4.414   0.422  13.940  1.3327  0.0959  1.5299
 8343SOL    HW236489   4.337   0.531  14.012  0.0047 -0.6124  0.4931
 8344SOL     OW36490   1.107   0.575  16.401 -0.1448 -0.3716 -0.3304
 8344SOL    HW136491   1.197   0.599  16.378  0.2115 -0.5686  0.8186
 8344SOL    HW236492   1.080   0.654  16.446 -1.5206  0.1095 -2.0185
 8345SOL     OW36493   3.399   2.279   3.082  0.0487 -0.4121  0.1493
 8345SOL    HW136494   3.453   2.288   3.160  2.6968  0.5811 -1.7706
 8345SOL    HW236495   3.437   2.208   3.029  0.8606  1.3575 -1.6433
 8346SOL     OW36496   0.516   0.173   0.458 -0.2121 -0.1636  0.2778
 8346SOL    HW136497   0.448   0.202   0.398  0.3209  0.9659  0.2301
 8346SOL    HW236498   0.465   0.099   0.491 -0.2337 -0.1682  0.2343
 8347SOL     OW36499   2.898   1.333  11.027 -0.1866 -0.1785  0.3257
 8347SOL    HW136500   2.876   1.326  11.120 -0.3011  1.4706  0.4105
 8347SOL    HW236501   2.816   1.294  10.994  0.2249  0.8969 -2.0058
 8348SOL     OW36502   0.193   2.268   3.543  0.3835  0.3827 -0.3864
 8348SOL    HW136503   0.259   2.291   3.608 -0.9152 -1.1819  1.4812
 8348SOL    HW236504   0.247   2.204   3.498  1.0807  0.8257 -0.1712
 8349SOL     OW36505   4.464   2.935   0.139  0.7845  0.2795 -0.1374
 8349SOL    HW136506   4.540   2.898   0.093  0.3033 -1.0327  0.1039
 8349SOL    HW236507   4.477   2.896   0.226  0.2573 -1.4432 -0.8146
 8350SOL     OW36508   4.642   0.472   9.336 -0.3884 -0.3996 -0.1926
 8350SOL    HW136509   4.695   0.542   9.374 -2.4189  1.0081  0.0280
 8350SOL    HW236510   4.681   0.457   9.250  1.2424 -2.1657  0.8596
 8351SOL     OW36511   3.484   0.647  17.700  0.2611 -0.2811  0.1723
 8351SOL    HW136512   3.514   0.631   0.088 -0.3795  1.0361  0.6266
 8351SOL    HW236513   3.556   0.699  17.665 -1.3766  1.6451 -0.3538
 8352SOL     OW36514   2.718   1.737   6.298  0.4919  0.4922  0.2485
 8352SOL    HW136515   2.645   1.799   6.305  0.7228  0.9746 -1.8668
 8352SOL    HW236516   2.789   1.789   6.336 -0.1168  0.0080  2.0925
 8353SOL     OW36517   1.440   1.003   9.993 -0.5549  0.4420 -0.4765
 8353SOL    HW136518   1.504   1.003   9.921  0.1695 -1.9624  0.1677
 8353SOL    HW236519   1.373   1.061   9.957  1.1819  3.4136  1.0143
 8354SOL     OW36520   0.788   0.191   6.959 -0.4022  0.2500 -0.4470
 8354SOL    HW136521   0.753   0.147   6.881  0.4998 -1.2252 -0.0342
 8354SOL    HW236522   0.828   0.117   7.006  0.5413  0.0185 -1.5979
 8355SOL     OW36523   2.154   2.095   3.602 -0.0177  0.3542 -0.1699
 8355SOL    HW136524   2.092   2.042   3.554 -1.0754  1.3373  0.0977
 8355SOL    HW236525   2.124   2.185   3.588  0.6015  0.3659 -1.4075
 8356SOL     OW36526   1.516   3.777   0.863  0.0184 -0.4813  0.1559
 8356SOL    HW136527   1.520   3.769   0.959 -1.3688 -0.5666  0.2057
 8356SOL    HW236528   1.553   3.864   0.849 -1.1856 -0.0703 -0.4102
 8357SOL     OW36529   2.029   3.098  11.598 -0.0702  0.5344 -0.7041
 8357SOL    HW136530   1.972   3.078  11.524 -0.2604 -0.7907 -0.1856
 8357SOL    HW236531   2.106   3.129  11.550  0.5050  1.4280  0.8082
 8358SOL     OW36532   4.114   2.875   5.921  0.4463  0.1720  0.5421
 8358SOL    HW136533   4.111   2.909   6.011 -0.7248  1.1773  0.1255
 8358SOL    HW236534   4.206   2.851   5.911 -0.3978 -3.4178  1.4371
 8359SOL     OW36535   4.241   4.498  15.073 -0.2277 -0.3377 -0.1287
 8359SOL    HW136536   4.237   4.579  15.124  0.2907 -0.2872 -0.1675
 8359SOL    HW236537   4.302   4.517  15.002 -0.1761 -0.4616 -0.1176
 8360SOL     OW36538   4.478   1.032   9.281 -0.1020  0.0240 -0.0736
 8360SOL    HW136539   4.416   1.027   9.354 -0.1446  5.2062  0.2306
 8360SOL    HW236540   4.557   0.992   9.316 -0.7705 -0.6525  0.6902
 8361SOL     OW36541   2.265   1.867   4.956  0.3731 -0.0006 -0.3245
 8361SOL    HW136542   2.251   1.919   4.877  1.9543 -1.1209 -1.3399
 8361SOL    HW236543   2.337   1.817   4.917  0.5058  0.0877 -0.1942
 8362SOL     OW36544   1.869   2.483   3.408  0.0719  0.1043 -0.1606
 8362SOL    HW136545   1.783   2.455   3.376  0.3226  0.3149 -1.0306
 8362SOL    HW236546   1.923   2.430   3.350 -0.4148  0.6843 -1.1598
 8363SOL     OW36547   1.262   3.731  14.606  0.7042 -0.6777  0.7229
 8363SOL    HW136548   1.270   3.698  14.516 -2.4112 -0.0884  0.2532
 8363SOL    HW236549   1.167   3.727  14.617  0.8090 -1.4105  1.3805
 8364SOL     OW36550   2.364   0.454  14.574  0.1403  0.1521  0.4077
 8364SOL    HW136551   2.318   0.494  14.647 -1.1941 -0.5217 -0.0629
 8364SOL    HW236552   2.430   0.407  14.624  0.3779  0.5140  0.4399
 8365SOL     OW36553   4.423   0.941   3.121  0.1350 -0.0231  0.2246
 8365SOL    HW136554   4.411   1.033   3.096 -2.1599 -0.6493 -0.9953
 8365SOL    HW236555   4.352   0.928   3.184 -0.1702  0.8895  0.0784
 8366SOL     OW36556   2.055   0.172   0.945 -0.0047  0.4726 -0.6485
 8366SOL    HW136557   2.098   0.183   1.029 -0.8097 -0.7519 -0.0682
 8366SOL    HW236558   2.057   0.266   0.927  1.9240  0.9200  2.0134
 8367SOL     OW36559   4.405   4.591   2.867 -0.2932 -0.2684  0.6642
 8367SOL    HW136560   4.441   4.678   2.879  0.6018 -0.6707  0.9013
 8367SOL    HW236561   4.362   4.597   2.782  2.4774 -0.1860 -0.7252
 8368SOL     OW36562   0.322   1.733   4.852  0.1925 -1.3024  0.1676
 8368SOL    HW136563   0.394   1.793   4.870  0.0309 -0.7900 -0.9001
 8368SOL    HW236564   0.281   1.732   4.938  2.3020  1.2489  1.1863
 8369SOL     OW36565   0.726   3.606  12.314  0.3030 -0.6488 -0.0098
 8369SOL    HW136566   0.699   3.697  12.298 -2.5388 -1.5890 -0.5799
 8369SOL    HW236567   0.655   3.578  12.371 -0.0269  0.9077  0.3415
 8370SOL     OW36568   4.679   0.864   3.702  0.3515  0.0525  0.0172
 8370SOL    HW136569   4.714   0.787   3.747 -1.1443  0.2213  1.4805
 8370SOL    HW236570   0.029   0.914   3.670 -0.2127  1.9795  1.7034
 8371SOL     OW36571   1.841   0.042   8.028  0.5647  0.4693 -0.6442
 8371SOL    HW136572   1.773   0.056   8.094 -0.9164  0.8229 -2.2561
 8371SOL    HW236573   1.876   4.689   8.072  0.6425  0.1821 -1.2035
 8372SOL     OW36574   3.044   1.768   4.660 -0.9548 -0.1061  0.2433
 8372SOL    HW136575   2.985   1.817   4.716 -0.8481 -0.6706  0.8416
 8372SOL    HW236576   3.094   1.838   4.616  0.1541 -1.3691 -0.5175
 8373SOL     OW36577   0.140   3.865  10.198  0.6136  0.5607  0.4388
 8373SOL    HW136578   0.062   3.920  10.198  0.0279 -0.2834  1.1212
 8373SOL    HW236579   0.199   3.899  10.265 -0.0343  0.7489  0.9115
 8374SOL     OW36580   0.780   0.243   5.135 -0.1543  0.4463  0.6326
 8374SOL    HW136581   0.695   0.200   5.147  1.1218 -2.8020 -1.9665
 8374SOL    HW236582   0.746   0.322   5.092 -2.1157 -0.2559  0.8651
 8375SOL     OW36583   4.439   0.961  10.222 -0.0662  0.2580  0.4875
 8375SOL    HW136584   4.513   0.977  10.165  0.0427 -0.9808  0.2681
 8375SOL    HW236585   4.391   0.900  10.165  2.9772  0.6914 -2.4959
 8376SOL     OW36586   3.348   3.620   4.643 -0.0444  0.4791 -0.5660
 8376SOL    HW136587   3.437   3.593   4.620 -0.5658 -1.9736  0.2332
 8376SOL    HW236588   3.312   3.653   4.561  0.1138  2.0431 -0.0062
 8377SOL     OW36589   0.954   1.040   1.664 -0.5248 -0.2559 -0.3341
 8377SOL    HW136590   0.921   0.988   1.736  1.6135 -2.0038 -0.6229
 8377SOL    HW236591   0.989   0.967   1.613 -1.6095 -1.2076  0.2996
 8378SOL     OW36592   3.322   0.743  12.104 -0.0622  0.3042 -0.8888
 8378SOL    HW136593   3.345   0.736  12.197 -3.2129 -0.6093 -0.1729
 8378SOL    HW236594   3.321   0.838  12.099  0.1896  0.3050 -0.9318
 8379SOL     OW36595   1.042   4.146   8.913 -0.1039 -0.1617  0.1362
 8379SOL    HW136596   1.006   4.093   8.984  0.0454 -0.2773  0.1264
 8379SOL    HW236597   0.961   4.190   8.889  0.4234  0.6925 -0.0859
 8380SOL     OW36598   1.544   4.267   5.036  0.2663  0.1197 -0.1344
 8380SOL    HW136599   1.562   4.199   5.101  0.6904 -1.0227 -1.4556
 8380SOL    HW236600   1.479   4.224   4.980 -0.8070  2.6827 -0.8253
 8381SOL     OW36601   3.428   3.104   9.947 -0.0656 -0.2701  0.4186
 8381SOL    HW136602   3.391   3.089   9.861  1.5329  2.4483 -0.7264
 8381SOL    HW236603   3.447   3.198   9.951 -1.1462 -0.0958  1.5103
 8382SOL     OW36604   1.317   2.415   6.303  0.5706 -0.1802 -0.0285
 8382SOL    HW136605   1.230   2.445   6.278  0.9622  1.7187  0.8497
 8382SOL    HW236606   1.382   2.458   6.247  0.0731  0.8926  0.2113
 8383SOL     OW36607   4.258   3.019  15.497  0.0849  0.4430  0.0442
 8383SOL    HW136608   4.245   2.940  15.549  2.1251 -0.0520 -0.2169
 8383SOL    HW236609   4.169   3.054  15.509 -0.5752 -1.6033  1.1700
 8384SOL     OW36610   0.651   0.993   5.808  0.2964  0.5719 -0.0924
 8384SOL    HW136611   0.555   0.989   5.808  0.3936 -1.7713 -1.4288
 8384SOL    HW236612   0.671   1.043   5.887 -0.6483 -0.7621  0.9963
 8385SOL     OW36613   2.448   0.908   4.278 -0.0237  0.5016 -0.2491
 8385SOL    HW136614   2.522   0.847   4.279 -0.7228 -0.3367  0.6260
 8385SOL    HW236615   2.488   0.988   4.245 -1.7334  0.3472 -2.6632
 8386SOL     OW36616   2.648   2.332  10.985 -0.4100 -0.1230 -0.0883
 8386SOL    HW136617   2.554   2.316  10.993 -0.0826 -1.8212  0.4483
 8386SOL    HW236618   2.643   2.427  10.994 -0.2242 -0.1452  0.2506
 8387SOL     OW36619   1.898   4.518   1.409  0.0070  0.1096  0.0239
 8387SOL    HW136620   1.941   4.563   1.482  0.2519  1.3522 -0.8841
 8387SOL    HW236621   1.809   4.555   1.413  0.1489  0.5138 -0.5337
 8388SOL     OW36622   3.930   3.071  14.130  0.3562 -0.1490  0.6246
 8388SOL    HW136623   3.883   3.056  14.049 -0.4745 -0.3179  1.1422
 8388SOL    HW236624   3.993   2.999  14.131  0.7881  0.2554  1.9536
 8389SOL     OW36625   0.986   0.937   2.966 -0.0555  0.0352  0.0861
 8389SOL    HW136626   0.952   0.848   2.976 -0.7668  0.4461  1.3486
 8389SOL    HW236627   1.012   0.955   3.056  1.8229  4.7009 -1.4042
 8390SOL     OW36628   3.232   2.380   8.105 -0.2889  0.0960 -0.5475
 8390SOL    HW136629   3.169   2.451   8.117  0.7422  0.6238  1.8708
 8390SOL    HW236630   3.175   2.310   8.139 -1.0657  2.6615  3.5644
 8391SOL     OW36631   4.341   0.294   7.597 -0.7731  0.0563 -0.1679
 8391SOL    HW136632   4.254   0.301   7.558  0.2377 -0.3670 -2.4906
 8391SOL    HW236633   4.385   0.239   7.533  1.0260  0.1142  1.0024
 8392SOL     OW36634   3.365   0.957  17.669 -0.3218  0.1948 -0.0040
 8392SOL    HW136635   3.420   0.926  17.598  0.8502  0.4002  0.8162
 8392SOL    HW236636   3.279   0.961  17.627  1.1340  0.9666 -2.9059
 8393SOL     OW36637   3.401   0.283   4.885  0.1361 -0.9642 -0.2040
 8393SOL    HW136638   3.445   0.278   4.971 -1.4702 -0.6138  0.6313
 8393SOL    HW236639   3.480   0.302   4.835 -0.8886  1.6081 -0.8297
 8394SOL     OW36640   0.552   1.925   8.106 -0.2549 -0.3358 -0.5018
 8394SOL    HW136641   0.617   1.887   8.047 -0.1843 -0.7839 -0.1328
 8394SOL    HW236642   0.488   1.970   8.051 -1.3300 -0.8777  0.3093
 8395SOL     OW36643   4.272   2.451   6.809  0.1331 -0.3431  0.3482
 8395SOL    HW136644   4.194   2.397   6.824  0.2163 -1.0632 -1.9485
 8395SOL    HW236645   4.241   2.523   6.864  0.2184  0.3707 -0.5398
 8396SOL     OW36646   2.189   1.195   0.976  1.1222  0.0713 -0.3301
 8396SOL    HW136647   2.175   1.188   0.882  0.4616 -0.1710 -0.2140
 8396SOL    HW236648   2.101   1.175   1.008  1.7688 -0.6021  1.0192
 8397SOL     OW36649   0.291   0.734   5.940 -0.3473  0.0482 -0.1016
 8397SOL    HW136650   0.195   0.739   5.941 -0.3044  0.6596  0.8364
 8397SOL    HW236651   0.310   0.728   5.846 -0.7696 -1.3571 -0.0875
 8398SOL     OW36652   4.130   1.603   5.405  0.1046  0.0650 -0.1180
 8398SOL    HW136653   4.106   1.672   5.343 -0.9200 -0.1517  0.0349
 8398SOL    HW236654   4.137   1.521   5.355  0.6089 -0.2322  0.4490
 8399SOL     OW36655   1.235   0.778   3.701 -0.4857  0.0219  0.0276
 8399SOL    HW136656   1.259   0.870   3.712  0.6858 -0.1864 -0.8612
 8399SOL    HW236657   1.238   0.768   3.606 -0.7005  3.1774 -0.2846
 8400SOL     OW36658   1.649   1.339   4.144  0.4445  0.2450  0.1108
 8400SOL    HW136659   1.591   1.404   4.184  0.3592 -0.3004  0.8474
 8400SOL    HW236660   1.590   1.278   4.101  2.3592 -0.4580 -1.5240
 8401SOL     OW36661   0.981   2.277   5.361 -0.5071 -0.1326 -0.5165
 8401SOL    HW136662   0.941   2.261   5.447 -2.0950  2.1078 -0.8404
 8401SOL    HW236663   0.923   2.219   5.311 -2.2346  0.1168  1.1727
 8402SOL     OW36664   2.235   1.478   8.485  0.1492  0.0135 -0.2105
 8402SOL    HW136665   2.321   1.521   8.482  0.0710  0.1307 -0.6925
 8402SOL    HW236666   2.187   1.552   8.521 -1.0087 -0.4311 -0.8546
 8403SOL     OW36667   2.829   3.745   3.389 -0.0197  0.0695 -0.1671
 8403SOL    HW136668   2.795   3.676   3.332  1.7522 -2.2649  1.6183
 8403SOL    HW236669   2.767   3.735   3.461 -0.5903  1.3757 -0.4680
 8404SOL     OW36670   3.827   4.263  14.092 -0.0745 -0.7792 -0.2668
 8404SOL    HW136671   3.742   4.308  14.097 -0.2443 -1.1127 -0.1609
 8404SOL    HW236672   3.824   4.200  14.164  2.2853 -0.4035  0.1365
 8405SOL     OW36673   3.722   2.571   5.113  0.2985 -0.0717  0.5906
 8405SOL    HW136674   3.727   2.665   5.130  0.2387  0.0974 -0.3501
 8405SOL    HW236675   3.775   2.558   5.034  0.9812 -1.9245  1.3341
 8406SOL     OW36676   2.397   1.291   4.923  0.0991 -0.0080  0.1534
 8406SOL    HW136677   2.307   1.306   4.896 -0.9848 -1.1648  3.1075
 8406SOL    HW236678   2.400   1.196   4.918  0.9309 -0.0350  1.0656
 8407SOL     OW36679   0.660   2.262  16.786  0.7792 -0.2579  0.2813
 8407SOL    HW136680   0.679   2.331  16.851  0.7065  0.1904 -0.1734
 8407SOL    HW236681   0.724   2.193  16.804 -0.0777 -1.3604 -0.9191
 8408SOL     OW36682   2.189   3.501   7.540 -0.0090  0.0207  0.4234
 8408SOL    HW136683   2.142   3.552   7.473  0.6378  2.1309  1.5601
 8408SOL    HW236684   2.127   3.444   7.584 -1.5924  0.6671 -0.9423
 8409SOL     OW36685   0.254   0.977  15.649  0.0214 -0.2738 -0.1357
 8409SOL    HW136686   0.250   1.010  15.559  0.0892  0.4579  0.1345
 8409SOL    HW236687   0.169   0.933  15.661  0.7389 -1.5931  0.1186
 8410SOL     OW36688   1.235   0.149   7.955 -0.6443 -0.6760 -0.3516
 8410SOL    HW136689   1.325   0.120   7.968 -0.5597 -0.7640 -1.1514
 8410SOL    HW236690   1.180   0.098   8.015  0.6159  1.6573  2.8011
 8411SOL     OW36691   3.453   2.903   8.322  0.1846  0.4153  0.0918
 8411SOL    HW136692   3.373   2.910   8.271 -0.7935 -0.5859  1.4835
 8411SOL    HW236693   3.456   2.816   8.362  0.0084 -0.0030 -0.7972
 8412SOL     OW36694   1.502   4.496   5.843  0.1484 -0.2051 -0.0386
 8412SOL    HW136695   1.531   4.586   5.827 -1.9380  0.2838 -1.0522
 8412SOL    HW236696   1.556   4.452   5.909 -1.3987 -1.7305  0.2241
 8413SOL     OW36697   0.129   4.669   7.763  0.2106 -0.3158  0.4930
 8413SOL    HW136698   0.089   0.021   7.722  1.2370 -1.0217 -1.8476
 8413SOL    HW236699   0.214   4.702   7.792 -0.4157 -0.1752  2.1623
 8414SOL     OW36700   2.920   2.244   8.511 -0.1547 -0.2135 -0.2305
 8414SOL    HW136701   2.851   2.190   8.471  0.3673  0.4280 -1.9961
 8414SOL    HW236702   2.881   2.327   8.539  3.1261  2.1215 -2.5099
 8415SOL     OW36703   4.388   3.197   0.069  0.4500 -0.5048  0.0036
 8415SOL    HW136704   4.409   3.108   0.096 -0.3768 -0.2923  1.3254
 8415SOL    HW236705   4.440   3.251   0.129 -0.3407  2.0351 -1.5676
 8416SOL     OW36706   1.159   1.908   7.326  0.3736 -0.0451 -0.0230
 8416SOL    HW136707   1.072   1.894   7.290  0.5929 -0.4489 -0.3989
 8416SOL    HW236708   1.159   1.996   7.365  0.0976  1.0604 -2.4850
 8417SOL     OW36709   1.381   1.512   1.619 -0.6393  0.0259  0.0449
 8417SOL    HW136710   1.331   1.439   1.581  1.5996  0.4785 -3.6974
 8417SOL    HW236711   1.469   1.506   1.583 -0.2725 -0.2408  0.9790
 8418SOL     OW36712   3.931   2.371   3.584  0.4667  0.3009  0.7924
 8418SOL    HW136713   4.005   2.341   3.638  1.3236 -0.5356 -0.8369
 8418SOL    HW236714   3.988   2.372   3.507  0.2808 -0.0123  0.6512
 8419SOL     OW36715   4.523   4.648   1.763  0.1690 -0.0025  0.6340
 8419SOL    HW136716   4.428   4.645   1.770  0.1952 -0.3608  0.8649
 8419SOL    HW236717   4.530   4.584   1.692  1.5144  0.5085  0.2932
 8420SOL     OW36718   0.930   1.891   2.715  0.3809 -0.0116 -0.3867
 8420SOL    HW136719   0.956   1.907   2.624 -0.3327  0.9091 -0.4337
 8420SOL    HW236720   0.980   1.959   2.761 -1.1454  0.7527  0.1378
 8421SOL     OW36721   2.049   4.222   4.147 -0.2295 -0.1909  0.1068
 8421SOL    HW136722   2.028   4.148   4.089  1.1243 -1.7874  1.6708
 8421SOL    HW236723   1.960   4.254   4.165 -0.8864 -1.8476 -0.2123
 8422SOL     OW36724   3.988   0.027  13.085 -0.1372  0.9117 -0.6947
 8422SOL    HW136725   4.040   0.101  13.114 -0.9223  0.5191  1.7099
 8422SOL    HW236726   3.956   0.060  13.001  0.3065 -1.6369 -1.8764
 8423SOL     OW36727   4.143   4.420   1.717 -0.3241  0.1197  0.5363
 8423SOL    HW136728   4.064   4.446   1.670 -0.0090  1.2607  0.6520
 8423SOL    HW236729   4.162   4.337   1.673 -0.8132  0.4890 -0.3734
 8424SOL     OW36730   4.440   3.296   8.488 -0.0537 -1.1239  0.0569
 8424SOL    HW136731   4.372   3.288   8.556 -0.4601  2.8158  0.1259
 8424SOL    HW236732   4.442   3.204   8.463 -0.9070 -1.0164 -0.4053
 8425SOL     OW36733   1.237   3.128   1.909  0.1604 -0.0845  0.2426
 8425SOL    HW136734   1.249   3.059   1.975 -2.3378 -0.8436 -0.1062
 8425SOL    HW236735   1.151   3.105   1.874  1.0507 -0.0571 -1.9031
 8426SOL     OW36736   1.626   1.151   6.966 -0.4987  0.1966  0.0406
 8426SOL    HW136737   1.721   1.161   6.963 -0.6997  2.8028  2.0565
 8426SOL    HW236738   1.597   1.210   6.897 -1.8989 -1.7203 -1.0094
 8427SOL     OW36739   3.332   2.743   6.710  0.5799  0.4000 -0.4732
 8427SOL    HW136740   3.394   2.696   6.654  1.7924  0.1983  1.0335
 8427SOL    HW236741   3.351   2.695   6.791  1.2227  1.2746 -0.1192
 8428SOL     OW36742   2.676   1.304   3.015 -0.0624 -0.2016  0.3496
 8428SOL    HW136743   2.685   1.375   2.951 -0.6593  0.4001  0.9402
 8428SOL    HW236744   2.766   1.273   3.021  0.3799  1.2618  1.4034
 8429SOL     OW36745   0.835   1.555   2.710 -0.3057 -0.1798 -0.3462
 8429SOL    HW136746   0.887   1.588   2.637 -0.8147 -0.1646 -0.7025
 8429SOL    HW236747   0.846   1.463   2.686 -0.2209  0.2265 -1.8694
 8430SOL     OW36748   2.102   3.093   8.325  0.6238 -0.1940 -0.0284
 8430SOL    HW136749   2.020   3.127   8.359 -0.1851 -0.3833 -1.8094
 8430SOL    HW236750   2.167   3.136   8.382  1.2101 -0.8230 -0.2152
 8431SOL     OW36751   0.692   4.522  17.574  0.1633  0.2854  0.3497
 8431SOL    HW136752   0.758   4.562  17.631 -1.5529  1.0883  1.7688
 8431SOL    HW236753   0.732   4.540  17.489 -0.2212 -0.9809 -0.0842
 8432SOL     OW36754   3.566   1.611  16.816  1.0612  0.3299  0.2414
 8432SOL    HW136755   3.647   1.560  16.815  0.9186  0.0518  2.2814
 8432SOL    HW236756   3.578   1.662  16.897  0.7754  0.8041 -0.0171
 8433SOL     OW36757   1.486   2.236  17.440 -0.6711  0.3306 -0.3534
 8433SOL    HW136758   1.461   2.144  17.453 -1.0061  0.0921 -2.6233
 8433SOL    HW236759   1.567   2.232  17.491 -0.5238 -2.9010 -0.8198
 8434SOL     OW36760   3.799   1.788   0.494  0.2062  0.5362 -0.1792
 8434SOL    HW136761   3.709   1.795   0.524 -1.2164  2.7568 -4.9283
 8434SOL    HW236762   3.826   1.869   0.451  0.6572  1.2550  1.4594
 8435SOL     OW36763   0.011   1.768   7.374  0.4461 -0.4524  0.4163
 8435SOL    HW136764   4.694   1.733   7.453 -0.2065 -2.0919 -0.6509
 8435SOL    HW236765   0.094   1.726   7.397  0.5728 -0.5579 -0.2457
 8436SOL     OW36766   0.315   2.003   3.093  0.5620  0.2926  0.2562
 8436SOL    HW136767   0.404   1.991   3.126  0.7390 -3.2837 -1.5110
 8436SOL    HW236768   0.271   1.919   3.103  1.7173 -0.4670 -1.0224
 8437SOL     OW36769   2.211   3.273   7.389  0.6394  0.0659 -0.5651
 8437SOL    HW136770   2.304   3.273   7.368  0.6918 -0.2238 -0.3397
 8437SOL    HW236771   2.200   3.355   7.438 -2.5953 -0.4061 -0.4876
 8438SOL     OW36772   0.993   3.811  10.679 -0.0182 -0.1508  0.5408
 8438SOL    HW136773   1.083   3.817  10.711  0.0144 -0.9341  0.5948
 8438SOL    HW236774   1.000   3.781  10.589 -2.0027 -2.5564  1.1887
 8439SOL     OW36775   2.149   0.156  13.476  0.2294 -0.0244 -0.0536
 8439SOL    HW136776   2.103   0.188  13.554 -2.3438 -0.3207 -1.4513
 8439SOL    HW236777   2.200   0.232  13.449 -0.6667  1.1112  1.5084
 8440SOL     OW36778   4.650   1.126   4.461  0.4394  0.3712 -0.6089
 8440SOL    HW136779   4.670   1.118   4.368  1.5869  0.5899 -0.3791
 8440SOL    HW236780   0.005   1.167   4.494 -0.2274  0.1418  1.3148
 8441SOL     OW36781   3.548   0.667   4.885  0.4791  0.0726  0.0700
 8441SOL    HW136782   3.595   0.736   4.837 -0.9893  1.7513  1.0174
 8441SOL    HW236783   3.496   0.725   4.941  0.4428 -1.1006  1.2410
 8442SOL     OW36784   2.979   1.808  12.200 -0.5182 -1.1382 -0.0696
 8442SOL    HW136785   2.942   1.777  12.117 -1.6569  1.3439 -0.4902
 8442SOL    HW236786   2.901   1.797  12.255  0.9819 -0.3358  2.1915
 8443SOL     OW36787   4.466   1.537  10.085  0.0226 -0.2774  0.1933
 8443SOL    HW136788   4.427   1.622  10.066  1.9127 -0.0290 -2.4942
 8443SOL    HW236789   4.394   1.487  10.048 -0.2771 -0.1019  0.5363
 8444SOL     OW36790   4.211   2.817  15.684  0.4558  0.0305  0.0995
 8444SOL    HW136791   4.117   2.833  15.693  0.0820 -2.0380 -0.1299
 8444SOL    HW236792   4.227   2.732  15.723 -1.8325 -0.1302  0.7117
 8445SOL     OW36793   4.368   3.957   7.015 -0.7281 -0.0408  0.1175
 8445SOL    HW136794   4.423   3.879   7.022 -1.8227 -0.7236  1.1214
 8445SOL    HW236795   4.327   3.939   6.930 -0.1401  0.5363 -0.2913
 8446SOL     OW36796   1.330   2.838   3.678 -0.1854  0.9480  0.2527
 8446SOL    HW136797   1.345   2.777   3.606  2.7135  1.4192  0.4530
 8446SOL    HW236798   1.417   2.849   3.716  0.7759 -1.2419 -1.3166
 8447SOL     OW36799   1.100   0.299   8.237 -0.2584 -0.3716 -0.4016
 8447SOL    HW136800   1.113   0.394   8.244  2.0763 -0.7605  0.5474
 8447SOL    HW236801   1.178   0.281   8.289  0.8608  0.2716 -1.8501
 8448SOL     OW36802   0.745   1.992  15.753 -0.3976  0.0792  0.1407
 8448SOL    HW136803   0.758   2.071  15.701  0.1118  0.1023  0.3109
 8448SOL    HW236804   0.649   1.987  15.752 -0.3733 -0.2292 -0.8417
 8449SOL     OW36805   3.713   3.719  16.389 -0.3145 -0.2224 -0.4274
 8449SOL    HW136806   3.679   3.744  16.475 -0.2728 -1.1958 -0.1306
 8449SOL    HW236807   3.794   3.771  16.391  0.4724 -1.5022  0.6575
 8450SOL     OW36808   4.191   2.662   3.385  0.3957 -0.2179 -0.0494
 8450SOL    HW136809   4.257   2.713   3.338 -0.0063  0.1771 -0.1763
 8450SOL    HW236810   4.225   2.692   3.469 -0.2934 -0.3837  0.2884
 8451SOL     OW36811   1.684   4.627   3.095  0.2673 -0.2784 -0.2794
 8451SOL    HW136812   1.639   4.555   3.138 -0.9142 -0.4130 -1.7194
 8451SOL    HW236813   1.649   4.700   3.146 -2.0359  0.0773 -2.3554
 8452SOL     OW36814   4.283   1.476   0.460 -0.0495 -0.3800 -0.5196
 8452SOL    HW136815   4.255   1.566   0.440  1.5459 -0.0049 -1.0845
 8452SOL    HW236816   4.369   1.475   0.418  0.4075  0.0969  0.3969
 8453SOL     OW36817   3.332   2.519   7.664 -0.0813  0.3181 -0.1777
 8453SOL    HW136818   3.335   2.604   7.707 -3.4839 -0.3588  1.4463
 8453SOL    HW236819   3.418   2.487   7.693  0.3751 -1.0495 -2.9815
 8454SOL     OW36820   1.040   3.307   9.030  0.7549 -0.5994  0.1733
 8454SOL    HW136821   1.120   3.359   9.036  1.0115 -1.0035  0.2432
 8454SOL    HW236822   0.993   3.329   9.110 -1.0749 -0.1924 -0.9987
 8455SOL     OW36823   1.941   1.577   9.850 -0.4221  0.3325 -0.0264
 8455SOL    HW136824   1.957   1.610   9.762 -1.8736  1.8056  0.2700
 8455SOL    HW236825   1.879   1.511   9.818  0.1761 -0.5944  0.7167
 8456SOL     OW36826   0.151   4.513   0.032  0.0970  0.3538 -0.2169
 8456SOL    HW136827   0.083   4.449   0.011  1.0937 -0.7126 -0.2198
 8456SOL    HW236828   0.157   4.565  17.653  0.4046  1.2452  0.3834
 8457SOL     OW36829   0.783   2.604  10.872  0.3290  0.0164 -0.1040
 8457SOL    HW136830   0.762   2.631  10.961  0.7946 -1.4279  0.4352
 8457SOL    HW236831   0.816   2.683  10.828 -1.9238  1.0025 -0.0293
 8458SOL     OW36832   1.790   0.373   5.747 -0.2409  0.2315 -0.3471
 8458SOL    HW136833   1.783   0.466   5.724  2.5680  0.0855 -1.8727
 8458SOL    HW236834   1.698   0.361   5.767 -0.2943 -1.1540 -1.4053
 8459SOL     OW36835   0.726   2.472  15.147  0.3607 -0.1994  0.0737
 8459SOL    HW136836   0.656   2.423  15.190  0.0792 -0.4560 -0.6782
 8459SOL    HW236837   0.686   2.497  15.064  1.0107  1.9121  0.4006
 8460SOL     OW36838   0.745   2.222  17.570 -0.0292 -0.1037 -0.3563
 8460SOL    HW136839   0.823   2.211  17.516 -0.0378  0.1096 -0.4131
 8460SOL    HW236840   0.694   2.274  17.508 -2.6646  1.0235  2.7238
 8461SOL     OW36841   0.281   0.012  15.840  0.2509  0.0832  0.2207
 8461SOL    HW136842   0.239   0.097  15.824 -0.5049 -0.4362 -0.5812
 8461SOL    HW236843   0.213   4.690  15.890  1.2233  0.1187  1.5656
 8462SOL     OW36844   4.082   1.070  15.471 -0.1608 -0.4067  0.1215
 8462SOL    HW136845   4.041   1.116  15.544 -0.3566 -0.3700 -0.0092
 8462SOL    HW236846   4.157   1.128  15.465 -1.7425  1.8695  2.1360
 8463SOL     OW36847   0.410   2.354   3.283 -0.5129  0.1910  0.0995
 8463SOL    HW136848   0.487   2.369   3.338 -1.2368 -1.1672  1.4574
 8463SOL    HW236849   0.435   2.409   3.208 -1.4791  0.7216  0.1702
 8464SOL     OW36850   4.593   4.051   2.167 -0.5896 -0.6567  0.4899
 8464SOL    HW136851   4.503   4.085   2.171 -0.2525  0.6526 -2.7462
 8464SOL    HW236852   4.631   4.089   2.088 -1.1285 -1.5551 -0.1999
 8465SOL     OW36853   2.654   2.166   9.034 -0.1496  0.0509 -0.5113
 8465SOL    HW136854   2.595   2.122   9.095  0.8141 -1.7347 -0.8538
 8465SOL    HW236855   2.717   2.195   9.100  0.8268 -0.8661 -1.0206
 8466SOL     OW36856   1.079   3.224   7.500  0.0399  0.2085  0.2522
 8466SOL    HW136857   1.105   3.298   7.554  0.4914 -0.0836  0.4266
 8466SOL    HW236858   1.166   3.198   7.471 -0.5498 -1.8571  0.2604
 8467SOL     OW36859   3.781   0.416  13.014  0.5086 -0.1541  0.1516
 8467SOL    HW136860   3.768   0.486  13.078  1.3918 -0.0808  0.2550
 8467SOL    HW236861   3.869   0.441  12.984 -0.4435 -0.9860 -3.3312
 8468SOL     OW36862   4.055   2.980   4.761 -0.2089 -0.6297 -1.1658
 8468SOL    HW136863   4.111   2.945   4.831  0.2915 -0.6963 -1.6003
 8468SOL    HW236864   4.035   3.067   4.795 -0.1823 -1.3526  0.6999
 8469SOL     OW36865   4.006   3.023  11.847  0.2831 -0.5722  0.3636
 8469SOL    HW136866   4.055   3.105  11.858  1.1216 -0.6319 -2.9635
 8469SOL    HW236867   3.921   3.052  11.816  1.5201  2.0046 -0.6072
 8470SOL     OW36868   0.629   0.040   3.803  0.1114  0.1687 -0.0593
 8470SOL    HW136869   0.562   0.045   3.735 -0.2409  0.7738  0.3330
 8470SOL    HW236870   0.610   0.114   3.861  0.9979 -0.1801  0.6556
 8471SOL     OW36871   1.498   4.059   8.731  0.3422  0.0631 -0.0578
 8471SOL    HW136872   1.451   3.980   8.704  0.7603 -0.5901  1.1058
 8471SOL    HW236873   1.432   4.112   8.775 -1.4814 -1.5507 -0.8280
 8472SOL     OW36874   3.330   2.630   5.088  0.2632  0.4036  0.6225
 8472SOL    HW136875   3.335   2.725   5.093  0.6766  0.5280 -2.2992
 8472SOL    HW236876   3.390   2.610   5.016 -0.9104  3.3531 -1.1429
 8473SOL     OW36877   4.535   0.952   3.995 -0.0003  0.4499  0.6132
 8473SOL    HW136878   4.537   1.046   4.016  2.1671  0.0397  2.1772
 8473SOL    HW236879   4.535   0.948   3.899  1.1197 -0.5576  0.6655
 8474SOL     OW36880   0.007   4.144  14.230 -0.4358 -0.0689  0.5689
 8474SOL    HW136881   4.650   4.191  14.249 -0.3618 -0.9012  2.9673
 8474SOL    HW236882   4.705   4.073  14.172 -1.5513 -0.1792  1.2282
 8475SOL     OW36883   1.405   3.513  16.957  0.2496  0.3418 -0.2292
 8475SOL    HW136884   1.451   3.463  17.024  1.5575 -1.1142 -2.2215
 8475SOL    HW236885   1.330   3.541  17.010 -1.2121  0.8844 -2.6030
 8476SOL     OW36886   1.520   3.027   5.917  0.2410 -0.4371 -0.5398
 8476SOL    HW136887   1.459   2.953   5.929 -1.7351  1.2667 -0.1541
 8476SOL    HW236888   1.547   3.034   6.008 -1.2824 -0.2584 -0.1030
 8477SOL     OW36889   0.894   0.981  15.334 -0.3317  0.5203  0.2704
 8477SOL    HW136890   0.853   0.997  15.419 -1.0670 -0.6390  0.1297
 8477SOL    HW236891   0.983   0.998  15.366 -0.4942  1.1219  0.4070
 8478SOL     OW36892   3.413   0.986   3.306  0.1520 -0.2274 -0.0070
 8478SOL    HW136893   3.492   0.941   3.276  1.3702  1.8414  0.1181
 8478SOL    HW236894   3.441   1.078   3.306  4.0991 -1.4403  0.0453
 8479SOL     OW36895   4.206   4.089  13.828 -0.3024 -0.1899  0.1208
 8479SOL    HW136896   4.208   4.171  13.778  1.5012 -0.1200  0.3065
 8479SOL    HW236897   4.147   4.109  13.901 -0.0460  1.1586 -0.0316
 8480SOL     OW36898   0.523   1.626   4.329  0.1966  0.4509 -0.2437
 8480SOL    HW136899   0.618   1.640   4.322  0.1169  2.2358  2.2763
 8480SOL    HW236900   0.525   1.555   4.393  0.0650  0.3549 -0.3458
 8481SOL     OW36901   0.867   3.943   2.186  0.4988 -0.0366  0.6371
 8481SOL    HW136902   0.900   4.025   2.149  2.1530 -0.7223  0.5650
 8481SOL    HW236903   0.782   3.956   2.144  1.1778  1.5860 -0.2215
 8482SOL     OW36904   2.049   2.108   0.809 -0.1946 -0.0497  0.1855
 8482SOL    HW136905   1.954   2.095   0.801  0.0611 -1.5753 -0.1812
 8482SOL    HW236906   2.074   2.114   0.717  1.9857 -2.9582  0.6220
 8483SOL     OW36907   2.428   3.440   6.978  0.2596 -0.0110 -0.0164
 8483SOL    HW136908   2.435   3.451   6.883 -0.9796  2.2386  0.1399
 8483SOL    HW236909   2.385   3.355   6.975  1.3030 -0.5264 -0.5421
 8484SOL     OW36910   1.147   1.876  11.474 -0.1810  0.0331 -0.3044
 8484SOL    HW136911   1.136   1.930  11.396 -2.4385 -0.0116 -0.0034
 8484SOL    HW236912   1.235   1.843  11.453 -0.6295  0.0954 -2.2278
 8485SOL     OW36913   0.359   4.261   5.368 -0.0652  0.3939  0.8920
 8485SOL    HW136914   0.335   4.185   5.422 -0.7464  1.5283  2.1713
 8485SOL    HW236915   0.272   4.293   5.346 -0.2194  0.0650  1.0214
 8486SOL     OW36916   0.632   1.164   2.088  0.5296 -0.0635 -1.0679
 8486SOL    HW136917   0.667   1.154   2.176  0.8241 -1.1155 -1.2960
 8486SOL    HW236918   0.649   1.248   2.045 -0.8146  0.6269 -0.2540
 8487SOL     OW36919   4.630   3.477  13.679  0.2359  0.4626 -0.2195
 8487SOL    HW136920   4.586   3.427  13.747  0.4967 -0.1787 -0.5286
 8487SOL    HW236921   4.722   3.464  13.700 -0.0547  1.6360  1.8074
 8488SOL     OW36922   3.700   1.518  11.600 -0.2486 -0.3523  0.1948
 8488SOL    HW136923   3.692   1.502  11.506 -1.2174  1.7758 -0.0899
 8488SOL    HW236924   3.612   1.554  11.609 -0.9482 -1.8341 -0.5915
 8489SOL     OW36925   4.432   3.473   6.680  0.6757 -0.0778 -0.1559
 8489SOL    HW136926   4.429   3.457   6.775  0.2783 -3.0293 -0.6542
 8489SOL    HW236927   4.352   3.526   6.679  0.4195 -0.4501  0.1990
 8490SOL     OW36928   1.296   0.030   5.817 -0.1333  0.4469  0.3106
 8490SOL    HW136929   1.240   0.023   5.894 -1.1456 -1.4511 -0.5887
 8490SOL    HW236930   1.256   4.689   5.761 -1.4030 -1.5672  3.5944
 8491SOL     OW36931   4.533   1.258   2.330 -0.5300 -0.7089  0.0268
 8491SOL    HW136932   4.592   1.304   2.270 -0.3055 -0.3889  0.4964
 8491SOL    HW236933   4.449   1.289   2.294 -1.0257 -0.2667  1.5850
 8492SOL     OW36934   4.494   1.140   3.493 -1.1130  0.3899  0.1313
 8492SOL    HW136935   4.403   1.140   3.463 -1.2105 -1.3253  0.4192
 8492SOL    HW236936   4.511   1.230   3.520  3.0031 -0.2822 -0.2146
 8493SOL     OW36937   3.293   0.247   8.745 -0.2915 -0.5836  0.1117
 8493SOL    HW136938   3.372   0.299   8.731 -0.0214 -0.5420  1.7435
 8493SOL    HW236939   3.227   0.316   8.758 -0.3302 -0.2339 -1.9737
 8494SOL     OW36940   1.734   0.382  10.067 -0.3817 -0.4040 -0.4825
 8494SOL    HW136941   1.655   0.436  10.074  0.9460  1.5761 -0.7535
 8494SOL    HW236942   1.770   0.401  10.154 -0.9805 -0.7592 -0.1529
 8495SOL     OW36943   0.305   2.117   5.686 -0.0233 -0.0677  0.0711
 8495SOL    HW136944   0.356   2.098   5.764 -1.7872 -1.5626  0.8461
 8495SOL    HW236945   0.340   2.203   5.663  0.2951 -0.9010 -2.6393
 8496SOL     OW36946   1.417   2.912  14.883 -0.0655 -0.2038 -0.1371
 8496SOL    HW136947   1.409   2.902  14.977  0.0272 -0.3145 -0.1414
 8496SOL    HW236948   1.450   2.829  14.849 -0.4155  1.4502 -4.5019
 8497SOL     OW36949   0.795   3.859   1.767  0.0853 -0.1445 -0.2266
 8497SOL    HW136950   0.730   3.817   1.824  0.0148 -1.7974 -1.5213
 8497SOL    HW236951   0.853   3.910   1.824  3.0665 -0.4860 -2.9530
 8498SOL     OW36952   3.309   0.384  12.894 -0.3038  0.3410 -0.0510
 8498SOL    HW136953   3.293   0.382  12.799 -0.2240  0.1294 -0.0583
 8498SOL    HW236954   3.404   0.374  12.897 -0.3305  0.3375  0.6636
 8499SOL     OW36955   3.474   3.586   6.304 -0.4199  0.1825 -0.0481
 8499SOL    HW136956   3.427   3.643   6.243  0.4657  1.6892  0.7034
 8499SOL    HW236957   3.445   3.501   6.271  1.0085 -0.8180  1.2839
 8500SOL     OW36958   3.716   1.699   6.840  0.4626  0.5610 -0.9547
 8500SOL    HW136959   3.698   1.606   6.848  1.3245  0.7672  3.3850
 8500SOL    HW236960   3.685   1.719   6.752 -0.7096  1.7656 -0.2856
 8501SOL     OW36961   3.631   1.819  15.797 -0.2473 -0.4403 -0.1492
 8501SOL    HW136962   3.598   1.898  15.756  1.4745 -0.1587 -0.9565
 8501SOL    HW236963   3.719   1.807  15.761  0.5620  0.0826  1.6173
 8502SOL     OW36964   2.938   2.862  16.290  0.3516 -0.5206  1.0586
 8502SOL    HW136965   2.948   2.787  16.232 -0.8751  1.1355 -1.3271
 8502SOL    HW236966   2.843   2.862  16.299  0.1292  0.0536 -1.3183
 8503SOL     OW36967   2.512   4.457   7.060 -0.2609 -0.1481 -0.2014
 8503SOL    HW136968   2.520   4.427   7.150 -2.8654 -0.7800 -0.1725
 8503SOL    HW236969   2.604   4.449   7.037 -0.5526 -3.1517 -0.3316
 8504SOL     OW36970   3.079   0.580  17.452  0.2683  0.3327  0.1938
 8504SOL    HW136971   3.097   0.487  17.439 -1.6741  0.1490 -1.1874
 8504SOL    HW236972   3.046   0.598  17.364 -0.0404  1.2809  0.5073
 8505SOL     OW36973   0.065   0.445   9.097 -0.0300 -0.2198 -0.1910
 8505SOL    HW136974   0.115   0.516   9.057 -0.4337  0.3659  0.3332
 8505SOL    HW236975   0.127   0.375   9.080 -0.4980 -0.1122 -2.3016
 8506SOL     OW36976   1.779   1.431  11.320  0.4604  0.0006 -0.0415
 8506SOL    HW136977   1.701   1.378  11.302 -0.7580  0.8867  2.7009
 8506SOL    HW236978   1.744   1.517  11.295 -0.3545 -0.2465  0.2480
 8507SOL     OW36979   4.606   3.137   7.868 -0.3523 -0.3090 -0.6729
 8507SOL    HW136980   4.654   3.054   7.860 -1.7500 -1.3712  2.0152
 8507SOL    HW236981   4.656   3.184   7.934  0.0359  0.9895 -1.8843
 8508SOL     OW36982   3.657   4.478   8.975  0.2529  0.9212 -0.0678
 8508SOL    HW136983   3.639   4.396   9.021 -0.5886 -0.2568 -2.4910
 8508SOL    HW236984   3.606   4.484   8.894  0.2216  3.0949  0.1026
 8509SOL     OW36985   2.479   0.046   4.927 -0.5560  0.6270 -0.4050
 8509SOL    HW136986   2.393   0.015   4.898 -0.5150 -0.0382  0.1806
 8509SOL    HW236987   2.524   0.053   4.842 -0.9680 -0.9775 -0.7534
 8510SOL     OW36988   3.227   3.772  14.791  0.2555 -1.3780 -0.3680
 8510SOL    HW136989   3.210   3.795  14.699  0.4462  2.1049  0.4694
 8510SOL    HW236990   3.140   3.750  14.824 -0.9772  1.7470 -1.5557
 8511SOL     OW36991   3.126   0.721  13.083 -0.2400 -0.0430  0.5092
 8511SOL    HW136992   3.091   0.807  13.063  0.4262  0.2762  0.7139
 8511SOL    HW236993   3.145   0.725  13.176 -1.5055  0.0343  0.7529
 8512SOL     OW36994   2.496   3.278   4.801 -0.2235 -0.2923 -0.5150
 8512SOL    HW136995   2.422   3.254   4.857 -0.6435  0.6407 -0.6698
 8512SOL    HW236996   2.536   3.355   4.841 -0.0861 -0.8708  0.4620
 8513SOL     OW36997   2.302   3.390   4.307  0.3892 -0.5841  0.2626
 8513SOL    HW136998   2.345   3.465   4.347  0.0133 -1.0690  1.5767
 8513SOL    HW236999   2.221   3.385   4.358 -1.3311  1.4398 -2.2417
 8514SOL     OW37000   1.659   1.741   7.411 -0.2180  0.0893  0.1591
 8514SOL    HW137001   1.751   1.720   7.392  0.1672  0.3665  1.7566
 8514SOL    HW237002   1.665   1.833   7.387 -0.2896 -0.4576 -1.9425
 8515SOL     OW37003   1.664   1.636   3.908 -0.2514  0.0262  0.7245
 8515SOL    HW137004   1.708   1.637   3.993 -0.0184  3.4788  0.5681
 8515SOL    HW237005   1.686   1.546   3.887 -0.1366 -0.0725  1.2711
 8516SOL     OW37006   2.352   1.972  15.484  0.7927  0.1543  0.0568
 8516SOL    HW137007   2.359   1.913  15.409 -0.7444 -0.9862  0.8190
 8516SOL    HW237008   2.259   1.958  15.501  0.8279  0.7192  0.7336
 8517SOL     OW37009   1.105   4.029  17.314 -0.0395  0.1518  0.5414
 8517SOL    HW137010   1.122   4.043  17.407 -0.2364 -1.7763  0.8740
 8517SOL    HW237011   1.013   4.055  17.312 -0.4508 -1.2558  0.7301
 8518SOL     OW37012   2.023   3.288  14.555 -0.1533 -0.3858  0.5241
 8518SOL    HW137013   1.949   3.247  14.510 -0.4585  0.0819  0.6030
 8518SOL    HW237014   2.095   3.268  14.495 -0.0468 -0.7522  0.7742
 8519SOL     OW37015   4.025   1.962  16.988 -0.0580 -0.1649  0.3082
 8519SOL    HW137016   3.955   2.026  17.001 -0.3141 -0.5798  1.0030
 8519SOL    HW237017   4.044   1.988  16.898  0.9854 -2.2923 -0.0849
 8520SOL     OW37018   3.829   3.932   0.683  0.2009 -0.1531  0.4497
 8520SOL    HW137019   3.752   3.874   0.685  2.0732 -2.6805 -0.2343
 8520SOL    HW237020   3.894   3.864   0.664 -0.6114 -0.4822 -1.1740
 8521SOL     OW37021   1.913   0.869   6.157 -0.0730  0.3787  0.0688
 8521SOL    HW137022   1.940   0.788   6.114  3.3463  1.5656 -0.0205
 8521SOL    HW237023   1.822   0.852   6.178  0.4073 -2.2557  0.0014
 8522SOL     OW37024   1.222   2.247   2.538  0.1762  0.4549 -0.5649
 8522SOL    HW137025   1.284   2.304   2.492 -1.4189  2.4940 -0.2152
 8522SOL    HW237026   1.273   2.166   2.542  0.4607  0.7136  0.9525
 8523SOL     OW37027   0.783   2.004   6.717 -0.2382 -0.8590 -0.0094
 8523SOL    HW137028   0.745   1.950   6.787  0.9675  0.9506  2.0193
 8523SOL    HW237029   0.794   2.086   6.763  3.4455 -0.9172 -0.7697
 8524SOL     OW37030   2.269   4.112   4.259 -0.8230 -0.0460 -0.0903
 8524SOL    HW137031   2.326   4.187   4.243  1.0314 -1.3095  0.6323
 8524SOL    HW237032   2.194   4.140   4.206 -1.3338 -3.7013 -1.2661
 8525SOL     OW37033   0.983   3.817  11.503  0.0151  0.3223 -0.1631
 8525SOL    HW137034   1.042   3.752  11.541 -0.2239 -0.2721 -0.7976
 8525SOL    HW237035   1.033   3.899  11.510  1.4583 -0.8815  3.8373
 8526SOL     OW37036   1.917   2.716   1.491  1.0714  0.1612  0.3680
 8526SOL    HW137037   1.989   2.662   1.460  0.2757 -1.0816  0.7040
 8526SOL    HW237038   1.866   2.742   1.414  3.1946  1.5655 -0.5870
 8527SOL     OW37039   0.297   3.093   4.512  0.0662 -0.1081 -0.5996
 8527SOL    HW137040   0.320   3.071   4.603 -1.1740 -0.4837 -0.3742
 8527SOL    HW237041   0.276   3.186   4.521 -1.1531 -0.4400 -0.0937
 8528SOL     OW37042   2.055   0.380   1.986 -0.1634  0.2737 -0.6922
 8528SOL    HW137043   2.064   0.399   1.893  0.6683  0.2618 -0.6190
 8528SOL    HW237044   2.137   0.417   2.019  1.8409 -0.8161 -4.4112
 8529SOL     OW37045   4.249   3.648  11.995 -0.0299  0.4389  0.0883
 8529SOL    HW137046   4.166   3.646  12.042  0.2180  1.8219  0.6073
 8529SOL    HW237047   4.284   3.562  12.016  1.1746  0.7688 -0.5323
 8530SOL     OW37048   2.519   3.004   4.123  0.3398  0.1112 -0.0296
 8530SOL    HW137049   2.478   3.088   4.104  2.9321  1.0497 -1.4198
 8530SOL    HW237050   2.599   3.008   4.071  0.3527 -3.7985 -0.3647
 8531SOL     OW37051   1.564   2.290   5.409 -0.4483 -0.1581 -0.1316
 8531SOL    HW137052   1.567   2.376   5.368 -0.0694  0.2457  0.7288
 8531SOL    HW237053   1.515   2.241   5.343 -1.4729 -0.5802  0.9347
 8532SOL     OW37054   0.301   2.028   5.271 -0.4700 -0.0541  0.0329
 8532SOL    HW137055   0.385   1.996   5.304 -0.5075  0.3054  0.4726
 8532SOL    HW237056   0.319   2.039   5.177  3.3542  0.2741  0.7812
 8533SOL     OW37057   4.397   3.364   4.258 -0.0431  0.4675  0.0029
 8533SOL    HW137058   4.424   3.284   4.303 -1.4118  0.3797  0.6498
 8533SOL    HW237059   4.330   3.399   4.316 -3.3358 -1.8866 -2.3521
 8534SOL     OW37060   4.076   2.686  13.482  0.7626  0.4697 -0.2546
 8534SOL    HW137061   4.151   2.717  13.533  0.0978 -1.4894  1.8585
 8534SOL    HW237062   4.021   2.764  13.482  0.8086  0.5074  1.0628
 8535SOL     OW37063   0.875   0.825   2.282  0.0750  0.4707  0.2580
 8535SOL    HW137064   0.789   0.811   2.243  0.2962 -0.0430 -0.0434
 8535SOL    HW237065   0.856   0.868   2.365 -0.9828  0.0869  0.2096
 8536SOL     OW37066   1.270   0.658   7.499 -0.5084 -0.4136 -0.1502
 8536SOL    HW137067   1.280   0.563   7.504 -0.1786 -0.2168  2.9762
 8536SOL    HW237068   1.360   0.675   7.528 -1.1174  0.1765  1.4033
 8537SOL     OW37069   1.890   0.384  10.291 -0.0632  0.0790  0.3278
 8537SOL    HW137070   1.966   0.419  10.244 -1.4190  0.3667 -1.6530
 8537SOL    HW237071   1.925   0.321  10.353  0.4103 -1.5916 -1.6370
 8538SOL     OW37072   0.853   3.839  15.549 -0.2836 -0.3559 -0.1317
 8538SOL    HW137073   0.853   3.916  15.492  3.3780 -0.3191 -0.0769
 8538SOL    HW237074   0.761   3.841  15.572  0.0002 -0.8122  1.0464
 8539SOL     OW37075   3.159   0.731  11.044  0.1724 -0.2873 -0.5276
 8539SOL    HW137076   3.127   0.798  11.105  0.1738 -0.0699 -0.7639
 8539SOL    HW237077   3.246   0.708  11.077 -0.2972 -1.5502 -0.1934
 8540SOL     OW37078   3.625   0.300   4.745 -0.4950 -0.5518  0.0053
 8540SOL    HW137079   3.712   0.277   4.779  0.1381  0.5944 -0.8550
 8540SOL    HW237080   3.638   0.394   4.735 -1.2331 -0.2514  1.7971
 8541SOL     OW37081   1.891   3.538   8.599 -0.1636  0.1370 -0.2531
 8541SOL    HW137082   1.906   3.485   8.677  1.3135 -2.5692 -2.3785
 8541SOL    HW237083   1.980   3.545   8.565 -0.0659  1.2830  0.2600
 8542SOL     OW37084   2.809   4.235   5.984 -0.1113 -0.1468 -0.1727
 8542SOL    HW137085   2.719   4.202   5.984 -0.9337  2.0899  0.4011
 8542SOL    HW237086   2.849   4.183   5.915  1.0654  0.8315 -0.2232
 8543SOL     OW37087   3.615   1.844   6.021  0.4473  0.1695 -0.2189
 8543SOL    HW137088   3.710   1.829   6.019  0.2590 -1.0083 -0.3177
 8543SOL    HW237089   3.598   1.872   6.111  1.5197 -0.3270  0.1377
 8544SOL     OW37090   1.741   2.369  10.482  0.1273  0.6830  0.4404
 8544SOL    HW137091   1.815   2.359  10.542  1.2338  0.5615 -0.9409
 8544SOL    HW237092   1.665   2.324  10.521 -0.9305 -0.5652 -3.0638
 8545SOL     OW37093   2.193   1.945  17.045 -0.4997  0.0775  0.8281
 8545SOL    HW137094   2.149   1.883  16.987 -0.7670 -0.4040  1.5436
 8545SOL    HW237095   2.130   2.016  17.055  0.4886  0.6877  2.8757
 8546SOL     OW37096   1.933   0.152   2.760  0.4665 -0.0262  0.3650
 8546SOL    HW137097   2.021   0.147   2.797 -0.3602 -1.4420  2.1160
 8546SOL    HW237098   1.918   0.245   2.746 -2.7097 -0.6837 -0.5846
 8547SOL     OW37099   3.392   2.788   4.113  0.3076 -0.2039  0.8006
 8547SOL    HW137100   3.370   2.864   4.058 -1.3433 -1.6063 -0.4851
 8547SOL    HW237101   3.485   2.779   4.097 -0.3037 -1.1158 -2.1816
 8548SOL     OW37102   1.810   2.815   4.876  0.0566  0.4674 -0.1542
 8548SOL    HW137103   1.885   2.839   4.930  0.0051  1.2049 -0.4162
 8548SOL    HW237104   1.835   2.821   4.784  0.3132 -0.8607 -0.1778
 8549SOL     OW37105   3.528   3.657   0.198 -0.7017 -0.1233 -0.0835
 8549SOL    HW137106   3.547   3.566   0.218  1.7301  0.2288 -0.7778
 8549SOL    HW237107   3.540   3.660   0.103 -0.8481  4.0624  0.0128
 8550SOL     OW37108   0.431   3.076   4.185  0.0510  0.1836 -0.0234
 8550SOL    HW137109   0.447   2.990   4.145 -0.5556 -0.4598  1.1151
 8550SOL    HW237110   0.337   3.078   4.200  0.2173  1.4928  0.8314
 8551SOL     OW37111   3.103   2.537  16.297 -0.0185 -1.1423 -0.3955
 8551SOL    HW137112   3.078   2.508  16.385  0.6041 -0.0807  0.1279
 8551SOL    HW237113   3.197   2.550  16.308 -0.4632 -0.5594  2.7937
 8552SOL     OW37114   1.814   2.728   5.247 -0.0817 -0.5759 -0.1898
 8552SOL    HW137115   1.880   2.781   5.201  2.9775 -4.7153 -0.6608
 8552SOL    HW237116   1.742   2.779   5.210 -0.6046 -0.4589  1.0153
 8553SOL     OW37117   2.457   1.890   3.077  0.1847  0.2178 -0.5228
 8553SOL    HW137118   2.535   1.842   3.106  0.0638 -0.7346 -1.7911
 8553SOL    HW237119   2.405   1.879   3.156  1.1303  0.5731  0.1489
 8554SOL     OW37120   2.089   1.577   6.208 -0.3911 -0.1467  0.0723
 8554SOL    HW137121   2.090   1.609   6.118 -0.0191 -0.8429 -0.1760
 8554SOL    HW237122   2.181   1.551   6.213 -0.2516  0.1415 -0.9474
 8555SOL     OW37123   2.511   0.422   6.244 -0.9948 -0.1423  0.5769
 8555SOL    HW137124   2.588   0.399   6.296 -1.1724  1.3330  1.4978
 8555SOL    HW237125   2.471   0.480   6.308  1.2383  2.6318 -0.4698
 8556SOL     OW37126   1.364   1.842   9.497  0.9095 -0.6822 -0.2221
 8556SOL    HW137127   1.422   1.915   9.517 -1.0248 -0.2634  3.8938
 8556SOL    HW237128   1.301   1.839   9.569 -0.3873  0.3121 -1.3165
 8557SOL     OW37129   2.204   4.591   7.164 -0.4214  0.5413  0.3061
 8557SOL    HW137130   2.168   4.680   7.166  1.0762  1.0996  3.6228
 8557SOL    HW237131   2.167   4.563   7.248  2.2347  1.3012  1.7467
 8558SOL     OW37132   0.364   3.741   9.460 -0.8892 -0.5184  0.6217
 8558SOL    HW137133   0.270   3.735   9.473 -0.8087 -0.0517  1.4365
 8558SOL    HW237134   0.392   3.826   9.493 -1.7210 -0.1079  0.2455
 8559SOL     OW37135   1.918   0.253   4.055  0.1747 -0.6003  0.1692
 8559SOL    HW137136   1.825   0.256   4.034  0.0920  1.4632  0.8730
 8559SOL    HW237137   1.962   0.296   3.982  0.6872 -1.4727 -0.0412
 8560SOL     OW37138   4.610   0.896   6.378 -0.4456  0.0846  0.1180
 8560SOL    HW137139   4.669   0.971   6.387 -1.9031  1.3124 -0.5338
 8560SOL    HW237140   4.606   0.871   6.471 -0.3825 -1.4178 -0.2876
 8561SOL     OW37141   0.403   2.692  10.585  0.2866 -0.0186  0.1605
 8561SOL    HW137142   0.414   2.693  10.490 -0.3713 -3.3884  0.0216
 8561SOL    HW237143   0.471   2.631  10.613 -0.5438 -1.7407 -1.5396
 8562SOL     OW37144   3.284   2.382   7.269  0.0428  0.0917 -0.1937
 8562SOL    HW137145   3.267   2.289   7.283  0.4865  0.0302 -0.0609
 8562SOL    HW237146   3.363   2.392   7.322 -2.1258 -0.2938  3.0648
 8563SOL     OW37147   4.551   0.490   8.063  0.3971  0.7171 -1.0246
 8563SOL    HW137148   4.613   0.546   8.017  2.1459  1.2569  1.9580
 8563SOL    HW237149   4.483   0.476   7.998  2.0979 -1.0438 -2.4448
 8564SOL     OW37150   1.004   2.141   7.706 -0.2434  0.5941  0.1557
 8564SOL    HW137151   1.060   2.143   7.629  0.1002 -0.9203  0.3677
 8564SOL    HW237152   0.995   2.047   7.722  0.1483  0.4412 -0.5137
 8565SOL     OW37153   4.406   1.783   2.999  0.4697 -0.3468 -0.2188
 8565SOL    HW137154   4.486   1.747   3.037  0.8453  3.3926  2.4508
 8565SOL    HW237155   4.446   1.859   2.957 -0.6297 -0.4060 -1.3803
 8566SOL     OW37156   3.729   2.035   6.809 -0.4287  0.0718 -0.3153
 8566SOL    HW137157   3.755   2.034   6.717  0.6962  1.4748 -0.0185
 8566SOL    HW237158   3.761   1.947   6.829  2.6439  1.2288 -0.0254
 8567SOL     OW37159   3.305   1.580  15.316 -0.1257  0.2023  1.0329
 8567SOL    HW137160   3.234   1.564  15.379 -0.3444  0.0139  0.7390
 8567SOL    HW237161   3.271   1.526  15.245 -0.5410  2.9271 -0.8375
 8568SOL     OW37162   4.678   0.368   0.459  0.0028 -0.4536  0.4642
 8568SOL    HW137163   4.634   0.367   0.543 -1.4879 -1.0459 -0.3274
 8568SOL    HW237164   0.045   0.379   0.483 -0.0095  3.4175 -1.0828
 8569SOL     OW37165   1.666   0.420   7.064 -0.1243  0.2128 -0.0854
 8569SOL    HW137166   1.580   0.379   7.065 -1.1155  2.3464  1.0623
 8569SOL    HW237167   1.699   0.373   7.141  0.1320 -0.2572 -0.4858
 8570SOL     OW37168   1.773   2.599  12.094  0.4783  0.2035  0.2906
 8570SOL    HW137169   1.857   2.614  12.049  0.6070 -1.6750 -0.1197
 8570SOL    HW237170   1.766   2.503  12.093  0.4864  0.1967  1.2532
 8571SOL     OW37171   1.460   3.978   6.480 -0.2150 -0.2892 -0.2513
 8571SOL    HW137172   1.428   3.927   6.554 -0.1312 -0.9041 -0.6379
 8571SOL    HW237173   1.498   3.906   6.429 -1.5169 -1.1049 -0.0601
 8572SOL     OW37174   1.180   4.609   0.573 -0.1596 -0.9521  0.0834
 8572SOL    HW137175   1.244   4.673   0.604  0.1478 -2.1614  1.9551
 8572SOL    HW237176   1.127   4.670   0.522  0.7574 -1.3717 -1.3770
 8573SOL     OW37177   4.420   0.020   1.499  0.3480  0.4942 -0.6260
 8573SOL    HW137178   4.414   0.051   1.589 -1.8044 -0.3808 -0.4508
 8573SOL    HW237179   4.466   4.663   1.516  2.8748  2.4231  1.7453
 8574SOL     OW37180   4.101   4.290   8.829 -0.1213  0.3117  0.3443
 8574SOL    HW137181   4.029   4.282   8.767  0.7509 -1.5198 -0.3947
 8574SOL    HW237182   4.082   4.379   8.861  1.8924  0.9663 -0.2789
 8575SOL     OW37183   1.507   4.420   0.267  0.2900 -0.1846  0.2104
 8575SOL    HW137184   1.509   4.324   0.268  0.0611 -0.1978 -2.5679
 8575SOL    HW237185   1.413   4.431   0.257  0.1973 -0.1398  1.1113
 8576SOL     OW37186   3.547   1.027   6.942 -0.3337 -0.2059 -0.1177
 8576SOL    HW137187   3.518   1.094   6.880  0.3068 -0.2762 -0.4938
 8576SOL    HW237188   3.608   0.972   6.893  0.6663  0.8056 -0.0109
 8577SOL     OW37189   2.896   1.148   2.966 -0.3336 -1.1468  0.2220
 8577SOL    HW137190   2.966   1.211   2.983 -0.0277 -1.0762 -1.3091
 8577SOL    HW237191   2.947   1.090   2.910 -1.0798 -0.2214 -1.4004
 8578SOL     OW37192   3.353   0.299   8.410  0.0050 -0.2922  0.5161
 8578SOL    HW137193   3.391   0.335   8.330 -0.1556 -1.4063 -0.0495
 8578SOL    HW237194   3.302   0.373   8.444  0.8778  0.4021  0.3203
 8579SOL     OW37195   2.754   0.297   4.276  0.0597 -0.5151 -0.3014
 8579SOL    HW137196   2.800   0.318   4.195 -0.1909  1.1688  0.0028
 8579SOL    HW237197   2.708   0.381   4.276 -0.8568 -1.0049  0.2675
 8580SOL     OW37198   2.895   3.417   2.864 -0.4395 -0.3553 -0.6188
 8580SOL    HW137199   2.818   3.389   2.815 -2.1275 -0.4133  2.0719
 8580SOL    HW237200   2.872   3.504   2.898 -2.7029 -0.5594 -1.6344
 8581SOL     OW37201   0.398   1.586   0.637  0.4328 -0.2054  0.0939
 8581SOL    HW137202   0.358   1.539   0.710  2.5956  0.5475  1.7777
 8581SOL    HW237203   0.424   1.509   0.585 -0.7143 -1.8131  1.9021
 8582SOL     OW37204   1.048   0.379   2.649 -0.4042 -0.0926 -0.2188
 8582SOL    HW137205   1.035   0.327   2.570  0.2499 -1.6102  0.6866
 8582SOL    HW237206   1.033   0.469   2.620 -0.2824  0.6334  1.9734
 8583SOL     OW37207   0.767   4.331   4.830 -0.1770  0.4273  0.0595
 8583SOL    HW137208   0.742   4.247   4.869 -1.3424  0.6862 -0.1373
 8583SOL    HW237209   0.803   4.297   4.749 -1.2457 -0.7908  0.0854
 8584SOL     OW37210   2.161   1.464   3.488  0.0351 -0.0447  0.6421
 8584SOL    HW137211   2.256   1.458   3.487 -0.0220 -0.5540 -1.3676
 8584SOL    HW237212   2.146   1.500   3.401 -0.6784 -3.6181 -0.7144
 8585SOL     OW37213   3.278   3.574   2.852 -0.2044  0.3056 -0.2196
 8585SOL    HW137214   3.331   3.494   2.859  1.4355  1.2870 -1.4756
 8585SOL    HW237215   3.218   3.543   2.784  1.0847  1.7689 -2.0163
 8586SOL     OW37216   1.996   0.404   0.083  0.3863  0.1499  0.2528
 8586SOL    HW137217   2.001   0.316   0.119  0.2717  0.0813  0.1005
 8586SOL    HW237218   2.074   0.442   0.123  1.0028 -1.5998  0.6937
 8587SOL     OW37219   0.476   0.119   4.067 -0.2434  0.1184 -0.5808
 8587SOL    HW137220   0.550   0.083   4.115 -0.5992  0.1276 -0.0236
 8587SOL    HW237221   0.524   0.182   4.014 -1.1064  0.6827 -0.6996
 8588SOL     OW37222   1.362   1.018   3.322 -0.0155  0.4819 -0.5294
 8588SOL    HW137223   1.396   1.104   3.297  2.8508 -0.4831 -0.0405
 8588SOL    HW237224   1.424   0.955   3.284  0.6520  1.2264 -0.6909
 8589SOL     OW37225   3.755   4.573   9.181 -0.1246 -0.6144 -0.0666
 8589SOL    HW137226   3.848   4.580   9.158  0.2044 -1.4146  1.0374
 8589SOL    HW237227   3.720   4.529   9.104  0.4778  1.9975 -1.8347
 8590SOL     OW37228   2.625   2.035  14.828  0.4820  0.0693 -0.0768
 8590SOL    HW137229   2.601   2.060  14.917 -3.8492  0.2264 -1.2639
 8590SOL    HW237230   2.547   1.987  14.798 -0.9477  1.8811  0.7303
 8591SOL     OW37231   1.840   4.680   4.443 -0.2556 -0.0441 -0.1697
 8591SOL    HW137232   1.836   4.607   4.381  0.7594  0.3379 -0.7012
 8591SOL    HW237233   1.847   0.030   4.384  0.4456 -0.3586 -0.4967
 8592SOL     OW37234   0.002   4.711  13.904  0.0533 -0.1249  0.2284
 8592SOL    HW137235   0.058   4.687  13.978 -0.9675  1.9771  1.6565
 8592SOL    HW237236   0.013   0.079  13.888  1.6075 -0.5493 -1.1972
 8593SOL     OW37237   0.334   2.457   2.338 -0.2444 -0.2648  0.1480
 8593SOL    HW137238   0.252   2.425   2.375 -0.9717 -2.1328 -3.1336
 8593SOL    HW237239   0.372   2.506   2.411  0.9126 -2.7724  1.2117
 8594SOL     OW37240   3.380   4.600  17.312  0.5458 -0.1073  0.3898
 8594SOL    HW137241   3.434   4.521  17.310 -1.8054 -1.6956 -0.3887
 8594SOL    HW237242   3.366   4.625  17.403 -1.0498 -1.1468  0.4154
 8595SOL     OW37243   1.494   2.155   7.210 -0.4914 -0.2413 -0.6509
 8595SOL    HW137244   1.416   2.127   7.161 -1.8291 -2.2753  2.6256
 8595SOL    HW237245   1.483   2.250   7.216  0.6726 -0.2627  2.0014
 8596SOL     OW37246   4.028   2.397   5.032  0.1526  0.1280 -0.2926
 8596SOL    HW137247   3.962   2.433   4.974  1.5631  0.4091 -1.7383
 8596SOL    HW237248   4.091   2.466   5.012  1.6675 -1.3160 -0.5595
 8597SOL     OW37249   3.692   1.786   4.438  0.2243  0.7753  0.8168
 8597SOL    HW137250   3.786   1.772   4.451  0.2913  0.2813 -0.2091
 8597SOL    HW237251   3.679   1.832   4.355  0.7089  0.9685  0.8483
 8598SOL     OW37252   3.084   3.098   2.434 -0.7465  0.4209  0.4509
 8598SOL    HW137253   3.124   3.081   2.519  2.2724  2.2114 -0.5787
 8598SOL    HW237254   3.017   3.163   2.456  1.4171  3.0131 -0.4708
 8599SOL     OW37255   1.660   1.930  13.240 -0.2102 -0.3680 -0.1726
 8599SOL    HW137256   1.590   1.870  13.264 -1.0308  0.1704 -1.2180
 8599SOL    HW237257   1.738   1.880  13.266  1.1120  1.3603 -0.7820
 8600SOL     OW37258   3.204   2.411   0.607 -0.4657 -0.1542  0.1198
 8600SOL    HW137259   3.223   2.331   0.558 -1.9437 -1.6208  1.9090
 8600SOL    HW237260   3.115   2.392   0.637 -0.6719  0.6572  0.0148
 8601SOL     OW37261   2.044   2.171  17.038  0.3022 -0.3915  0.4894
 8601SOL    HW137262   2.034   2.266  17.046  2.9127  0.1037 -2.4019
 8601SOL    HW237263   2.034   2.164  16.943 -1.4352  0.1752  0.6357
 8602SOL     OW37264   3.107   3.204   2.948 -0.1415  0.0836  0.3550
 8602SOL    HW137265   3.175   3.176   3.010  2.9081  0.4954 -2.8278
 8602SOL    HW237266   3.090   3.285   2.997 -1.0449  0.0399  0.1055
 8603SOL     OW37267   3.335   2.897   0.641  0.3262 -0.1351 -0.0553
 8603SOL    HW137268   3.349   2.805   0.618 -1.4521 -0.1488 -1.0687
 8603SOL    HW237269   3.283   2.896   0.722  0.7332  0.8933  0.2110
 8604SOL     OW37270   1.818   4.299   6.453  0.2258  0.7482 -0.0709
 8604SOL    HW137271   1.819   4.394   6.453  0.2911  0.7489  1.6029
 8604SOL    HW237272   1.743   4.275   6.507 -0.7656  1.3060 -1.2221
 8605SOL     OW37273   2.374   3.873   4.342 -0.5865  0.7201 -0.5187
 8605SOL    HW137274   2.295   3.835   4.380  0.9172 -2.9857 -1.0474
 8605SOL    HW237275   2.332   3.950   4.306 -0.6075  0.9506  0.0008
 8606SOL     OW37276   4.515   1.035  14.418  0.3397 -0.4719 -0.1787
 8606SOL    HW137277   4.608   1.042  14.395  0.8456 -1.7142  1.5205
 8606SOL    HW237278   4.516   1.078  14.504  1.7108 -0.6446 -0.1109
 8607SOL     OW37279   3.161   1.300   0.551  0.1247 -0.0173  0.2496
 8607SOL    HW137280   3.170   1.273   0.460  0.9954  0.6560  0.1395
 8607SOL    HW237281   3.074   1.340   0.559 -0.3901 -0.7904 -1.6080
 8608SOL     OW37282   3.482   3.726  10.433 -0.9536 -0.4635  0.1266
 8608SOL    HW137283   3.518   3.812  10.455 -1.5494 -0.3001  0.4620
 8608SOL    HW237284   3.443   3.746  10.348  0.1695 -0.2312 -0.3344
 8609SOL     OW37285   0.016   4.683   8.611 -0.0079 -0.0498 -0.1902
 8609SOL    HW137286   4.674   4.661   8.546 -0.9680 -0.9010  1.1057
 8609SOL    HW237287   0.064   0.012   8.548  0.1064 -0.0936 -0.1403
 8610SOL     OW37288   2.499   2.732   2.589  0.0367 -0.0494 -0.4938
 8610SOL    HW137289   2.541   2.792   2.527 -1.2142  0.4816 -0.8086
 8610SOL    HW237290   2.571   2.706   2.647  0.2162  0.4302 -0.5045
 8611SOL     OW37291   0.507   2.335   2.931  0.5883 -0.0497 -0.1573
 8611SOL    HW137292   0.543   2.281   3.001  1.6645 -0.6208 -1.1420
 8611SOL    HW237293   0.416   2.305   2.935  1.2652 -1.9130  1.0446
 8612SOL     OW37294   0.245   1.588   6.908  0.0927  0.0270  0.3226
 8612SOL    HW137295   0.315   1.533   6.942  1.0223 -0.7641 -2.8188
 8612SOL    HW237296   0.228   1.627   6.993  0.4361 -0.3041  0.5405
 8613SOL     OW37297   1.012   2.736   5.758 -0.3572  0.0645 -0.4483
 8613SOL    HW137298   1.067   2.690   5.695  1.1156 -1.2329  1.7725
 8613SOL    HW237299   1.040   2.827   5.745  0.4960 -0.6552 -3.5596
 8614SOL     OW37300   2.435   0.764  17.549 -0.0969  0.3452  0.0313
 8614SOL    HW137301   2.509   0.745  17.490  2.1573  0.1052  2.9209
 8614SOL    HW237302   2.463   0.830  17.612 -0.0280  0.0514  0.3072
 8615SOL     OW37303   2.119   2.933   3.559  0.2750 -0.1555 -0.5461
 8615SOL    HW137304   2.155   2.938   3.470  0.8124 -1.5473 -0.4111
 8615SOL    HW237305   2.026   2.942   3.541  0.2462  0.4207 -0.0934
 8616SOL     OW37306   4.159   2.180  12.158 -0.8725  0.1553  0.5008
 8616SOL    HW137307   4.197   2.228  12.232  1.5172 -0.5998 -0.2390
 8616SOL    HW237308   4.071   2.217  12.154 -0.1815  1.7163 -0.1772
 8617SOL     OW37309   3.725   3.336  11.548  0.1174 -0.1570  0.4040
 8617SOL    HW137310   3.678   3.397  11.491  1.4230 -0.8957 -1.4726
 8617SOL    HW237311   3.812   3.374  11.557  1.1365 -2.5639  0.6985
 8618SOL     OW37312   0.549   4.306   3.869 -0.4764 -0.1329 -0.0680
 8618SOL    HW137313   0.473   4.336   3.818  0.5219  1.2002 -0.7708
 8618SOL    HW237314   0.537   4.214   3.847 -1.2063 -0.1988  0.5848
 8619SOL     OW37315   3.852   4.211   4.662 -0.1351 -0.2315  0.3919
 8619SOL    HW137316   3.834   4.267   4.587 -3.8519 -1.2476  0.5228
 8619SOL    HW237317   3.945   4.198   4.642 -0.6086  0.7026 -2.3357
 8620SOL     OW37318   4.537   2.847   6.223 -0.5403 -0.5152  0.5023
 8620SOL    HW137319   4.534   2.766   6.273 -0.4251 -0.1812  1.0543
 8620SOL    HW237320   4.460   2.888   6.264 -0.6898  0.5425 -0.8388
 8621SOL     OW37321   2.016   3.852   8.885  0.0704  0.1657  0.2846
 8621SOL    HW137322   2.016   3.831   8.978  0.6861 -0.8537  0.0585
 8621SOL    HW237323   1.928   3.886   8.870  0.1020 -0.3146 -1.0314
 8622SOL     OW37324   1.996   4.368   0.333 -0.0027  0.1876  0.0155
 8622SOL    HW137325   2.022   4.444   0.282  0.9833  1.5368  2.5093
 8622SOL    HW237326   1.925   4.332   0.280 -0.5712  1.3960 -0.0260
 8623SOL     OW37327   0.904   4.018   3.179 -0.2056 -0.4246 -0.1556
 8623SOL    HW137328   0.951   3.970   3.247  0.4969 -1.1279 -1.1447
 8623SOL    HW237329   0.904   4.109   3.210 -2.2133 -0.1770 -0.8427
 8624SOL     OW37330   3.045   4.422  17.243  0.4847 -0.0606 -0.0350
 8624SOL    HW137331   3.084   4.341  17.277  0.9627  0.1643 -0.0526
 8624SOL    HW237332   3.111   4.437  17.175  1.7370 -2.7009  0.5962
 8625SOL     OW37333   0.211   0.439  13.124 -0.0155  0.1711  0.2567
 8625SOL    HW137334   0.196   0.360  13.073 -0.8807  2.0913 -2.5045
 8625SOL    HW237335   0.254   0.493  13.058  0.1665  0.0955  0.3155
 8626SOL     OW37336   3.513   0.245   1.545 -0.3533  0.4891  1.0870
 8626SOL    HW137337   3.426   0.207   1.555 -0.1242  0.1161  1.6718
 8626SOL    HW237338   3.503   0.313   1.611  2.3766  1.3897  0.5911
 8627SOL     OW37339   2.370   0.271   3.948  0.2225 -1.1465  0.2721
 8627SOL    HW137340   2.429   0.316   3.888  0.8865 -1.5688  0.6121
 8627SOL    HW237341   2.384   0.181   3.919  0.5297 -0.4576 -1.7112
 8628SOL     OW37342   1.516   4.625   5.268  0.5445  0.2321 -0.6615
 8628SOL    HW137343   1.423   4.640   5.281  0.7740  0.1511  1.0242
 8628SOL    HW237344   1.499   4.570   5.192 -0.1451 -0.3380 -0.0838
 8629SOL     OW37345   1.332   1.657   6.148 -0.3092 -0.5049 -0.0362
 8629SOL    HW137346   1.360   1.566   6.140  0.0582 -0.7130  3.8386
 8629SOL    HW237347   1.373   1.689   6.067 -0.5533 -2.7863 -1.0774
 8630SOL     OW37348   0.449   4.616   6.908  0.2480 -0.3764  0.7065
 8630SOL    HW137349   0.356   4.632   6.890  0.9073 -0.1699 -2.5749
 8630SOL    HW237350   0.475   4.546   6.848 -2.0279 -1.0190  0.4943
 8631SOL     OW37351   3.356   3.299   1.974  0.1517 -0.2291 -0.0576
 8631SOL    HW137352   3.282   3.243   1.950  0.7259  0.2221 -2.9342
 8631SOL    HW237353   3.412   3.222   1.982 -1.5465 -1.3584  0.9602
 8632SOL     OW37354   0.173   2.721   3.608 -0.4204  0.7107  0.2288
 8632SOL    HW137355   0.137   2.658   3.546 -0.9595  2.0579 -0.8280
 8632SOL    HW237356   0.256   2.732   3.563 -0.9950  0.8675 -0.7849
 8633SOL     OW37357   3.955   1.227   4.694 -0.0044  0.2447  0.9048
 8633SOL    HW137358   4.022   1.201   4.630  0.7921 -0.8440  2.1678
 8633SOL    HW237359   3.993   1.312   4.718 -1.7346  1.4098 -0.5221
 8634SOL     OW37360   1.032   2.100  16.241 -0.5055 -0.1876  0.3476
 8634SOL    HW137361   1.040   2.130  16.150 -0.4814  0.7246  0.6608
 8634SOL    HW237362   1.029   2.006  16.220 -1.4309  0.3259 -1.7834
 8635SOL     OW37363   2.846   2.082   5.910  0.2991  0.4944  0.2385
 8635SOL    HW137364   2.777   2.061   5.974 -0.9449 -0.9477 -1.5928
 8635SOL    HW237365   2.802   2.160   5.876 -1.9858 -0.6163  0.6562
 8636SOL     OW37366   3.002   2.729   5.841  0.0642 -0.1212 -0.3876
 8636SOL    HW137367   3.056   2.661   5.800 -0.6241 -0.5686 -0.5361
 8636SOL    HW237368   2.988   2.786   5.766 -0.1685  0.9473  0.4632
 8637SOL     OW37369   0.836   4.299   2.864 -0.5114  0.7375  0.1300
 8637SOL    HW137370   0.877   4.217   2.890  0.8489  1.4730  0.3143
 8637SOL    HW237371   0.753   4.260   2.835  0.6387 -1.3613 -0.3546
 8638SOL     OW37372   3.517   4.680  16.766  0.5709  0.0096 -0.1915
 8638SOL    HW137373   3.435   0.002  16.752  0.4414  0.4268  1.9616
 8638SOL    HW237374   3.515   4.633  16.849  0.3121  0.3110 -0.0274
 8639SOL     OW37375   1.971   3.793   2.288 -0.3649  0.3302 -0.1784
 8639SOL    HW137376   1.957   3.740   2.210  2.2477 -1.2761  0.4441
 8639SOL    HW237377   1.882   3.816   2.314 -0.8045 -0.4555 -0.9978
 8640SOL     OW37378   0.314   3.260   6.734 -0.6063 -0.6669  0.3768
 8640SOL    HW137379   0.315   3.247   6.639 -1.2583  0.7812  0.1718
 8640SOL    HW237380   0.221   3.271   6.754 -0.4458  0.1759  0.6590
 8641SOL     OW37381   3.398   1.042   0.221 -0.4578  0.1131  0.1196
 8641SOL    HW137382   3.492   1.059   0.227 -0.5525  0.5220  0.3917
 8641SOL    HW237383   3.396   0.993   0.138  3.7260 -0.0450  0.0833
 8642SOL     OW37384   0.472   0.357   7.549  0.3448  0.4330 -0.0583
 8642SOL    HW137385   0.434   0.272   7.572  0.2211  0.4643 -0.1524
 8642SOL    HW237386   0.513   0.324   7.469 -2.2220  1.8929 -1.9829
 8643SOL     OW37387   4.624   1.242   9.067  0.4911 -0.5703  0.1544
 8643SOL    HW137388   4.671   1.321   9.093 -0.6003  0.2869 -0.4675
 8643SOL    HW237389   4.587   1.218   9.153 -0.3810 -2.3217 -0.7002
 8644SOL     OW37390   2.461   1.628   4.440  0.1159 -0.2152  0.4125
 8644SOL    HW137391   2.459   1.724   4.447  2.1458 -0.1187 -0.3280
 8644SOL    HW237392   2.501   1.603   4.524 -0.7074  0.8792  1.1298
 8645SOL     OW37393   1.316   1.472   3.206 -0.2098 -0.0099 -0.4554
 8645SOL    HW137394   1.253   1.408   3.175 -0.5155 -0.4048  0.9871
 8645SOL    HW237395   1.388   1.425   3.249  0.1388  1.6642  0.8044
 8646SOL     OW37396   3.476   0.783   6.328  0.0057  0.1976 -0.1151
 8646SOL    HW137397   3.390   0.766   6.291  0.6412  1.8212 -2.3115
 8646SOL    HW237398   3.498   0.873   6.305 -1.0315  0.1536 -1.2898
 8647SOL     OW37399   2.264   1.559   2.976  0.7366  0.2339 -0.2738
 8647SOL    HW137400   2.196   1.553   2.909  1.3211  2.3731 -1.0618
 8647SOL    HW237401   2.315   1.633   2.942  1.5965  0.6223  1.8656
 8648SOL     OW37402   3.366   3.400   3.701 -0.3406  0.4630 -0.4594
 8648SOL    HW137403   3.274   3.375   3.693  0.2831 -2.0186  0.2578
 8648SOL    HW237404   3.376   3.456   3.624  0.8784  0.9304  0.0388
 8649SOL     OW37405   3.902   1.724   6.304  0.3291 -0.1347 -0.0287
 8649SOL    HW137406   3.837   1.791   6.324 -2.3898 -2.4574 -1.0499
 8649SOL    HW237407   3.883   1.667   6.379 -1.0209 -1.4413 -1.3470
 8650SOL     OW37408   2.386   1.769   5.579  0.1747  0.4298  0.1368
 8650SOL    HW137409   2.365   1.839   5.640 -1.2397 -0.2635  0.4429
 8650SOL    HW237410   2.307   1.716   5.572  0.8423 -0.8266  2.2208
 8651SOL     OW37411   0.649   0.133   2.980  0.1956  0.1045 -0.3950
 8651SOL    HW137412   0.658   0.039   2.964 -2.0737 -0.1169 -0.4422
 8651SOL    HW237413   0.683   0.168   2.898  0.0762  1.2617  0.0383
 8652SOL     OW37414   0.607   2.997  11.303 -0.2733 -0.3085 -0.2334
 8652SOL    HW137415   0.534   2.966  11.249  1.3885 -1.4006 -1.8220
 8652SOL    HW237416   0.569   3.026  11.386 -0.7008 -0.9945 -0.1904
 8653SOL     OW37417   0.420   4.102   8.326 -0.1251 -0.2105 -0.0619
 8653SOL    HW137418   0.339   4.056   8.301 -0.2899  0.1272 -0.1465
 8653SOL    HW237419   0.451   4.128   8.239 -1.8689  2.6037  0.1620
 8654SOL     OW37420   1.819   2.233  16.775  0.5739  0.0379  0.0195
 8654SOL    HW137421   1.743   2.198  16.822  0.3281 -0.5118 -0.7788
 8654SOL    HW237422   1.804   2.327  16.774 -1.8373 -0.3176  1.3955
 8655SOL     OW37423   1.895   3.975   9.432  0.0219  0.3879  0.1447
 8655SOL    HW137424   1.885   4.006   9.522 -1.6344  4.1374 -1.3040
 8655SOL    HW237425   1.965   4.035   9.403 -0.5015  0.4414 -0.9830
 8656SOL     OW37426   1.970   0.003  13.310 -0.1747 -0.3046  0.1552
 8656SOL    HW137427   2.013   0.069  13.364  0.6092  0.3851 -1.3004
 8656SOL    HW237428   2.047   4.698  13.263  1.4542  0.5169  2.2766
 8657SOL     OW37429   2.253   4.136   5.072 -0.2603  0.1520 -0.4233
 8657SOL    HW137430   2.249   4.139   5.167  0.9678 -0.3460 -0.3573
 8657SOL    HW237431   2.343   4.104   5.058 -0.6871 -0.9743 -0.6518
 8658SOL     OW37432   2.758   3.861   5.323 -0.4566 -0.1386 -0.1804
 8658SOL    HW137433   2.819   3.789   5.340  0.8020  0.6585 -1.3360
 8658SOL    HW237434   2.734   3.844   5.232 -0.6789 -4.0359  0.6054
 8659SOL     OW37435   0.599   2.056   6.983  0.1714  0.1540  0.4228
 8659SOL    HW137436   0.544   2.010   7.047 -2.5162  0.3531 -1.7563
 8659SOL    HW237437   0.543   2.084   6.911  0.0996 -1.6010 -0.2145
 8660SOL     OW37438   4.118   1.950   0.671  0.1084  0.2088 -0.0190
 8660SOL    HW137439   4.030   1.950   0.709  0.5009 -0.1128  0.9023
 8660SOL    HW237440   4.149   2.040   0.672 -2.9503  1.2516  0.1976
 8661SOL     OW37441   2.509   4.114   3.048 -0.0485  0.1843  0.8273
 8661SOL    HW137442   2.543   4.026   3.033 -0.2045  0.3095 -0.2168
 8661SOL    HW237443   2.501   4.166   2.968  0.7520 -0.8283  0.0981
 8662SOL     OW37444   0.593   3.098   8.135  0.3458  0.5594  0.5568
 8662SOL    HW137445   0.624   3.171   8.188 -0.0864  0.9717  0.2336
 8662SOL    HW237446   0.671   3.042   8.142 -0.8733 -1.4460 -2.0606
 8663SOL     OW37447   1.651   1.069   6.322  0.1140  0.0973  0.0175
 8663SOL    HW137448   1.740   1.071   6.358 -0.8091  1.5826  2.1486
 8663SOL    HW237449   1.673   1.111   6.238 -0.3569  0.2885 -0.0060
 8664SOL     OW37450   0.918   2.342  10.761  0.2568  0.4011 -0.2051
 8664SOL    HW137451   0.889   2.423  10.801  2.3149  0.3200  1.4777
 8664SOL    HW237452   0.907   2.280  10.833 -0.6559 -1.1975 -1.7312
 8665SOL     OW37453   2.534   3.811  16.347  0.4257  0.2293 -0.1835
 8665SOL    HW137454   2.465   3.810  16.280  0.9597  1.7459 -0.7453
 8665SOL    HW237455   2.523   3.894  16.394 -0.1752 -0.0439  0.1602
 8666SOL     OW37456   4.603   3.543   5.304 -0.4463 -0.1849  0.6350
 8666SOL    HW137457   4.594   3.588   5.388 -2.2379 -0.0121  0.3500
 8666SOL    HW237458   4.582   3.453   5.330  0.0025 -0.3327  0.4838
 8667SOL     OW37459   0.327   0.725   5.693 -0.2749  0.0348 -0.4597
 8667SOL    HW137460   0.386   0.678   5.634  0.1020 -1.0479  0.7935
 8667SOL    HW237461   0.245   0.732   5.644  0.7498  2.4221 -1.8576
 8668SOL     OW37462   3.554   3.396   0.264  0.0426  0.1716 -0.1608
 8668SOL    HW137463   3.593   3.399   0.352 -1.5523 -2.8732  0.6583
 8668SOL    HW237464   3.484   3.331   0.275 -0.4240  0.5009 -1.2076
 8669SOL     OW37465   0.929   3.406   5.580  0.5270  0.2067  0.6945
 8669SOL    HW137466   0.869   3.377   5.511  0.3676  1.2517  0.4067
 8669SOL    HW237467   0.867   3.430   5.649 -1.1440  1.8281 -1.3893
 8670SOL     OW37468   2.324   0.815  11.311 -0.0210  0.1064 -0.0051
 8670SOL    HW137469   2.255   0.796  11.248 -0.9284  0.9734  0.7316
 8670SOL    HW237470   2.330   0.735  11.363  3.5568  0.8858  0.8044
 8671SOL     OW37471   3.203   2.644  14.471 -0.2886  0.1258  0.3686
 8671SOL    HW137472   3.183   2.730  14.509 -2.7170 -0.3455  0.1880
 8671SOL    HW237473   3.122   2.596  14.453  0.1950 -0.7068  0.4520
 8672SOL     OW37474   0.924   1.717   4.666 -0.3149 -0.7680 -0.0000
 8672SOL    HW137475   1.003   1.697   4.615  0.1846  2.2482 -0.4487
 8672SOL    HW237476   0.866   1.641   4.665 -2.5682  0.9571 -0.6833
 8673SOL     OW37477   1.626   1.116   1.066  0.2064  0.3722  0.3483
 8673SOL    HW137478   1.550   1.161   1.103  0.5920  0.7264  0.6964
 8673SOL    HW237479   1.690   1.168   1.115  0.5696  1.2772 -1.1036
 8674SOL     OW37480   0.503   3.119   3.069 -0.2216  0.0305  0.8266
 8674SOL    HW137481   0.593   3.151   3.063  0.2112 -1.4158 -0.5884
 8674SOL    HW237482   0.475   3.130   3.159  0.3174 -0.9162  1.1133
 8675SOL     OW37483   2.407   2.925  12.219 -0.6040 -0.6869  0.1340
 8675SOL    HW137484   2.312   2.916  12.213 -0.8438  1.1372  1.2748
 8675SOL    HW237485   2.431   2.964  12.135  1.7224  1.7894  1.9397
 8676SOL     OW37486   3.463   4.477   8.798 -0.0703  0.1547 -0.1262
 8676SOL    HW137487   3.534   4.431   8.752  0.4329  0.7917  0.0049
 8676SOL    HW237488   3.384   4.429   8.774  0.0929 -0.8049  1.2993
 8677SOL     OW37489   3.486   3.347   2.868  0.2416  0.0415  0.4925
 8677SOL    HW137490   3.509   3.332   2.776  0.6769 -1.8075  0.8904
 8677SOL    HW237491   3.557   3.397   2.906  0.8255 -0.5422  0.1753
 8678SOL     OW37492   4.454   2.689   3.033 -0.3029 -0.0098  0.2375
 8678SOL    HW137493   4.508   2.727   2.963  0.0962  0.1810  0.6555
 8678SOL    HW237494   4.514   2.680   3.107 -2.2665  1.2235  1.9808
 8679SOL     OW37495   4.216   2.484  14.829 -0.8744 -0.3079 -0.0342
 8679SOL    HW137496   4.129   2.518  14.809 -1.4305 -0.3810  2.1655
 8679SOL    HW237497   4.210   2.486  14.925 -0.0708 -0.9604  0.0293
 8680SOL     OW37498   4.032   2.093   1.648  0.1435  0.6217  0.0382
 8680SOL    HW137499   4.055   2.002   1.627 -1.8023  0.4450 -1.3417
 8680SOL    HW237500   4.113   2.123   1.689 -0.0265  0.3088  0.5932
 8681SOL     OW37501   4.032   2.240   8.312 -0.1837 -0.7553 -0.0482
 8681SOL    HW137502   4.000   2.247   8.222  2.8070 -2.1464 -1.2181
 8681SOL    HW237503   4.058   2.148   8.312  1.4634 -0.2949  0.0250
 8682SOL     OW37504   0.124   3.897   5.705  0.3871  0.1458  0.6180
 8682SOL    HW137505   0.134   3.961   5.775  0.8565  1.3518 -0.5460
 8682SOL    HW237506   0.030   3.878   5.709  0.8219 -2.2203 -0.0960
 8683SOL     OW37507   2.482   3.199   2.616 -0.1486 -0.3779 -0.4407
 8683SOL    HW137508   2.420   3.217   2.545  1.1236 -0.8739 -1.6824
 8683SOL    HW237509   2.439   3.131   2.667  1.4979  0.1528  1.6649
 8684SOL     OW37510   1.926   3.132  13.187 -0.1348 -0.5519  0.1948
 8684SOL    HW137511   1.878   3.066  13.138 -1.0427 -0.8723  1.5261
 8684SOL    HW237512   2.015   3.101  13.168 -0.6433 -2.2822  0.7034
 8685SOL     OW37513   0.795   0.186  12.955 -0.1029 -0.2733 -0.5798
 8685SOL    HW137514   0.829   0.179  13.044 -1.9920  1.7544  0.3029
 8685SOL    HW237515   0.701   0.175  12.963 -0.1324 -1.0540 -1.9375
 8686SOL     OW37516   0.030   0.005   5.146  0.3516 -0.4906 -0.4963
 8686SOL    HW137517   0.014   4.635   5.142 -2.4406 -0.0656  0.0252
 8686SOL    HW237518   4.671   0.033   5.184 -0.2573 -0.5239 -1.8022
 8687SOL     OW37519   4.035   0.810   4.023 -0.0280  0.0636 -0.0459
 8687SOL    HW137520   3.946   0.776   4.020  0.4267 -1.4276  3.9461
 8687SOL    HW237521   4.047   0.847   3.936 -0.7284  1.8477  0.6084
 8688SOL     OW37522   1.891   1.087   6.448  0.5606 -0.2730  0.3254
 8688SOL    HW137523   1.901   1.137   6.529  0.0468  0.2137  0.0789
 8688SOL    HW237524   1.972   1.037   6.431  0.1620  0.2798 -3.0411
 8689SOL     OW37525   2.123   4.659   8.290 -0.2467 -0.1682  0.2476
 8689SOL    HW137526   2.177   4.611   8.352  0.3532 -0.2376 -0.3291
 8689SOL    HW237527   2.089   4.592   8.231  0.9943 -0.5800 -0.0012
 8690SOL     OW37528   3.155   2.943   0.221  0.5394 -0.0224 -0.8388
 8690SOL    HW137529   3.216   2.929   0.148 -0.4758 -1.4959 -1.4056
 8690SOL    HW237530   3.211   3.004   0.268 -2.2272  1.4482  0.5512
 8691SOL     OW37531   3.115   1.450  17.015  0.6908 -0.2074  0.1471
 8691SOL    HW137532   3.064   1.482  16.941  0.1374  2.4260  1.6920
 8691SOL    HW237533   3.129   1.358  16.991 -1.1844  0.2977 -2.8680
 8692SOL     OW37534   3.678   0.831   6.789  0.3616 -0.7079  0.0104
 8692SOL    HW137535   3.626   0.876   6.723 -0.3352 -2.4088 -0.5991
 8692SOL    HW237536   3.638   0.748   6.765 -1.5895  0.5543 -1.1129
 8693SOL     OW37537   3.371   2.300   5.886  0.4448 -0.2615 -0.0378
 8693SOL    HW137538   3.449   2.354   5.899  0.2261  0.1391 -0.4022
 8693SOL    HW237539   3.407   2.250   5.812  0.0261  0.3586 -0.6636
 8694SOL     OW37540   1.002   4.108   8.304 -0.4338 -0.2756 -0.0272
 8694SOL    HW137541   0.989   4.123   8.398  0.0297 -0.5839  0.0842
 8694SOL    HW237542   1.003   4.204   8.295 -0.2706 -0.1451  1.3724
 8695SOL     OW37543   2.416   0.114   7.565 -0.3191 -0.8001  0.4049
 8695SOL    HW137544   2.468   0.034   7.564  1.3515  0.3077  0.3578
 8695SOL    HW237545   2.406   0.134   7.658 -0.8989  0.3963  0.0899
 8696SOL     OW37546   2.023   2.579   8.028 -0.6151  0.3193 -0.1594
 8696SOL    HW137547   1.985   2.635   8.097  0.2066  1.2602 -0.4667
 8696SOL    HW237548   1.940   2.547   7.993 -1.2599  0.7152  1.0018
 8697SOL     OW37549   3.419   0.691   3.617 -0.3344  0.0322  0.1238
 8697SOL    HW137550   3.391   0.782   3.622  1.8147  0.7641 -0.7838
 8697SOL    HW237551   3.508   0.709   3.586 -0.0254  0.2145  1.1352
 8698SOL     OW37552   4.553   0.409   2.284  0.4819  0.0471 -0.0887
 8698SOL    HW137553   4.483   0.344   2.292 -0.2470  1.0059  1.3542
 8698SOL    HW237554   4.563   0.421   2.190 -2.6370  0.6873 -0.3277
 8699SOL     OW37555   4.679   4.139   2.414  0.3952 -0.0638 -0.0906
 8699SOL    HW137556   0.050   4.131   2.408  0.3869 -0.1233 -0.1409
 8699SOL    HW237557   4.652   4.107   2.328 -0.9917 -1.8991  1.0580
 8700SOL     OW37558   3.685   1.573  12.590 -0.3541  0.1131 -0.3362
 8700SOL    HW137559   3.729   1.640  12.643 -2.1426  1.2444 -0.2871
 8700SOL    HW237560   3.739   1.572  12.511 -2.1200  1.8015 -1.5571
 8701SOL     OW37561   3.391   2.769  11.333  0.0840 -0.0540  0.4173
 8701SOL    HW137562   3.429   2.856  11.321  2.5990 -1.2420 -0.1918
 8701SOL    HW237563   3.313   2.800  11.379  0.0863 -1.1273  1.1513
 8702SOL     OW37564   1.621   0.959   5.034  0.0430 -0.2433  0.1370
 8702SOL    HW137565   1.613   1.054   5.025  0.9326 -0.2497 -0.7436
 8702SOL    HW237566   1.717   0.955   5.035  0.0252 -0.3579  1.1791
 8703SOL     OW37567   4.542   3.459   1.612  0.2281  0.2302 -0.0959
 8703SOL    HW137568   4.567   3.401   1.540 -1.5645  1.1142 -1.3990
 8703SOL    HW237569   4.616   3.517   1.630 -1.2808  1.4795  2.0809
 8704SOL     OW37570   4.629   4.174  10.590 -0.0233 -0.1663  0.6028
 8704SOL    HW137571   4.585   4.131  10.663 -1.3619  1.0072  0.4833
 8704SOL    HW237572   4.549   4.216  10.560 -0.7188 -1.5283  0.5779
 8705SOL     OW37573   4.398   2.416  16.758 -0.5927 -0.3296  0.1977
 8705SOL    HW137574   4.326   2.360  16.787 -0.8130 -0.2108 -0.1295
 8705SOL    HW237575   4.435   2.449  16.840 -0.0750 -1.8683  0.5791
 8706SOL     OW37576   3.036   0.089   1.636  0.6217  0.3576 -0.7272
 8706SOL    HW137577   2.941   0.081   1.643  0.7584 -0.7442 -0.0586
 8706SOL    HW237578   3.047   0.023   1.568 -1.5640  1.5399 -2.2124
 8707SOL     OW37579   4.583   1.801   2.587 -0.0839  0.1430 -0.2608
 8707SOL    HW137580   4.617   1.864   2.650 -2.0256  2.3850 -1.4426
 8707SOL    HW237581   4.513   1.754   2.633 -0.5399 -1.4697 -2.5404
 8708SOL     OW37582   3.041   4.401   9.436 -0.3321  0.5032 -0.6950
 8708SOL    HW137583   3.091   4.481   9.422 -1.4841  1.2099 -0.8191
 8708SOL    HW237584   3.081   4.356   9.510 -1.5850 -0.0302 -0.3288
 8709SOL     OW37585   1.428   3.700   3.008  0.1607  1.0958 -0.0289
 8709SOL    HW137586   1.465   3.786   3.028  1.3885 -0.2365  3.4125
 8709SOL    HW237587   1.351   3.716   2.953  0.6957  0.9173 -0.8365
 8710SOL     OW37588   0.147   3.569   5.799 -0.1545 -0.3432  0.2366
 8710SOL    HW137589   0.205   3.505   5.839  0.8761  2.0369  2.5352
 8710SOL    HW237590   0.181   3.652   5.833 -1.3898  0.2527  0.0313
 8711SOL     OW37591   3.177   1.289   1.857 -0.7821 -0.5389  0.1769
 8711SOL    HW137592   3.139   1.373   1.831  1.0603  0.9015  2.1095
 8711SOL    HW237593   3.195   1.251   1.771  1.6261  1.1381 -0.0443
 8712SOL     OW37594   4.038   0.017   3.926 -0.3840 -0.3798  0.0401
 8712SOL    HW137595   4.025   0.035   3.833 -0.4973  1.3039  0.3822
 8712SOL    HW237596   4.049   0.106   3.961 -0.8564 -0.1631 -0.3554
 8713SOL     OW37597   3.118   2.270   7.634  0.2402 -0.2485 -0.0718
 8713SOL    HW137598   3.115   2.214   7.557  1.8479 -0.6862  0.1853
 8713SOL    HW237599   3.208   2.300   7.629  0.1280  0.0067 -0.6067
 8714SOL     OW37600   2.237   3.074   7.725 -0.5631 -0.1801 -0.4329
 8714SOL    HW137601   2.263   3.080   7.817 -0.6452  1.0856 -0.5013
 8714SOL    HW237602   2.259   2.982   7.710 -3.0584 -0.7117 -0.8031
 8715SOL     OW37603   2.678   2.120   7.656  0.0242  0.2764  0.4281
 8715SOL    HW137604   2.598   2.092   7.699 -0.6021 -1.3107 -1.7951
 8715SOL    HW237605   2.731   2.040   7.662 -2.2534 -1.3013 -0.7749
 8716SOL     OW37606   2.592   3.463  15.831  0.5602  0.3939  0.5299
 8716SOL    HW137607   2.610   3.372  15.854  2.9375  0.3241 -1.6147
 8716SOL    HW237608   2.516   3.456  15.774  1.8858  1.3718 -1.3546
 8717SOL     OW37609   1.697   2.393  15.112  0.2092 -0.0883  0.1736
 8717SOL    HW137610   1.722   2.484  15.129  2.4135 -0.5196 -0.8217
 8717SOL    HW237611   1.696   2.343  15.194  0.8215 -0.5302 -0.0930
 8718SOL     OW37612   3.120   3.762  12.649  0.1070 -0.3152  0.5663
 8718SOL    HW137613   3.054   3.809  12.701  0.2648  0.7436 -0.1975
 8718SOL    HW237614   3.140   3.818  12.574  1.7739 -1.2668  0.3033
 8719SOL     OW37615   3.588   1.666  17.088  0.4786  0.2200 -0.4405
 8719SOL    HW137616   3.557   1.724  17.158  2.7785  1.6479 -0.6411
 8719SOL    HW237617   3.681   1.657  17.107  0.1629  1.3893  1.6564
 8720SOL     OW37618   3.467   2.858   6.076  0.3930 -0.0492 -0.0016
 8720SOL    HW137619   3.421   2.888   5.997 -0.3902 -0.0716  0.4461
 8720SOL    HW237620   3.556   2.838   6.047  0.4208 -1.1882  0.8721
 8721SOL     OW37621   1.646   0.262   3.971 -0.3586 -0.6374  0.1455
 8721SOL    HW137622   1.575   0.251   3.908 -1.2490 -1.9541  1.3885
 8721SOL    HW237623   1.600   0.245   4.053  0.6586 -0.6189  0.7194
 8722SOL     OW37624   3.679   0.071   1.615 -0.2421 -0.2390 -0.4874
 8722SOL    HW137625   3.618   0.137   1.582 -1.7630 -1.0404  0.7796
 8722SOL    HW237626   3.668   0.015   1.538 -0.1312  0.7544 -1.2362
 8723SOL     OW37627   0.969   3.004   2.820  0.2286 -0.1195 -0.0325
 8723SOL    HW137628   1.019   2.993   2.739  1.2257 -0.8993  0.7058
 8723SOL    HW237629   0.974   3.099   2.830  1.7798 -0.3206  1.0514
 8724SOL     OW37630   3.109   0.576  12.317 -0.1875  0.0127  0.2642
 8724SOL    HW137631   3.194   0.555  12.278  0.4021 -0.0851  1.6182
 8724SOL    HW237632   3.106   0.506  12.383 -0.2053  0.4021  0.6723
 8725SOL     OW37633   0.872   4.134   6.882 -0.0245  0.9409  0.0893
 8725SOL    HW137634   0.805   4.084   6.928  1.2970 -1.3391 -0.4604
 8725SOL    HW237635   0.957   4.118   6.923 -0.4970  1.1061  1.1235
 8726SOL     OW37636   1.986   3.702   6.083  0.1060  0.0398 -0.0346
 8726SOL    HW137637   2.022   3.629   6.031  2.1018  2.0365 -1.4511
 8726SOL    HW237638   1.907   3.711   6.030  0.4760 -1.2690 -0.8184
 8727SOL     OW37639   2.526   0.537  11.024 -0.1288 -0.3700  0.3982
 8727SOL    HW137640   2.613   0.568  10.999  0.1191  1.7464  3.8236
 8727SOL    HW237641   2.535   0.449  11.060 -2.3855 -0.5814  0.4240
 8728SOL     OW37642   3.235   4.587  14.636 -0.1428 -0.2773  0.2630
 8728SOL    HW137643   3.288   4.666  14.650 -1.8484  0.9487 -0.1681
 8728SOL    HW237644   3.181   4.585  14.715  1.0306 -2.8043  0.9819
 8729SOL     OW37645   3.486   3.316   8.398 -0.0063 -0.5357  0.2131
 8729SOL    HW137646   3.477   3.402   8.358 -0.3716 -1.0726 -0.8596
 8729SOL    HW237647   3.403   3.312   8.446 -0.1055 -0.0982  0.0808
 8730SOL     OW37648   2.516   1.650  15.466  0.4536  0.3775 -0.5973
 8730SOL    HW137649   2.524   1.612  15.378 -0.6851 -1.3316  0.0572
 8730SOL    HW237650   2.557   1.733  15.439 -3.3483  1.8039 -1.9662
 8731SOL     OW37651   4.128   0.363   8.547 -0.3364  0.2377 -0.0823
 8731SOL    HW137652   4.204   0.378   8.603 -0.7997  0.5185  0.4709
 8731SOL    HW237653   4.058   0.364   8.612 -0.9675  2.4970 -0.7875
 8732SOL     OW37654   4.023   1.554   4.082  0.2422 -0.1770 -0.0492
 8732SOL    HW137655   4.043   1.512   4.166 -3.0579  2.5151  2.0461
 8732SOL    HW237656   4.013   1.473   4.032  0.9635 -0.3678  0.1142
 8733SOL     OW37657   1.651   3.242  11.171 -0.0252 -0.0029 -0.0080
 8733SOL    HW137658   1.570   3.192  11.183 -0.3005  0.2886 -0.6353
 8733SOL    HW237659   1.636   3.329  11.207  0.6860 -1.1786  3.0985
 8734SOL     OW37660   2.869   4.678  14.789 -0.2321  0.2583 -0.4878
 8734SOL    HW137661   2.835   4.674  14.699  0.3069 -0.7781 -0.6387
 8734SOL    HW237662   2.866   0.046  14.813 -4.0160  0.1366 -0.5417
 8735SOL     OW37663   1.516   4.704   6.250 -0.1589  0.7161  0.3151
 8735SOL    HW137664   1.542   4.617   6.220  0.3464  1.3141 -0.9753
 8735SOL    HW237665   1.425   4.689   6.275  0.2073 -0.8615  0.7654
 8736SOL     OW37666   1.019   0.520  13.080 -0.2222 -0.4305 -0.0042
 8736SOL    HW137667   1.004   0.592  13.141 -5.1759 -1.7646  0.3629
 8736SOL    HW237668   1.113   0.502  13.085 -0.0063  1.0805  1.4861
 8737SOL     OW37669   3.588   0.925  15.234 -0.4986  0.2815  0.3130
 8737SOL    HW137670   3.624   1.009  15.261 -0.8387  0.5012  0.0843
 8737SOL    HW237671   3.545   0.904  15.317 -2.2889 -2.0399 -1.2077
 8738SOL     OW37672   0.923   2.255   2.955 -0.2297  0.1388  0.2881
 8738SOL    HW137673   0.973   2.220   2.882  0.1597 -1.9331  1.5678
 8738SOL    HW237674   0.864   2.184   2.982 -2.5814  1.9223 -0.0921
 8739SOL     OW37675   0.293   2.692   3.351 -0.2223 -0.3986  0.0689
 8739SOL    HW137676   0.268   2.669   3.262 -0.0919  0.2495 -0.1319
 8739SOL    HW237677   0.344   2.770   3.331 -0.0470 -0.4284  0.3933
 8740SOL     OW37678   3.236   1.145   1.312  0.2199  0.7225 -0.5691
 8740SOL    HW137679   3.292   1.071   1.288  2.2455  2.0453  0.1251
 8740SOL    HW237680   3.258   1.215   1.250  1.3865  1.3037  0.5160
 8741SOL     OW37681   1.254   1.106  17.615 -0.1249  0.0393  0.0481
 8741SOL    HW137682   1.247   1.140   0.003  0.3263  0.9210 -0.2514
 8741SOL    HW237683   1.344   1.073  17.612 -0.5727 -1.0355 -1.3062
 8742SOL     OW37684   3.789   3.961   2.638 -0.6580  0.4543  0.8621
 8742SOL    HW137685   3.746   3.922   2.561  1.4683  1.5450 -0.8893
 8742SOL    HW237686   3.718   4.017   2.670 -1.1133  0.5012 -0.2337
 8743SOL     OW37687   2.384   0.745   7.654  0.2306  0.2308  0.0200
 8743SOL    HW137688   2.418   0.658   7.676  1.1272  0.3859 -0.7613
 8743SOL    HW237689   2.413   0.784   7.737  1.3620  0.5486 -0.5274
 8744SOL     OW37690   2.989   1.712   1.654  0.4000 -0.2762 -0.1088
 8744SOL    HW137691   2.915   1.659   1.625  0.6403 -0.8604  0.3424
 8744SOL    HW237692   2.957   1.748   1.736 -0.8433 -2.3493  0.2970
 8745SOL     OW37693   2.171   1.676   8.648 -0.2652 -0.0995 -0.4153
 8745SOL    HW137694   2.237   1.742   8.628 -1.5078  1.5124  0.8733
 8745SOL    HW237695   2.169   1.666   8.743 -0.7947 -0.5650 -0.4766
 8746SOL     OW37696   0.585   2.932   6.800  0.0915 -0.1164 -0.4547
 8746SOL    HW137697   0.672   2.900   6.825 -0.5506 -1.2923  0.2480
 8746SOL    HW237698   0.527   2.862   6.829 -1.2713  0.7614 -1.0293
 8747SOL     OW37699   1.198   4.098   0.578  0.8197 -0.3376 -0.7530
 8747SOL    HW137700   1.110   4.061   0.591  2.0005 -3.2263 -0.8257
 8747SOL    HW237701   1.258   4.028   0.604  0.7007  0.4356  1.5750
 8748SOL     OW37702   1.340   2.687  15.508 -0.4900 -0.3528 -0.2466
 8748SOL    HW137703   1.394   2.742  15.565 -0.6269 -0.6643  0.1841
 8748SOL    HW237704   1.271   2.667  15.571 -0.4846 -0.9192 -0.4184
 8749SOL     OW37705   0.060   1.573   0.446  0.4818 -0.1488  0.2113
 8749SOL    HW137706   0.073   1.517   0.523  0.2069 -0.2050  0.2187
 8749SOL    HW237707   4.701   1.540   0.413  0.9722 -2.2395  1.0058
 8750SOL     OW37708   2.331   4.447   9.644  0.3097 -0.6041 -0.1106
 8750SOL    HW137709   2.405   4.416   9.697  1.2248 -0.1476 -1.1153
 8750SOL    HW237710   2.376   4.509   9.586 -0.7257 -1.6074 -1.9895
 8751SOL     OW37711   0.759   4.528  10.728  0.3739 -0.4891 -0.4142
 8751SOL    HW137712   0.670   4.513  10.760  0.8646 -0.3130  1.0171
 8751SOL    HW237713   0.788   4.442  10.699  0.8118 -1.0923  1.8257
 8752SOL     OW37714   3.308   0.380  16.019 -0.3877  0.0734 -0.0441
 8752SOL    HW137715   3.349   0.435  15.952 -0.4473  2.6124  2.0230
 8752SOL    HW237716   3.369   0.391  16.091 -0.3858  1.3015 -0.2266
 8753SOL     OW37717   4.116   1.756  16.716 -0.4296  0.5349  0.2915
 8753SOL    HW137718   4.204   1.724  16.696 -0.6231  0.4965 -0.5052
 8753SOL    HW237719   4.122   1.850  16.732  2.3137  0.8352 -2.5785
 8754SOL     OW37720   2.900   0.213  10.911  0.1331 -0.1036  0.6007
 8754SOL    HW137721   2.929   0.212  11.002  2.2952  2.0795 -0.0591
 8754SOL    HW237722   2.912   0.303  10.879 -1.2799  0.0720  0.5228
 8755SOL     OW37723   3.426   0.459   1.075  0.5811  0.1196 -0.2918
 8755SOL    HW137724   3.344   0.467   1.124  0.2600  0.7058 -0.9218
 8755SOL    HW237725   3.490   0.446   1.145  1.9083 -0.9865 -1.7046
 8756SOL     OW37726   0.098   1.847   5.242  0.2240 -0.5583  0.3929
 8756SOL    HW137727   0.151   1.787   5.188 -1.1485  0.8323 -2.4997
 8756SOL    HW237728   0.168   1.908   5.265  0.1590 -0.3732  0.1070
 8757SOL     OW37729   3.210   0.821   7.532  0.5857 -0.0921 -0.0108
 8757SOL    HW137730   3.192   0.875   7.455  3.3814  0.7739 -0.0497
 8757SOL    HW237731   3.293   0.848   7.571 -0.4151  2.6574  0.2201
 8758SOL     OW37732   3.985   4.150   7.547 -0.6015 -0.1183  0.3476
 8758SOL    HW137733   4.016   4.178   7.633  1.4167  1.3519 -0.8596
 8758SOL    HW237734   4.010   4.058   7.541 -1.0200 -0.1807 -0.5119
 8759SOL     OW37735   2.005   0.911   4.528 -0.2222  0.0065 -0.2093
 8759SOL    HW137736   1.967   0.975   4.588 -2.0563 -0.8820 -0.4172
 8759SOL    HW237737   2.069   0.958   4.476  0.5604 -0.0055  0.7566
 8760SOL     OW37738   0.104   2.739   4.454  0.1355  0.5560  0.1321
 8760SOL    HW137739   0.135   2.760   4.543  0.9102 -0.8406  0.2038
 8760SOL    HW237740   0.187   2.726   4.408  0.3542  0.3747  0.5794
 8761SOL     OW37741   1.199   4.006   4.425  0.3071  0.9168  0.2151
 8761SOL    HW137742   1.230   4.079   4.372  0.6920  0.7993  0.2786
 8761SOL    HW237743   1.132   4.062   4.463 -0.3606 -0.3714  0.9508
 8762SOL     OW37744   2.806   1.143  13.145 -0.2289  0.7584 -0.5607
 8762SOL    HW137745   2.752   1.199  13.200  0.5543  0.9350  0.0153
 8762SOL    HW237746   2.753   1.113  13.070  0.7821  0.2917 -1.0889
 8763SOL     OW37747   2.810   0.326   6.093 -0.1434 -0.0889 -0.0741
 8763SOL    HW137748   2.714   0.327   6.086 -0.0201 -2.3381 -2.2999
 8763SOL    HW237749   2.825   0.253   6.032 -1.5036 -1.4715  1.2356
 8764SOL     OW37750   0.517   1.672   9.908  0.7222 -0.1404  0.2959
 8764SOL    HW137751   0.506   1.751   9.853  1.1644 -0.5357 -0.3645
 8764SOL    HW237752   0.609   1.675   9.933  1.0823 -1.8290 -0.8604
 8765SOL     OW37753   3.290   3.267   0.274  0.1683  0.6190 -0.8202
 8765SOL    HW137754   3.318   3.196   0.332 -0.9065  0.2798 -0.7064
 8765SOL    HW237755   3.198   3.279   0.297  0.3818  0.9737 -0.1566
 8766SOL     OW37756   1.362   2.847   6.753 -0.4146 -0.1721  0.8979
 8766SOL    HW137757   1.361   2.912   6.823  0.0266  1.7053 -0.8230
 8766SOL    HW237758   1.295   2.885   6.696  0.2108 -0.1844  0.1508
 8767SOL     OW37759   4.336   3.894  11.919  0.3324  0.4627  0.3567
 8767SOL    HW137760   4.245   3.921  11.903 -0.9796 -3.2278  1.5387
 8767SOL    HW237761   4.320   3.810  11.962  0.1705  0.3205  0.0183
 8768SOL     OW37762   1.799   4.559   2.745 -0.3297  0.0637 -0.2969
 8768SOL    HW137763   1.774   4.618   2.674 -1.4096 -1.3250 -1.0781
 8768SOL    HW237764   1.894   4.562   2.739 -0.2474  0.1321  1.1470
 8769SOL     OW37765   2.694   0.781   4.293 -0.2765  0.6224  0.0475
 8769SOL    HW137766   2.771   0.818   4.336  0.4838  0.8264 -1.5007
 8769SOL    HW237767   2.726   0.692   4.280  0.1236  0.6322  0.9764
 8770SOL     OW37768   3.089   1.228  11.649  0.3414 -0.5586 -0.0458
 8770SOL    HW137769   3.041   1.282  11.586  1.8426  0.5022 -0.2745
 8770SOL    HW237770   3.144   1.176  11.591  0.6218  0.9779 -1.1483
 8771SOL     OW37771   0.273   1.217   2.827  0.1704 -0.1486 -0.2973
 8771SOL    HW137772   0.225   1.176   2.754 -1.2093  1.4861 -0.3169
 8771SOL    HW237773   0.288   1.304   2.790  0.2841  0.1974  0.5694
 8772SOL     OW37774   3.019   0.737   6.770  0.3160 -0.2007 -0.6341
 8772SOL    HW137775   3.106   0.697   6.769  0.2789 -0.3496  1.8008
 8772SOL    HW237776   2.961   0.677   6.723  0.0055 -0.6263  0.2845
 8773SOL     OW37777   2.903   1.575   2.240  0.2991 -0.5355  0.4465
 8773SOL    HW137778   2.894   1.533   2.326 -0.2079 -1.3883 -0.0358
 8773SOL    HW237779   2.913   1.496   2.188 -0.5961  0.1297 -0.7208
 8774SOL     OW37780   2.959   0.902   5.717  0.6422 -0.0538  0.6703
 8774SOL    HW137781   2.917   0.842   5.779 -0.6047 -0.8402 -0.9388
 8774SOL    HW237782   2.922   0.987   5.740 -1.0721 -0.3326 -1.0290
 8775SOL     OW37783   1.800   1.184   4.297  0.0319  0.0587  0.1646
 8775SOL    HW137784   1.739   1.230   4.240 -1.5701 -0.5460  1.4198
 8775SOL    HW237785   1.782   1.090   4.289 -1.4735  0.4035 -0.4390
 8776SOL     OW37786   2.366   3.315   2.132 -0.3389 -0.2601 -0.1120
 8776SOL    HW137787   2.349   3.220   2.130 -1.4266 -0.0489 -0.9265
 8776SOL    HW237788   2.462   3.314   2.128 -0.3477 -2.7483  0.2321
 8777SOL     OW37789   0.308   3.975  10.380  0.0076  0.2428  0.5494
 8777SOL    HW137790   0.309   4.070  10.394  1.0242  0.2909  0.1702
 8777SOL    HW237791   0.384   3.957  10.435  0.6730 -0.4867 -0.6210
 8778SOL     OW37792   0.750   2.180   2.380  0.1055 -0.0459 -0.3374
 8778SOL    HW137793   0.795   2.121   2.319  3.1009  0.8374  1.0279
 8778SOL    HW237794   0.668   2.132   2.393  0.3613 -0.8673 -1.8098
 8779SOL     OW37795   2.928   3.951   7.107  0.3511 -0.5768 -0.1044
 8779SOL    HW137796   3.013   3.913   7.086  0.3604  0.2175 -1.4785
 8779SOL    HW237797   2.894   3.986   7.025  1.7242  2.3677  0.6040
 8780SOL     OW37798   4.698   2.724   9.061  0.0790 -0.1905 -0.4222
 8780SOL    HW137799   4.664   2.643   9.025 -0.5178  0.5761 -1.5844
 8780SOL    HW237800   4.679   2.780   8.985  1.2014 -0.1530 -0.6868
 8781SOL     OW37801   1.321   0.782   4.155 -0.2049  0.3732  0.0398
 8781SOL    HW137802   1.409   0.789   4.192 -0.3748  1.7597  0.1730
 8781SOL    HW237803   1.275   0.785   4.240 -0.1490  2.0732 -0.0037
 8782SOL     OW37804   0.052   1.780  10.230  0.4277 -0.4418 -0.3419
 8782SOL    HW137805   0.052   1.727  10.149 -1.0349  0.4583 -0.9226
 8782SOL    HW237806   0.144   1.765  10.252  0.4827 -0.0618 -0.3261
 8783SOL     OW37807   1.284   0.127  12.142  0.1445  0.1151  0.4257
 8783SOL    HW137808   1.302   0.217  12.115 -0.4260  0.5118  1.3728
 8783SOL    HW237809   1.280   0.069  12.066  1.7086 -0.6697  0.9326
 8784SOL     OW37810   2.632   3.305   4.259 -0.2142 -0.1979  0.0375
 8784SOL    HW137811   2.610   3.250   4.334  0.0998 -0.5955 -0.1617
 8784SOL    HW237812   2.683   3.368   4.310  2.9528 -0.5647 -2.6759
 8785SOL     OW37813   4.137   2.222   5.953 -0.0229 -0.1068  0.7218
 8785SOL    HW137814   4.189   2.278   5.896 -1.4243  0.1031 -0.3324
 8785SOL    HW237815   4.051   2.256   5.932  1.1084  1.3943 -1.4419
 8786SOL     OW37816   2.678   3.745   5.605 -0.1112  0.5253 -0.3663
 8786SOL    HW137817   2.661   3.651   5.606 -0.2718  0.5476 -0.9255
 8786SOL    HW237818   2.611   3.784   5.548 -0.1497  0.6070 -0.2662
 8787SOL     OW37819   1.392   0.427   2.358  0.5423 -0.1993  0.4766
 8787SOL    HW137820   1.358   0.389   2.438 -0.1681  0.9163  0.6999
 8787SOL    HW237821   1.310   0.462   2.323  0.4692  0.4245  1.2669
 8788SOL     OW37822   2.046   0.390  10.796 -0.0226 -0.1495  0.3478
 8788SOL    HW137823   2.113   0.457  10.809 -1.8180  0.9757  3.7389
 8788SOL    HW237824   1.991   0.420  10.724 -3.0854  0.0666  2.7780
 8789SOL     OW37825   1.142   1.964  15.558 -0.4518 -0.1704  0.3875
 8789SOL    HW137826   1.136   1.923  15.644 -0.9642  0.6739  0.7583
 8789SOL    HW237827   1.059   1.936  15.520 -1.4250  0.3175  2.1342
 8790SOL     OW37828   3.216   4.699   8.329 -0.0890  0.1804 -0.5818
 8790SOL    HW137829   3.264   4.710   8.246  1.3527  1.2889  0.3878
 8790SOL    HW237830   3.147   4.635   8.312 -1.9191  2.5547 -1.9553
 8791SOL     OW37831   0.498   4.504   0.967 -0.5961 -0.0702 -0.3577
 8791SOL    HW137832   0.551   4.428   0.991 -0.5030 -0.1479 -0.8061
 8791SOL    HW237833   0.470   4.534   1.054  1.5047  0.5723  0.0801
 8792SOL     OW37834   1.448   1.457   6.534 -0.1199  0.0667  0.4277
 8792SOL    HW137835   1.478   1.451   6.624  0.2892  1.5318  0.3868
 8792SOL    HW237836   1.535   1.459   6.495  0.0217  1.0293  0.7874
 8793SOL     OW37837   2.665   0.481  15.146  0.0762 -0.4761 -0.2177
 8793SOL    HW137838   2.663   0.387  15.162 -1.7761 -0.0633  1.9032
 8793SOL    HW237839   2.601   0.521  15.204  2.2379  0.5991  1.4594
 8794SOL     OW37840   1.727   2.177   1.962  0.0292 -0.0371  0.4209
 8794SOL    HW137841   1.708   2.116   2.033 -2.3766 -0.1138 -0.3104
 8794SOL    HW237842   1.814   2.210   1.986  0.6601  0.1659 -2.2031
 8795SOL     OW37843   1.846   4.301  16.222  0.3520 -0.2415  0.5438
 8795SOL    HW137844   1.906   4.285  16.150 -0.2008 -0.6439  0.1768
 8795SOL    HW237845   1.846   4.397  16.229 -0.2350 -0.0097 -2.9012
 8796SOL     OW37846   2.959   2.051   6.718 -0.2937 -0.3573 -0.0238
 8796SOL    HW137847   2.889   2.103   6.758 -0.8238 -0.9404 -0.1844
 8796SOL    HW237848   2.951   2.098   6.635  1.5665  0.1374  0.0900
 8797SOL     OW37849   2.926   3.388   7.707 -0.2777 -0.1830  0.6685
 8797SOL    HW137850   2.886   3.339   7.635 -2.7909  3.9611 -0.7611
 8797SOL    HW237851   2.894   3.343   7.785  0.4922 -1.7512  0.0735
 8798SOL     OW37852   2.915   3.331  11.776  0.0757  0.1571 -1.0912
 8798SOL    HW137853   2.966   3.308  11.699  0.1845  0.7750 -1.2044
 8798SOL    HW237854   2.976   3.388  11.822 -1.0823 -0.2005  0.8893
 8799SOL     OW37855   3.976   3.516   8.973 -0.4141  0.4367  0.2656
 8799SOL    HW137856   4.071   3.522   8.982 -0.2776 -1.3574 -0.1056
 8799SOL    HW237857   3.957   3.424   8.991 -0.8663  0.2256 -1.2862
 8800SOL     OW37858   4.372   2.727   3.604  0.5719 -0.0896 -0.2011
 8800SOL    HW137859   4.446   2.717   3.665 -1.2513  1.0649  2.1849
 8800SOL    HW237860   4.423   2.716   3.524  1.5296 -1.5524  0.6038
 8801SOL     OW37861   2.969   3.698  14.811  0.0930  0.0784 -0.0798
 8801SOL    HW137862   2.925   3.688  14.726 -2.5343  0.0588  1.2913
 8801SOL    HW237863   2.902   3.675  14.875  0.5724 -2.3337 -0.4407
 8802SOL     OW37864   0.152   3.850  15.613 -0.1630 -0.1127  0.0934
 8802SOL    HW137865   0.193   3.932  15.585 -1.4881 -0.1865 -2.0479
 8802SOL    HW237866   0.141   3.805  15.529  1.8821  2.4638 -1.5513
 8803SOL     OW37867   0.158   4.373   0.342 -0.2829 -0.2924 -0.1169
 8803SOL    HW137868   0.224   4.308   0.367 -0.0977  0.2448  0.8064
 8803SOL    HW237869   0.170   4.386   0.248 -0.1327 -1.1169 -0.2155
 8804SOL     OW37870   4.424   3.685  16.521  0.0674 -0.1454 -0.3471
 8804SOL    HW137871   4.498   3.744  16.536  1.1263 -1.0759 -1.9401
 8804SOL    HW237872   4.448   3.655  16.434  3.1669  1.9334 -0.1896
 8805SOL     OW37873   4.656   0.788   1.870  0.0550  0.1852  0.5346
 8805SOL    HW137874   4.702   0.858   1.915  0.8254 -0.1709  0.2893
 8805SOL    HW237875   4.589   0.764   1.935 -0.7150  1.4484  0.2044
 8806SOL     OW37876   2.129   0.653   8.003 -0.6232 -0.3548 -0.5422
 8806SOL    HW137877   2.114   0.739   8.043  2.1137 -0.4327  0.6357
 8806SOL    HW237878   2.221   0.632   8.019 -0.3650 -0.1739 -1.8396
 8807SOL     OW37879   1.230   0.660   2.009  0.0803  1.0152  0.2674
 8807SOL    HW137880   1.274   0.676   2.092  1.1854  0.0567 -0.1396
 8807SOL    HW237881   1.149   0.711   2.012 -1.8622 -1.9852 -1.2073
 8808SOL     OW37882   0.303   2.598   8.354 -0.6270 -0.3385 -0.0326
 8808SOL    HW137883   0.386   2.613   8.400 -1.0697  1.9986  0.0269
 8808SOL    HW237884   0.337   2.593   8.265  1.5312 -0.8020  0.8202
 8809SOL     OW37885   1.813   3.787   5.888  0.4528 -0.2505  0.3482
 8809SOL    HW137886   1.809   3.883   5.885 -1.8039 -0.3392  0.3376
 8809SOL    HW237887   1.841   3.752   5.804  0.4594 -3.3569  1.6486
 8810SOL     OW37888   0.704   3.708   7.700 -0.1098  0.0689  0.6378
 8810SOL    HW137889   0.634   3.742   7.757 -0.4779  0.0282  0.2106
 8810SOL    HW237890   0.691   3.614   7.715 -1.0342  0.0056 -0.5978
 8811SOL     OW37891   2.124   3.718  10.629  0.0369 -0.0218 -0.2816
 8811SOL    HW137892   2.218   3.727  10.618 -0.0676  1.7614  0.1776
 8811SOL    HW237893   2.105   3.652  10.563 -2.3359 -0.3284  0.6856
 8812SOL     OW37894   3.524   2.047  15.704 -0.4147  0.4835  0.1740
 8812SOL    HW137895   3.545   2.106  15.631  1.1093 -0.1013  0.1333
 8812SOL    HW237896   3.520   2.122  15.763 -0.6842  0.6579 -0.0639
 8813SOL     OW37897   3.402   0.710   4.442  0.6971 -0.0033 -0.9155
 8813SOL    HW137898   3.434   0.775   4.379  1.6728 -0.3033 -0.7268
 8813SOL    HW237899   3.407   0.637   4.381 -0.9041  0.1101 -1.1958
 8814SOL     OW37900   2.670   3.047   5.530  0.2830  0.2146 -0.1714
 8814SOL    HW137901   2.736   2.998   5.480  1.8803  2.1872 -0.0083
 8814SOL    HW237902   2.589   3.027   5.483  0.2406 -1.2672  0.5374
 8815SOL     OW37903   2.403   0.214   4.505  0.1939 -0.1501  0.2741
 8815SOL    HW137904   2.314   0.206   4.471 -0.5515 -2.1577  2.6776
 8815SOL    HW237905   2.382   0.287   4.564 -1.6872 -0.2858 -0.2304
 8816SOL     OW37906   0.386   2.439   1.872  0.0840 -0.1766  0.4732
 8816SOL    HW137907   0.473   2.478   1.864  0.1887 -0.1665  1.6951
 8816SOL    HW237908   0.394   2.359   1.924 -2.3860  1.3513  3.2022
 8817SOL     OW37909   2.569   1.574   1.864  0.1450  0.3902  0.0221
 8817SOL    HW137910   2.581   1.669   1.866 -1.0390  0.5094  1.4879
 8817SOL    HW237911   2.654   1.550   1.828 -0.9738 -2.0478 -1.0339
 8818SOL     OW37912   1.309   3.460   3.069  0.0855  0.0371  0.4254
 8818SOL    HW137913   1.375   3.390   3.074 -1.7202 -1.5236  2.5456
 8818SOL    HW237914   1.355   3.542   3.083  0.4077 -0.2401  0.9761
 8819SOL     OW37915   1.229   3.965   5.045  0.0451  0.1226  0.8064
 8819SOL    HW137916   1.229   4.060   5.038  0.6765  0.1166  0.6321
 8819SOL    HW237917   1.247   3.948   4.952 -2.2837  0.7450  0.2660
 8820SOL     OW37918   0.673   2.259   3.443 -0.2188  0.1016 -0.2655
 8820SOL    HW137919   0.673   2.312   3.363 -2.0283  1.2851  0.5134
 8820SOL    HW237920   0.749   2.202   3.436  0.3938  1.0358 -1.2076
 8821SOL     OW37921   4.120   0.775  16.565 -0.3426  0.2362 -0.1137
 8821SOL    HW137922   4.139   0.809  16.653 -1.0070 -0.6021  0.3483
 8821SOL    HW237923   4.052   0.712  16.589 -0.4853  0.4181 -0.0388
 8822SOL     OW37924   2.043   0.064  10.225  0.7449  0.2790 -0.0214
 8822SOL    HW137925   2.054   0.147  10.180 -1.0888  0.7371  0.3772
 8822SOL    HW237926   2.083   0.080  10.311  1.9136 -1.7097 -0.1724
 8823SOL     OW37927   4.304   4.519   8.675  0.4193  0.2718 -0.4459
 8823SOL    HW137928   4.302   4.614   8.672  0.1609  0.3192  1.3116
 8823SOL    HW237929   4.356   4.507   8.595  1.3878 -1.8126  0.4744
 8824SOL     OW37930   3.748   3.340  12.084 -0.1027 -0.0142  0.1001
 8824SOL    HW137931   3.702   3.414  12.124 -0.6237  0.3685 -1.1934
 8824SOL    HW237932   3.810   3.392  12.032 -0.2380  0.5102  0.4679
 8825SOL     OW37933   1.338   3.505  16.692 -0.8129 -0.3177  0.1408
 8825SOL    HW137934   1.366   3.504  16.783  3.6547  2.5705 -1.2023
 8825SOL    HW237935   1.273   3.575  16.687  0.7745  1.2255  1.1074
 8826SOL     OW37936   1.743   1.326   1.225  0.6010 -0.4060 -0.6534
 8826SOL    HW137937   1.794   1.342   1.304  0.6285 -1.9365 -0.3794
 8826SOL    HW237938   1.740   1.418   1.198 -0.0435 -0.1589  0.2569
 8827SOL     OW37939   0.242   1.985   3.971 -0.1232  0.1419 -0.1363
 8827SOL    HW137940   0.212   1.993   3.880 -0.6243  0.4694  0.0619
 8827SOL    HW237941   0.331   1.950   3.962 -0.2051 -0.2606  0.7142
 8828SOL     OW37942   0.673   2.870   7.600 -0.6503 -0.1447 -0.1164
 8828SOL    HW137943   0.722   2.790   7.579 -0.4892 -0.2866  0.7739
 8828SOL    HW237944   0.638   2.893   7.514  0.0101  2.4523  0.3322
 8829SOL     OW37945   4.573   0.764   2.955  0.2679 -0.8383 -0.5367
 8829SOL    HW137946   4.639   0.730   3.015  2.7628  1.8418 -1.7631
 8829SOL    HW237947   4.507   0.798   3.015 -0.8634  0.0317 -2.2571
 8830SOL     OW37948   2.045   4.289  11.838  0.3045 -0.1321  0.0554
 8830SOL    HW137949   2.029   4.212  11.783  0.0237  0.1879 -0.3119
 8830SOL    HW237950   2.132   4.260  11.864  0.4392  0.2748  0.0591
 8831SOL     OW37951   1.892   0.844  10.454  0.3809 -0.0653  0.1858
 8831SOL    HW137952   1.818   0.782  10.449  0.7635 -0.4572 -0.7107
 8831SOL    HW237953   1.913   0.858  10.361 -1.0024 -0.8935 -0.2468
 8832SOL     OW37954   2.675   0.337   7.472  0.3717  0.1523  0.5006
 8832SOL    HW137955   2.709   0.417   7.511 -1.5939  1.1520  0.1945
 8832SOL    HW237956   2.685   0.266   7.536 -2.9465  0.5046  1.4195
 8833SOL     OW37957   3.192   0.312   4.260 -0.1816 -0.4697  0.0822
 8833SOL    HW137958   3.259   0.369   4.222  0.2280 -1.2323 -0.3392
 8833SOL    HW237959   3.165   0.369   4.332  0.0869 -1.1381  0.7062
 8834SOL     OW37960   2.198   3.208  12.270 -0.3917  0.1405  0.7571
 8834SOL    HW137961   2.240   3.196  12.354  1.5659 -2.3906 -0.5894
 8834SOL    HW237962   2.214   3.300  12.247  2.0759 -0.1489  1.3346
 8835SOL     OW37963   1.520   2.609   1.696 -0.2913 -0.0428  0.1420
 8835SOL    HW137964   1.574   2.683   1.724 -0.8971  0.4330  0.0422
 8835SOL    HW237965   1.561   2.543   1.753 -2.2442  0.2993  1.9475
 8836SOL     OW37966   2.415   0.876   7.899 -0.2712 -0.3059 -0.4576
 8836SOL    HW137967   2.365   0.918   7.969  2.3140  0.2503  1.0351
 8836SOL    HW237968   2.498   0.858   7.944  1.1088 -0.8391 -3.2580
 8837SOL     OW37969   3.982   0.736  14.760 -0.6268 -0.4887 -0.3629
 8837SOL    HW137970   4.003   0.695  14.844 -2.4807  0.8609  0.7546
 8837SOL    HW237971   4.038   0.686  14.701  1.1877 -1.1512  1.9028
 8838SOL     OW37972   3.233   1.864   1.184  0.0304  0.5446  0.2954
 8838SOL    HW137973   3.203   1.848   1.273  0.2769  0.1974  0.3173
 8838SOL    HW237974   3.154   1.837   1.137  0.9510 -1.7033  0.0220
 8839SOL     OW37975   3.535   3.688   8.642  0.1474 -0.0323  0.2510
 8839SOL    HW137976   3.465   3.691   8.577  0.7227  1.4405 -0.2926
 8839SOL    HW237977   3.549   3.779   8.667  2.5428 -0.3998  0.2711
 8840SOL     OW37978   1.264   3.908  17.002  0.4512 -0.5272  0.2963
 8840SOL    HW137979   1.289   3.828  16.956  0.9625 -0.2108  0.0262
 8840SOL    HW237980   1.353   3.932  17.026 -0.1196 -0.1535  2.0451
 8841SOL     OW37981   4.217   2.032  13.168 -0.0064 -0.1667  0.0911
 8841SOL    HW137982   4.219   2.107  13.227 -1.6306 -1.7215  2.1162
 8841SOL    HW237983   4.133   2.050  13.126  0.5025  1.1355 -0.3651
 8842SOL     OW37984   0.013   3.959  15.188  0.2871 -0.2984  0.4014
 8842SOL    HW137985   0.013   3.974  15.093  1.1278  0.2977  0.4951
 8842SOL    HW237986   0.089   3.901  15.189 -0.7675 -1.6770  1.1583
 8843SOL     OW37987   1.793   4.695  16.318  0.4377 -0.6834  0.5035
 8843SOL    HW137988   1.800   0.056  16.276 -0.1049 -0.7763  0.2222
 8843SOL    HW237989   1.700   4.675  16.305 -0.1371  2.8107 -0.7036
 8844SOL     OW37990   0.510   4.536   6.035  0.1678 -0.1245 -0.1290
 8844SOL    HW137991   0.592   4.497   6.065 -0.1517  0.1358  1.0563
 8844SOL    HW237992   0.469   4.548   6.120  0.4174  0.3705 -0.0755
 8845SOL     OW37993   4.209   1.653  14.915 -0.3057  0.1845 -0.1218
 8845SOL    HW137994   4.221   1.740  14.877 -0.9655 -0.3088 -1.4684
 8845SOL    HW237995   4.183   1.614  14.832 -2.0872 -0.5805  0.8094
 8846SOL     OW37996   3.380   4.331   4.497  0.2934  0.3627  0.1978
 8846SOL    HW137997   3.378   4.404   4.436 -1.3682  0.2655  0.1385
 8846SOL    HW237998   3.350   4.367   4.580 -0.7618  0.9713 -0.4540
 8847SOL     OW37999   0.347   2.808  11.770 -0.0083 -0.3436  0.2826
 8847SOL    HW138000   0.356   2.876  11.836 -2.1190  0.4126 -0.2106
 8847SOL    HW238001   0.344   2.732  11.828 -2.3655 -1.7291 -1.6750
 8848SOL     OW38002   2.699   4.087   7.576 -0.3486  0.2287  0.6105
 8848SOL    HW138003   2.608   4.114   7.590 -0.9857 -1.9254  0.6861
 8848SOL    HW238004   2.671   3.999   7.549  0.6105 -0.1418  0.8309
 8849SOL     OW38005   4.209   0.723   2.182 -0.4243 -0.3053  0.2690
 8849SOL    HW138006   4.223   0.679   2.266  0.2626 -0.4859  0.0559
 8849SOL    HW238007   4.237   0.652   2.124 -0.8447 -1.8180  1.9083
 8850SOL     OW38008   0.768   2.992  10.474  0.3257 -0.2922  0.1792
 8850SOL    HW138009   0.747   2.964  10.385 -1.1054  0.9072  0.1580
 8850SOL    HW238010   0.702   3.058  10.491  0.0275 -0.5935  0.1937
 8851SOL     OW38011   1.592   1.189   5.750 -0.1860  0.0645 -0.0518
 8851SOL    HW138012   1.581   1.277   5.714 -0.3245  0.9464  2.1773
 8851SOL    HW238013   1.508   1.162   5.786 -1.0213  1.7048 -0.7534
 8852SOL     OW38014   4.053   0.728   4.679 -1.0041  0.2428 -0.6337
 8852SOL    HW138015   3.985   0.792   4.658 -1.2376  0.0569 -0.4395
 8852SOL    HW238016   3.999   0.657   4.712 -0.2968  0.3795  0.8008
 8853SOL     OW38017   1.260   3.962   1.945  0.0648 -0.0138 -0.1365
 8853SOL    HW138018   1.322   4.020   1.902 -0.7788  0.4353 -0.7428
 8853SOL    HW238019   1.307   3.929   2.021  0.2007  1.0353  0.2244
 8854SOL     OW38020   3.277   1.614  14.555  0.1639 -0.5269  0.3908
 8854SOL    HW138021   3.204   1.668  14.585  0.3418 -0.9826  1.6476
 8854SOL    HW238022   3.338   1.647  14.621  0.7734  1.9858 -1.4298
 8855SOL     OW38023   1.342   2.737   7.978 -0.3387 -0.1047 -0.5818
 8855SOL    HW138024   1.289   2.791   7.919  0.5703 -1.0131 -2.2190
 8855SOL    HW238025   1.266   2.688   8.009  0.3703 -0.0065  1.3359
 8856SOL     OW38026   3.103   2.971  15.051  0.5631 -0.1126  0.0588
 8856SOL    HW138027   3.081   3.010  14.966  0.7968  1.4083  0.7144
 8856SOL    HW238028   3.138   3.042  15.103  1.8877 -2.2223  2.0299
 8857SOL     OW38029   1.886   3.956   7.088  0.0511 -0.0264  0.0728
 8857SOL    HW138030   1.965   4.010   7.082  0.2416 -0.4210 -0.9795
 8857SOL    HW238031   1.920   3.867   7.073 -0.3246 -0.2927  0.8118
 8858SOL     OW38032   1.650   3.312   5.859  0.7957 -0.7771 -0.0407
 8858SOL    HW138033   1.654   3.216   5.865 -0.7159 -0.7892  0.6299
 8858SOL    HW238034   1.609   3.334   5.775 -0.1558 -1.6749  0.1834
 8859SOL     OW38035   3.198   3.194  10.153 -0.1483 -0.1997  0.0961
 8859SOL    HW138036   3.231   3.143  10.227 -0.8380 -0.3346  0.3072
 8859SOL    HW238037   3.227   3.138  10.081  1.4667  0.2910  0.3631
 8860SOL     OW38038   4.356   1.226   3.923  0.3234 -0.0533  0.7153
 8860SOL    HW138039   4.323   1.162   3.860 -0.1212  0.2954  0.5879
 8860SOL    HW238040   4.295   1.202   3.993  0.7940  0.9263  1.4573
 8861SOL     OW38041   2.907   1.629  11.243  0.2542 -0.4325  0.2572
 8861SOL    HW138042   2.846   1.608  11.313 -0.0457  1.0820  0.4370
 8861SOL    HW238043   2.979   1.568  11.260  0.0712 -0.7041  0.0614
 8862SOL     OW38044   2.523   0.251   6.469 -0.6216 -0.4296 -0.4805
 8862SOL    HW138045   2.447   0.196   6.448  0.8131 -3.1551  1.4789
 8862SOL    HW238046   2.592   0.195   6.435  0.4948  0.0074  1.0849
 8863SOL     OW38047   0.251   0.177  16.141 -0.1932 -0.0144 -0.2978
 8863SOL    HW138048   0.251   0.214  16.052 -1.9364  0.2586 -0.1925
 8863SOL    HW238049   0.341   0.154  16.161  0.8142  2.2479 -2.2005
 8864SOL     OW38050   0.052   3.498   4.299  0.0561  0.6438 -0.5756
 8864SOL    HW138051   0.044   3.544   4.383 -2.6829  0.7700 -0.8958
 8864SOL    HW238052   0.062   3.408   4.328 -0.4487  1.5632  2.4723
 8865SOL     OW38053   0.054   3.100  12.963  0.0531 -0.5869  0.0112
 8865SOL    HW138054   0.068   3.020  13.013  2.7183 -0.4950 -0.5960
 8865SOL    HW238055   0.089   3.159  13.029 -1.5695  0.4582 -0.0602
 8866SOL     OW38056   3.207   1.880  12.356 -0.4406 -0.3327 -0.0189
 8866SOL    HW138057   3.186   1.820  12.428  1.1679  0.6267  1.2514
 8866SOL    HW238058   3.142   1.857  12.289  0.7017  1.3717 -1.6826
 8867SOL     OW38059   0.515   3.888  10.789 -0.2151 -0.3551  0.5407
 8867SOL    HW138060   0.606   3.884  10.820  0.0435  2.7358  0.1698
 8867SOL    HW238061   0.490   3.966  10.839 -0.6901 -0.3581  0.3001
 8868SOL     OW38062   4.501   2.623   6.350 -0.3712  0.3349  0.0886
 8868SOL    HW138063   4.484   2.634   6.443  0.2025  1.1270  0.0989
 8868SOL    HW238064   4.462   2.535   6.349 -1.9915  1.0848 -2.0493
 8869SOL     OW38065   1.621   3.724   6.067 -0.0926 -0.7319 -0.2067
 8869SOL    HW138066   1.679   3.715   5.991 -2.2511  0.3868 -2.0046
 8869SOL    HW238067   1.660   3.794   6.119  1.2444 -0.7983 -1.1059
 8870SOL     OW38068   0.329   1.713   6.211  0.1448 -0.0484 -0.3224
 8870SOL    HW138069   0.416   1.695   6.175 -0.1292  0.0906 -1.0453
 8870SOL    HW238070   0.301   1.621   6.206  0.4988 -0.0978 -1.3794
 8871SOL     OW38071   0.505   1.360   6.481 -0.1695 -0.0784 -0.4174
 8871SOL    HW138072   0.549   1.440   6.452  2.8766 -2.2707 -1.7245
 8871SOL    HW238073   0.440   1.407   6.533  0.4447  1.4337 -1.0292
 8872SOL     OW38074   0.812   0.368   8.321  0.6533  0.1278 -0.0895
 8872SOL    HW138075   0.901   0.402   8.313 -0.2977  2.5547 -0.6501
 8872SOL    HW238076   0.810   0.307   8.248  0.8946 -0.7217  0.6127
 8873SOL     OW38077   0.217   3.227   3.539  0.2464  0.2335  0.1101
 8873SOL    HW138078   0.168   3.270   3.610 -0.0298  0.8756 -0.4687
 8873SOL    HW238079   0.166   3.152   3.508  0.8669  0.6226 -1.8212
 8874SOL     OW38080   2.366   2.792   4.048 -0.1284  0.2984  0.1640
 8874SOL    HW138081   2.406   2.792   3.961 -1.1915  0.2475 -0.3273
 8874SOL    HW238082   2.410   2.867   4.087  1.6098 -1.6474  1.9888
 8875SOL     OW38083   1.169   4.356   1.248  0.2242 -0.4401  0.2918
 8875SOL    HW138084   1.206   4.436   1.284  0.8054 -2.2218  3.6544
 8875SOL    HW238085   1.235   4.311   1.196 -2.1507 -2.2230 -1.1854
 8876SOL     OW38086   4.484   2.265   2.917  0.4632  0.7987  0.3161
 8876SOL    HW138087   4.557   2.326   2.908  0.1923  0.8984 -1.2327
 8876SOL    HW238088   4.436   2.278   2.835  1.5650 -0.4600 -0.5214
 8877SOL     OW38089   3.048   0.950  14.432  0.3924  0.0261 -0.3613
 8877SOL    HW138090   2.994   0.925  14.507 -0.6162  1.8347 -0.4892
 8877SOL    HW238091   3.072   1.035  14.468  0.3938 -0.1711  0.0988
 8878SOL     OW38092   4.446   4.229   7.492  0.5240  0.5548 -0.4723
 8878SOL    HW138093   4.430   4.135   7.486 -1.2694  0.8188  0.1494
 8878SOL    HW238094   4.443   4.246   7.586 -0.2417 -1.3695 -0.1404
 8879SOL     OW38095   0.328   1.299  13.358 -0.3038 -0.0296  0.1634
 8879SOL    HW138096   0.248   1.261  13.393 -0.4223 -0.6264 -0.7508
 8879SOL    HW238097   0.395   1.248  13.403  0.7257  1.1513 -0.0270
 8880SOL     OW38098   3.391   3.235   7.209 -0.1900 -0.0271  0.4462
 8880SOL    HW138099   3.480   3.268   7.220  0.0412 -0.7494  0.6845
 8880SOL    HW238100   3.388   3.149   7.250 -1.8479 -0.3650 -0.3475
 8881SOL     OW38101   1.700   3.194   4.250  0.2960  0.0164  0.3184
 8881SOL    HW138102   1.704   3.104   4.282  1.3837 -0.6943 -1.8218
 8881SOL    HW238103   1.788   3.197   4.212 -0.0898 -0.5839 -0.6196
 8882SOL     OW38104   3.996   0.820  13.649  0.4307  0.4425 -0.2715
 8882SOL    HW138105   3.984   0.898  13.703  1.1148 -0.4101  1.1388
 8882SOL    HW238106   3.909   0.792  13.623  0.4681  0.6721 -0.6363
 8883SOL     OW38107   4.476   4.402  13.614  0.1908  0.0449  0.3253
 8883SOL    HW138108   4.480   4.397  13.519 -0.1547  0.3423  0.2970
 8883SOL    HW238109   4.387   4.368  13.626 -0.3609  1.0066 -1.0616
 8884SOL     OW38110   1.047   0.528   3.930  0.2428  0.0728 -0.2828
 8884SOL    HW138111   1.041   0.513   3.836  0.7481  3.3029 -0.8228
 8884SOL    HW238112   0.957   0.508   3.955  0.6877  0.4507  1.6024
 8885SOL     OW38113   2.189   2.647   6.073 -0.0389 -0.0343 -0.1399
 8885SOL    HW138114   2.241   2.725   6.088 -2.5285  1.4731  0.5892
 8885SOL    HW238115   2.103   2.690   6.072 -0.0519 -0.0002  1.6807
 8886SOL     OW38116   1.772   2.387   0.422 -0.1558  0.1053 -0.7202
 8886SOL    HW138117   1.695   2.341   0.454 -0.9133 -0.6913 -3.6925
 8886SOL    HW238118   1.725   2.461   0.383  0.2380  0.5514 -0.3598
 8887SOL     OW38119   3.436   2.560  10.783 -0.2774  0.2766 -0.5107
 8887SOL    HW138120   3.490   2.627  10.826 -2.4483  0.7058  1.5570
 8887SOL    HW238121   3.370   2.548  10.851  0.9332  2.9423  1.1645
 8888SOL     OW38122   3.548   1.440  14.706  0.1308 -0.2645  0.2898
 8888SOL    HW138123   3.586   1.411  14.789  1.5875 -2.7038 -1.2172
 8888SOL    HW238124   3.496   1.517  14.727 -1.8820 -1.3829 -0.6139
 8889SOL     OW38125   3.218   4.217  17.166  0.2724  0.3855 -0.3464
 8889SOL    HW138126   3.166   4.137  17.170 -0.9158  0.9406 -4.3792
 8889SOL    HW238127   3.251   4.210  17.255  0.2927 -0.9620 -0.4656
 8890SOL     OW38128   1.278   2.035   6.492  0.2242 -0.2462  0.4574
 8890SOL    HW138129   1.197   2.047   6.542  0.4457 -1.2332  1.0420
 8890SOL    HW238130   1.265   1.953   6.446 -0.4293 -0.1056  0.3923
 8891SOL     OW38131   3.400   0.209   2.170 -0.3916 -0.7076  0.3603
 8891SOL    HW138132   3.319   0.213   2.222 -0.9552  0.2459 -0.6117
 8891SOL    HW238133   3.454   0.271   2.219  1.0060 -0.8601 -1.0182
 8892SOL     OW38134   1.099   1.492   9.586  0.0467  0.4515 -0.9598
 8892SOL    HW138135   1.033   1.431   9.554 -0.2625  0.7590 -0.9174
 8892SOL    HW238136   1.175   1.453   9.545  0.7361  0.0344  0.7049
 8893SOL     OW38137   3.800   1.363   8.643 -0.1290  0.2181 -0.3286
 8893SOL    HW138138   3.847   1.324   8.569  0.9743 -1.5931  1.3374
 8893SOL    HW238139   3.882   1.396   8.679 -0.9695 -0.0243  1.8024
 8894SOL     OW38140   0.870   0.801  15.912  0.0207 -0.7088  0.1243
 8894SOL    HW138141   0.927   0.761  15.977 -0.7103  0.8902  1.7468
 8894SOL    HW238142   0.876   0.729  15.849 -1.3137  1.7601 -2.8543
 8895SOL     OW38143   1.817   3.493  13.195 -0.3877 -0.1396 -0.0532
 8895SOL    HW138144   1.779   3.574  13.228 -1.1499 -0.6293  0.2699
 8895SOL    HW238145   1.769   3.489  13.112  1.0456 -0.1391 -0.8867
 8896SOL     OW38146   0.348   1.855   1.694 -0.1628  0.2799 -0.0687
 8896SOL    HW138147   0.362   1.769   1.654 -0.6155 -0.0216  0.4284
 8896SOL    HW238148   0.342   1.897   1.608 -0.9423  0.3654  0.0299
 8897SOL     OW38149   1.063   1.260   6.213 -0.0677  0.0908 -0.2335
 8897SOL    HW138150   1.098   1.342   6.250  1.0906 -0.6949  0.4123
 8897SOL    HW238151   1.100   1.191   6.268 -0.3976  0.0432 -0.0738
 8898SOL     OW38152   3.912   1.276  11.421  0.0078  0.4884 -0.0138
 8898SOL    HW138153   3.866   1.246  11.343  0.0470  0.3270  0.0239
 8898SOL    HW238154   3.997   1.233  11.415 -0.1446  0.1329  0.3397
 8899SOL     OW38155   2.726   1.988  10.296  0.0638  0.3138  0.5865
 8899SOL    HW138156   2.639   1.952  10.314 -0.3888  1.2767  0.2647
 8899SOL    HW238157   2.744   2.021  10.384 -0.7259  0.1679  0.8091
 8900SOL     OW38158   1.477   0.382   3.026 -0.0746 -0.3714 -0.0306
 8900SOL    HW138159   1.503   0.393   2.934 -0.3739 -0.0620 -0.0770
 8900SOL    HW238160   1.385   0.410   3.025  0.4851  1.4227 -2.4425
 8901SOL     OW38161   4.335   1.022  11.078  0.0382  0.5558 -0.3322
 8901SOL    HW138162   4.246   1.054  11.061 -1.4766 -2.0631  2.6765
 8901SOL    HW238163   4.364   0.955  11.017  0.8642  0.2691  0.3759
 8902SOL     OW38164   2.600   3.113   5.799  0.0213  0.2479 -0.1175
 8902SOL    HW138165   2.626   3.082   5.712  0.8892 -0.4004  0.3763
 8902SOL    HW238166   2.682   3.132   5.845  0.4354  1.7992 -1.4997
 8903SOL     OW38167   3.614   3.890  13.130  0.5178  0.1613  0.4632
 8903SOL    HW138168   3.601   3.886  13.225 -1.1557  1.2160  0.2644
 8903SOL    HW238169   3.678   3.818  13.125 -0.8783 -0.9581 -1.2751
 8904SOL     OW38170   2.527   1.692   7.084 -0.3427  0.3389 -0.3411
 8904SOL    HW138171   2.434   1.706   7.100 -0.0727  1.4777  0.2070
 8904SOL    HW238172   2.570   1.775   7.105  0.2894 -0.1805  0.4285
 8905SOL     OW38173   2.832   0.069   5.975 -0.0857 -0.6252  0.8414
 8905SOL    HW138174   2.788   0.089   5.892  0.4670  2.0313  1.1912
 8905SOL    HW238175   2.809   4.703   5.991  0.6207 -0.8807  0.3857
 8906SOL     OW38176   4.485   1.136   5.128 -0.2109 -0.3908  0.2414
 8906SOL    HW138177   4.459   1.139   5.036 -0.8675 -0.3530  0.4289
 8906SOL    HW238178   4.570   1.093   5.122  0.2387  0.5453 -0.1618
 8907SOL     OW38179   1.653   3.101   0.534  0.5817 -0.8181  0.4598
 8907SOL    HW138180   1.640   3.056   0.618 -1.9712 -0.4674  0.2661
 8907SOL    HW238181   1.681   3.022   0.489  3.1330  1.0013 -1.1467
 8908SOL     OW38182   1.434   0.752   5.116  0.1757 -0.1234 -0.7199
 8908SOL    HW138183   1.483   0.824   5.076 -0.6213  0.6460 -0.3149
 8908SOL    HW238184   1.377   0.715   5.049 -0.6259  0.4203 -0.3359
 8909SOL     OW38185   3.388   0.593  13.375  0.2777  0.0890  0.0915
 8909SOL    HW138186   3.331   0.664  13.406  0.8696  0.9954 -0.8946
 8909SOL    HW238187   3.345   0.564  13.295  2.8705 -2.5184 -0.3179
 8910SOL     OW38188   4.212   4.687   5.180 -0.1402 -0.4258  0.6062
 8910SOL    HW138189   4.263   4.609   5.199 -1.8066 -1.1139  2.2474
 8910SOL    HW238190   4.276   0.021   5.141 -0.6601 -1.1280 -1.2882
 8911SOL     OW38191   0.182   3.445   3.262 -0.5972  1.1735 -0.5784
 8911SOL    HW138192   0.127   3.500   3.318  2.2618  1.9551  1.4938
 8911SOL    HW238193   0.143   3.359   3.273  0.6755  0.9285  2.1018
 8912SOL     OW38194   0.935   3.684   5.394 -0.0017 -0.2242 -0.4130
 8912SOL    HW138195   0.994   3.614   5.365 -0.7153 -0.3569 -1.5859
 8912SOL    HW238196   0.975   3.755   5.343 -0.0906  2.4022  3.2464
 8913SOL     OW38197   0.498   0.291   6.938 -0.7102  0.2045  0.0327
 8913SOL    HW138198   0.452   0.349   6.877 -1.9547 -0.2084  0.5944
 8913SOL    HW238199   0.579   0.343   6.939  2.2897 -4.4350  1.4167
 8914SOL     OW38200   2.100   3.434   4.966 -0.0441 -0.8902  0.0781
 8914SOL    HW138201   2.036   3.437   5.037  0.8792 -0.4998  0.9031
 8914SOL    HW238202   2.074   3.503   4.905  4.5137  1.5456  0.8412
 8915SOL     OW38203   1.678   3.820  10.219  0.2514 -0.7026  0.1163
 8915SOL    HW138204   1.752   3.854  10.168 -0.5470 -2.6895 -2.3880
 8915SOL    HW238205   1.667   3.894  10.279  1.3495 -1.9570  1.8544
 8916SOL     OW38206   0.658   3.740  11.482 -0.5217 -0.7027  0.4339
 8916SOL    HW138207   0.683   3.814  11.538  0.8677 -0.9772  0.1616
 8916SOL    HW238208   0.665   3.665  11.541  1.4766 -1.2644 -0.5325
 8917SOL     OW38209   3.858   0.417   4.043 -0.5361  0.2423  0.6929
 8917SOL    HW138210   3.769   0.390   4.064 -0.8628  1.8995  1.4026
 8917SOL    HW238211   3.844   0.502   4.002 -2.0233 -0.6528 -0.6670
 8918SOL     OW38212   1.536   4.362   5.362  0.1048 -0.1547  0.0731
 8918SOL    HW138213   1.516   4.440   5.311 -0.7734  0.7418  1.7709
 8918SOL    HW238214   1.450   4.322   5.376 -0.6230  0.8378 -1.5904
 8919SOL     OW38215   1.675   2.913   0.121 -0.0080 -0.1441  0.0654
 8919SOL    HW138216   1.624   2.889   0.198  0.5528 -1.2792  0.0791
 8919SOL    HW238217   1.610   2.911   0.051 -0.1389  0.3850  0.1744
 8920SOL     OW38218   1.607   1.217  11.391 -0.3613  0.4755  0.3389
 8920SOL    HW138219   1.519   1.181  11.385 -0.9816  1.9538  0.5213
 8920SOL    HW238220   1.653   1.137  11.367 -0.9653  0.2756 -0.1657
 8921SOL     OW38221   3.043   0.191   7.124 -0.2216 -0.0587 -0.2569
 8921SOL    HW138222   2.989   0.266   7.150  1.7821  1.4829 -0.5163
 8921SOL    HW238223   3.129   0.230   7.106  0.5947 -1.6301  0.2896
 8922SOL     OW38224   3.421   3.041   8.964  0.8465  0.2911 -0.2680
 8922SOL    HW138225   3.433   2.947   8.976 -1.4033  0.0774  0.2770
 8922SOL    HW238226   3.358   3.066   9.032  1.6442  1.3850  0.0689
 8923SOL     OW38227   3.998   4.690   3.338 -0.1856 -0.2120  0.3216
 8923SOL    HW138228   4.088   4.694   3.307  0.0814 -0.1938  1.0941
 8923SOL    HW238229   3.975   0.058   3.340 -2.0925 -0.6223 -2.3921
 8924SOL     OW38230   4.588   3.894   5.691 -0.4408 -0.0561  1.2116
 8924SOL    HW138231   4.510   3.908   5.746 -0.0568 -2.2296  2.3247
 8924SOL    HW238232   4.597   3.981   5.653  0.0068 -0.1633  1.0711
 8925SOL     OW38233   4.038   3.216  17.667 -0.5532 -0.0115 -0.1218
 8925SOL    HW138234   4.069   3.294   0.012  0.5133  0.6389 -1.9060
 8925SOL    HW238235   4.115   3.198  17.612  0.3455  3.2772  0.0704
 8926SOL     OW38236   0.483   1.574   7.592 -0.7241 -0.5827 -0.0574
 8926SOL    HW138237   0.500   1.495   7.541  3.4316 -1.1859  2.1956
 8926SOL    HW238238   0.566   1.615   7.567 -1.0291 -0.0542 -0.2001
 8927SOL     OW38239   1.435   1.854   2.954  0.4068 -0.1722  0.2129
 8927SOL    HW138240   1.406   1.941   2.981  0.3273 -0.4446  1.0105
 8927SOL    HW238241   1.353   1.808   2.973  0.0582 -0.0119 -0.8929
 8928SOL     OW38242   3.140   0.367   3.573 -0.2016  0.3811  0.1591
 8928SOL    HW138243   3.125   0.273   3.564 -0.3742  0.5341 -1.0466
 8928SOL    HW238244   3.225   0.377   3.531  1.0267 -1.2207  2.2755
 8929SOL     OW38245   0.189   3.777   8.859  0.0242 -0.7413 -0.1735
 8929SOL    HW138246   0.238   3.741   8.785  1.7235 -1.6452  1.4124
 8929SOL    HW238247   0.258   3.820   8.908 -1.1903  0.1072  0.7878
 8930SOL     OW38248   4.348   2.160   9.524 -0.1886 -0.9844  0.3813
 8930SOL    HW138249   4.407   2.166   9.448  1.5247 -1.4385  1.6568
 8930SOL    HW238250   4.291   2.236   9.529  2.2747  0.7696  1.6935
 8931SOL     OW38251   3.550   1.053  13.994 -0.5026 -0.0058  0.0892
 8931SOL    HW138252   3.535   1.144  14.020 -0.7506 -0.0095 -0.0409
 8931SOL    HW238253   3.646   1.049  14.004 -0.6086  0.2802  1.2602
 8932SOL     OW38254   0.757   2.383  12.851  0.2277 -0.2165  0.0671
 8932SOL    HW138255   0.821   2.319  12.879 -1.3129  0.7287  5.7721
 8932SOL    HW238256   0.812   2.434  12.792 -0.1547  0.6292  0.4371
 8933SOL     OW38257   4.254   2.920   1.926  0.3064 -0.8837 -0.4237
 8933SOL    HW138258   4.166   2.923   1.890 -0.3978 -0.3351  1.3567
 8933SOL    HW238259   4.241   2.870   2.007 -1.2181  2.2247  1.2224
 8934SOL     OW38260   0.218   1.007   5.415 -0.6792  0.4831  0.3775
 8934SOL    HW138261   0.303   1.008   5.372 -0.3487  0.3863  1.0251
 8934SOL    HW238262   0.163   0.993   5.338 -2.0174 -2.5310  1.8804
 8935SOL     OW38263   0.059   3.939   9.867  0.4442 -0.1607 -0.0243
 8935SOL    HW138264   0.005   4.012   9.897 -0.2244  0.0465 -1.7868
 8935SOL    HW238265   0.032   3.864   9.921 -1.2749  0.2017 -0.3807
 8936SOL     OW38266   2.687   1.582   5.221 -0.6470 -0.0168 -0.4855
 8936SOL    HW138267   2.690   1.489   5.246 -2.2211  0.0719  0.0468
 8936SOL    HW238268   2.694   1.566   5.127  0.9171 -0.3698 -0.3126
 8937SOL     OW38269   4.105   3.712   4.429 -0.5865 -0.1340  0.6303
 8937SOL    HW138270   4.062   3.642   4.379  0.4823  0.2231 -0.7921
 8937SOL    HW238271   4.186   3.672   4.460 -0.9687 -2.4163 -1.2613
 8938SOL     OW38272   1.605   2.525   2.768  0.3587 -0.4728 -0.3014
 8938SOL    HW138273   1.681   2.518   2.711 -0.1997  0.5783 -1.1685
 8938SOL    HW238274   1.543   2.457   2.741 -3.4210  3.4884 -1.4851
 8939SOL     OW38275   3.635   0.712   7.170 -0.0455 -0.1656  0.0989
 8939SOL    HW138276   3.648   0.618   7.157  0.0206 -0.1895  0.3349
 8939SOL    HW238277   3.716   0.723   7.220 -0.9849  0.3695  1.4829
 8940SOL     OW38278   1.078   3.244   3.880 -0.2064  0.1654 -0.1927
 8940SOL    HW138279   1.064   3.321   3.825  0.4140  0.0769 -0.4723
 8940SOL    HW238280   1.093   3.170   3.822 -1.2255 -0.4959  0.3929
 8941SOL     OW38281   0.540   1.361   3.208 -0.4615  0.0293  0.1046
 8941SOL    HW138282   0.588   1.291   3.251  1.2968  0.1290 -1.6710
 8941SOL    HW238283   0.478   1.314   3.152  0.6427 -0.2601 -0.8878
 8942SOL     OW38284   0.009   0.758  13.923  1.0408 -0.0433 -0.6640
 8942SOL    HW138285   0.039   0.706  13.998 -1.4567  2.2360  1.9011
 8942SOL    HW238286   0.085   0.814  13.911  1.2805 -0.1951  0.1323
 8943SOL     OW38287   1.723   1.898   4.513 -0.1243  0.4010 -0.0598
 8943SOL    HW138288   1.657   1.967   4.503 -1.4731 -0.8774  0.0046
 8943SOL    HW238289   1.757   1.900   4.602  3.3235 -0.8162 -1.3358
 8944SOL     OW38290   2.904   2.122   3.838  0.5143 -0.3590 -0.0277
 8944SOL    HW138291   2.840   2.083   3.780 -1.6495 -0.3481  2.3590
 8944SOL    HW238292   2.902   2.216   3.820  4.2889 -0.0464  1.0638
 8945SOL     OW38293   2.361   4.198  16.005  0.1772 -0.0038 -0.0893
 8945SOL    HW138294   2.418   4.258  15.957  1.4464 -2.0396 -1.1229
 8945SOL    HW238295   2.328   4.142  15.934 -1.4185 -0.2456  0.8361
 8946SOL     OW38296   0.381   3.144   3.311  0.2802  0.2196 -0.4784
 8946SOL    HW138297   0.286   3.154   3.301 -0.0586 -3.0711 -0.5799
 8946SOL    HW238298   0.405   3.219   3.365  0.1719  0.0599 -0.2090
 8947SOL     OW38299   4.653   4.384   2.574  0.4193  0.1989 -0.5292
 8947SOL    HW138300   0.023   4.372   2.587  0.3396 -1.7090 -1.7257
 8947SOL    HW238301   4.634   4.297   2.539  0.9006 -0.3922  0.6740
 8948SOL     OW38302   1.045   2.759   6.966  0.1087 -0.0875 -0.0900
 8948SOL    HW138303   1.140   2.757   6.959  0.0089  0.4432 -1.6415
 8948SOL    HW238304   1.025   2.668   6.985  1.4503  0.1103  2.2797
 8949SOL     OW38305   1.795   4.400   3.956  0.0910 -0.0736 -0.1148
 8949SOL    HW138306   1.757   4.328   4.006 -2.4757  1.7373  0.5295
 8949SOL    HW238307   1.715   4.445   3.929 -0.4894  1.1424  3.7132
 8950SOL     OW38308   3.116   1.995  11.166 -0.2755  0.7622 -0.0565
 8950SOL    HW138309   3.101   2.081  11.127  0.7425 -0.7167 -3.7436
 8950SOL    HW238310   3.053   1.941  11.119 -0.1889  0.8869 -0.3168
 8951SOL     OW38311   3.897   2.044   6.060  0.4021 -0.4640  0.8468
 8951SOL    HW138312   3.872   1.952   6.048 -1.5835  0.0900  0.8778
 8951SOL    HW238313   3.876   2.079   5.974  0.8225 -0.8189  0.5957
 8952SOL     OW38314   0.299   1.810  11.671 -0.0735 -0.6252  0.0623
 8952SOL    HW138315   0.349   1.771  11.742  0.5006  0.2599  0.1394
 8952SOL    HW238316   0.229   1.745  11.665 -0.5605 -0.1886  1.0599
 8953SOL     OW38317   0.930   3.493   2.400 -0.3835  0.0190  0.2456
 8953SOL    HW138318   0.859   3.517   2.342 -1.8419 -1.5551  1.3621
 8953SOL    HW238319   0.977   3.434   2.341  0.9354  1.0564  0.2536
 8954SOL     OW38320   3.327   4.498   6.534 -0.2365  0.9588 -0.0850
 8954SOL    HW138321   3.274   4.423   6.506 -1.3575  1.2333  1.2605
 8954SOL    HW238322   3.260   4.557   6.570 -0.0330  1.5640 -0.7069
 8955SOL     OW38323   3.632   4.286   4.330  0.0014  0.0446 -0.0231
 8955SOL    HW138324   3.584   4.259   4.407 -0.3287 -1.6631 -0.8410
 8955SOL    HW238325   3.581   4.273   4.250 -1.4491  1.0038  0.7446
 8956SOL     OW38326   3.241   2.447   6.086  0.4427 -0.3798 -0.0717
 8956SOL    HW138327   3.271   2.392   6.014 -2.3275 -0.6329 -1.0558
 8956SOL    HW238328   3.157   2.484   6.057 -0.0960 -0.4622  1.3783
 8957SOL     OW38329   2.910   0.516   3.529 -0.3646 -0.6321 -0.8235
 8957SOL    HW138330   2.861   0.497   3.609  0.1300 -1.3412 -0.6906
 8957SOL    HW238331   2.980   0.452   3.539  0.9126  1.2777  2.4057
 8958SOL     OW38332   1.933   1.434   5.867  0.2824  0.8740  0.1616
 8958SOL    HW138333   1.993   1.508   5.877  1.2632  0.1169 -0.1279
 8958SOL    HW238334   1.880   1.465   5.793 -0.2847 -2.4449 -0.8607
 8959SOL     OW38335   3.656   3.234   5.961  0.1075 -0.0323  0.4160
 8959SOL    HW138336   3.668   3.235   5.867 -0.5145  1.2825  0.3421
 8959SOL    HW238337   3.628   3.324   5.976  1.1302  0.5813 -1.3726
 8960SOL     OW38338   2.565   4.618   1.503 -0.3101 -0.5121 -0.1000
 8960SOL    HW138339   2.627   4.547   1.486 -1.0814 -1.3765  0.6828
 8960SOL    HW238340   2.554   4.672   1.424  0.9261  1.4374  1.0545
 8961SOL     OW38341   1.274   1.271   1.524  0.1896 -0.0743 -0.1510
 8961SOL    HW138342   1.241   1.292   1.437  0.3625  1.2336  0.0998
 8961SOL    HW238343   1.249   1.180   1.541  2.1342 -0.5022  0.4192
 8962SOL     OW38344   0.551   0.004   1.196 -0.1721  0.1805 -0.2876
 8962SOL    HW138345   0.523   4.638   1.194  1.1408 -0.2363  0.6916
 8962SOL    HW238346   0.465   0.040   1.171  0.5302  1.1933 -1.2395
 8963SOL     OW38347   0.690   2.210  13.835 -0.5230  0.7100 -0.2691
 8963SOL    HW138348   0.680   2.132  13.889  0.5501  0.5168 -0.3471
 8963SOL    HW238349   0.774   2.243  13.867  0.3331 -1.3206 -0.4629
 8964SOL     OW38350   1.186   2.372   4.372  0.1557  0.4002 -0.1065
 8964SOL    HW138351   1.124   2.301   4.360  1.8381 -1.0380 -0.3374
 8964SOL    HW238352   1.206   2.383   4.279 -0.5864 -3.0492 -0.6559
 8965SOL     OW38353   0.736   3.207   2.318 -0.2751  0.3210  0.2184
 8965SOL    HW138354   0.711   3.289   2.361 -1.7240 -0.1548  0.3099
 8965SOL    HW238355   0.651   3.169   2.294  0.5136 -1.6389  0.5633
 8966SOL     OW38356   3.843   0.891   6.257 -0.6648 -0.1384  0.5008
 8966SOL    HW138357   3.850   0.926   6.346 -1.4088 -1.0307  0.9126
 8966SOL    HW238358   3.874   0.965   6.205 -1.7472  1.8799  2.7232
 8967SOL     OW38359   3.758   4.389   9.777 -0.0319 -1.6397  0.2131
 8967SOL    HW138360   3.760   4.483   9.761 -1.2275 -2.0912 -2.6283
 8967SOL    HW238361   3.704   4.377   9.856 -1.8160  0.2116 -0.7253
 8968SOL     OW38362   4.234   1.721  13.931 -0.2929  0.0303  0.9259
 8968SOL    HW138363   4.290   1.759  13.999 -1.0371 -0.4493  1.8144
 8968SOL    HW238364   4.208   1.638  13.971 -0.2350  0.6311  2.1984
 8969SOL     OW38365   1.654   3.993   3.893 -0.2237  0.0682  0.4210
 8969SOL    HW138366   1.616   4.080   3.907 -0.9866  0.1274 -1.9911
 8969SOL    HW238367   1.666   3.995   3.798  1.5263  1.7998  0.6684
 8970SOL     OW38368   0.567   0.010   4.428  0.5754 -0.2582  0.0215
 8970SOL    HW138369   0.537   4.667   4.488 -1.8767  0.8617  0.1030
 8970SOL    HW238370   0.571   0.090   4.481 -0.2552 -0.6713  0.6978
 8971SOL     OW38371   4.084   1.556   8.058 -0.5577  0.4476 -0.1834
 8971SOL    HW138372   4.097   1.509   7.976 -0.4084 -0.1941  0.2092
 8971SOL    HW238373   4.059   1.492   8.125  0.1844 -0.0282 -0.3659
 8972SOL     OW38374   0.423   3.222   1.975 -0.7184 -0.4155 -0.2962
 8972SOL    HW138375   0.492   3.173   1.930  0.1494 -0.1524  0.7456
 8972SOL    HW238376   0.466   3.264   2.050 -2.5716 -1.6463  1.4630
 8973SOL     OW38377   4.079   0.730  17.576 -0.4830  0.4952 -0.2421
 8973SOL    HW138378   3.991   0.721  17.539  0.9224 -0.3449 -3.3685
 8973SOL    HW238379   4.066   0.756  17.667  1.3347  0.1091  0.1419
 8974SOL     OW38380   2.970   1.265   7.919 -0.3788  0.4257  0.4209
 8974SOL    HW138381   3.034   1.336   7.922 -0.2336  0.3255 -0.2355
 8974SOL    HW238382   2.967   1.256   7.824  0.3142  1.0367  0.3430
 8975SOL     OW38383   2.236   4.337   3.561  0.2516 -0.4454  0.1656
 8975SOL    HW138384   2.229   4.273   3.491  1.6221 -1.2818  0.8005
 8975SOL    HW238385   2.330   4.351   3.556  0.0526  0.0132 -2.1327
 8976SOL     OW38386   1.235   2.902   7.784 -0.3697 -0.0325  0.1777
 8976SOL    HW138387   1.244   2.936   7.695 -1.0756 -2.2186 -0.7072
 8976SOL    HW238388   1.139   2.907   7.781 -0.4547 -0.4800  2.1429
 8977SOL     OW38389   1.354   0.373   8.694  0.3068  0.2085  0.0069
 8977SOL    HW138390   1.388   0.446   8.641  0.6536  0.0449  0.0031
 8977SOL    HW238391   1.374   0.411   8.779  1.5481 -0.2486 -0.0762
 8978SOL     OW38392   4.324   0.068   9.306  0.6116  0.4999  0.2621
 8978SOL    HW138393   4.337   0.125   9.382 -1.9449 -1.0366  1.8549
 8978SOL    HW238394   4.411   0.033   9.286 -0.0264 -2.1118  2.0984
 8979SOL     OW38395   1.062   2.035   7.996  0.1250 -0.4576  0.0210
 8979SOL    HW138396   1.050   2.130   8.004 -0.0249 -0.5024  0.3258
 8979SOL    HW238397   0.972   2.008   7.981 -0.2604  1.3999 -1.0418
 8980SOL     OW38398   1.479   3.209   1.886 -0.1782  0.5477  0.3713
 8980SOL    HW138399   1.499   3.116   1.878 -1.8612  0.2154 -0.0118
 8980SOL    HW238400   1.385   3.202   1.901 -0.2048  0.6821  0.2657
 8981SOL     OW38401   3.801   2.032   0.379 -0.0367 -0.2979  0.3582
 8981SOL    HW138402   3.728   2.094   0.385 -0.6780 -1.0229  0.0217
 8981SOL    HW238403   3.880   2.085   0.363  0.0333 -1.0264 -1.6311
 8982SOL     OW38404   0.213   2.703   3.085  0.1551 -0.2164 -0.2668
 8982SOL    HW138405   0.254   2.777   3.039 -0.0864  0.2500  0.2637
 8982SOL    HW238406   0.241   2.636   3.023  2.0167  0.6589 -0.3784
 8983SOL     OW38407   4.338   1.400   6.917 -0.0595 -0.1329  0.0726
 8983SOL    HW138408   4.348   1.492   6.894 -0.4629  0.2127  1.2644
 8983SOL    HW238409   4.403   1.396   6.987 -1.2895  3.2193  1.4157
 8984SOL     OW38410   3.071   1.450   0.232 -0.2955 -0.3224  0.5919
 8984SOL    HW138411   3.125   1.528   0.238 -1.2336  0.4717 -1.1787
 8984SOL    HW238412   3.125   1.371   0.241  1.6042  0.8732 -0.2747
 8985SOL     OW38413   4.313   2.388  13.508  0.0397  0.2137 -0.1677
 8985SOL    HW138414   4.402   2.371  13.477  0.1337 -0.7801  0.6276
 8985SOL    HW238415   4.270   2.324  13.451  0.4664 -1.0587  0.9317
 8986SOL     OW38416   1.761   0.151  14.308 -0.5450 -0.5087 -0.5889
 8986SOL    HW138417   1.835   0.137  14.248  0.6635 -1.0656  1.0469
 8986SOL    HW238418   1.777   0.245  14.322 -0.4597 -0.5827 -0.1932
 8987SOL     OW38419   2.117   1.649   4.291 -0.2061 -0.9409 -0.1398
 8987SOL    HW138420   2.064   1.569   4.290  0.6775 -1.5314  1.1608
 8987SOL    HW238421   2.115   1.658   4.386 -0.1971 -1.8341 -0.0575
 8988SOL     OW38422   1.664   2.834  15.267 -0.0538  0.4361 -0.2334
 8988SOL    HW138423   1.570   2.844  15.283 -0.1557 -0.3260 -0.3450
 8988SOL    HW238424   1.651   2.814  15.174 -1.6333  0.4883 -0.0268
 8989SOL     OW38425   0.020   3.322   8.760  0.2346  0.0850 -0.4377
 8989SOL    HW138426   4.651   3.314   8.744 -0.2368  2.5968  1.0690
 8989SOL    HW238427   0.031   3.393   8.823  4.8176 -0.3033 -0.8102
 8990SOL     OW38428   1.153   1.267  16.476  0.0263 -0.6041 -0.5298
 8990SOL    HW138429   1.169   1.362  16.473 -1.1576 -0.3872 -0.0875
 8990SOL    HW238430   1.078   1.253  16.417 -0.7272 -1.5440  0.6570
 8991SOL     OW38431   1.499   3.561   5.495  0.0073  0.1578  0.1594
 8991SOL    HW138432   1.459   3.475   5.491 -0.8974  0.5946 -0.2154
 8991SOL    HW238433   1.582   3.526   5.527 -0.2316 -0.6025 -0.0664
 8992SOL     OW38434   3.201   4.471  17.007  0.1187  0.4890 -0.4478
 8992SOL    HW138435   3.146   4.490  16.930  0.0733 -0.0705 -0.5549
 8992SOL    HW238436   3.245   4.389  16.983  0.1064  0.8616 -1.7528
 8993SOL     OW38437   4.423   4.076   7.826 -0.3950  0.1946 -0.0696
 8993SOL    HW138438   4.415   4.171   7.818  2.4886  0.4074 -0.2424
 8993SOL    HW238439   4.400   4.068   7.918 -2.8173  0.0670 -0.6797
 8994SOL     OW38440   3.998   4.553   8.341 -0.2556 -0.8241 -0.5064
 8994SOL    HW138441   3.924   4.520   8.391 -0.8925 -0.0576 -0.9348
 8994SOL    HW238442   4.003   4.644   8.372  0.4950 -1.0629  0.0803
 8995SOL     OW38443   1.878   0.315   7.968 -0.5118  0.2182  0.1705
 8995SOL    HW138444   1.878   0.220   7.975  0.3331  0.2850  1.0261
 8995SOL    HW238445   1.922   0.354   8.044  0.6994 -0.2804 -0.2852
 8996SOL     OW38446   1.624   1.251  10.012  0.4236  0.0243 -0.3223
 8996SOL    HW138447   1.603   1.338  10.046  0.3996 -0.0996 -0.0198
 8996SOL    HW238448   1.541   1.208  10.031  1.4447 -2.2527 -1.0524
 8997SOL     OW38449   2.124   1.271   7.689 -0.0299  0.0829  0.2071
 8997SOL    HW138450   2.033   1.241   7.682  0.2445 -1.0316  1.3351
 8997SOL    HW238451   2.174   1.194   7.663  0.1808 -0.0629  1.0465
 8998SOL     OW38452   3.862   1.712   5.725 -0.2911 -0.1854  0.0891
 8998SOL    HW138453   3.877   1.714   5.819 -0.1416 -0.6009  0.0731
 8998SOL    HW238454   3.949   1.689   5.693 -0.3951  0.9236 -1.0025
 8999SOL     OW38455   4.195   1.305   2.488  0.1015  0.2204  0.0896
 8999SOL    HW138456   4.120   1.327   2.542  1.5239 -0.1563  2.2016
 8999SOL    HW238457   4.152   1.234   2.439 -0.0848  2.1303 -2.5133
 9000SOL     OW38458   4.399   4.539   7.477 -0.3072  0.2865  0.0420
 9000SOL    HW138459   4.451   4.546   7.397  0.0542 -0.5934  0.2051
 9000SOL    HW238460   4.364   4.450   7.476 -1.5367  0.7773 -0.8914
 9001SOL     OW38461   2.044   1.559   7.043 -0.4805 -0.7467  0.1741
 9001SOL    HW138462   1.970   1.607   7.008  0.6912  1.7989  1.1717
 9001SOL    HW238463   2.076   1.499   6.975  0.8976  0.7437 -0.5026
 9002SOL     OW38464   1.406   3.246   7.340 -0.2038 -0.1501  0.3395
 9002SOL    HW138465   1.477   3.302   7.307 -0.6827  1.0549  1.3744
 9002SOL    HW238466   1.413   3.252   7.436  0.9670 -0.9553  0.3112
 9003SOL     OW38467   2.666   2.280   5.719  0.1605 -0.1438 -0.3748
 9003SOL    HW138468   2.703   2.338   5.786 -1.3722 -0.4189  0.7219
 9003SOL    HW238469   2.663   2.336   5.642 -1.9070  1.1595  0.6302
 9004SOL     OW38470   0.307   4.054   5.511 -0.2705 -0.3760  0.4585
 9004SOL    HW138471   0.273   4.026   5.596 -2.6490  1.2644  0.0588
 9004SOL    HW238472   0.295   3.975   5.458  0.7663 -0.0267 -0.2868
 9005SOL     OW38473   2.635   1.260   6.596 -0.1226  0.4827 -0.1322
 9005SOL    HW138474   2.637   1.250   6.501  0.5056 -0.7953  0.0163
 9005SOL    HW238475   2.694   1.334   6.614  1.2499 -0.8200  0.7143
 9006SOL     OW38476   1.006   1.581   2.470 -0.0890 -0.1096  0.1231
 9006SOL    HW138477   1.077   1.621   2.421 -0.9329 -0.5368 -1.4489
 9006SOL    HW238478   0.932   1.632   2.437 -0.7099 -0.1813  1.3986
 9007SOL     OW38479   2.061   3.267  17.142 -0.0761  0.5400  0.1988
 9007SOL    HW138480   1.972   3.239  17.124  1.1325 -1.4738 -2.5408
 9007SOL    HW238481   2.076   3.245  17.234 -1.2324  0.2208  0.3072
 9008SOL     OW38482   0.432   1.727  11.883 -0.5306 -0.0247 -0.3583
 9008SOL    HW138483   0.526   1.726  11.864 -0.4592 -1.3606  0.0774
 9008SOL    HW238484   0.426   1.735  11.978  0.6586 -0.2029 -0.2629
 9009SOL     OW38485   4.430   1.607   8.423 -0.7288  0.6194 -0.0169
 9009SOL    HW138486   4.523   1.630   8.428  0.0900 -3.0168  1.9627
 9009SOL    HW238487   4.422   1.586   8.330 -1.4071 -3.4934  0.9695
 9010SOL     OW38488   0.700   3.337   0.758 -0.2610  0.9466 -0.1477
 9010SOL    HW138489   0.773   3.313   0.815 -0.7795 -1.7016 -0.5983
 9010SOL    HW238490   0.667   3.411   0.809 -1.7079  1.3695 -1.7097
 9011SOL     OW38491   1.042   3.691   2.038 -0.1143 -0.0411  0.0841
 9011SOL    HW138492   1.058   3.777   1.999  0.9582  0.3739  1.4124
 9011SOL    HW238493   1.055   3.714   2.130 -0.2192  2.5844 -0.5411
 9012SOL     OW38494   1.952   1.101   6.718  0.0409 -0.2210  0.1607
 9012SOL    HW138495   1.930   1.109   6.810 -2.6955  0.9890 -0.5944
 9012SOL    HW238496   1.952   1.006   6.705  2.5578 -0.0213 -1.4099
 9013SOL     OW38497   1.740   2.956  12.194 -0.2777  0.7766  0.1611
 9013SOL    HW138498   1.820   3.008  12.184 -0.2750  0.8778  0.6962
 9013SOL    HW238499   1.700   2.948  12.108 -0.1672  0.1768  0.1643
 9014SOL     OW38500   1.429   3.044  10.261  0.5250  0.2004 -0.0306
 9014SOL    HW138501   1.469   3.047  10.174  0.2399 -0.3532 -0.1782
 9014SOL    HW238502   1.506   3.076  10.310  0.8934  1.5424 -1.4726
 9015SOL     OW38503   3.509   1.241   3.304  0.0723 -0.1426  0.1001
 9015SOL    HW138504   3.513   1.298   3.227 -0.6317 -0.6389 -0.2994
 9015SOL    HW238505   3.601   1.216   3.300 -0.4854 -2.0126 -0.8426
 9016SOL     OW38506   0.974   1.199  16.281  0.4282 -0.2362  0.1549
 9016SOL    HW138507   0.884   1.170  16.266  0.1138  1.7371 -1.6984
 9016SOL    HW238508   1.014   1.190  16.195  0.3159  0.6059  0.0231
 9017SOL     OW38509   3.149   3.496   3.199  0.0392 -0.2410  0.2804
 9017SOL    HW138510   3.080   3.431   3.203 -0.0664 -0.1852 -0.8255
 9017SOL    HW238511   3.118   3.556   3.268  2.1875  0.8800  0.3055
 9018SOL     OW38512   2.099   2.160  15.540 -0.1329  0.6027 -0.1692
 9018SOL    HW138513   2.025   2.100  15.534  1.6830 -1.4570 -2.5809
 9018SOL    HW238514   2.059   2.242  15.513  1.2400  1.7036  1.1515
 9019SOL     OW38515   3.555   3.715   1.901 -0.3279  0.0599  0.3998
 9019SOL    HW138516   3.475   3.687   1.856 -0.1577  0.6209 -0.2622
 9019SOL    HW238517   3.607   3.743   1.825 -0.0403  0.7537  0.8476
 9020SOL     OW38518   3.537   3.692  13.898 -0.2158  0.2200  0.2688
 9020SOL    HW138519   3.548   3.729  13.811 -0.7963 -2.1192 -0.8161
 9020SOL    HW238520   3.623   3.717  13.932  0.1511 -1.3175  0.4656
 9021SOL     OW38521   3.657   1.549   2.933  0.2623  0.2462 -0.0750
 9021SOL    HW138522   3.601   1.597   2.872 -0.9359  0.5744  1.2732
 9021SOL    HW238523   3.730   1.607   2.953  0.1771  0.2164  0.3210
 9022SOL     OW38524   2.818   3.271   7.472  0.1474 -0.0737 -0.3755
 9022SOL    HW138525   2.769   3.189   7.468  2.6002 -1.6208  1.6367
 9022SOL    HW238526   2.885   3.252   7.407  0.0473 -0.1571 -0.4538
 9023SOL     OW38527   1.073   0.554   5.092 -0.1561 -0.0574 -0.2117
 9023SOL    HW138528   1.046   0.478   5.040 -1.7899 -1.3789  2.6112
 9023SOL    HW238529   1.150   0.585   5.043 -0.9044  0.2188 -1.2225
 9024SOL     OW38530   2.049   4.433   6.924 -0.3279  0.1594 -0.6070
 9024SOL    HW138531   1.993   4.505   6.953 -1.8765 -0.0287 -3.1874
 9024SOL    HW238532   1.974   4.379   6.900 -0.0271 -1.0579  1.1631
 9025SOL     OW38533   2.132   2.884  16.279  0.2960 -0.3025 -0.1798
 9025SOL    HW138534   2.074   2.925  16.343  0.8396 -0.6422  0.5286
 9025SOL    HW238535   2.109   2.918  16.193  1.5903  0.5637 -0.1869
 9026SOL     OW38536   0.308   2.549   2.863  0.1164  0.3946  0.3366
 9026SOL    HW138537   0.254   2.522   2.788  0.5542  0.3187  0.0532
 9026SOL    HW238538   0.374   2.482   2.878 -0.3463 -0.4584 -1.4974
 9027SOL     OW38539   4.523   4.456   4.675 -0.9692 -0.3742 -0.1676
 9027SOL    HW138540   4.614   4.431   4.655 -0.4394 -0.1458  1.9597
 9027SOL    HW238541   4.475   4.423   4.599  0.7528  0.3642 -1.6102
 9028SOL     OW38542   2.078   0.987   9.893  0.7020 -0.0923  0.8275
 9028SOL    HW138543   2.158   1.040   9.901  2.2789 -2.4257  0.4009
 9028SOL    HW238544   2.012   1.038   9.941 -0.4066 -0.5643 -0.2226
 9029SOL     OW38545   2.255   0.908  14.470 -0.2819 -0.2501  0.3202
 9029SOL    HW138546   2.226   0.990  14.431  0.0823 -0.5609 -0.5872
 9029SOL    HW238547   2.344   0.902  14.438 -0.9447 -1.5773 -1.2814
 9030SOL     OW38548   4.492   3.071   9.970  0.0112  0.4043  0.2447
 9030SOL    HW138549   4.485   3.082  10.065  0.1115 -3.8236  0.7664
 9030SOL    HW238550   4.473   3.161   9.944 -0.6939  0.2814  0.3245
 9031SOL     OW38551   0.350   0.346   4.218 -0.3265  0.0561  0.4054
 9031SOL    HW138552   0.415   0.280   4.194 -1.3755 -0.0486 -2.1726
 9031SOL    HW238553   0.327   0.324   4.309 -1.0543 -0.2905  0.1382
 9032SOL     OW38554   4.653   3.603   7.341  0.2468 -0.2735 -0.0995
 9032SOL    HW138555   4.670   3.612   7.247  1.1704  0.3068  0.1168
 9032SOL    HW238556   4.558   3.614   7.342  0.1904 -0.6210 -1.2802
 9033SOL     OW38557   0.451   2.760   4.786 -0.2429  0.0625  0.4456
 9033SOL    HW138558   0.371   2.812   4.795 -0.0732  0.3463  0.3195
 9033SOL    HW238559   0.462   2.760   4.691  1.1436 -1.3986  0.5960
 9034SOL     OW38560   0.763   3.528   4.765  0.1996 -0.2366 -0.4910
 9034SOL    HW138561   0.676   3.542   4.803 -0.4421  0.7191 -2.2663
 9034SOL    HW238562   0.744   3.465   4.696 -0.9284  0.9661 -1.2941
 9035SOL     OW38563   0.418   2.712   5.590  0.1126 -0.0826  0.6137
 9035SOL    HW138564   0.503   2.736   5.626  1.3232 -3.0763 -0.2371
 9035SOL    HW238565   0.407   2.618   5.599  1.7759 -0.4230 -0.9084
 9036SOL     OW38566   0.310   0.225   3.605 -0.5117 -0.1313  0.0446
 9036SOL    HW138567   0.315   0.284   3.680 -1.8204 -0.3118  0.2708
 9036SOL    HW238568   0.237   0.165   3.619  0.0800 -0.5062  1.4978
 9037SOL     OW38569   3.515   2.051   2.999  0.1683 -0.4531 -0.3714
 9037SOL    HW138570   3.598   2.025   2.959 -0.5556  0.4502 -2.4502
 9037SOL    HW238571   3.501   1.991   3.072 -1.3045 -0.7281 -0.8671
 9038SOL     OW38572   2.955   4.353   4.939  0.0865  0.9203  0.1275
 9038SOL    HW138573   2.893   4.355   5.012  0.6294  0.5712  0.6047
 9038SOL    HW238574   2.898   4.328   4.867 -0.4475 -0.2887  0.9733
 9039SOL     OW38575   3.196   0.680  15.018 -0.1749 -0.6632 -0.7987
 9039SOL    HW138576   3.187   0.604  15.076  1.9909  0.9393  1.6544
 9039SOL    HW238577   3.261   0.638  14.962  0.2177  0.3226 -1.0823
 9040SOL     OW38578   3.694   3.337  12.693 -0.2926  0.5921 -0.1867
 9040SOL    HW138579   3.707   3.297  12.779 -0.8131 -0.6411 -0.6984
 9040SOL    HW238580   3.760   3.407  12.697  0.6280 -0.2237 -0.9919
 9041SOL     OW38581   0.531   1.703   2.559 -0.6101  0.0632  0.4696
 9041SOL    HW138582   0.512   1.610   2.549 -0.4424 -0.1201  1.9252
 9041SOL    HW238583   0.621   1.702   2.590 -0.1076 -0.2364 -1.0169
 9042SOL     OW38584   2.340   1.359   9.308 -0.3151  0.4547 -0.1272
 9042SOL    HW138585   2.251   1.333   9.331 -0.1650  2.3965  2.6845
 9042SOL    HW238586   2.382   1.274   9.322 -0.5986  0.7448  2.4392
 9043SOL     OW38587   1.707   3.778   2.331 -0.3546 -0.1337 -0.1184
 9043SOL    HW138588   1.628   3.819   2.368 -0.2490  0.5132 -0.6139
 9043SOL    HW238589   1.670   3.716   2.269 -0.2943 -0.1683 -0.1188
 9044SOL     OW38590   1.730   0.135   6.856  0.4926  0.1488  0.4499
 9044SOL    HW138591   1.652   0.175   6.895  0.2883  0.3453 -0.1728
 9044SOL    HW238592   1.807   0.177   6.895 -0.8987  0.3299  2.9974
 9045SOL     OW38593   2.483   0.868  11.556  0.0900  0.5980 -0.2494
 9045SOL    HW138594   2.432   0.789  11.541 -0.4266  1.3512 -2.4727
 9045SOL    HW238595   2.513   0.860  11.646  1.2696  1.9925 -0.5117
 9046SOL     OW38596   4.526   4.245   4.207 -0.3974  0.1359  0.7055
 9046SOL    HW138597   4.512   4.236   4.112 -2.7733  3.2000  0.7693
 9046SOL    HW238598   4.620   4.259   4.214 -0.6515  1.2016  1.9716
 9047SOL     OW38599   0.292   3.102   3.875  0.7667  0.5575  0.2271
 9047SOL    HW138600   0.364   3.163   3.888  0.6076  0.7744  0.0729
 9047SOL    HW238601   0.257   3.138   3.794  1.1803 -1.8924 -1.0661
 9048SOL     OW38602   1.204   0.757   6.072  0.5689 -0.2803 -0.7525
 9048SOL    HW138603   1.290   0.761   6.030  0.9910 -1.2801  0.0175
 9048SOL    HW238604   1.219   0.822   6.141  0.2330 -1.1910  0.1778
 9049SOL     OW38605   2.225   2.546   5.392  0.4595 -0.6185  0.2503
 9049SOL    HW138606   2.308   2.524   5.350  0.6000 -0.3927  0.4075
 9049SOL    HW238607   2.193   2.456   5.396  1.4335 -0.9850 -0.0520
 9050SOL     OW38608   3.102   1.834   8.171  0.1437  0.3924  0.2043
 9050SOL    HW138609   3.182   1.815   8.120 -0.5272  0.0360 -0.7190
 9050SOL    HW238610   3.119   1.784   8.251 -1.8885  1.2773  1.1610
 9051SOL     OW38611   0.685   2.437   1.161  0.1217 -0.6134  0.2129
 9051SOL    HW138612   0.678   2.483   1.245 -0.0606 -1.1515  0.4918
 9051SOL    HW238613   0.681   2.512   1.101  0.3970  0.4000  1.4714
 9052SOL     OW38614   4.520   1.707   5.247  0.5887 -0.6182  0.0383
 9052SOL    HW138615   4.591   1.768   5.266 -1.1428  1.0052  1.2474
 9052SOL    HW238616   4.533   1.721   5.153 -0.0521  1.6002  0.2872
 9053SOL     OW38617   0.950   0.970   6.768 -0.1871 -0.2050 -0.1519
 9053SOL    HW138618   0.957   0.997   6.860 -1.6082 -0.4694  0.0431
 9053SOL    HW238619   1.020   1.030   6.745  0.9804 -0.7443  2.0075
 9054SOL     OW38620   0.240   0.714   7.980 -0.0839 -0.8561  0.3550
 9054SOL    HW138621   0.328   0.708   8.016 -0.4503 -1.6531  1.1258
 9054SOL    HW238622   0.252   0.774   7.906 -0.2489  1.1304  1.9717
 9055SOL     OW38623   3.019   0.436  10.021  0.2052 -0.1671 -0.0302
 9055SOL    HW138624   2.965   0.474   9.952 -1.2515  1.0444  1.7987
 9055SOL    HW238625   2.959   0.377  10.066 -0.4192 -0.9811 -1.9250
 9056SOL     OW38626   3.005   1.076  10.665  0.4797 -0.2410  0.0474
 9056SOL    HW138627   3.001   1.100  10.758  0.1062  0.7310 -0.2167
 9056SOL    HW238628   2.993   0.981  10.671 -1.2182  0.0263  0.9043
 9057SOL     OW38629   0.078   0.677   9.402 -0.3915  0.3758 -0.4647
 9057SOL    HW138630   0.093   0.688   9.496 -0.0494 -2.6632 -0.1753
 9057SOL    HW238631   0.169   0.661   9.378 -0.6846 -0.6597 -0.8808
 9058SOL     OW38632   2.084   2.853   0.965  0.2274 -0.9082  0.0831
 9058SOL    HW138633   2.151   2.920   0.948 -1.1577  0.1344 -1.2451
 9058SOL    HW238634   2.137   2.775   0.951  0.4006 -1.2151  2.3919
 9059SOL     OW38635   2.371   0.603   5.708  0.2893 -0.2989 -0.1821
 9059SOL    HW138636   2.385   0.684   5.660  0.0535  1.4488  2.7452
 9059SOL    HW238637   2.279   0.578   5.697 -0.3896  2.4580 -0.6285
 9060SOL     OW38638   1.554   3.522   8.744  0.3590 -0.1980 -0.2959
 9060SOL    HW138639   1.629   3.471   8.775 -0.6348 -0.4600  1.6749
 9060SOL    HW238640   1.504   3.449   8.709 -1.1192  0.2959  0.8107
 9061SOL     OW38641   0.409   1.242  11.146 -0.1661  0.2848 -0.2198
 9061SOL    HW138642   0.372   1.327  11.123  2.0072  1.7976  1.8028
 9061SOL    HW238643   0.387   1.187  11.072  0.6314  1.2034 -1.1510
 9062SOL     OW38644   3.489   2.893   8.022  0.4298 -0.3478 -0.0208
 9062SOL    HW138645   3.551   2.962   7.999  0.4654 -1.2370 -2.6162
 9062SOL    HW238646   3.472   2.903   8.116  0.0968 -2.1865  0.1026
 9063SOL     OW38647   1.999   2.324   4.696 -0.6542  0.1568 -0.3419
 9063SOL    HW138648   1.947   2.373   4.759 -2.0550 -0.2194 -1.2120
 9063SOL    HW238649   2.091   2.309   4.719 -1.1940 -2.8597 -0.1197
 9064SOL     OW38650   2.186   0.625  10.792 -0.0724  0.4718  0.0818
 9064SOL    HW138651   2.266   0.579  10.765 -0.1390  1.3387 -1.5787
 9064SOL    HW238652   2.194   0.691  10.723  1.2695  1.1869  0.9198
 9065SOL     OW38653   2.622   3.844   5.863  0.0436  0.6948 -0.5371
 9065SOL    HW138654   2.672   3.829   5.782 -0.9684  2.0163 -1.4100
 9065SOL    HW238655   2.567   3.766   5.872  1.2947 -0.0799  0.3868
 9066SOL     OW38656   0.205   3.806   4.246 -0.5690 -0.2096  0.1050
 9066SOL    HW138657   0.222   3.900   4.252  0.5252 -0.3459 -1.0776
 9066SOL    HW238658   0.111   3.801   4.266 -0.9254 -2.2031 -2.2008
 9067SOL     OW38659   1.410   1.828   0.262  0.0805  0.3391  0.0290
 9067SOL    HW138660   1.335   1.774   0.236 -0.1867 -0.1968  1.8966
 9067SOL    HW238661   1.450   1.791   0.340 -1.7199 -1.8152 -0.0561
 9068SOL     OW38662   0.602   4.108   5.546 -0.1130  0.0036  0.1790
 9068SOL    HW138663   0.517   4.074   5.518  0.6932 -2.7208  1.0775
 9068SOL    HW238664   0.605   4.084   5.638 -2.3099 -2.9826 -0.5058
 9069SOL     OW38665   4.385   0.131  13.868  0.3287  0.3545 -0.1800
 9069SOL    HW138666   4.316   0.172  13.816 -0.7919 -1.9789 -0.4955
 9069SOL    HW238667   4.465   0.134  13.817 -0.2336 -0.0161 -1.0782
 9070SOL     OW38668   4.373   2.470   3.839  0.5948  0.1739  0.0512
 9070SOL    HW138669   4.420   2.553   3.849 -1.1876  1.4768 -2.3268
 9070SOL    HW238670   4.408   2.417   3.911  0.2794 -1.3834 -0.9226
 9071SOL     OW38671   1.387   0.059   1.520 -0.3850  0.6630  0.0006
 9071SOL    HW138672   1.445   0.097   1.585 -1.3236  0.8588  0.7354
 9071SOL    HW238673   1.411   0.112   1.445  1.4395  0.2050  0.2716
 9072SOL     OW38674   2.944   4.694  15.159 -0.2307  0.6192  0.7034
 9072SOL    HW138675   2.892   4.617  15.137  2.6518 -1.1804  0.2240
 9072SOL    HW238676   2.940   4.675  15.253  0.4020 -0.8867  0.4171
 9073SOL     OW38677   1.622   2.753   6.708 -0.6326 -0.1498 -0.2268
 9073SOL    HW138678   1.614   2.671   6.756  0.9140 -1.4794 -2.2771
 9073SOL    HW238679   1.533   2.770   6.677 -0.4909  2.1757  0.5983
 9074SOL     OW38680   0.937   0.291   0.939  0.3068  0.4998 -0.5350
 9074SOL    HW138681   0.905   0.264   0.853 -0.0859  0.7887 -0.4744
 9074SOL    HW238682   0.860   0.301   0.994  1.1155  0.9570  0.5126
 9075SOL     OW38683   4.410   4.447   8.951 -0.1880 -0.2707  0.1016
 9075SOL    HW138684   4.382   4.534   8.978  0.5413 -0.1784  0.5608
 9075SOL    HW238685   4.358   4.434   8.871  0.3361  0.8396 -0.4125
 9076SOL     OW38686   0.240   4.056   2.699  0.4280  0.3602  0.0082
 9076SOL    HW138687   0.171   4.054   2.766 -0.1478  1.7947 -0.5339
 9076SOL    HW238688   0.279   3.972   2.723 -0.0310 -0.2018 -1.2328
 9077SOL     OW38689   3.008   2.857  17.018 -0.2806  0.0009  0.3314
 9077SOL    HW138690   3.003   2.921  17.089  1.1079 -0.4364  0.8091
 9077SOL    HW238691   2.915   2.838  17.003 -0.0683 -0.2507 -0.6738
 9078SOL     OW38692   1.206   0.075  13.192 -0.0082  0.2615  0.5797
 9078SOL    HW138693   1.181   0.058  13.101  0.8642  4.3653 -0.4104
 9078SOL    HW238694   1.302   0.077  13.202  0.1537 -2.1090 -0.3750
 9079SOL     OW38695   2.805   4.130   4.814  0.4251  0.1038 -0.7322
 9079SOL    HW138696   2.721   4.099   4.781  0.0505  0.5806 -0.2294
 9079SOL    HW238697   2.805   4.089   4.901  0.6496 -1.4343 -1.4536
 9080SOL     OW38698   2.427   0.303   5.056  0.0029 -0.4161  1.1252
 9080SOL    HW138699   2.470   0.366   4.999 -1.7147 -0.5149 -0.2888
 9080SOL    HW238700   2.465   0.224   5.017 -1.8660 -0.4514 -0.6525
 9081SOL     OW38701   0.529   2.168   7.423  0.2734 -0.2821  0.5040
 9081SOL    HW138702   0.476   2.093   7.450 -3.2358  2.0307  0.0396
 9081SOL    HW238703   0.483   2.205   7.348  0.0011 -0.4254  0.5994
 9082SOL     OW38704   1.409   3.206   8.122 -0.2298 -0.0289 -0.3845
 9082SOL    HW138705   1.333   3.202   8.180 -0.4297 -0.0420 -0.6457
 9082SOL    HW238706   1.475   3.189   8.189 -0.4817 -0.4481 -0.2481
 9083SOL     OW38707   2.460   1.773  10.119 -0.6286  0.0409  0.2856
 9083SOL    HW138708   2.366   1.755  10.113 -0.2282 -2.0205  0.0552
 9083SOL    HW238709   2.458   1.836  10.191  1.1237  1.2941 -0.7695
 9084SOL     OW38710   2.401   4.348   2.219 -0.8179  0.0164 -0.5140
 9084SOL    HW138711   2.455   4.347   2.140 -0.6839 -0.0052 -0.4227
 9084SOL    HW238712   2.465   4.341   2.290  1.5258 -1.6142 -2.7794
 9085SOL     OW38713   1.644   2.018   7.406 -0.8129 -0.0047  0.0388
 9085SOL    HW138714   1.602   2.085   7.352 -0.2741 -0.3941 -0.8600
 9085SOL    HW238715   1.635   2.054   7.494  1.4292  1.4579 -0.3332
 9086SOL     OW38716   3.220   3.118  15.517  0.0492 -0.2450 -0.3897
 9086SOL    HW138717   3.144   3.065  15.494  1.1770 -3.0152  2.3096
 9086SOL    HW238718   3.225   3.174  15.439 -2.1224  0.8585  0.2433
 9087SOL     OW38719   1.391   0.674   6.366 -0.2495  0.5267 -0.0824
 9087SOL    HW138720   1.349   0.623   6.297  0.1602 -1.0872  0.8551
 9087SOL    HW238721   1.427   0.608   6.424 -2.1887 -0.8461 -0.4307
 9088SOL     OW38722   3.337   3.081   3.936 -0.7134  0.2137  0.0242
 9088SOL    HW138723   3.344   3.152   4.000  0.5446  0.8731 -0.8443
 9088SOL    HW238724   3.399   3.103   3.866 -1.2588  0.0519 -0.5105
 9089SOL     OW38725   2.250   3.996   6.645  0.3023  0.5435 -0.2946
 9089SOL    HW138726   2.306   4.065   6.609  0.7081  0.7821  0.7810
 9089SOL    HW238727   2.268   4.018   6.737 -0.1298 -0.3800  0.0058
 9090SOL     OW38728   0.183   3.391   2.786 -0.1252 -0.4789 -0.3688
 9090SOL    HW138729   0.209   3.313   2.835 -1.2278 -1.0622 -0.7027
 9090SOL    HW238730   0.089   3.377   2.798 -0.1651 -0.9198 -1.1604
 9091SOL     OW38731   2.412   1.338   3.743  0.2901 -0.5194  0.2978
 9091SOL    HW138732   2.402   1.422   3.698  0.1856  0.1709  1.6408
 9091SOL    HW238733   2.468   1.365   3.815 -0.5985 -0.4596  0.9601
 9092SOL     OW38734   0.032   4.521  14.754 -0.4093 -0.1613 -0.4692
 9092SOL    HW138735   0.019   4.449  14.692 -0.5887 -0.3434 -0.2216
 9092SOL    HW238736   0.021   4.478  14.839 -4.0958 -0.8683 -1.2998
 9093SOL     OW38737   3.386   4.706  14.252  0.0068  0.4827  0.2478
 9093SOL    HW138738   3.353   4.629  14.299  1.3921  0.7434  1.6373
 9093SOL    HW238739   3.352   4.687  14.164 -0.8421 -1.0322  0.9102
 9094SOL     OW38740   1.380   2.762  12.166 -0.1723 -0.1260 -0.0908
 9094SOL    HW138741   1.449   2.708  12.205 -1.7815 -0.9679  1.5922
 9094SOL    HW238742   1.344   2.707  12.096  3.5477 -1.4534 -0.9807
 9095SOL     OW38743   1.747   0.202   1.777 -1.0778  0.2678  0.1276
 9095SOL    HW138744   1.739   0.190   1.682 -0.1708  0.5783  0.0094
 9095SOL    HW238745   1.722   0.122   1.823 -0.0167  0.4850  1.1034
 9096SOL     OW38746   0.038   2.421   4.977  0.1340  1.1003 -0.6561
 9096SOL    HW138747   4.692   2.484   4.965 -1.3236 -0.5021 -0.5692
 9096SOL    HW238748   0.111   2.472   4.944  1.9471  0.6582  2.6741
 9097SOL     OW38749   3.523   1.530   5.510  0.1954  0.2099 -0.2408
 9097SOL    HW138750   3.450   1.583   5.542 -0.7865 -3.0607  2.9922
 9097SOL    HW238751   3.536   1.573   5.426 -0.2847  1.3011  0.2400
 9098SOL     OW38752   3.570   4.460   3.691  0.2683 -0.2299  0.6842
 9098SOL    HW138753   3.559   4.486   3.783 -0.1973 -0.8990  0.8161
 9098SOL    HW238754   3.615   4.533   3.649  0.3834  1.7067  4.1171
 9099SOL     OW38755   4.340   1.608  10.850 -0.8529 -0.1626 -0.3899
 9099SOL    HW138756   4.274   1.545  10.879 -0.7326 -0.0580  0.1152
 9099SOL    HW238757   4.286   1.686  10.834 -1.1622  0.2967  2.9185
 9100SOL     OW38758   2.939   4.425   7.785  0.5513 -0.5562 -0.1869
 9100SOL    HW138759   2.874   4.361   7.812  1.0089 -0.0461  2.1830
 9100SOL    HW238760   2.998   4.426   7.861 -0.5382 -4.1997  0.6873
 9101SOL     OW38761   1.886   0.663   5.243 -0.4261 -0.5610  0.0093
 9101SOL    HW138762   1.965   0.639   5.194 -1.1618  1.4793 -2.1781
 9101SOL    HW238763   1.908   0.660   5.337 -0.7500 -0.1789  0.0935
 9102SOL     OW38764   2.580   0.932   8.212  0.1109  0.6242  0.3301
 9102SOL    HW138765   2.547   0.864   8.270  0.5457 -0.6027 -0.8606
 9102SOL    HW238766   2.625   0.880   8.145 -1.6232  0.9394 -1.0625
 9103SOL     OW38767   4.321   1.178  15.079 -0.2101 -0.0021 -0.0273
 9103SOL    HW138768   4.291   1.267  15.060  0.8030  0.0411 -1.3597
 9103SOL    HW238769   4.355   1.148  14.995 -1.3835 -0.3256 -0.3858
 9104SOL     OW38770   4.037   2.096  14.672  0.2804 -0.4869  0.6674
 9104SOL    HW138771   3.999   2.156  14.735 -1.2462  1.4916 -2.1120
 9104SOL    HW238772   4.104   2.146  14.626  0.2290  0.1499  1.2947
 9105SOL     OW38773   2.442   3.574   4.682  0.6081  0.5096  0.1495
 9105SOL    HW138774   2.382   3.597   4.753  0.7914  0.9619  0.1548
 9105SOL    HW238775   2.451   3.481   4.706  0.5559  1.1667  2.7688
 9106SOL     OW38776   0.334   1.953  16.900 -0.3021 -0.2093 -0.5044
 9106SOL    HW138777   0.292   1.866  16.894  0.6228 -0.6911  0.0609
 9106SOL    HW238778   0.302   1.981  16.985  1.2474 -1.5789  0.5155
 9107SOL     OW38779   3.068   1.476   4.038 -0.3396  0.3334  0.2510
 9107SOL    HW138780   3.103   1.387   4.035 -0.4239  0.4052 -3.1093
 9107SOL    HW238781   3.100   1.510   4.121  1.0350  0.0883 -0.1907
 9108SOL     OW38782   1.789   4.043   7.332  0.0907 -0.0179 -0.0254
 9108SOL    HW138783   1.773   4.137   7.324 -3.6613 -0.5071  1.7474
 9108SOL    HW238784   1.799   4.018   7.240 -0.6726  1.6141 -0.5344
 9109SOL     OW38785   2.878   2.794   2.253 -0.2956  0.3787  0.3890
 9109SOL    HW138786   2.946   2.805   2.186 -0.1741 -0.3823  0.3857
 9109SOL    HW238787   2.872   2.884   2.285  0.3852  0.5437  0.0689
 9110SOL     OW38788   3.253   1.268  12.372 -0.0750  0.4242  0.2337
 9110SOL    HW138789   3.220   1.179  12.383  0.3210  0.3787  1.0867
 9110SOL    HW238790   3.168   1.312  12.368  0.1913  1.0428  1.2694
 9111SOL     OW38791   2.820   3.440   6.908 -0.3047 -0.8505 -0.4962
 9111SOL    HW138792   2.789   3.529   6.929  1.1316 -0.4795  0.0290
 9111SOL    HW238793   2.785   3.388   6.979  0.5991 -1.1888 -0.3027
 9112SOL     OW38794   4.716   3.783   8.645 -0.5991 -0.1097 -0.6243
 9112SOL    HW138795   0.043   3.797   8.724  0.9902 -0.3150 -1.6256
 9112SOL    HW238796   4.644   3.845   8.654 -2.4324 -2.3554  0.1718
 9113SOL     OW38797   4.644   1.789  16.805 -0.1457  0.1466  0.5433
 9113SOL    HW138798   4.646   1.885  16.815  0.3481  0.2982 -0.9869
 9113SOL    HW238799   4.664   1.763  16.894 -0.0081  0.8082  0.7091
 9114SOL     OW38800   0.700   2.948   3.540 -0.3242  0.0929  0.8365
 9114SOL    HW138801   0.630   2.940   3.475  1.7017 -0.0315 -1.3462
 9114SOL    HW238802   0.667   2.899   3.615 -1.4479 -1.1388 -0.4710
 9115SOL     OW38803   0.027   2.320   4.648  0.2114 -0.6259 -0.4995
 9115SOL    HW138804   0.046   2.251   4.711 -0.7561 -0.5313 -0.1113
 9115SOL    HW238805   0.113   2.355   4.623  1.6442 -2.4131  1.9368
 9116SOL     OW38806   1.565   3.777   4.068  0.3067  0.0600  0.0503
 9116SOL    HW138807   1.584   3.824   3.987  1.7476 -1.6893 -0.6482
 9116SOL    HW238808   1.601   3.837   4.134 -1.8080 -0.9227  2.0791
 9117SOL     OW38809   2.478   1.511   6.092  0.2057 -0.2266 -1.2826
 9117SOL    HW138810   2.446   1.558   6.170  3.5303  0.4733 -0.3426
 9117SOL    HW238811   2.561   1.478   6.126 -0.6142  0.9040  1.8206
 9118SOL     OW38812   3.904   4.382  12.777 -0.5059  0.7099  0.1098
 9118SOL    HW138813   3.947   4.306  12.818 -0.2828  0.7565 -0.0385
 9118SOL    HW238814   3.814   4.356  12.759 -0.3317 -0.9187  1.6131
 9119SOL     OW38815   2.241   0.660   6.144  0.2806  0.0537 -0.0715
 9119SOL    HW138816   2.290   0.638   6.065 -0.3174  1.1463 -0.7530
 9119SOL    HW238817   2.302   0.631   6.211 -0.4118 -2.2373 -0.4235
 9120SOL     OW38818   3.498   0.447   8.801  0.0409 -0.1750  0.4988
 9120SOL    HW138819   3.568   0.427   8.738 -1.4588  1.1103 -1.5881
 9120SOL    HW238820   3.511   0.542   8.806  1.6850 -0.5944  3.7913
 9121SOL     OW38821   3.140   4.502  11.361  0.0099  0.3906  0.0660
 9121SOL    HW138822   3.165   4.415  11.330  0.5777  1.8642 -3.6174
 9121SOL    HW238823   3.083   4.475  11.433  1.2000 -0.9182  0.5241
 9122SOL     OW38824   2.751   1.647  14.606  0.3939 -0.2200 -0.6371
 9122SOL    HW138825   2.806   1.650  14.684  1.1631  1.6381 -1.2380
 9122SOL    HW238826   2.712   1.732  14.587 -0.3093 -0.6488 -1.0987
 9123SOL     OW38827   0.258   2.804   5.004  0.1518 -0.7267 -0.1068
 9123SOL    HW138828   0.265   2.735   5.070  0.4076  0.8994  1.5764
 9123SOL    HW238829   0.164   2.820   5.002  0.5790  1.8944 -0.2009
 9124SOL     OW38830   3.796   2.153   3.481 -0.3678 -0.5884  0.1495
 9124SOL    HW138831   3.781   2.205   3.402 -2.1073 -0.8834  0.2861
 9124SOL    HW238832   3.851   2.216   3.528 -3.1286  0.4671  1.9591
 9125SOL     OW38833   3.174   0.434   0.765  0.1643  1.1186  0.0775
 9125SOL    HW138834   3.138   0.459   0.850 -2.1572  0.7333 -0.7826
 9125SOL    HW238835   3.133   0.508   0.720 -0.8210  1.4342  1.4930
 9126SOL     OW38836   1.136   3.456  12.450 -0.2008  0.0994  0.0612
 9126SOL    HW138837   1.101   3.419  12.531 -1.7373  0.4226 -0.4600
 9126SOL    HW238838   1.212   3.397  12.451 -0.5652 -0.3514  1.4362
 9127SOL     OW38839   4.054   2.287   6.823  0.4960  0.0306 -0.0389
 9127SOL    HW138840   3.987   2.278   6.891  0.5331 -1.1571 -0.1581
 9127SOL    HW238841   3.998   2.336   6.762 -1.7327 -1.2908  0.9361
 9128SOL     OW38842   1.393   1.367   5.376 -0.4794  0.0098 -0.7809
 9128SOL    HW138843   1.383   1.409   5.290  2.8894  2.5585  0.0637
 9128SOL    HW238844   1.413   1.278   5.347 -1.6744 -1.0702  1.7329
 9129SOL     OW38845   0.493   0.695   8.065  0.6807 -0.0214  0.6619
 9129SOL    HW138846   0.460   0.684   8.154 -1.0045 -1.0674 -0.1064
 9129SOL    HW238847   0.582   0.722   8.090  1.5482 -1.2906 -1.0056
 9130SOL     OW38848   1.852   2.765  11.483 -0.1343 -0.0488  0.0418
 9130SOL    HW138849   1.945   2.743  11.473  0.6074  2.8874  0.5238
 9130SOL    HW238850   1.841   2.723  11.569 -0.3970  1.5208  0.7688
 9131SOL     OW38851   0.184   3.994  15.876  0.2923  0.0605  0.7385
 9131SOL    HW138852   0.275   4.009  15.849  1.0266 -1.4300  2.4272
 9131SOL    HW238853   0.162   3.960  15.789 -1.6794 -1.4213  1.8038
 9132SOL     OW38854   4.622   1.864   3.183  0.6221 -0.2741 -0.6427
 9132SOL    HW138855   4.602   1.957   3.186 -0.6638 -0.5766 -0.1412
 9132SOL    HW238856   4.715   1.868   3.205  0.2799  2.6480  0.2540
 9133SOL     OW38857   0.494   3.117  16.428 -0.3691 -0.4987 -0.0986
 9133SOL    HW138858   0.481   3.211  16.432 -3.8059 -1.0187  0.7692
 9133SOL    HW238859   0.516   3.094  16.519  2.1670 -0.3186 -0.6700
 9134SOL     OW38860   3.133   4.681  14.889  0.7049  0.0072 -0.3810
 9134SOL    HW138861   3.106   0.021  14.955  0.6801 -0.8532  0.4606
 9134SOL    HW238862   3.049   4.639  14.873  1.4965 -1.4420 -0.7609
 9135SOL     OW38863   0.737   3.266   3.530  0.3789  0.0937  0.4197
 9135SOL    HW138864   0.648   3.302   3.536 -0.3773 -1.5093 -1.2799
 9135SOL    HW238865   0.726   3.172   3.541 -1.5477  0.3533  0.7247
 9136SOL     OW38866   1.390   2.416   3.895 -0.4074 -0.3201  0.6133
 9136SOL    HW138867   1.329   2.489   3.887  1.4185  1.0493 -0.5779
 9136SOL    HW238868   1.371   2.374   3.979 -0.3672 -2.0262 -0.2185
 9137SOL     OW38869   2.045   2.602  14.681  0.2072  0.0078  0.7750
 9137SOL    HW138870   2.024   2.662  14.752 -1.4087  0.0433  0.2498
 9137SOL    HW238871   2.063   2.517  14.722  0.2911 -0.5703 -0.4587
 9138SOL     OW38872   0.929   4.699   6.515  0.4044  0.6905 -0.4853
 9138SOL    HW138873   0.933   4.663   6.426  1.9714 -1.1861  0.3527
 9138SOL    HW238874   0.889   0.060   6.499  0.4701  0.8258  0.0913
 9139SOL     OW38875   0.135   0.570   0.258 -0.6560 -0.3055 -0.3830
 9139SOL    HW138876   0.174   0.530   0.336 -0.1727  0.6187 -0.1543
 9139SOL    HW238877   0.053   0.607   0.290 -0.4970 -0.1648 -0.1321
 9140SOL     OW38878   0.435   1.498  13.842 -0.5312 -0.0924 -0.1288
 9140SOL    HW138879   0.487   1.533  13.769  0.8987 -0.0953  0.9006
 9140SOL    HW238880   0.411   1.573  13.896 -0.8049 -0.7517  0.6614
 9141SOL     OW38881   0.040   1.426   4.901 -0.2278  0.1164  0.2367
 9141SOL    HW138882   4.713   1.413   4.979  0.4736 -1.3350  0.4646
 9141SOL    HW238883   4.721   1.500   4.859 -1.4545 -1.6119 -1.4711
 9142SOL     OW38884   4.539   0.743  16.327  0.1939  0.2951 -0.3828
 9142SOL    HW138885   4.606   0.794  16.282  0.7497 -0.3675 -0.3071
 9142SOL    HW238886   4.556   0.775  16.416  0.5141  1.1489 -0.7583
 9143SOL     OW38887   1.050   0.899   2.703 -0.3678 -0.3055  0.5891
 9143SOL    HW138888   1.019   0.901   2.794  0.7443 -0.5422  0.9654
 9143SOL    HW238889   1.105   0.975   2.683 -0.5964 -0.1971  0.3661
 9144SOL     OW38890   2.414   0.297  10.504 -0.3721 -0.2496  0.1166
 9144SOL    HW138891   2.398   0.357  10.432 -0.5562 -1.3111 -0.7317
 9144SOL    HW238892   2.491   0.249  10.473 -0.2237 -1.4583  2.3382
 9145SOL     OW38893   0.605   2.606  11.829  0.2935 -0.9388  0.2747
 9145SOL    HW138894   0.565   2.528  11.792  1.0848 -1.8291  1.3038
 9145SOL    HW238895   0.542   2.623  11.900 -0.7889  0.0083 -0.8968
 9146SOL     OW38896   4.530   0.849   7.827  0.1176  0.3536 -0.0239
 9146SOL    HW138897   4.476   0.857   7.906 -0.0207 -0.2893 -0.0550
 9146SOL    HW238898   4.478   0.787   7.777 -0.7088  0.6117  0.5004
 9147SOL     OW38899   2.673   4.046   8.900 -0.1662 -0.0273  0.1317
 9147SOL    HW138900   2.758   4.073   8.866 -0.9078  0.0170 -1.6680
 9147SOL    HW238901   2.678   4.071   8.992  1.9924 -1.4111  0.4025
 9148SOL     OW38902   3.045   4.660  17.443  0.4333 -0.1062 -0.2169
 9148SOL    HW138903   3.061   4.579  17.395 -1.2208 -1.5943  1.7599
 9148SOL    HW238904   2.949   4.663  17.440  0.4510 -0.6556 -1.4406
 9149SOL     OW38905   1.348   1.322  12.002  0.6224 -0.6330 -0.2492
 9149SOL    HW138906   1.358   1.350  11.911 -0.2424 -0.1852 -0.2020
 9149SOL    HW238907   1.331   1.401  12.052  0.4422 -0.2518 -0.9169
 9150SOL     OW38908   1.257   1.701   9.972 -0.8636 -0.1517 -0.2586
 9150SOL    HW138909   1.184   1.647   9.944 -0.1667 -1.6518  0.7991
 9150SOL    HW238910   1.211   1.741  10.045  0.8978  0.9073  0.2703
 9151SOL     OW38911   3.584   0.248   4.071 -0.4378 -0.4851 -0.0373
 9151SOL    HW138912   3.640   0.206   4.005 -0.8558 -1.3039  0.1382
 9151SOL    HW238913   3.570   0.192   4.147 -3.5976 -0.3783 -0.5480
 9152SOL     OW38914   2.035   0.496   3.311 -0.3368 -0.1917  0.1086
 9152SOL    HW138915   1.975   0.560   3.272  1.0144  0.0413 -1.5804
 9152SOL    HW238916   2.016   0.415   3.263 -0.2802  0.0498 -0.3214
 9153SOL     OW38917   3.849   2.007  16.030  0.0313 -0.8565 -0.4302
 9153SOL    HW138918   3.868   2.055  15.949  1.2407 -1.2665 -0.4014
 9153SOL    HW238919   3.938   1.972  16.038  0.7757  0.6166 -2.4168
 9154SOL     OW38920   0.103   1.163   3.104  0.3538 -0.6914 -0.6380
 9154SOL    HW138921   0.180   1.219   3.096  2.0671 -3.0203 -0.4756
 9154SOL    HW238922   0.043   1.230   3.137 -0.2856 -1.3831 -0.4162
 9155SOL     OW38923   2.370   2.853   6.155  0.5657 -0.1051 -0.4056
 9155SOL    HW138924   2.371   2.902   6.072  0.9787 -1.5722 -1.2606
 9155SOL    HW238925   2.463   2.864   6.172  0.1229  1.9281  0.7210
 9156SOL     OW38926   2.949   2.397  17.163 -0.2526  0.6289  0.3552
 9156SOL    HW138927   3.035   2.438  17.171 -0.2317  0.3812  1.3702
 9156SOL    HW238928   2.893   2.468  17.133  0.8178  0.9729 -0.8339
 9157SOL     OW38929   1.494   3.771  16.926  0.5835 -0.5197 -0.3908
 9157SOL    HW138930   1.578   3.769  16.972  0.9696 -0.3616 -1.0790
 9157SOL    HW238931   1.471   3.679  16.933 -0.9395 -0.1090  0.1152
 9158SOL     OW38932   3.160   3.988   7.657 -0.3109  0.0738 -0.1954
 9158SOL    HW138933   3.178   3.912   7.603 -0.5009  1.0115 -1.5933
 9158SOL    HW238934   3.176   4.065   7.601  0.3091  0.7578  0.9144
 9159SOL     OW38935   3.457   2.755  12.039 -0.0240 -0.2335  0.6178
 9159SOL    HW138936   3.428   2.767  12.130  0.0501 -0.1695  0.6326
 9159SOL    HW238937   3.430   2.664  12.028 -0.5461  0.0218 -0.1871
 9160SOL     OW38938   3.062   0.640   8.998 -0.0930  0.1169  0.2240
 9160SOL    HW138939   3.095   0.723   9.033 -1.1079  0.6012  0.0263
 9160SOL    HW238940   3.092   0.579   9.066 -0.1737 -1.1546 -0.8743
 9161SOL     OW38941   0.301   2.282   7.626 -0.2022 -0.7329  0.3810
 9161SOL    HW138942   0.297   2.360   7.571  1.0982 -0.1860  1.0711
 9161SOL    HW238943   0.390   2.291   7.661 -0.4582  0.9880  0.5865
 9162SOL     OW38944   4.226   0.477   2.055 -0.1197  0.1478 -0.2248
 9162SOL    HW138945   4.288   0.491   1.984 -1.5710 -1.7009 -1.8650
 9162SOL    HW238946   4.171   0.407   2.019 -0.5773  0.1003  0.5615
 9163SOL     OW38947   2.299   2.262   4.283 -0.5373  0.1147 -0.5916
 9163SOL    HW138948   2.227   2.221   4.331 -1.9460  1.3649 -1.6423
 9163SOL    HW238949   2.336   2.186   4.238 -2.6252 -0.1211 -1.9372
 9164SOL     OW38950   1.139   2.112  17.672  0.2168  0.0990 -0.5569
 9164SOL    HW138951   1.059   2.063  17.654  0.3209 -1.0606  2.1480
 9164SOL    HW238952   1.104   2.200  17.657 -1.7411 -0.5623  0.1122
 9165SOL     OW38953   2.497   0.998  13.817 -0.2450  0.3276  0.2891
 9165SOL    HW138954   2.458   1.081  13.790 -0.9238  0.4324  1.6229
 9165SOL    HW238955   2.420   0.971  13.866  2.4779 -1.8338  3.4155
 9166SOL     OW38956   4.400   3.845   2.611  0.1408 -0.1570 -0.1723
 9166SOL    HW138957   4.415   3.828   2.518 -2.0886  0.5573 -0.6648
 9166SOL    HW238958   4.399   3.755   2.644 -0.2229  1.1120  3.3295
 9167SOL     OW38959   0.547   0.724   4.458  0.4233 -0.2152 -0.3336
 9167SOL    HW138960   0.577   0.760   4.541  1.0589  0.1180 -0.7023
 9167SOL    HW238961   0.451   0.727   4.454  0.4722  2.5986  0.3055
 9168SOL     OW38962   2.037   3.684   4.263 -0.1555 -0.6073  0.2198
 9168SOL    HW138963   2.059   3.734   4.342 -1.8027 -0.9960  0.9228
 9168SOL    HW238964   2.069   3.599   4.292  1.9398  0.3209  0.6171
 9169SOL     OW38965   2.786   3.440  12.988 -0.1352  0.2661  0.0302
 9169SOL    HW138966   2.736   3.359  12.996  0.7151 -0.2105  0.5159
 9169SOL    HW238967   2.759   3.457  12.898  1.6118  0.1342 -0.5096
 9170SOL     OW38968   0.308   4.252   7.239  0.2939  0.0205  0.2768
 9170SOL    HW138969   0.226   4.292   7.265 -2.1728 -3.1347 -2.6750
 9170SOL    HW238970   0.314   4.274   7.146 -1.4249  2.9650  0.8534
 9171SOL     OW38971   1.404   2.959   0.843 -0.4935 -0.2319  0.1247
 9171SOL    HW138972   1.494   2.957   0.811 -0.2741  0.6446  0.6920
 9171SOL    HW238973   1.396   2.883   0.902 -1.1832 -0.5088 -0.3295
 9172SOL     OW38974   1.451   1.694   1.312 -0.2473 -0.3640  0.4245
 9172SOL    HW138975   1.516   1.756   1.277 -0.9744  0.5806  0.7677
 9172SOL    HW238976   1.505   1.633   1.361 -0.5371 -1.0927 -0.1684
 9173SOL     OW38977   2.046   1.704   7.962 -0.4624  0.0969  0.5523
 9173SOL    HW138978   2.027   1.611   7.973  0.1827 -0.0819  0.1538
 9173SOL    HW238979   1.999   1.734   8.040 -0.6300 -1.6464  1.1172
 9174SOL     OW38980   3.040   3.037   4.927 -0.1042  0.1569  0.2985
 9174SOL    HW138981   3.008   3.126   4.941  0.7972  0.7794 -1.5658
 9174SOL    HW238982   3.033   3.031   4.832 -2.1485 -3.2897  0.6754
 9175SOL     OW38983   3.353   4.335  12.144  0.2724 -0.1345 -0.5478
 9175SOL    HW138984   3.324   4.381  12.222 -1.0222  0.4706 -1.3998
 9175SOL    HW238985   3.389   4.407  12.093  1.8795  0.8323  1.9409
 9176SOL     OW38986   1.768   3.574   3.437  0.1414  0.3954 -0.8018
 9176SOL    HW138987   1.860   3.567   3.410  0.4380 -1.6501  0.7131
 9176SOL    HW238988   1.718   3.503   3.397  1.0786 -0.3909 -0.5893
 9177SOL     OW38989   2.856   1.290   2.706 -0.0546 -0.4244  0.3622
 9177SOL    HW138990   2.868   1.359   2.771 -0.0511  0.2266 -0.3398
 9177SOL    HW238991   2.768   1.296   2.668 -0.4857 -1.4887  1.1969
 9178SOL     OW38992   0.946   3.797   6.666  0.0124  0.1786 -0.1874
 9178SOL    HW138993   0.887   3.873   6.663 -0.0266  0.1489 -0.1720
 9178SOL    HW238994   1.011   3.837   6.723 -1.4283 -1.2380  2.4653
 9179SOL     OW38995   0.147   4.370  13.485  0.3021 -0.3302  0.1027
 9179SOL    HW138996   0.143   4.424  13.406 -2.9953  0.0996  0.5578
 9179SOL    HW238997   0.084   4.415  13.541 -1.1188  0.4881 -2.1453
 9180SOL     OW38998   3.509   0.663   5.643  0.1559  0.0494  0.8124
 9180SOL    HW138999   3.427   0.630   5.680 -0.2927  0.2683  0.0148
 9180SOL    HW239000   3.496   0.753   5.674  3.1703  0.1162  1.8838
 9181SOL     OW39001   3.569   3.499   4.226 -0.1557  0.6501  0.1831
 9181SOL    HW139002   3.629   3.568   4.199  1.7094 -1.2869 -0.6471
 9181SOL    HW239003   3.562   3.530   4.316  0.8394 -0.5435  0.6725
 9182SOL     OW39004   3.109   4.531   6.927  0.0688 -0.1120 -0.2528
 9182SOL    HW139005   3.055   4.581   6.865  1.1898  0.3262 -0.8615
 9182SOL    HW239006   3.116   4.582   7.008  1.0455 -1.8247  0.7479
 9183SOL     OW39007   4.626   0.691  13.649 -0.0498 -0.0738  0.1388
 9183SOL    HW139008   4.557   0.757  13.635 -0.3242 -0.8186 -2.0435
 9183SOL    HW239009   4.690   0.725  13.711  0.6173 -3.1899  1.1329
 9184SOL     OW39010   1.247   0.163  12.401 -0.1666  0.4143  0.2204
 9184SOL    HW139011   1.326   0.214  12.421  0.7662  0.3716 -3.3212
 9184SOL    HW239012   1.255   0.147  12.307 -1.3493  1.7063 -0.0898
 9185SOL     OW39013   0.476   4.053   7.286 -0.0544 -0.6808 -0.0672
 9185SOL    HW139014   0.412   4.119   7.260  1.2833  1.1414  1.2869
 9185SOL    HW239015   0.532   4.096   7.350  0.9630 -0.9618 -0.7838
 9186SOL     OW39016   3.766   2.064   8.630  0.2378  0.3589  0.7926
 9186SOL    HW139017   3.838   2.081   8.690  1.1460 -0.9616  0.0633
 9186SOL    HW239018   3.712   2.008   8.686 -2.1844  0.1072 -1.7812
 9187SOL     OW39019   4.695   3.075   4.620 -0.0832  0.1702  0.4769
 9187SOL    HW139020   0.000   3.162   4.646  1.8391 -0.2739 -0.2824
 9187SOL    HW239021   0.050   3.029   4.597 -0.5960 -2.1945  3.4256
 9188SOL     OW39022   2.048   3.650   9.434  0.5303  0.5493 -0.0909
 9188SOL    HW139023   2.038   3.597   9.355 -2.0143 -0.6897  1.0752
 9188SOL    HW239024   1.959   3.680   9.452  0.0176 -1.3322  0.4873
 9189SOL     OW39025   1.568   2.442  11.350 -0.1454 -0.5636  0.3227
 9189SOL    HW139026   1.480   2.409  11.332  0.0567 -0.3001 -1.1380
 9189SOL    HW239027   1.543   2.488  11.430 -1.0753 -3.3698  1.6795
 9190SOL     OW39028   4.606   4.613   8.356 -0.2994 -0.3902  0.1539
 9190SOL    HW139029   4.695   4.599   8.325  0.1907 -0.6877  1.6837
 9190SOL    HW239030   4.577   4.682   8.296  2.7922 -0.5679 -1.5304
 9191SOL     OW39031   0.532   4.052   1.752 -0.2560  0.4328 -0.2208
 9191SOL    HW139032   0.507   3.980   1.810 -0.2755  0.2855 -0.4146
 9191SOL    HW239033   0.472   4.029   1.681 -0.7746 -0.5192  0.5269
 9192SOL     OW39034   4.583   0.681   3.450  0.6298  0.2615  0.6002
 9192SOL    HW139035   4.588   0.725   3.535 -0.6009  2.3437 -0.3985
 9192SOL    HW239036   4.673   0.700   3.424  1.0907 -1.3276  1.0715
 9193SOL     OW39037   1.780   2.118  17.138  0.0329 -0.4913  0.5903
 9193SOL    HW139038   1.800   2.148  17.227  0.5584 -0.7782  0.5724
 9193SOL    HW239039   1.859   2.068  17.116 -1.0420 -1.8682 -0.1018
 9194SOL     OW39040   3.989   4.006   5.296  0.4059  0.0324 -0.5361
 9194SOL    HW139041   4.001   3.963   5.381  0.4905  0.5487 -0.2839
 9194SOL    HW239042   4.060   4.071   5.291  0.2170  0.2366 -0.5443
 9195SOL     OW39043   3.693   0.810  15.613 -0.3805  0.6958 -0.0246
 9195SOL    HW139044   3.682   0.794  15.520 -1.7596  1.3369  0.0248
 9195SOL    HW239045   3.622   0.870  15.637 -0.1352  0.7118  0.6638
 9196SOL     OW39046   3.683   3.859   1.675 -0.2564 -0.0353 -0.1123
 9196SOL    HW139047   3.745   3.823   1.612 -0.6177 -1.8868  0.5888
 9196SOL    HW239048   3.602   3.810   1.663 -1.0592  1.5633 -1.1279
 9197SOL     OW39049   2.009   1.287   9.621 -0.6343  0.3846 -0.5609
 9197SOL    HW139050   2.037   1.287   9.529  1.7806 -0.5057  0.1849
 9197SOL    HW239051   1.915   1.289   9.603 -0.5196 -0.8804 -1.3436
 9198SOL     OW39052   1.931   1.637   6.581  0.0417  0.7752  0.3385
 9198SOL    HW139053   1.929   1.545   6.607 -0.5843  0.7282  0.1124
 9198SOL    HW239054   2.023   1.656   6.599  0.1341 -1.3272  2.1623
 9199SOL     OW39055   1.750   1.119   3.457  0.3177  0.1666  0.7263
 9199SOL    HW139056   1.834   1.158   3.479  0.6376 -1.0223  1.6330
 9199SOL    HW239057   1.732   1.174   3.381 -2.1460 -3.2852 -1.2212
 9200SOL     OW39058   3.726   2.896   1.998  0.0703  0.8616  0.1916
 9200SOL    HW139059   3.733   2.873   2.091 -0.9910 -0.0921  0.0433
 9200SOL    HW239060   3.761   2.815   1.961  0.2456  1.1073 -0.1823
 9201SOL     OW39061   1.996   4.536  16.350 -0.0434  0.3145  1.0165
 9201SOL    HW139062   1.937   4.611  16.355  0.7791  1.1482 -1.9638
 9201SOL    HW239063   1.992   4.503  16.440  1.8588 -1.9789  0.2672
 9202SOL     OW39064   1.796   3.716   9.475 -0.1728  0.4869  0.0507
 9202SOL    HW139065   1.821   3.807   9.454  0.4694  0.7289  1.8673
 9202SOL    HW239066   1.710   3.724   9.514 -0.4333 -1.1331 -0.2131
 9203SOL     OW39067   1.648   1.685  11.813  0.4877  0.9413 -0.3605
 9203SOL    HW139068   1.653   1.654  11.904  2.4679  2.9918  0.2429
 9203SOL    HW239069   1.606   1.613  11.767  0.2462  2.8803 -3.1997
 9204SOL     OW39070   2.698   2.213   8.235  0.0553 -0.1635 -0.3385
 9204SOL    HW139071   2.649   2.174   8.307  0.9015 -0.7921 -0.0924
 9204SOL    HW239072   2.683   2.144   8.170  0.6485  0.3272 -0.9966
 9205SOL     OW39073   3.247   0.471   1.294  0.2000  0.4566  0.4722
 9205SOL    HW139074   3.217   0.553   1.333 -2.8327 -1.7111  2.7297
 9205SOL    HW239075   3.210   0.401   1.347  1.8309 -0.8215 -0.0954
 9206SOL     OW39076   1.536   3.801   8.419  0.0973 -0.2128  1.0362
 9206SOL    HW139077   1.612   3.762   8.463  2.0260  1.9448 -0.3655
 9206SOL    HW239078   1.463   3.773   8.474  0.6528 -0.4502  1.6584
 9207SOL     OW39079   4.099   1.500  12.216 -0.0714 -0.2624 -0.0347
 9207SOL    HW139080   4.037   1.542  12.157 -1.3369  0.6896  1.9956
 9207SOL    HW239081   4.159   1.446  12.165  0.0329  0.6571 -0.8709
 9208SOL     OW39082   4.258   3.886   2.861 -0.2727 -0.0264  0.1337
 9208SOL    HW139083   4.176   3.866   2.816 -0.0425 -1.2919  0.2755
 9208SOL    HW239084   4.317   3.907   2.789 -0.7147 -4.7409 -1.6334
 9209SOL     OW39085   4.569   1.863  14.611 -0.1191 -0.1541 -0.2678
 9209SOL    HW139086   4.550   1.845  14.518 -2.1909  0.5426  0.0186
 9209SOL    HW239087   4.513   1.938  14.633  0.6845  0.6119 -0.8039
 9210SOL     OW39088   3.645   0.948   1.834 -0.1070  0.0662 -0.7055
 9210SOL    HW139089   3.669   0.979   1.921  1.0563  3.4980 -2.2485
 9210SOL    HW239090   3.549   0.945   1.839 -0.0528  0.1168  0.4266
 9211SOL     OW39091   0.242   3.453   9.215 -0.1670  0.2280 -0.2023
 9211SOL    HW139092   0.254   3.374   9.267  1.0344 -1.5728 -3.2015
 9211SOL    HW239093   0.331   3.488   9.213  0.5091 -1.5655 -1.4713
 9212SOL     OW39094   3.399   3.419  10.175  0.4036 -0.1441 -0.5518
 9212SOL    HW139095   3.357   3.504  10.165  0.4532 -0.2126 -1.3066
 9212SOL    HW239096   3.324   3.360  10.182 -0.2550  0.9413  1.6681
 9213SOL     OW39097   2.288   0.032   6.404  0.1209 -0.0430  0.2829
 9213SOL    HW139098   2.245   0.118   6.412 -2.4269 -1.3415  0.5676
 9213SOL    HW239099   2.213   4.698   6.394 -0.4403  0.9249 -1.2260
 9214SOL     OW39100   2.987   2.441  16.819  0.4204 -0.0831  0.3884
 9214SOL    HW139101   2.946   2.476  16.898  0.2766 -0.0248  0.2881
 9214SOL    HW239102   3.078   2.430  16.845 -0.0243  0.9913  2.3817
 9215SOL     OW39103   4.100   3.145   2.703  0.0233 -0.2575  0.1495
 9215SOL    HW139104   4.181   3.107   2.670 -0.5298  1.0581 -2.7439
 9215SOL    HW239105   4.110   3.132   2.797  1.1007  0.9957  0.2033
 9216SOL     OW39106   1.744   0.554   3.959  0.3475 -0.6266  0.8349
 9216SOL    HW139107   1.677   0.621   3.971 -0.8065 -1.4780 -0.8925
 9216SOL    HW239108   1.696   0.471   3.957  2.9506 -2.0305 -2.0591
 9217SOL     OW39109   3.113   4.723   5.503 -0.8610  0.0940  0.2635
 9217SOL    HW139110   3.140   0.022   5.592  0.1522 -1.5196  0.4053
 9217SOL    HW239111   3.043   0.062   5.493 -1.9493 -0.8894  1.5732
 9218SOL     OW39112   0.174   0.018   2.797 -0.2868 -0.2985  0.3409
 9218SOL    HW139113   0.147   0.098   2.843 -2.6116 -0.3012 -1.0033
 9218SOL    HW239114   0.103   4.682   2.817  0.7453 -1.1796  1.3797
 9219SOL     OW39115   0.229   1.080  16.054 -0.7787  0.3445 -0.7730
 9219SOL    HW139116   0.217   1.002  16.109 -0.1576  1.2989  0.6942
 9219SOL    HW239117   0.249   1.139  16.126  1.6828 -0.4527 -0.7967
 9220SOL     OW39118   2.586   1.160   7.152  0.0773 -0.5939  0.4570
 9220SOL    HW139119   2.513   1.221   7.144  3.3097  3.0095 -1.8953
 9220SOL    HW239120   2.539   1.077   7.145 -0.9491  0.2284 -2.3554
 9221SOL     OW39121   0.922   1.058   4.876  0.1998 -0.0013 -0.3339
 9221SOL    HW139122   0.929   1.151   4.855 -1.0572 -0.4299 -2.6738
 9221SOL    HW239123   0.835   1.057   4.915 -0.6530  1.2704 -2.1781
 9222SOL     OW39124   2.214   4.003   7.932 -0.1363 -0.4232  0.2005
 9222SOL    HW139125   2.299   3.993   7.976 -0.4405 -0.7254  0.7116
 9222SOL    HW239126   2.237   3.973   7.844 -0.2039  0.3089 -0.0634
 9223SOL     OW39127   3.873   0.874  14.199 -0.2756  0.1518  0.6666
 9223SOL    HW139128   3.833   0.846  14.117 -1.8450  0.8656  1.1884
 9223SOL    HW239129   3.942   0.809  14.213  1.1061  1.5071  0.1654
 9224SOL     OW39130   2.393   1.899   2.813 -0.5770  0.1720 -0.3647
 9224SOL    HW139131   2.482   1.904   2.780  0.7022 -1.2502  2.8388
 9224SOL    HW239132   2.405   1.895   2.908  0.4185 -2.5192 -0.6076
 9225SOL     OW39133   3.332   0.618   4.698  0.0641 -0.3606 -0.3765
 9225SOL    HW139134   3.344   0.645   4.607  2.3819  0.9632  0.3389
 9225SOL    HW239135   3.421   0.616   4.732  0.1033 -2.2388 -0.5662
 9226SOL     OW39136   2.659   1.805  12.582  0.2172 -0.3941 -0.0650
 9226SOL    HW139137   2.622   1.720  12.607  1.2737 -0.5377  0.9909
 9226SOL    HW239138   2.689   1.779  12.495 -1.8034 -0.9906 -0.6007
 9227SOL     OW39139   3.167   0.380   7.824  0.1232 -0.3539 -0.5042
 9227SOL    HW139140   3.131   0.443   7.762 -1.8921 -0.5668  0.4445
 9227SOL    HW239141   3.221   0.432   7.884  0.8299  0.2272 -1.6477
 9228SOL     OW39142   1.334   1.887   5.001  0.8462 -0.2352 -0.8330
 9228SOL    HW139143   1.266   1.859   4.940  0.7411  1.6985 -1.5980
 9228SOL    HW239144   1.378   1.964   4.968 -0.6781 -0.5103 -3.4847
 9229SOL     OW39145   2.895   1.095   0.571  0.0760  0.1644 -0.1381
 9229SOL    HW139146   2.960   1.072   0.505  0.7569  0.4358  0.4395
 9229SOL    HW239147   2.906   1.189   0.578 -1.1279  0.4200 -1.9070
 9230SOL     OW39148   1.609   2.267  10.958 -0.7027 -0.3342 -0.0077
 9230SOL    HW139149   1.582   2.339  10.901 -0.6274 -1.4207 -1.4261
 9230SOL    HW239150   1.595   2.202  10.889  1.4913 -0.9718  0.1414
 9231SOL     OW39151   2.696   3.482  12.731  0.0116  0.0732  0.4497
 9231SOL    HW139152   2.665   3.418  12.667  3.3914 -1.6197  0.4596
 9231SOL    HW239153   2.610   3.520  12.748 -0.1982 -0.6141  0.9725
 9232SOL     OW39154   1.369   0.762  16.157  0.1891  0.6678  0.1558
 9232SOL    HW139155   1.378   0.711  16.238  0.8619  1.2876  0.4715
 9232SOL    HW239156   1.352   0.704  16.083  0.5861  0.8257 -0.0587
 9233SOL     OW39157   4.599   2.834   2.851 -0.7388 -0.2468  0.1604
 9233SOL    HW139158   4.542   2.911   2.852 -2.2344 -1.3560  0.7082
 9233SOL    HW239159   4.651   2.857   2.774  1.0444 -1.1793  1.1069
 9234SOL     OW39160   1.317   2.565   1.517  0.1586  0.1520 -0.3870
 9234SOL    HW139161   1.330   2.470   1.526 -3.0970  0.0584  3.6376
 9234SOL    HW239162   1.392   2.596   1.567 -0.7259 -1.1237  1.7561
 9235SOL     OW39163   3.149   2.649  17.097  0.7858  0.2738 -0.4202
 9235SOL    HW139164   3.078   2.706  17.067 -0.1991 -0.0751  1.2164
 9235SOL    HW239165   3.182   2.609  17.017 -1.0332 -1.7910 -0.1251
 9236SOL     OW39166   2.685   3.736   7.940 -0.1561  0.3238 -0.6185
 9236SOL    HW139167   2.623   3.664   7.955 -1.8474  1.6869 -1.0759
 9236SOL    HW239168   2.713   3.726   7.849  1.1435  0.1184 -0.1959
 9237SOL     OW39169   4.328   0.643   2.621 -0.4058  0.1903  0.3202
 9237SOL    HW139170   4.316   0.557   2.662  1.8992 -0.2681  0.0713
 9237SOL    HW239171   4.308   0.621   2.530  1.1351 -3.7130  0.9162
 9238SOL     OW39172   0.953   3.194   6.295  0.3345  0.5861  0.0006
 9238SOL    HW139173   0.925   3.103   6.288  0.0391  0.5419  1.9231
 9238SOL    HW239174   1.046   3.183   6.316 -0.1934 -1.3419  1.2816
 9239SOL     OW39175   1.327   2.844  10.966  0.4394 -0.8843  0.5189
 9239SOL    HW139176   1.294   2.918  10.915  0.5255  0.5117  2.5069
 9239SOL    HW239177   1.266   2.778  10.931 -2.7582  1.9292  0.7937
 9240SOL     OW39178   0.015   4.092   1.902 -0.8115  0.1362 -0.8457
 9240SOL    HW139179   4.711   4.001   1.899  0.0861 -0.2434  2.1511
 9240SOL    HW239180   0.060   4.104   1.818  1.2408 -0.1768  0.2061
 9241SOL     OW39181   3.985   4.697  16.624 -0.3467  0.5134  0.3072
 9241SOL    HW139182   3.962   4.605  16.638  0.6120  0.1213 -0.7056
 9241SOL    HW239183   3.947   4.695  16.536  3.8419  0.8892 -1.5088
 9242SOL     OW39184   4.027   3.567  11.134  0.9456 -0.6960 -0.5768
 9242SOL    HW139185   4.031   3.566  11.230 -1.3055  1.4528 -0.4726
 9242SOL    HW239186   3.938   3.594  11.113  0.9893  1.4202  1.9430
 9243SOL     OW39187   4.271   4.005  14.496 -0.1834 -0.5982 -0.0460
 9243SOL    HW139188   4.248   3.916  14.522 -0.0582 -0.6638 -0.1606
 9243SOL    HW239189   4.341   4.022  14.559  0.8412 -1.4528 -0.9484
 9244SOL     OW39190   1.771   4.658  12.243 -0.0415  0.4989 -0.5387
 9244SOL    HW139191   1.713   4.662  12.167  3.1428 -0.3899 -3.0057
 9244SOL    HW239192   1.808   4.570  12.242 -0.4755  0.3056  1.6653
 9245SOL     OW39193   0.231   3.632   4.747 -0.2457 -0.2719  0.5767
 9245SOL    HW139194   0.172   3.692   4.793 -1.6636 -1.0172 -0.2550
 9245SOL    HW239195   0.218   3.654   4.655 -0.9069 -1.4098  0.3957
 9246SOL     OW39196   1.636   0.579  12.281  1.2108  0.1055  0.1668
 9246SOL    HW139197   1.573   0.591  12.352  0.5208  2.0002 -0.7415
 9246SOL    HW239198   1.703   0.645  12.300 -1.6426  2.2699  2.7937
 9247SOL     OW39199   3.837   1.299  14.691  0.2277  0.0018  0.3044
 9247SOL    HW139200   3.922   1.303  14.648 -0.2666  1.6795 -0.5162
 9247SOL    HW239201   3.798   1.378  14.654 -2.3533 -1.6022 -0.4249
 9248SOL     OW39202   0.976   3.560   0.206 -0.1812 -0.1516 -0.5003
 9248SOL    HW139203   1.005   3.549   0.296  1.0026  0.1767 -0.8427
 9248SOL    HW239204   1.049   3.517   0.161 -0.6922 -0.0766 -1.4111
 9249SOL     OW39205   3.041   4.257  16.432  0.9321  0.3141 -0.2052
 9249SOL    HW139206   3.029   4.166  16.405 -0.5020  1.3180 -3.0037
 9249SOL    HW239207   3.080   4.241  16.518 -1.5583 -1.0009  0.6707
 9250SOL     OW39208   1.505   4.604  15.215 -0.3458 -0.4093  0.4014
 9250SOL    HW139209   1.498   4.639  15.126 -0.3896 -4.1867 -1.0873
 9250SOL    HW239210   1.415   4.603  15.247 -1.0404 -0.1935 -1.5447
 9251SOL     OW39211   4.481   0.810   0.543  0.0587 -0.0575  0.2996
 9251SOL    HW139212   4.406   0.764   0.505  1.0682 -1.3575 -0.0878
 9251SOL    HW239213   4.458   0.897   0.510 -1.5331 -0.1206  1.2196
 9252SOL     OW39214   2.551   2.598  10.311 -0.4963  0.0213  0.1353
 9252SOL    HW139215   2.591   2.685  10.308  0.6302 -0.5079 -0.3954
 9252SOL    HW239216   2.625   2.543  10.337  0.8677  0.8108 -2.0776
 9253SOL     OW39217   1.142   3.922   3.769 -0.3859 -0.5134  0.3335
 9253SOL    HW139218   1.126   3.990   3.834 -1.6955  0.7831 -1.3340
 9253SOL    HW239219   1.202   3.958   3.705 -0.2103 -2.0301 -0.3709
 9254SOL     OW39220   3.851   4.519   1.921 -0.1198  0.2865  0.6788
 9254SOL    HW139221   3.802   4.599   1.944  1.2026  1.9951 -2.4471
 9254SOL    HW239222   3.877   4.532   1.830 -1.7516 -1.0051  0.0419
 9255SOL     OW39223   3.504   1.226   9.138 -0.0540  0.2336 -0.4123
 9255SOL    HW139224   3.557   1.222   9.218 -1.9586  1.4528  0.8879
 9255SOL    HW239225   3.562   1.265   9.073 -0.3089  3.0073  1.0350
 9256SOL     OW39226   1.247   0.486   5.323  0.0871  0.6199  0.1698
 9256SOL    HW139227   1.241   0.391   5.336 -0.0571  0.9024  2.2034
 9256SOL    HW239228   1.158   0.505   5.293  0.0400  0.9855  0.5511
 9257SOL     OW39229   4.474   2.241  15.014 -0.4324  0.1706 -0.0161
 9257SOL    HW139230   4.511   2.159  14.982  2.2838  1.9629 -1.5089
 9257SOL    HW239231   4.392   2.224  14.968 -0.3994 -2.6019  0.9494
 9258SOL     OW39232   0.565   4.583   2.915  0.0058  0.2981  0.1058
 9258SOL    HW139233   0.603   4.507   2.871 -0.1419 -0.5641  1.4909
 9258SOL    HW239234   0.515   4.638   2.853 -1.0706  2.6119  3.0349
 9259SOL     OW39235   3.122   4.111   4.983  0.6382 -0.3632 -1.0182
 9259SOL    HW139236   3.095   4.198   5.011  0.8082 -0.5162 -0.3865
 9259SOL    HW239237   3.216   4.126   4.988  0.3529  0.7515  0.7919
 9260SOL     OW39238   4.520   1.663  13.706  0.1018 -0.0355  0.2585
 9260SOL    HW139239   4.480   1.585  13.668  0.1644  0.7384 -1.4330
 9260SOL    HW239240   4.467   1.737  13.675  0.1145 -0.2002 -0.1525
 9261SOL     OW39241   4.034   4.181   7.815 -0.1080  0.0778 -0.2058
 9261SOL    HW139242   3.964   4.125   7.850 -1.9194  1.2081 -2.0995
 9261SOL    HW239243   4.094   4.178   7.890  0.2120  0.1521 -0.4561
 9262SOL     OW39244   4.678   2.486   2.890 -0.0815 -0.2105  0.2327
 9262SOL    HW139245   4.723   2.560   2.930 -1.4947  0.6628  0.2350
 9262SOL    HW239246   4.724   2.473   2.808  0.9489  0.7504  0.6627
 9263SOL     OW39247   2.554   0.464   4.897  0.1346  0.3749  0.0119
 9263SOL    HW139248   2.598   0.517   4.831 -0.8485 -0.4478 -1.3019
 9263SOL    HW239249   2.489   0.436   4.833 -0.4336 -1.1453  1.2698
 9264SOL     OW39250   2.508   4.330   3.445 -0.1679  0.0940  0.1359
 9264SOL    HW139251   2.500   4.366   3.357  1.8797 -1.3988 -0.6755
 9264SOL    HW239252   2.504   4.240   3.412 -0.0518 -0.0615  0.5429
 9265SOL     OW39253   0.239   3.393  12.525 -0.3597 -0.1626 -0.2011
 9265SOL    HW139254   0.188   3.336  12.468 -0.3127 -1.9487  1.5603
 9265SOL    HW239255   0.303   3.426  12.461  1.6717  5.0424  4.5099
 9266SOL     OW39256   0.550   4.379   5.797 -0.6740  0.4369 -0.0611
 9266SOL    HW139257   0.574   4.443   5.730  0.2484 -0.8035 -0.9130
 9266SOL    HW239258   0.549   4.441   5.870 -0.6784 -0.0452  0.3403
 9267SOL     OW39259   0.247   0.406   5.001 -0.0853  0.5655 -0.3935
 9267SOL    HW139260   0.183   0.335   4.999  0.1786  0.3052  0.5595
 9267SOL    HW239261   0.220   0.458   5.076 -0.2343 -0.2454  0.1158
 9268SOL     OW39262   2.292   0.002   4.738 -0.2482  0.0269  0.0401
 9268SOL    HW139263   2.347   0.035   4.666  1.0313  0.6174  1.2907
 9268SOL    HW239264   2.209   0.001   4.690 -0.3865  1.9335  0.2220
 9269SOL     OW39265   3.881   2.302   2.069  0.2333  0.1607  0.0782
 9269SOL    HW139266   3.907   2.344   1.986  2.4469 -0.9600  0.1824
 9269SOL    HW239267   3.819   2.239   2.034 -0.7575  0.3803  1.4660
 9270SOL     OW39268   3.852   1.918   9.876  0.6121 -0.0541  0.2953
 9270SOL    HW139269   3.897   1.866   9.809  0.2652  0.8074 -0.6131
 9270SOL    HW239270   3.848   2.000   9.827  3.1322 -0.2406 -0.2286
 9271SOL     OW39271   1.362   0.854   7.945  0.1323  0.2753  0.0611
 9271SOL    HW139272   1.398   0.880   7.860  1.6474  1.5463  1.0971
 9271SOL    HW239273   1.295   0.921   7.960  1.0613  1.8947 -3.1625
 9272SOL     OW39274   1.410   1.416   5.085 -0.1302  0.0060  0.8053
 9272SOL    HW139275   1.432   1.507   5.063  0.0740  0.0332  1.1089
 9272SOL    HW239276   1.336   1.402   5.026  0.4735  2.4276 -0.5092
 9273SOL     OW39277   0.324   2.015   7.947  0.1934 -0.5470  0.1973
 9273SOL    HW139278   0.359   2.105   7.951 -1.3653  0.1058 -1.1713
 9273SOL    HW239279   0.331   1.999   7.853  2.2936 -0.3393  0.3066
 9274SOL     OW39280   3.360   0.799  17.423  0.2780  0.0315  0.3259
 9274SOL    HW139281   3.435   0.743  17.403  1.3645  1.9859 -1.0236
 9274SOL    HW239282   3.299   0.725  17.429 -0.3683  0.6379  1.3306
 9275SOL     OW39283   1.593   2.178  14.314 -0.9593  0.0299 -0.2555
 9275SOL    HW139284   1.644   2.196  14.393 -0.6845  0.1785 -0.4676
 9275SOL    HW239285   1.548   2.261  14.297 -0.6748 -0.0169 -1.2340
 9276SOL     OW39286   1.597   1.136   1.480 -0.0572  0.0690  0.0842
 9276SOL    HW139287   1.527   1.169   1.424 -0.6765 -1.2883  0.0482
 9276SOL    HW239288   1.618   1.053   1.438 -1.7598 -0.3318  0.0302
 9277SOL     OW39289   2.089   1.283   0.633  0.4160 -0.3248  0.1364
 9277SOL    HW139290   2.175   1.325   0.634  0.8610 -1.1915 -1.4174
 9277SOL    HW239291   2.109   1.197   0.596  2.4636 -0.6343  1.9547
 9278SOL     OW39292   3.690   1.365  13.105  0.2653 -0.0579  0.5406
 9278SOL    HW139293   3.672   1.329  13.192 -4.8433  1.1309 -0.0162
 9278SOL    HW239294   3.754   1.431  13.129  0.0436  0.6633 -0.8862
 9279SOL     OW39295   4.585   0.009   5.548 -0.1694  0.2505  0.0283
 9279SOL    HW139296   4.535   0.081   5.511 -2.1058 -1.0306  0.1550
 9279SOL    HW239297   4.644   0.049   5.612  1.5077 -1.1315 -0.6551
 9280SOL     OW39298   3.085   2.524  11.072 -0.2436  0.1457 -0.2307
 9280SOL    HW139299   3.172   2.555  11.095  0.6740 -1.2853 -1.7381
 9280SOL    HW239300   3.063   2.448  11.126  0.0334  1.0635  1.1709
 9281SOL     OW39301   3.126   1.810  17.654 -0.4872  0.2876 -0.2733
 9281SOL    HW139302   3.064   1.809  17.581  1.1292 -1.6459 -1.6139
 9281SOL    HW239303   3.206   1.819  17.603 -0.0533  0.8118  0.4900
 9282SOL     OW39304   0.061   0.238  13.582  0.4650  0.1212 -0.2749
 9282SOL    HW139305   0.102   0.324  13.589  0.8559 -0.1445  0.7476
 9282SOL    HW239306   0.133   0.189  13.621  0.1007  0.0861  0.3666
 9283SOL     OW39307   2.599   0.171   4.701  0.1477 -0.6087 -0.0587
 9283SOL    HW139308   2.558   0.209   4.623 -1.0122  0.6978  1.1765
 9283SOL    HW239309   2.673   0.141   4.649  0.0519 -0.5276 -0.2460
 9284SOL     OW39310   2.066   1.801   0.013 -0.0414  0.3764  0.2468
 9284SOL    HW139311   1.981   1.762  17.695  0.6131  0.0894 -2.0919
 9284SOL    HW239312   2.110   1.726  17.675 -2.6384 -1.3805  0.7022
 9285SOL     OW39313   2.372   1.359   7.141  0.1020 -0.0065  0.3383
 9285SOL    HW139314   2.308   1.389   7.076  1.8778  1.4336 -0.7354
 9285SOL    HW239315   2.453   1.401   7.111  0.1547 -0.0035  0.4821
 9286SOL     OW39316   2.272   1.765   3.540 -0.1705  0.2134  0.0587
 9286SOL    HW139317   2.181   1.765   3.569 -0.4907  1.1113 -0.9664
 9286SOL    HW239318   2.266   1.817   3.460  0.2981 -0.1205 -0.1999
 9287SOL     OW39319   4.234   3.429   8.257  0.0302  0.2214  0.5648
 9287SOL    HW139320   4.315   3.475   8.282 -1.3539  2.5445  0.8471
 9287SOL    HW239321   4.173   3.477   8.314 -1.4347  0.1354 -0.9349
 9288SOL     OW39322   0.450   4.447   4.255  0.4569  0.1396  0.1246
 9288SOL    HW139323   0.544   4.448   4.236  0.7849 -0.6386  1.6300
 9288SOL    HW239324   0.437   4.535   4.291  0.1506  0.3715 -0.5612
 9289SOL     OW39325   0.024   1.413   5.347  0.1728 -0.1326 -0.5060
 9289SOL    HW139326   0.020   1.341   5.410 -0.8246  0.2337 -0.1516
 9289SOL    HW239327   0.036   1.483   5.411 -2.4606 -1.0822  1.0439
 9290SOL     OW39328   2.092   3.270   3.931 -0.3224 -0.0262 -0.8163
 9290SOL    HW139329   2.176   3.245   3.969 -0.8034 -1.6698 -0.8345
 9290SOL    HW239330   2.117   3.351   3.887 -0.6034  1.4816  1.7844
 9291SOL     OW39331   2.797   0.558   7.555  0.9590 -0.5268  0.1579
 9291SOL    HW139332   2.857   0.630   7.571  0.3995  0.0891 -0.5568
 9291SOL    HW239333   2.763   0.584   7.470 -0.1612 -2.8661 -0.1142
 9292SOL     OW39334   4.603   0.953  11.369 -0.3057 -0.1469  0.3620
 9292SOL    HW139335   4.592   1.017  11.298 -0.0761  1.5610  1.8679
 9292SOL    HW239336   4.648   1.009  11.432 -0.1664 -0.2786  0.3790
 9293SOL     OW39337   1.298   3.800   3.318  0.0797  0.1266 -0.3799
 9293SOL    HW139338   1.216   3.757   3.292 -0.0368 -2.1198  3.6482
 9293SOL    HW239339   1.353   3.723   3.332  2.1886  2.0071  1.7169
 9294SOL     OW39340   3.232   1.570   3.350 -0.3877 -0.0500  0.2650
 9294SOL    HW139341   3.309   1.603   3.396 -0.3145  0.5360 -0.2690
 9294SOL    HW239342   3.229   1.633   3.278  0.2080 -1.4874 -1.0092
 9295SOL     OW39343   2.004   2.409   7.765 -0.5544 -0.1090 -0.2310
 9295SOL    HW139344   1.944   2.483   7.762  0.8041  1.0366  0.5357
 9295SOL    HW239345   2.069   2.441   7.828 -0.1727 -0.3570 -0.4987
 9296SOL     OW39346   3.662   2.505   1.546 -0.2541  0.9145  0.4408
 9296SOL    HW139347   3.723   2.432   1.556 -1.5528 -0.3028 -0.5768
 9296SOL    HW239348   3.719   2.581   1.548  1.2041 -0.2324  2.2997
 9297SOL     OW39349   0.786   3.955   2.443  0.1564 -0.2492 -0.2196
 9297SOL    HW139350   0.814   3.934   2.353  1.3036  1.3456 -0.2259
 9297SOL    HW239351   0.823   3.881   2.490 -0.2067  0.1695  0.7106
 9298SOL     OW39352   0.527   1.575   8.166  0.7152 -0.1373  0.2299
 9298SOL    HW139353   0.620   1.562   8.145  0.9897 -0.3996  1.6643
 9298SOL    HW239354   0.497   1.485   8.179  1.8471 -0.4216  0.8924
 9299SOL     OW39355   4.202   2.910   0.046  0.5418  0.3308  0.6468
 9299SOL    HW139356   4.214   2.972  17.675  1.8641  1.7394  2.0815
 9299SOL    HW239357   4.290   2.897   0.083  0.7742  0.6804  0.2295
 9300SOL     OW39358   2.123   0.446   9.797  0.0986  0.0270 -0.0163
 9300SOL    HW139359   2.175   0.454   9.717  0.2789 -2.3447 -0.1228
 9300SOL    HW239360   2.110   0.352   9.795 -1.7904  0.2583  1.2728
 9301SOL     OW39361   2.028   4.080  14.788 -0.1122 -0.3975  0.8320
 9301SOL    HW139362   2.018   4.171  14.817 -0.2012 -0.9050  2.3701
 9301SOL    HW239363   1.934   4.063  14.792 -0.4647  1.4339  0.4909
 9302SOL     OW39364   1.099   4.116   3.958  0.0351 -0.4376  0.6010
 9302SOL    HW139365   1.028   4.167   3.921 -0.2079 -0.1363  1.4817
 9302SOL    HW239366   1.041   4.069   4.018  0.3574  0.1523  1.3708
 9303SOL     OW39367   0.210   3.816   1.723  0.1801 -0.1929 -0.1597
 9303SOL    HW139368   0.276   3.776   1.780  0.0086 -1.6863 -0.9966
 9303SOL    HW239369   0.139   3.833   1.785  2.1876 -2.0717  2.6822
 9304SOL     OW39370   2.539   1.385   8.187  0.1386 -0.0149  0.0040
 9304SOL    HW139371   2.515   1.463   8.137  0.8539 -0.7746 -1.5554
 9304SOL    HW239372   2.579   1.333   8.117  0.5117  0.2613  0.0145
 9305SOL     OW39373   0.762   3.576   2.068  0.4601  0.5309  0.1475
 9305SOL    HW139374   0.850   3.614   2.067  1.6767 -2.1660  2.2615
 9305SOL    HW239375   0.715   3.634   2.009 -0.8448 -1.2436 -0.5427
 9306SOL     OW39376   0.870   3.554  11.265  0.1321  0.1306 -0.1719
 9306SOL    HW139377   0.890   3.481  11.324 -3.1353 -2.0947 -1.8498
 9306SOL    HW239378   0.933   3.542  11.194 -0.8725  0.0238 -1.0412
 9307SOL     OW39379   1.739   0.661  15.083  0.0633  0.8639 -0.0395
 9307SOL    HW139380   1.782   0.746  15.084 -1.5973  1.7108 -0.7781
 9307SOL    HW239381   1.778   0.624  15.162 -2.3952  1.6616  1.5291
 9308SOL     OW39382   0.035   3.397   4.909 -0.4846  0.2305  0.2131
 9308SOL    HW139383   4.699   3.345   4.961  0.8605 -0.2819  1.2698
 9308SOL    HW239384   0.049   3.475   4.962  1.1345 -0.6790  1.1005
 9309SOL     OW39385   1.176   4.476   7.104 -0.5036 -0.2410  0.3761
 9309SOL    HW139386   1.143   4.461   7.193  3.2258  0.4981  1.8553
 9309SOL    HW239387   1.265   4.497   7.132  0.6578 -0.8428 -2.9356
 9310SOL     OW39388   1.609   2.724   7.731  0.0346 -0.1369  0.5219
 9310SOL    HW139389   1.647   2.636   7.728  2.5137  0.9883 -0.3824
 9310SOL    HW239390   1.600   2.726   7.826 -0.1585 -0.9764  0.5236
 9311SOL     OW39391   3.618   1.455  12.262 -0.4171 -0.0157 -0.7227
 9311SOL    HW139392   3.572   1.370  12.259 -0.2232 -0.1592  0.7347
 9311SOL    HW239393   3.698   1.438  12.311 -0.1254  1.6531 -0.6300
 9312SOL     OW39394   0.717   0.972  12.321 -0.3440 -0.3553 -0.5184
 9312SOL    HW139395   0.702   1.040  12.387 -2.5363 -1.8842  0.5733
 9312SOL    HW239396   0.742   0.894  12.371  1.3414  0.2914 -0.3496
 9313SOL     OW39397   1.476   2.559   6.148 -0.2060  0.6700  0.2133
 9313SOL    HW139398   1.533   2.635   6.146 -2.1260  2.0555 -0.9792
 9313SOL    HW239399   1.533   2.493   6.108 -0.9497  0.1591 -0.0140
 9314SOL     OW39400   4.463   0.597   5.937  0.1345  0.6280 -0.4691
 9314SOL    HW139401   4.377   0.613   5.898 -0.2811  2.1688  1.0642
 9314SOL    HW239402   4.428   0.566   6.020  0.4904  0.5260 -0.3589
 9315SOL     OW39403   0.072   2.152   4.870 -0.2167 -0.0242  0.5286
 9315SOL    HW139404   0.072   2.230   4.926  0.9847  0.6062 -0.3525
 9315SOL    HW239405   4.710   2.123   4.898  0.1845 -0.8686  0.9155
 9316SOL     OW39406   0.032   1.114   1.617  0.4559 -0.1155 -0.0562
 9316SOL    HW139407   0.027   1.019   1.622 -1.2469  0.0133  0.5608
 9316SOL    HW239408   0.124   1.125   1.592  0.5301  2.3701  1.3142
 9317SOL     OW39409   0.864   3.599  13.058  0.1916  0.4077  0.6559
 9317SOL    HW139410   0.926   3.673  13.055  0.6821 -0.0901 -0.9840
 9317SOL    HW239411   0.808   3.634  13.128 -0.2627 -0.0372  0.5075
 9318SOL     OW39412   2.771   2.213   7.055  0.3732  0.5764  0.4490
 9318SOL    HW139413   2.796   2.276   7.122  1.0050 -1.0541  1.7347
 9318SOL    HW239414   2.808   2.134   7.094 -0.0074 -0.3119 -0.9557
 9319SOL     OW39415   1.618   2.369   3.029 -0.2875 -0.0178  0.0614
 9319SOL    HW139416   1.688   2.407   2.977  0.6965 -0.6201  0.9415
 9319SOL    HW239417   1.549   2.345   2.967 -0.5604  1.8029 -0.3462
 9320SOL     OW39418   2.639   3.113   3.033  0.4020  0.3540 -0.2552
 9320SOL    HW139419   2.662   3.109   2.941  1.0606 -0.6078 -0.0446
 9320SOL    HW239420   2.626   3.208   3.044 -1.4168  0.2539 -1.6321
 9321SOL     OW39421   3.733   0.405   7.998  0.2159  0.2422 -0.4679
 9321SOL    HW139422   3.783   0.334   8.038  1.1593  1.6252  0.8316
 9321SOL    HW239423   3.776   0.404   7.913 -0.3540 -1.1666 -0.7313
 9322SOL     OW39424   3.633   0.404   6.223  0.1868 -0.2839 -0.1305
 9322SOL    HW139425   3.675   0.487   6.247 -1.3819  0.4812 -0.0883
 9322SOL    HW239426   3.692   0.344   6.270  0.4238  1.0812  1.3286
 9323SOL     OW39427   3.242   4.658  10.087 -0.4819 -0.7345 -0.1407
 9323SOL    HW139428   3.265   4.645  10.179  2.3609  0.4241 -0.6775
 9323SOL    HW239429   3.149   4.677  10.098 -0.5741 -2.7353  2.3438
 9324SOL     OW39430   4.268   3.987   3.129  0.2302 -0.3347 -0.1817
 9324SOL    HW139431   4.206   3.935   3.078  1.1267 -0.2272 -1.3949
 9324SOL    HW239432   4.302   4.040   3.057  0.1981  0.4971  0.4140
 9325SOL     OW39433   0.181   3.840   6.175  0.2055 -0.2823 -0.1256
 9325SOL    HW139434   0.088   3.856   6.158  0.5067  0.4902 -1.0357
 9325SOL    HW239435   0.171   3.787   6.254  1.2373 -0.1079  0.1296
 9326SOL     OW39436   0.154   2.321   2.488  0.1181  0.2815 -0.1442
 9326SOL    HW139437   0.075   2.272   2.467  0.1208 -0.8513  2.5403
 9326SOL    HW239438   0.209   2.243   2.483 -1.7235 -1.0545  0.3639
 9327SOL     OW39439   3.678   0.520  12.419  0.2150  0.0224  0.0167
 9327SOL    HW139440   3.749   0.579  12.446  2.6565 -2.6221 -0.6307
 9327SOL    HW239441   3.620   0.509  12.495  1.4093 -1.5953  0.6894
 9328SOL     OW39442   1.247   2.025   5.358 -0.0699  0.0920  0.8843
 9328SOL    HW139443   1.263   1.988   5.444 -0.2096 -1.7283  0.1138
 9328SOL    HW239444   1.153   2.044   5.355 -0.3228 -1.1545  1.3030
 9329SOL     OW39445   3.692   4.655  13.936  0.4074  0.3689 -0.0168
 9329SOL    HW139446   3.688   4.676  14.029 -0.7582  0.7481 -0.1558
 9329SOL    HW239447   3.777   4.612  13.940  2.0032  3.5410  0.5390
 9330SOL     OW39448   0.486   3.894   6.854 -0.1378 -0.1077 -0.0615
 9330SOL    HW139449   0.568   3.849   6.875  0.3679  2.5339  3.5997
 9330SOL    HW239450   0.483   3.883   6.759  1.2365 -0.4650 -0.0660
 9331SOL     OW39451   3.088   3.632   2.406  0.3140 -0.2942  0.4513
 9331SOL    HW139452   3.021   3.672   2.350  0.2410 -0.9439  0.0789
 9331SOL    HW239453   3.147   3.704   2.428  0.9904  0.3630 -3.4619
 9332SOL     OW39454   1.475   3.346   6.062 -0.1114  0.5570  0.1400
 9332SOL    HW139455   1.453   3.434   6.032  3.4548  2.2100  2.3517
 9332SOL    HW239456   1.530   3.319   5.989 -0.3250  0.2997  0.0754
 9333SOL     OW39457   1.465   3.636   7.807  0.4836  0.2161  0.6158
 9333SOL    HW139458   1.459   3.577   7.882  1.8578  1.5612  1.7889
 9333SOL    HW239459   1.405   3.704   7.838  0.1751  1.5506 -2.9075
 9334SOL     OW39460   4.599   3.904  12.855 -0.2032 -0.6417  0.5173
 9334SOL    HW139461   4.644   3.985  12.879  1.2894 -1.0971 -0.7268
 9334SOL    HW239462   4.557   3.922  12.771  1.3899  0.7124 -0.0043
 9335SOL     OW39463   0.022   1.720  14.798 -0.0874  0.0716  0.1332
 9335SOL    HW139464   4.680   1.765  14.747 -0.2968 -0.4010 -0.0009
 9335SOL    HW239465   0.001   1.731  14.890  0.4681  1.3728  0.1071
 9336SOL     OW39466   4.548   1.659   5.964 -0.1745  0.2504 -0.5584
 9336SOL    HW139467   4.501   1.743   5.962  0.7098  0.7335 -1.1280
 9336SOL    HW239468   4.575   1.650   5.872  2.6358  0.8852  0.1891
 9337SOL     OW39469   4.086   2.386   5.509  0.1409 -0.9530 -0.3181
 9337SOL    HW139470   4.147   2.320   5.476 -0.2291 -2.1073  1.3204
 9337SOL    HW239471   4.071   2.426   5.423 -3.4236 -0.6582  0.4644
 9338SOL     OW39472   4.595   2.988  10.397  0.0433 -0.6304 -0.0119
 9338SOL    HW139473   4.622   3.079  10.405 -0.4632 -0.2708 -2.4455
 9338SOL    HW239474   4.517   3.001  10.343 -0.1144 -1.9519 -0.1097
 9339SOL     OW39475   2.116   1.973  14.163  0.0952  0.3268 -0.5821
 9339SOL    HW139476   2.031   1.986  14.206  0.2146 -1.7570  0.2428
 9339SOL    HW239477   2.168   2.046  14.197 -1.2809  0.0764  2.0148
 9340SOL     OW39478   0.064   2.706   7.045 -0.0192  0.2106  0.2734
 9340SOL    HW139479   0.030   2.714   6.956 -0.6029 -1.3669  0.3447
 9340SOL    HW239480   0.135   2.646   7.025  0.2456 -0.2295  2.5569
 9341SOL     OW39481   4.703   0.912   3.159 -0.0694 -0.5978  0.3044
 9341SOL    HW139482   4.724   0.991   3.109 -0.4075 -1.9054 -1.8949
 9341SOL    HW239483   4.608   0.914   3.151 -0.0254  0.1208 -0.0674
 9342SOL     OW39484   3.238   3.992   9.690 -0.2350  0.1337 -0.1408
 9342SOL    HW139485   3.156   3.987   9.740  0.1980  1.8196  0.7422
 9342SOL    HW239486   3.244   3.900   9.668 -1.2791 -0.1374  0.6774
 9343SOL     OW39487   3.509   1.800   7.687 -0.6687  0.4001 -0.4017
 9343SOL    HW139488   3.420   1.809   7.723  0.1999  0.6380  1.6650
 9343SOL    HW239489   3.548   1.880   7.722 -1.3245 -0.6074  2.6198
 9344SOL     OW39490   3.418   1.307  14.506  0.2411 -0.2191 -0.5322
 9344SOL    HW139491   3.407   1.389  14.459 -2.0783  0.5990  1.4336
 9344SOL    HW239492   3.441   1.339  14.594  1.2430 -0.3049 -0.7594
 9345SOL     OW39493   3.537   1.585  15.630 -0.2682  0.2587 -0.2790
 9345SOL    HW139494   3.564   1.621  15.714 -0.2229  0.2724 -0.2996
 9345SOL    HW239495   3.507   1.664  15.584 -0.5374 -0.6100 -1.6081
 9346SOL     OW39496   2.220   3.625   8.879  0.1005 -0.2530 -0.4705
 9346SOL    HW139497   2.175   3.684   8.940  0.9216  1.0824 -1.1520
 9346SOL    HW239498   2.234   3.690   8.810  1.5389  0.7155  0.7198
 9347SOL     OW39499   3.150   1.591   7.758 -0.4443 -0.2259 -0.2620
 9347SOL    HW139500   3.164   1.676   7.801 -0.3851  0.2723 -1.2633
 9347SOL    HW239501   3.071   1.580   7.811  0.6187  1.8772  1.7864
 9348SOL     OW39502   4.087   1.455   4.773 -0.4772 -0.3223  0.2656
 9348SOL    HW139503   4.028   1.523   4.806  1.0847  0.9492  0.4200
 9348SOL    HW239504   4.134   1.443   4.855 -2.4174  0.8440  1.5406
 9349SOL     OW39505   2.425   0.117  14.284  0.3171  0.2699  0.7607
 9349SOL    HW139506   2.500   0.171  14.307 -1.6959  2.8395  1.3137
 9349SOL    HW239507   2.474   0.040  14.256 -0.4956  0.3049 -0.7365
 9350SOL     OW39508   3.579   0.305  12.278 -0.5832 -0.3204 -0.2006
 9350SOL    HW139509   3.596   0.250  12.354  3.0560  0.1721 -0.7045
 9350SOL    HW239510   3.633   0.381  12.296 -2.2594  0.4764  1.3880
 9351SOL     OW39511   0.900   0.807  11.074  0.4367 -0.2508 -0.0626
 9351SOL    HW139512   0.805   0.797  11.071  0.3002  1.0788 -0.2735
 9351SOL    HW239513   0.915   0.881  11.133 -0.8731  0.0808 -0.1547
 9352SOL     OW39514   3.411   0.005   8.080  0.3625  0.0912 -0.6620
 9352SOL    HW139515   3.445   4.646   8.047  1.3817  0.2325 -0.0019
 9352SOL    HW239516   3.326   0.002   8.036  0.8239 -0.9839 -1.4854
 9353SOL     OW39517   3.667   1.581  14.949  0.2945 -0.1355 -0.0658
 9353SOL    HW139518   3.644   1.488  14.952  0.7391 -0.2332  0.3123
 9353SOL    HW239519   3.751   1.577  14.903  0.6902 -0.2013  0.6612
 9354SOL     OW39520   0.086   4.569   8.075 -0.3814  0.7960  0.0784
 9354SOL    HW139521   0.141   4.646   8.083  1.6427 -0.6579  0.1612
 9354SOL    HW239522   0.105   4.525   8.158 -0.2471  2.3903  0.9007
 9355SOL     OW39523   4.430   4.434  13.865  0.4987 -0.3112 -0.0295
 9355SOL    HW139524   4.462   4.422  13.775 -0.4789  3.3109 -0.8722
 9355SOL    HW239525   4.478   4.500  13.916 -1.0270  0.1975  0.7418
 9356SOL     OW39526   3.275   1.419   7.093 -0.3175  0.1167 -0.1170
 9356SOL    HW139527   3.260   1.332   7.130 -4.3411 -0.1169 -2.3065
 9356SOL    HW239528   3.190   1.436   7.053 -1.6473 -1.9030  1.8298
 9357SOL     OW39529   3.632   0.452  15.254 -0.1942 -0.4406 -0.2417
 9357SOL    HW139530   3.540   0.449  15.281  0.5506 -1.1067  2.2949
 9357SOL    HW239531   3.634   0.535  15.208 -0.1486 -0.9941 -1.2275
 9358SOL     OW39532   1.726   2.966   2.750  0.2283  0.0098 -0.3662
 9358SOL    HW139533   1.773   2.943   2.670 -1.5611  2.6249 -2.1758
 9358SOL    HW239534   1.720   2.882   2.795  0.9784 -0.2259 -0.7093
 9359SOL     OW39535   1.924   0.631   3.762 -0.3466 -0.4276  0.4178
 9359SOL    HW139536   1.936   0.552   3.709  3.9431 -0.4459  1.3977
 9359SOL    HW239537   1.879   0.597   3.840  1.1298  0.6835  1.7652
 9360SOL     OW39538   0.294   0.236  14.189 -0.5828  0.1635 -0.9316
 9360SOL    HW139539   0.261   0.163  14.137  0.1721  0.1706 -1.4298
 9360SOL    HW239540   0.358   0.182  14.236  1.1717 -0.3332 -3.8827
 9361SOL     OW39541   4.586   4.707   9.254 -0.1751 -0.0478 -0.6346
 9361SOL    HW139542   4.664   0.012   9.302  0.0978 -1.4519 -0.2078
 9361SOL    HW239543   4.616   4.619   9.232  1.7869  0.4841 -0.0786
 9362SOL     OW39544   0.877   2.816   1.652 -0.0164  0.5043  0.0771
 9362SOL    HW139545   0.863   2.889   1.591  0.2840  0.2604 -0.2897
 9362SOL    HW239546   0.933   2.764   1.593 -0.0558 -0.2219  0.6778
 9363SOL     OW39547   3.991   1.503   9.252  0.5585  0.1146 -0.0239
 9363SOL    HW139548   4.082   1.477   9.242  0.1659  0.0790 -3.7700
 9363SOL    HW239549   4.007   1.596   9.239  1.2333 -0.2484 -1.9218
 9364SOL     OW39550   3.938   0.422   8.727 -0.6246 -0.0643  0.0473
 9364SOL    HW139551   3.907   0.422   8.817  1.4227 -1.4440  0.7458
 9364SOL    HW239552   3.863   0.455   8.678 -1.2773  1.2048  1.9089
 9365SOL     OW39553   0.415   2.923  11.091  0.1705 -0.2545 -0.1965
 9365SOL    HW139554   0.323   2.946  11.105  0.9451  1.7946  1.5300
 9365SOL    HW239555   0.443   2.987  11.025 -0.6123 -0.7241 -0.9795
 9366SOL     OW39556   3.979   2.764   1.281 -0.0473  0.6324  0.1904
 9366SOL    HW139557   3.971   2.829   1.212  1.1372  0.9248  0.3287
 9366SOL    HW239558   4.038   2.701   1.238  1.3122  0.6984  1.9452
 9367SOL     OW39559   1.436   0.336   0.680 -0.3741  0.5842 -0.0868
 9367SOL    HW139560   1.529   0.339   0.700 -0.7676  1.1175  1.6456
 9367SOL    HW239561   1.409   0.333   0.772 -1.4886  1.1213 -0.3958
 9368SOL     OW39562   2.325   0.461   4.624  0.1867  0.2206  0.1079
 9368SOL    HW139563   2.357   0.550   4.611  0.7050 -0.0259 -0.2739
 9368SOL    HW239564   2.261   0.480   4.692  0.3300 -0.3830  0.4119
 9369SOL     OW39565   0.033   2.369   7.122 -0.1283 -0.4126  0.2776
 9369SOL    HW139566   0.018   2.286   7.077 -0.4941 -0.6013  0.7423
 9369SOL    HW239567   4.681   2.424   7.102 -0.5109 -0.2265  2.3127
 9370SOL     OW39568   1.484   4.369  11.366  0.0286  0.1488  0.0232
 9370SOL    HW139569   1.501   4.383  11.273 -0.7396  0.1488 -0.1209
 9370SOL    HW239570   1.389   4.364  11.357  0.0658 -0.8306  0.1665
 9371SOL     OW39571   2.923   1.870   3.938  0.6396  0.2994  0.1810
 9371SOL    HW139572   2.942   1.893   4.029  1.0924 -0.3093  0.2456
 9371SOL    HW239573   2.920   1.958   3.900 -3.1102  0.7963  1.6159
 9372SOL     OW39574   0.595   2.027  17.054 -0.3042 -0.9607  0.2869
 9372SOL    HW139575   0.638   2.007  16.971 -2.2925  0.8025 -1.1801
 9372SOL    HW239576   0.501   2.020  17.035 -0.4969  0.9049  0.5654
 9373SOL     OW39577   3.213   0.942   3.499 -0.1271  0.2904 -0.1257
 9373SOL    HW139578   3.212   0.848   3.479 -2.4634 -0.1263  2.0195
 9373SOL    HW239579   3.292   0.969   3.451 -0.0278 -1.7771 -1.1415
 9374SOL     OW39580   3.513   0.873  14.731 -0.3272 -0.4980  0.9921
 9374SOL    HW139581   3.443   0.809  14.741  0.9266 -2.1874 -1.0766
 9374SOL    HW239582   3.467   0.946  14.689  2.6117  1.4624  1.1354
 9375SOL     OW39583   3.830   2.205   2.310 -0.6059  0.0712  0.0240
 9375SOL    HW139584   3.757   2.161   2.267 -0.6845  0.6167 -0.4111
 9375SOL    HW239585   3.878   2.231   2.231  1.8584 -1.4858  1.0266
 9376SOL     OW39586   0.499   0.850   3.616  0.2673  0.0553  0.2739
 9376SOL    HW139587   0.577   0.820   3.663  0.1908  0.4038  0.6182
 9376SOL    HW239588   0.445   0.871   3.692  0.9700  0.5496  0.6378
 9377SOL     OW39589   3.976   3.953   3.025  0.8489 -0.0337 -0.0654
 9377SOL    HW139590   3.881   3.954   3.011  1.0492 -2.9287 -1.6714
 9377SOL    HW239591   4.009   4.021   2.966 -0.9614  2.1825  1.4631
 9378SOL     OW39592   1.392   3.355   5.722 -0.3835 -0.1871 -0.3379
 9378SOL    HW139593   1.356   3.268   5.705  1.4334 -0.9729 -0.2067
 9378SOL    HW239594   1.330   3.410   5.675  1.3122  0.6672 -1.5976
 9379SOL     OW39595   3.967   0.262   5.610  0.5057 -0.3580  0.3319
 9379SOL    HW139596   3.923   0.342   5.641  2.2027  0.3079  1.0207
 9379SOL    HW239597   4.045   0.308   5.578  1.2275 -0.2931  2.1680
 9380SOL     OW39598   0.391   3.573   3.803  0.0537  0.2500 -0.3799
 9380SOL    HW139599   0.377   3.604   3.893  1.8919  2.1344 -0.7287
 9380SOL    HW239600   0.325   3.615   3.749 -1.1209 -1.1499 -0.0103
 9381SOL     OW39601   1.719   1.959   4.059 -0.3103 -0.0106 -0.5212
 9381SOL    HW139602   1.762   1.914   4.132 -1.0028  0.8326  0.4029
 9381SOL    HW239603   1.739   2.051   4.075 -1.1636  0.0031  0.4196
 9382SOL     OW39604   4.270   3.563   9.972  0.2200  0.1037  0.0870
 9382SOL    HW139605   4.182   3.572   9.936  0.1490 -0.0078  0.2330
 9382SOL    HW239606   4.279   3.639  10.030  0.6322  1.5230 -1.8261
 9383SOL     OW39607   3.974   2.535   8.573  0.3687  0.3842  0.0975
 9383SOL    HW139608   4.024   2.559   8.495  0.0118 -0.2865 -0.3336
 9383SOL    HW239609   3.934   2.619   8.596 -0.9948 -0.3198  0.3293
 9384SOL     OW39610   4.328   0.691   3.743  0.1723 -0.3728 -0.1080
 9384SOL    HW139611   4.363   0.778   3.727 -1.4604 -0.1919 -2.6089
 9384SOL    HW239612   4.395   0.649   3.798  0.9992 -1.8279 -2.1657
 9385SOL     OW39613   3.179   3.861   7.058  0.3000  0.2450  0.0563
 9385SOL    HW139614   3.209   3.821   6.977 -1.2111 -1.1076  0.1409
 9385SOL    HW239615   3.244   3.930   7.070 -0.1435  0.1655  3.0348
 9386SOL     OW39616   2.247   2.936   4.996  0.7708  0.1747  0.4500
 9386SOL    HW139617   2.226   3.000   4.929  0.9356 -2.1588 -1.8381
 9386SOL    HW239618   2.330   2.971   5.029  1.2215  0.1570 -0.6595
 9387SOL     OW39619   1.353   1.091  16.216  0.1825  0.5561 -0.0617
 9387SOL    HW139620   1.261   1.113  16.202 -0.1379 -0.7049 -0.0095
 9387SOL    HW239621   1.370   1.056  16.128 -0.1353 -2.6134  1.1203
 9388SOL     OW39622   3.095   0.843   6.502 -0.3734  0.0113  0.1183
 9388SOL    HW139623   3.067   0.787   6.575  1.4818  1.0678  1.6199
 9388SOL    HW239624   3.124   0.920   6.550  1.0697  0.9080 -2.2152
 9389SOL     OW39625   4.373   2.232   6.608  0.0840 -0.0712  0.6406
 9389SOL    HW139626   4.307   2.178   6.652 -0.0360  0.3379  0.9588
 9389SOL    HW239627   4.394   2.295   6.676  0.4923  0.0616  0.3920
 9390SOL     OW39628   0.232   3.554   2.062 -0.7696 -0.5126  0.7241
 9390SOL    HW139629   0.266   3.617   1.998 -2.7939 -2.4888 -2.3209
 9390SOL    HW239630   0.311   3.531   2.110 -1.0274  1.0021  1.8694
 9391SOL     OW39631   3.580   4.505   6.994  0.5649  0.5929 -0.0733
 9391SOL    HW139632   3.521   4.481   6.922  1.0182  1.2077 -0.6563
 9391SOL    HW239633   3.518   4.492   7.066 -0.5792 -0.4758 -1.2426
 9392SOL     OW39634   0.582   1.047   2.873 -0.3990  0.1098  0.0448
 9392SOL    HW139635   0.671   1.082   2.872 -0.2661 -0.2199  0.0923
 9392SOL    HW239636   0.550   1.095   2.797 -0.9361  1.5988  1.2180
 9393SOL     OW39637   1.441   2.099   3.358  0.0494 -0.5712 -0.2941
 9393SOL    HW139638   1.461   2.178   3.406 -3.6084  0.6638 -0.7710
 9393SOL    HW239639   1.378   2.053   3.414 -1.0740  1.3075 -0.0352
 9394SOL     OW39640   4.632   3.832  16.488  0.4428 -0.6183 -1.0039
 9394SOL    HW139641   4.632   3.896  16.417 -0.1706 -0.7451 -1.1225
 9394SOL    HW239642   4.652   3.893  16.558 -1.3763  0.1310 -1.1379
 9395SOL     OW39643   0.760   0.600   6.453 -0.0510 -0.2032  0.4534
 9395SOL    HW139644   0.821   0.567   6.387  0.6673 -1.5277  1.7699
 9395SOL    HW239645   0.817   0.655   6.507 -0.5116  1.5683 -0.8478
 9396SOL     OW39646   3.819   0.317  15.688 -0.1324  0.7373 -0.0684
 9396SOL    HW139647   3.814   0.331  15.593 -2.0076 -0.6515 -0.1840
 9396SOL    HW239648   3.795   0.405  15.715  1.3445  1.7651 -2.0564
 9397SOL     OW39649   3.921   4.545   1.634 -0.1149  0.4687 -0.0192
 9397SOL    HW139650   3.972   4.617   1.596 -1.4375  1.2613 -0.2957
 9397SOL    HW239651   3.851   4.531   1.571  0.1769 -0.4433 -0.1441
 9398SOL     OW39652   2.124   0.185   7.442  0.0962  0.4691  0.4879
 9398SOL    HW139653   2.207   0.223   7.414 -0.7486  2.0892  0.2003
 9398SOL    HW239654   2.134   0.175   7.537  1.4779 -3.8845 -0.1195
 9399SOL     OW39655   0.590   4.058   8.528  0.0125 -0.1654  0.1448
 9399SOL    HW139656   0.530   4.103   8.469 -0.7574 -0.6703  0.5466
 9399SOL    HW239657   0.567   3.968   8.507  0.0361 -0.4392  1.2502
 9400SOL     OW39658   0.486   3.395  16.421 -0.3259 -0.1226 -0.3273
 9400SOL    HW139659   0.500   3.490  16.417 -2.2853  0.2102  0.7796
 9400SOL    HW239660   0.396   3.391  16.452 -0.2417  2.4123  0.2346
 9401SOL     OW39661   3.656   4.235   6.716  0.4194  0.2417  0.2139
 9401SOL    HW139662   3.661   4.140   6.717 -0.0057  0.2146 -0.4723
 9401SOL    HW239663   3.749   4.260   6.708  0.5501 -0.1589  0.4646
 9402SOL     OW39664   0.634   0.061   2.474 -0.1446  0.2307  0.3306
 9402SOL    HW139665   0.564   4.722   2.468  0.5845 -0.5019 -0.3640
 9402SOL    HW239666   0.699   0.024   2.414  1.2543  2.9276  0.1854
 9403SOL     OW39667   2.011   2.185  17.648  0.2310  0.0690  0.5481
 9403SOL    HW139668   2.076   2.133  17.696  0.2166  0.2988  0.8172
 9403SOL    HW239669   1.946   2.208   0.013 -1.3022 -0.8697 -0.6417
 9404SOL     OW39670   0.076   1.992   7.177  0.1256 -0.3973  0.4253
 9404SOL    HW139671   0.025   2.033   7.246 -1.9180  0.0194 -1.3297
 9404SOL    HW239672   0.069   1.899   7.199 -0.8150 -0.0319  1.6124
 9405SOL     OW39673   2.288   1.504   4.036  0.7441  0.3332  0.2289
 9405SOL    HW139674   2.373   1.475   4.001  0.6620  0.2296  0.1165
 9405SOL    HW239675   2.302   1.474   4.125  1.6850  0.5487  0.1532
 9406SOL     OW39676   0.178   4.286   6.578  0.2202 -0.6712 -0.4936
 9406SOL    HW139677   0.086   4.303   6.597 -0.0104 -1.6750 -0.7313
 9406SOL    HW239678   0.209   4.377   6.583  2.3661 -1.4867  0.9700
 9407SOL     OW39679   3.878   0.116   8.986 -0.4146  0.8889  0.0817
 9407SOL    HW139680   3.954   0.167   9.012 -0.1944  0.7962 -0.3788
 9407SOL    HW239681   3.822   0.147   9.057 -2.1084  1.4720 -1.4969
 9408SOL     OW39682   2.588   0.996   6.671  0.2155 -0.4248 -0.3080
 9408SOL    HW139683   2.672   0.992   6.717 -0.9111  0.9552  1.8728
 9408SOL    HW239684   2.597   1.088   6.647 -1.7318  0.0895  0.9350
 9409SOL     OW39685   1.778   1.295   4.580  0.3629 -0.2508  0.3257
 9409SOL    HW139686   1.819   1.379   4.557  0.3154 -0.1435  0.6210
 9409SOL    HW239687   1.797   1.244   4.502  1.0440  0.8897 -0.2591
 9410SOL     OW39688   1.163   3.419   8.212 -0.0842 -0.4932 -0.4095
 9410SOL    HW139689   1.136   3.498   8.165 -1.0008 -1.4728 -1.5418
 9410SOL    HW239690   1.111   3.405   8.291 -1.2022  0.9789 -0.8913
 9411SOL     OW39691   2.413   1.046   4.659  0.8896 -0.5239  0.2088
 9411SOL    HW139692   2.420   1.049   4.755 -1.3979 -0.6435  0.3982
 9411SOL    HW239693   2.499   1.016   4.632  2.2547  0.9094  3.0067
 9412SOL     OW39694   2.281   0.442   5.234  1.1092 -0.2440  0.4714
 9412SOL    HW139695   2.341   0.397   5.175 -0.2932 -0.3256 -0.8724
 9412SOL    HW239696   2.211   0.378   5.248  0.7981  0.2674  1.2605
 9413SOL     OW39697   3.431   2.606   7.098 -0.1578  0.0468 -0.2447
 9413SOL    HW139698   3.401   2.545   7.166 -3.2280 -1.0994 -2.6334
 9413SOL    HW239699   3.345   2.628   7.061  0.3298  1.9259 -0.2275
 9414SOL     OW39700   3.928   3.416   5.716 -0.1792  0.2482  0.2858
 9414SOL    HW139701   3.977   3.405   5.797  0.8843 -1.4588 -0.6005
 9414SOL    HW239702   3.937   3.505   5.681 -0.6656  0.1415 -0.1158
 9415SOL     OW39703   2.212   4.395   0.488 -0.5101 -0.3567 -0.0851
 9415SOL    HW139704   2.164   4.457   0.543  2.4175  0.9559  0.9937
 9415SOL    HW239705   2.142   4.385   0.424 -1.9943 -1.5766  1.7380
 9416SOL     OW39706   4.209   1.801   7.070 -0.1872 -0.2221 -0.2544
 9416SOL    HW139707   4.181   1.789   7.161  1.1300  3.7357  0.6850
 9416SOL    HW239708   4.251   1.715   7.064 -3.3674 -1.5960 -2.5355
 9417SOL     OW39709   1.354   3.550   7.193  0.5646 -0.0147 -0.0178
 9417SOL    HW139710   1.357   3.609   7.268  0.2283 -0.6656  0.5107
 9417SOL    HW239711   1.413   3.481   7.225 -0.8271 -0.9140  0.6315
 9418SOL     OW39712   2.908   0.237  10.152  0.2465  0.7240 -0.3838
 9418SOL    HW139713   2.869   0.291  10.221  0.9873 -0.3770  0.8950
 9418SOL    HW239714   2.852   0.162  10.135 -0.8758  1.2736  0.9370
 9419SOL     OW39715   2.275   1.376   8.784 -0.1071  0.3437 -0.3194
 9419SOL    HW139716   2.253   1.422   8.703 -1.9792  1.9482  1.0981
 9419SOL    HW239717   2.371   1.376   8.782 -0.0919 -2.5268  1.1868
 9420SOL     OW39718   0.617   3.954   4.629 -0.5549 -0.4896 -0.5139
 9420SOL    HW139719   0.545   4.006   4.590  0.3888 -0.2495 -1.9370
 9420SOL    HW239720   0.590   3.950   4.721  0.0274 -1.1131 -0.3740
 9421SOL     OW39721   3.984   2.853   6.394  0.2716 -0.2952  0.2626
 9421SOL    HW139722   4.062   2.810   6.428  0.8092 -0.2084 -0.8593
 9421SOL    HW239723   3.919   2.784   6.406  0.4792 -0.3114  1.2277
 9422SOL     OW39724   0.896   3.806  11.877  0.0038 -0.4939  0.6935
 9422SOL    HW139725   0.956   3.816  11.951  0.5492 -1.1056  0.3429
 9422SOL    HW239726   0.926   3.730  11.827 -2.0502  0.4314 -1.9610
 9423SOL     OW39727   2.630   3.892  15.940 -0.3695 -0.3644  0.2844
 9423SOL    HW139728   2.583   3.921  16.019 -0.1550 -1.2790  0.7518
 9423SOL    HW239729   2.703   3.954  15.935 -0.9351  0.3571  0.8414
 9424SOL     OW39730   2.574   0.931   7.412  0.4295  0.6790  0.1889
 9424SOL    HW139731   2.617   0.882   7.341 -0.7499 -1.9349  1.2825
 9424SOL    HW239732   2.486   0.917   7.377  0.9874 -1.6874 -0.3146
 9425SOL     OW39733   2.950   3.035   6.760  0.0566 -0.0725 -0.3631
 9425SOL    HW139734   2.907   2.952   6.782  0.9619 -0.2206  0.8798
 9425SOL    HW239735   3.025   3.022   6.819 -1.0298 -1.1624  0.7821
 9426SOL     OW39736   1.172   2.927   0.593 -0.0299  0.3356 -0.9099
 9426SOL    HW139737   1.257   2.911   0.634  0.6513 -0.4042 -2.6193
 9426SOL    HW239738   1.163   2.852   0.534 -1.9374 -1.1144  1.2227
 9427SOL     OW39739   3.413   1.475   8.238 -0.4841 -0.6992 -0.3530
 9427SOL    HW139740   3.455   1.434   8.314 -1.2722  0.8259  0.9277
 9427SOL    HW239741   3.324   1.480   8.273 -0.0631  1.3030  0.4632
 9428SOL     OW39742   3.924   2.674  14.714  0.0540 -0.5040 -0.1117
 9428SOL    HW139743   3.912   2.766  14.736  2.1383  0.2273 -2.1052
 9428SOL    HW239744   3.914   2.635  14.801  2.2903 -1.5487 -0.3269
 9429SOL     OW39745   3.985   1.813   8.472  0.5159  0.3808  0.3938
 9429SOL    HW139746   3.901   1.810   8.517 -0.5237 -1.9347 -1.7205
 9429SOL    HW239747   3.969   1.770   8.388  2.0756 -0.2379  0.4135
 9430SOL     OW39748   1.732   1.488   7.994  0.3665  0.2139 -0.9133
 9430SOL    HW139749   1.687   1.408   8.022  2.2529 -0.4488  0.2267
 9430SOL    HW239750   1.813   1.486   8.045 -1.2051 -0.5543  1.5771
 9431SOL     OW39751   3.674   0.522  13.464  0.8956  0.5005 -0.0711
 9431SOL    HW139752   3.672   0.441  13.515 -1.4408  2.0221  2.2171
 9431SOL    HW239753   3.589   0.533  13.421  1.1627 -3.0421 -1.4752
 9432SOL     OW39754   4.535   4.473   6.877  0.2598  0.0824  0.7956
 9432SOL    HW139755   4.499   4.504   6.794 -0.8819 -0.9611  0.9074
 9432SOL    HW239756   4.463   4.488   6.939  0.6491 -0.5402  1.3926
 9433SOL     OW39757   4.456   3.790   1.682  0.1335  0.1172 -0.3735
 9433SOL    HW139758   4.457   3.732   1.758 -0.3666 -0.5032 -0.8332
 9433SOL    HW239759   4.383   3.751   1.633  0.1769 -2.5025  1.6415
 9434SOL     OW39760   1.134   2.558   8.011  0.4594  0.3778  0.1745
 9434SOL    HW139761   1.060   2.617   8.000  0.3653  0.0494 -0.8956
 9434SOL    HW239762   1.113   2.488   7.950 -2.2443  2.6539 -1.4787
 9435SOL     OW39763   2.411   1.862   7.369  0.0225  0.0211  0.1091
 9435SOL    HW139764   2.368   1.870   7.454  1.0882  0.9190  0.5502
 9435SOL    HW239765   2.347   1.892   7.304  0.3431 -0.8663 -0.6176
 9436SOL     OW39766   3.091   3.734  17.281 -0.0504 -0.1148  0.0756
 9436SOL    HW139767   3.074   3.644  17.309 -3.4179  0.8672  1.1485
 9436SOL    HW239768   3.110   3.718  17.189 -1.1921  0.5945 -0.2765
 9437SOL     OW39769   3.525   4.024  15.837 -0.3723 -0.4397 -0.3253
 9437SOL    HW139770   3.516   3.973  15.918 -1.4372 -0.5096 -0.4858
 9437SOL    HW239771   3.453   3.986  15.787 -0.1601  1.8051 -2.3329
 9438SOL     OW39772   3.583   3.850   9.863  0.3661 -0.0703 -0.4036
 9438SOL    HW139773   3.562   3.902   9.786  0.1008  0.1172 -0.2077
 9438SOL    HW239774   3.677   3.864   9.858  0.1203  1.3151 -1.2097
 9439SOL     OW39775   0.073   0.556  14.089 -0.7950 -0.8409  0.2307
 9439SOL    HW139776   0.077   0.531  14.181  1.9482  0.1631  0.4118
 9439SOL    HW239777   0.158   0.524  14.059 -0.6853 -0.9794  0.6858
 9440SOL     OW39778   1.773   2.183  14.082  0.0661  0.9901 -0.0296
 9440SOL    HW139779   1.679   2.174  14.100  0.5475  0.1402  2.0534
 9440SOL    HW239780   1.795   2.275  14.093  0.0867  0.9563  0.2102
 9441SOL     OW39781   3.822   3.136   3.624  0.0248 -0.2519  0.5393
 9441SOL    HW139782   3.769   3.186   3.686  1.7036 -1.2992  2.8300
 9441SOL    HW239783   3.837   3.196   3.552  0.8730 -1.0443  0.0553
 9442SOL     OW39784   4.092   1.737   7.320 -0.9786 -0.3488  0.4395
 9442SOL    HW139785   4.091   1.658   7.374  0.7423  0.3287  1.4692
 9442SOL    HW239786   4.000   1.740   7.294 -0.9897 -1.9659  0.3351
 9443SOL     OW39787   3.214   0.691   1.452 -0.6352 -0.2495  0.7780
 9443SOL    HW139788   3.290   0.676   1.509  1.0637  1.4640 -0.9915
 9443SOL    HW239789   3.165   0.761   1.495  1.9107  1.0028  1.6851
 9444SOL     OW39790   0.728   1.397  15.801  0.0680 -0.2959 -0.1334
 9444SOL    HW139791   0.681   1.331  15.852  1.9354 -0.1992  1.7091
 9444SOL    HW239792   0.712   1.380  15.708  0.0028 -1.6491  0.1162
 9445SOL     OW39793   1.815   2.533   8.437 -0.8264  0.2653  0.4756
 9445SOL    HW139794   1.748   2.490   8.384 -0.9553  2.5123 -1.1576
 9445SOL    HW239795   1.872   2.579   8.376 -0.3423  2.5315  2.6162
 9446SOL     OW39796   3.768   2.807   0.660  0.3027 -0.2976  0.1225
 9446SOL    HW139797   3.733   2.820   0.748  2.2309  2.5584  0.4927
 9446SOL    HW239798   3.700   2.840   0.602 -1.0438 -0.7471  1.4321
 9447SOL     OW39799   0.557   3.507  15.868  0.7853 -0.5750 -0.2165
 9447SOL    HW139800   0.652   3.521  15.866  0.3362  2.5522  0.7838
 9447SOL    HW239801   0.518   3.555  15.795 -0.4724 -1.2841 -0.0091
 9448SOL     OW39802   0.436   1.274   3.803  0.2317  0.4567  0.3543
 9448SOL    HW139803   0.436   1.351   3.745  1.2672  0.4209  0.3011
 9448SOL    HW239804   0.382   1.213   3.754  1.5136  0.7313 -1.3742
 9449SOL     OW39805   0.778   3.279   7.015  0.4346 -0.1788 -0.3772
 9449SOL    HW139806   0.720   3.333   6.963  0.0276  0.2278  0.4912
 9449SOL    HW239807   0.758   3.293   7.108  0.6423  1.0694 -0.5217
 9450SOL     OW39808   2.055   4.490   7.372  0.7929 -0.1063  0.1156
 9450SOL    HW139809   1.984   4.553   7.362  0.6948 -0.8547 -4.2657
 9450SOL    HW239810   2.090   4.494   7.461 -2.2515  0.8263  1.2517
 9451SOL     OW39811   1.491   3.752   5.716 -0.2286 -0.3691 -0.0741
 9451SOL    HW139812   1.466   3.688   5.784 -1.6689 -1.0396 -1.2249
 9451SOL    HW239813   1.512   3.701   5.638 -0.7960 -1.9894  0.8262
 9452SOL     OW39814   0.576   1.716  10.731  0.6132  0.4009 -0.1113
 9452SOL    HW139815   0.603   1.654  10.798 -0.2102 -0.6829 -0.7669
 9452SOL    HW239816   0.567   1.789  10.792  1.6202 -0.7041  1.3545
 9453SOL     OW39817   3.765   1.391  11.146  0.5160 -0.4503 -0.4545
 9453SOL    HW139818   3.738   1.374  11.236  2.4793 -2.2201 -0.1869
 9453SOL    HW239819   3.851   1.431  11.146  1.6476 -2.8663  0.2027
 9454SOL     OW39820   3.590   4.371   5.054  0.3196  0.6610  0.2265
 9454SOL    HW139821   3.680   4.377   5.086  0.9580 -0.0282 -1.4216
 9454SOL    HW239822   3.588   4.437   4.984 -0.1831  0.4351  0.0341
 9455SOL     OW39823   2.105   1.282   2.797 -0.2370 -0.1680  0.7412
 9455SOL    HW139824   2.060   1.241   2.723  1.2317 -2.0705  0.9063
 9455SOL    HW239825   2.159   1.351   2.759  1.1311 -1.1520  0.8668
 9456SOL     OW39826   3.264   2.399  10.555  0.5815 -0.2063  0.1933
 9456SOL    HW139827   3.249   2.305  10.543  0.4455 -0.2141  0.4226
 9456SOL    HW239828   3.294   2.415  10.644  2.2516 -0.3195 -0.3480
 9457SOL     OW39829   1.995   0.785   8.735  0.1476  0.3676 -0.0184
 9457SOL    HW139830   1.986   0.759   8.827  2.0387 -1.1103 -0.2571
 9457SOL    HW239831   1.983   0.699   8.695 -0.2256  0.6310 -0.4685
 9458SOL     OW39832   2.279   3.083   3.018 -0.3940  0.5242 -1.3158
 9458SOL    HW139833   2.341   3.097   2.946  2.1030 -0.6070  0.6313
 9458SOL    HW239834   2.221   3.158   3.009  1.7429  1.8559 -4.0864
 9459SOL     OW39835   2.934   3.140   6.275  0.3448 -0.1255 -0.4673
 9459SOL    HW139836   2.906   3.135   6.367 -0.8393  0.6611 -0.7916
 9459SOL    HW239837   2.847   3.127   6.237  0.6201  0.5028 -1.2912
 9460SOL     OW39838   1.032   2.323   4.015 -0.0316  0.8057  0.0130
 9460SOL    HW139839   0.976   2.260   3.970 -0.3376  0.8485  0.3302
 9460SOL    HW239840   1.022   2.392   3.949  1.4588  0.3918 -0.6514
 9461SOL     OW39841   3.201   0.939  14.856 -0.1121  0.3211 -0.2900
 9461SOL    HW139842   3.204   0.862  14.913 -0.4438 -1.6656 -2.9565
 9461SOL    HW239843   3.210   0.903  14.767 -1.2253  0.2260 -0.3590
 9462SOL     OW39844   3.602   4.477   4.763 -0.3538 -0.2842  0.4522
 9462SOL    HW139845   3.662   4.407   4.740 -0.2705 -0.2279  0.4988
 9462SOL    HW239846   3.638   4.559   4.728  0.6527 -0.3529  1.3282
 9463SOL     OW39847   3.447   2.912   6.344 -0.2791 -0.4575  0.5944
 9463SOL    HW139848   3.365   2.923   6.393 -0.0667  0.2377  0.7872
 9463SOL    HW239849   3.426   2.895   6.252  0.4071 -0.8310  0.5078
 9464SOL     OW39850   2.293   1.225   5.628 -0.0167  0.2094  0.0980
 9464SOL    HW139851   2.228   1.273   5.576  0.9095 -0.9976 -2.1844
 9464SOL    HW239852   2.255   1.239   5.715 -0.2630  2.2243 -0.3332
 9465SOL     OW39853   1.533   3.939   8.010 -0.1505  0.3834 -0.4744
 9465SOL    HW139854   1.582   3.873   8.059 -0.5075  1.0372  0.7531
 9465SOL    HW239855   1.607   3.984   7.969  0.4519 -0.8253 -0.7395
 9466SOL     OW39856   4.073   2.819   2.411  0.4714  0.0628  0.3752
 9466SOL    HW139857   4.110   2.790   2.494 -0.1774  2.2010  1.4166
 9466SOL    HW239858   3.993   2.766   2.408 -0.3966  1.3540  0.5093
 9467SOL     OW39859   2.581   4.350   5.581 -0.0285 -0.3084 -0.3440
 9467SOL    HW139860   2.641   4.417   5.548 -0.0897  0.2877  0.7488
 9467SOL    HW239861   2.636   4.272   5.568  2.9006  1.6566  0.2533
 9468SOL     OW39862   1.283   3.011   6.989 -0.0850 -0.7224  0.3494
 9468SOL    HW139863   1.317   3.099   7.007  0.1449 -0.7097 -0.1611
 9468SOL    HW239864   1.209   3.016   7.049  0.1232 -0.0651  0.5594
 9469SOL     OW39865   4.527   0.454   5.642 -0.0331 -0.6174  0.3581
 9469SOL    HW139866   4.505   0.529   5.587 -0.8569 -0.6444  0.6533
 9469SOL    HW239867   4.460   0.460   5.710  2.2487 -1.2092  2.6572
 9470SOL     OW39868   0.761   1.894   3.549 -0.2394  0.8769  0.1468
 9470SOL    HW139869   0.792   1.960   3.486 -1.2688  0.2785 -0.9898
 9470SOL    HW239870   0.845   1.863   3.584  0.1636  0.6891 -0.9737
 9471SOL     OW39871   2.283   1.029   7.635  0.3052 -0.2002  0.7297
 9471SOL    HW139872   2.267   1.041   7.728 -3.3313  1.0529 -0.0297
 9471SOL    HW239873   2.289   0.933   7.635  2.8609 -0.0265 -1.2461
 9472SOL     OW39874   3.884   4.468  11.605  0.4025 -0.0778 -0.3538
 9472SOL    HW139875   3.848   4.553  11.581  1.3065  0.0672 -1.2133
 9472SOL    HW239876   3.978   4.486  11.613  0.3428  0.5853 -1.1376
 9473SOL     OW39877   3.760   3.717   4.249  0.7277  0.0694  0.2154
 9473SOL    HW139878   3.772   3.812   4.238  0.6209 -0.1350 -1.5829
 9473SOL    HW239879   3.687   3.715   4.312  0.2180 -0.4332 -0.3990
 9474SOL     OW39880   0.150   4.315   2.034 -0.2852 -0.1595 -0.2104
 9474SOL    HW139881   0.070   4.346   2.075  0.4939  0.3815  0.9289
 9474SOL    HW239882   0.109   4.240   1.991  1.8566 -0.9248 -0.9419
 9475SOL     OW39883   3.622   4.092   6.203 -0.1407  0.0112  0.8016
 9475SOL    HW139884   3.649   4.018   6.259  1.6418 -0.5048 -0.7326
 9475SOL    HW239885   3.692   4.157   6.205  2.0295 -2.3174  2.0429
 9476SOL     OW39886   3.518   4.164  12.285  0.1283 -0.3085  0.1803
 9476SOL    HW139887   3.463   4.089  12.264  1.4174 -0.9319 -0.9005
 9476SOL    HW239888   3.491   4.230  12.220 -0.7630  0.4072  1.2793
 9477SOL     OW39889   4.020   0.060   7.926  0.3021 -0.4297 -0.6340
 9477SOL    HW139890   3.984   4.716   7.871  1.8104 -0.7706 -1.1741
 9477SOL    HW239891   3.979   0.136   7.884 -1.3879 -1.2357 -0.4341
 9478SOL     OW39892   4.111   2.182   3.057  0.6318 -0.5132  0.7763
 9478SOL    HW139893   4.129   2.258   3.003 -0.6238  0.3347  1.5432
 9478SOL    HW239894   4.157   2.109   3.015  1.9000 -0.9729  2.9340
 9479SOL     OW39895   4.103   3.192   4.572 -0.4734  0.2055 -0.4368
 9479SOL    HW139896   4.025   3.237   4.604 -1.3233 -1.9702  0.6076
 9479SOL    HW239897   4.100   3.112   4.624  1.6711  1.3727  1.4420
 9480SOL     OW39898   1.813   3.865  12.133 -0.0574 -0.0029 -0.1391
 9480SOL    HW139899   1.724   3.858  12.166 -0.5015  1.2961 -1.0900
 9480SOL    HW239900   1.859   3.788  12.168 -0.7055 -0.5524 -0.4999
 9481SOL     OW39901   1.490   4.304   6.744 -0.5951  0.5092  0.3452
 9481SOL    HW139902   1.545   4.329   6.818  1.2998 -0.6232 -0.6775
 9481SOL    HW239903   1.559   4.257   6.697  1.3876  2.0476  1.7186
 9482SOL     OW39904   2.514   0.848  15.780  0.3668  0.2470  0.1520
 9482SOL    HW139905   2.582   0.784  15.796 -1.7686 -1.9857  0.3019
 9482SOL    HW239906   2.563   0.928  15.801 -1.0713  0.8433  1.3363
 9483SOL     OW39907   3.868   1.443   2.363 -1.3437  0.2344 -0.1112
 9483SOL    HW139908   3.934   1.498   2.406  0.6131 -2.5435  0.4024
 9483SOL    HW239909   3.891   1.458   2.272  0.7965 -1.1001  0.2245
 9484SOL     OW39910   4.413   4.504   3.404  0.5083 -0.1888 -0.3270
 9484SOL    HW139911   4.390   4.474   3.492  0.4100  0.3049 -0.1821
 9484SOL    HW239912   4.353   4.446   3.357  0.5835 -0.3996 -0.1618
 9485SOL     OW39913   3.903   1.389  10.664 -0.2220  0.0185 -0.4037
 9485SOL    HW139914   3.978   1.439  10.633  0.5318 -1.6667 -1.2753
 9485SOL    HW239915   3.920   1.387  10.758 -2.0559 -1.1120 -0.0865
 9486SOL     OW39916   2.227   4.533   9.185  0.0486  0.2362 -0.3970
 9486SOL    HW139917   2.312   4.493   9.170  0.9318  1.9585  0.0635
 9486SOL    HW239918   2.186   4.477   9.252  0.4203 -0.2056 -0.5351
 9487SOL     OW39919   3.173   3.384   2.292 -0.0995  0.1595  0.0871
 9487SOL    HW139920   3.263   3.407   2.313 -0.5171  0.3125  1.6957
 9487SOL    HW239921   3.125   3.451   2.341 -0.0518  0.8963 -0.8551
 9488SOL     OW39922   0.539   4.593  13.950 -0.3526  0.0164  0.8033
 9488SOL    HW139923   0.469   4.549  13.901 -0.8430  1.1243  0.4987
 9488SOL    HW239924   0.608   4.542  13.908 -1.9788 -1.7022  0.2199
 9489SOL     OW39925   2.465   2.532   7.764  0.4499  0.4123 -0.2066
 9489SOL    HW139926   2.499   2.450   7.801 -2.4491 -0.9364 -0.4867
 9489SOL    HW239927   2.387   2.538   7.819 -0.0885 -0.0251 -0.9096
 9490SOL     OW39928   4.719   4.640   7.073 -0.8189  0.3244  0.1920
 9490SOL    HW139929   0.064   4.704   7.090 -0.2266  0.0124 -1.0392
 9490SOL    HW239930   0.045   4.562   7.051 -1.3898 -0.4116  1.5370
 9491SOL     OW39931   2.750   0.634   5.601 -0.1378 -0.1291  0.1390
 9491SOL    HW139932   2.793   0.657   5.519 -1.7934  0.0700 -0.6857
 9491SOL    HW239933   2.659   0.655   5.581  0.1520 -0.3504 -1.4778
 9492SOL     OW39934   0.299   3.553   6.802 -0.0873  0.3023  0.1646
 9492SOL    HW139935   0.326   3.461   6.811  0.1518  0.3133 -0.4238
 9492SOL    HW239936   0.323   3.559   6.710 -0.1114  0.7476  0.1878
 9493SOL     OW39937   3.717   4.148  16.822 -0.0044  0.2026 -0.0236
 9493SOL    HW139938   3.684   4.229  16.783  2.6143 -0.2147 -3.1165
 9493SOL    HW239939   3.708   4.094  16.744  4.3046 -1.6663  0.7594
 9494SOL     OW39940   4.256   3.276   8.688 -0.1792 -0.3733 -0.1069
 9494SOL    HW139941   4.226   3.262   8.778 -2.2852 -2.0231 -1.0649
 9494SOL    HW239942   4.232   3.186   8.666  2.4797 -1.1660  0.2434
 9495SOL     OW39943   2.856   2.237   8.806 -0.4664  0.0726 -0.2622
 9495SOL    HW139944   2.799   2.176   8.760 -1.6455  0.5528  0.5637
 9495SOL    HW239945   2.836   2.211   8.895 -3.6494  0.6647 -0.7738
 9496SOL     OW39946   2.741   0.784  16.042 -0.3521  0.2837 -0.5695
 9496SOL    HW139947   2.814   0.733  16.009  0.4277  0.7367  0.4760
 9496SOL    HW239948   2.741   0.855  15.978  0.7209  0.1322 -0.7265
 9497SOL     OW39949   3.116   1.837   1.438  0.0170  0.0358 -0.5513
 9497SOL    HW139950   3.116   1.806   1.529  1.7347  1.3819 -0.0928
 9497SOL    HW239951   3.021   1.834   1.429 -0.0014 -3.0800  0.6921
 9498SOL     OW39952   2.643   3.806   6.757 -0.4941 -0.2601 -0.1898
 9498SOL    HW139953   2.652   3.796   6.852  1.4138 -0.4901 -0.3957
 9498SOL    HW239954   2.620   3.898   6.744  1.1399  0.2149  0.1894
 9499SOL     OW39955   3.459   3.021   7.381 -0.5357  0.1871  0.3017
 9499SOL    HW139956   3.520   3.089   7.411  0.2519 -0.9830  1.3740
 9499SOL    HW239957   3.518   2.961   7.335  0.4582  0.6128  1.0051
 9500SOL     OW39958   0.540   3.908  10.511  0.1039  0.0290  0.8972
 9500SOL    HW139959   0.541   3.813  10.495  0.3828  0.2137 -0.1889
 9500SOL    HW239960   0.495   3.908  10.596 -3.2621  1.0054 -0.8768
 9501SOL     OW39961   4.422   2.318  11.075  0.5521  0.2462 -0.1317
 9501SOL    HW139962   4.329   2.298  11.072  0.9571 -2.0229  2.3839
 9501SOL    HW239963   4.460   2.238  11.112  0.6906  0.1036 -0.5809
 9502SOL     OW39964   1.682   0.733   7.779 -0.3193 -0.0841  0.4399
 9502SOL    HW139965   1.760   0.722   7.833 -0.9387 -1.3299  1.0677
 9502SOL    HW239966   1.704   0.699   7.692  2.6226  2.2344  0.2982
 9503SOL     OW39967   2.857   3.248   4.527 -0.2501 -0.0072  0.1408
 9503SOL    HW139968   2.767   3.218   4.516 -0.2850  1.0109 -2.3079
 9503SOL    HW239969   2.848   3.332   4.571 -1.6285 -0.8006  1.3517
 9504SOL     OW39970   0.408   0.140  11.528 -0.3267  0.1606  0.1672
 9504SOL    HW139971   0.477   0.192  11.569  1.2254  0.3954 -2.7157
 9504SOL    HW239972   0.457   0.088  11.465 -0.2906 -0.6081  0.8258
 9505SOL     OW39973   2.473   3.310   7.295  0.0360 -0.3742  0.0648
 9505SOL    HW139974   2.528   3.366   7.240 -0.0681  0.2791  0.6383
 9505SOL    HW239975   2.543   3.246   7.305 -0.2533 -0.6814  0.1211
 9506SOL     OW39976   4.250   0.081   6.296 -0.1118 -0.3665  0.0455
 9506SOL    HW139977   4.299   0.000   6.313 -0.8986 -0.7606  0.4221
 9506SOL    HW239978   4.235   0.058   6.205  1.9571 -2.0986  0.1502
 9507SOL     OW39979   2.835   1.494   2.885 -0.1714 -0.0114 -0.5465
 9507SOL    HW139980   2.893   1.549   2.937 -1.7102  1.5062 -0.4331
 9507SOL    HW239981   2.793   1.560   2.830  2.5169  1.3676 -0.9319
 9508SOL     OW39982   0.008   0.944   0.204 -0.1295  0.2559 -0.1030
 9508SOL    HW139983   4.700   0.869   0.254  0.3520 -0.6488 -1.1290
 9508SOL    HW239984   0.009   1.010   0.273  2.8682 -0.2127  0.3124
 9509SOL     OW39985   1.319   0.611  16.654  0.4350  0.2671 -0.5736
 9509SOL    HW139986   1.374   0.654  16.719 -0.4499  0.3318  0.1282
 9509SOL    HW239987   1.281   0.540  16.707 -0.0462  1.5532  0.7960
 9510SOL     OW39988   2.713   0.213  10.673 -0.3208  0.2673  0.0499
 9510SOL    HW139989   2.692   0.306  10.681 -0.0261  0.3659 -0.3309
 9510SOL    HW239990   2.803   0.208  10.641 -0.0919 -0.7028  0.8482
 9511SOL     OW39991   4.191   3.433  12.942 -0.0774  0.1107  0.0839
 9511SOL    HW139992   4.125   3.474  12.997 -0.4837  1.0509 -1.1017
 9511SOL    HW239993   4.186   3.477  12.857  0.3589 -0.4112 -0.2218
 9512SOL     OW39994   0.639   3.570   0.892 -0.4219 -0.1710 -0.0365
 9512SOL    HW139995   0.545   3.568   0.905 -0.4706  0.2053 -0.3510
 9512SOL    HW239996   0.650   3.658   0.857 -0.2489 -0.3386 -0.4068
 9513SOL     OW39997   4.538   4.006  11.797 -0.2030 -0.1254 -0.4725
 9513SOL    HW139998   4.463   3.967  11.841 -0.6380  0.5795 -0.6029
 9513SOL    HW239999   4.547   3.945  11.723  0.0466  0.3842 -0.8621
 9514SOL     OW40000   0.815   2.135   9.555 -0.3401 -0.2919 -0.2493
 9514SOL    HW140001   0.819   2.043   9.580 -0.5173 -0.4401 -0.7836
 9514SOL    HW240002   0.872   2.138   9.479 -1.4226  1.0553 -1.0147
 9515SOL     OW40003   3.455   1.195   7.857  0.0462 -0.3742  0.1673
 9515SOL    HW140004   3.410   1.274   7.886 -1.5368 -1.1775 -0.0974
 9515SOL    HW240005   3.456   1.150   7.942 -0.0985  1.1875  0.9870
 9516SOL     OW40006   1.342   1.133   7.037 -0.6418 -0.3079 -0.5233
 9516SOL    HW140007   1.375   1.105   6.952  3.0805  0.8213  0.5351
 9516SOL    HW240008   1.427   1.159   7.073 -0.3526 -0.4299 -1.1164
 9517SOL     OW40009   3.686   1.769   4.866  0.4941  0.0777  0.1076
 9517SOL    HW140010   3.703   1.839   4.803  0.5518  0.7175  0.8336
 9517SOL    HW240011   3.693   1.828   4.941  1.2617  0.8479 -0.5699
 9518SOL     OW40012   3.474   0.025  12.256 -0.2727 -0.0102  0.3179
 9518SOL    HW140013   3.527   4.716  12.329 -0.4329  0.5816  0.7113
 9518SOL    HW240014   3.511   0.113  12.244  2.3096 -0.8525  1.9074
 9519SOL     OW40015   4.397   0.653   8.644  0.2787 -0.3326  0.3615
 9519SOL    HW140016   4.373   0.650   8.736  1.9417 -2.5852  0.7353
 9519SOL    HW240017   4.464   0.721   8.634 -0.1468  0.1016  0.4916
 9520SOL     OW40018   2.574   2.632   6.442 -0.8608 -0.0992  0.5256
 9520SOL    HW140019   2.486   2.668   6.430 -0.8712 -0.4768 -0.5393
 9520SOL    HW240020   2.614   2.705   6.394 -0.4524  0.4986  1.7982
 9521SOL     OW40021   1.885   1.710  11.040 -0.1352  0.4020 -1.0746
 9521SOL    HW140022   1.846   1.784  11.086  0.0138  0.7147 -1.4527
 9521SOL    HW240023   1.821   1.707  10.969 -1.5024 -1.0064  0.2343
 9522SOL     OW40024   2.522   4.684   5.171  0.0235 -0.2348 -0.2287
 9522SOL    HW140025   2.449   4.627   5.196  1.8483 -1.7178  1.7350
 9522SOL    HW240026   2.491   4.715   5.086  0.5447  0.9252  0.0056
 9523SOL     OW40027   2.388   2.859   7.609 -0.0678 -0.5774 -0.0471
 9523SOL    HW140028   2.304   2.856   7.564  1.1552 -0.1441 -2.3479
 9523SOL    HW240029   2.445   2.834   7.537 -0.4385 -1.6187  0.0208
 9524SOL     OW40030   4.285   0.431   7.946 -0.0594 -0.7414  0.6885
 9524SOL    HW140031   4.234   0.451   8.025 -0.6977 -1.0087  0.3424
 9524SOL    HW240032   4.273   0.336   7.937  0.4881 -0.5194 -2.2367
 9525SOL     OW40033   0.940   2.453   6.976  0.0463 -0.6148 -0.1079
 9525SOL    HW140034   0.846   2.439   6.966 -0.0235 -0.1241 -0.1456
 9525SOL    HW240035   0.982   2.424   6.895 -1.4023  0.1573 -1.1336
 9526SOL     OW40036   2.214   1.592   4.603  0.3758  0.5299  1.0080
 9526SOL    HW140037   2.266   1.582   4.683 -1.9535 -0.7842  2.3507
 9526SOL    HW240038   2.279   1.602   4.533  1.6293 -1.2977  1.8906
 9527SOL     OW40039   4.348   4.165  10.494  0.5500  0.3905  0.2145
 9527SOL    HW140040   4.288   4.184  10.422  1.2241 -2.2557 -1.0428
 9527SOL    HW240041   4.299   4.104  10.550  2.1879  1.5110  2.8778
 9528SOL     OW40042   3.754   1.377   9.076 -0.2125 -0.2568 -0.6326
 9528SOL    HW140043   3.787   1.318   9.144 -2.1077 -1.8561 -1.0855
 9528SOL    HW240044   3.829   1.397   9.019  1.7406 -3.9633  0.6486
 9529SOL     OW40045   2.228   3.729   5.123  0.3314 -0.4992  0.2435
 9529SOL    HW140046   2.164   3.790   5.159  0.2063 -0.6359  0.2529
 9529SOL    HW240047   2.303   3.746   5.180  1.6157 -3.3396 -0.6151
 9530SOL     OW40048   4.218   1.255   9.417  0.4085  0.3086  0.0427
 9530SOL    HW140049   4.266   1.196   9.475  1.2252  0.7729 -0.1527
 9530SOL    HW240050   4.129   1.222   9.425  1.6281 -3.3090 -1.5888
 9531SOL     OW40051   1.147   2.778  16.366 -0.1369 -0.4640 -0.2868
 9531SOL    HW140052   1.072   2.795  16.423  0.7580  1.9679  0.1560
 9531SOL    HW240053   1.142   2.845  16.297 -0.7006 -0.6192 -0.4020
 9532SOL     OW40054   0.420   3.813  11.086 -0.3932  0.1991 -0.2757
 9532SOL    HW140055   0.409   3.734  11.033  0.4195  1.1627 -1.9009
 9532SOL    HW240056   0.387   3.876  11.022 -0.8954  1.9997  1.7799
 9533SOL     OW40057   3.087   3.689   6.564  0.5600  0.0924  0.8653
 9533SOL    HW140058   3.077   3.596   6.542 -0.3484  0.8844 -2.0530
 9533SOL    HW240059   3.000   3.729   6.560  1.2736  1.5617  0.2608
 9534SOL     OW40060   3.854   0.287   7.751 -0.5808  0.2332  0.0852
 9534SOL    HW140061   3.905   0.311   7.674  0.3208 -0.3928  0.4957
 9534SOL    HW240062   3.781   0.248   7.702 -0.6992  0.0667  0.3960
 9535SOL     OW40063   1.117   1.520   6.036 -0.0516  0.4444  0.2281
 9535SOL    HW140064   1.157   1.484   5.957  0.7171  1.2105  0.2658
 9535SOL    HW240065   1.197   1.552   6.077  1.4051 -0.2264 -2.1380
 9536SOL     OW40066   2.148   0.351   8.646  0.1519 -0.7026  0.0630
 9536SOL    HW140067   2.142   0.389   8.734  1.0337  2.3509 -1.2086
 9536SOL    HW240068   2.170   0.260   8.663  2.0271 -0.4793 -1.3234
 9537SOL     OW40069   2.283   2.885  14.797 -0.4157  0.3304 -1.2646
 9537SOL    HW140070   2.199   2.877  14.842  1.0457 -0.9580  1.2560
 9537SOL    HW240071   2.322   2.802  14.824 -1.6525  0.0052 -0.4673
 9538SOL     OW40072   1.900   0.700  12.370  0.6159  0.2816  0.2678
 9538SOL    HW140073   1.989   0.666  12.365  0.3245 -0.2873 -1.1416
 9538SOL    HW240074   1.859   0.653  12.442 -0.6700 -0.1332 -0.7137
 9539SOL     OW40075   0.382   3.477   7.692  0.3407  1.3984  0.2540
 9539SOL    HW140076   0.415   3.430   7.615  1.8159 -0.4186  1.9882
 9539SOL    HW240077   0.297   3.442   7.719  1.4107 -1.5913 -0.3175
 9540SOL     OW40078   3.904   2.180   0.760  0.2472  0.1215 -0.3056
 9540SOL    HW140079   3.838   2.228   0.711  0.5987 -1.6078 -2.4617
 9540SOL    HW240080   3.856   2.103   0.790 -0.4951 -0.1646 -2.2405
 9541SOL     OW40081   3.964   3.870   1.088  0.2415 -0.5243 -0.2631
 9541SOL    HW140082   3.961   3.955   1.043 -1.4274 -0.2840  0.2922
 9541SOL    HW240083   3.899   3.819   1.042 -1.0696  2.8452 -2.1237
 9542SOL     OW40084   3.142   1.776   0.701  0.1694 -0.1243  0.3488
 9542SOL    HW140085   3.146   1.871   0.685  2.1470 -0.3218 -0.3023
 9542SOL    HW240086   3.175   1.774   0.791 -0.9249  0.6740  0.7744
 9543SOL     OW40087   2.873   1.249  11.293 -0.4762  0.3802  0.2462
 9543SOL    HW140088   2.878   1.153  11.299 -0.9342  0.5553  3.3517
 9543SOL    HW240089   2.779   1.256  11.283 -0.9045 -1.4182  2.8148
 9544SOL     OW40090   0.214   0.277   5.458 -0.6741  0.1800 -0.4566
 9544SOL    HW140091   0.183   0.190   5.436  3.0529 -1.5909  1.2991
 9544SOL    HW240092   0.154   0.302   5.528  0.5734  0.3885  0.5321
 9545SOL     OW40093   3.523   2.831   1.621 -0.5019  0.1428 -0.1695
 9545SOL    HW140094   3.564   2.830   1.535 -1.3933  1.6495 -0.6164
 9545SOL    HW240095   3.575   2.762   1.661 -0.0656  0.2614 -0.5383
 9546SOL     OW40096   4.574   4.254  11.436  0.0334  0.1861 -0.0926
 9546SOL    HW140097   4.669   4.268  11.438  0.1118 -0.4818  0.9212
 9546SOL    HW240098   4.556   4.245  11.530 -1.1578  0.1523 -0.3218
 9547SOL     OW40099   1.113   3.969   6.792 -0.0938  0.0475  0.2450
 9547SOL    HW140100   1.204   3.987   6.769  0.1216 -0.8464  0.3878
 9547SOL    HW240101   1.100   4.010   6.877 -0.9384  1.0588 -0.3732
 9548SOL     OW40102   2.864   1.870   1.192 -0.5585 -0.1880  0.0541
 9548SOL    HW140103   2.794   1.819   1.235 -1.6120 -1.9872 -3.7766
 9548SOL    HW240104   2.826   1.954   1.216 -1.8481 -1.3715  2.2152
 9549SOL     OW40105   3.852   1.088   5.629  0.4777 -0.2351 -0.1284
 9549SOL    HW140106   3.819   1.030   5.561 -1.2063  0.6081 -0.0358
 9549SOL    HW240107   3.773   1.140   5.644 -1.0131 -1.7059 -2.9787
 9550SOL     OW40108   3.603   0.728  15.922  0.4543  0.1103 -0.1285
 9550SOL    HW140109   3.593   0.762  16.011  3.0886 -0.4905  0.4016
 9550SOL    HW240110   3.583   0.812  15.881 -1.6101  0.9090  2.5354
 9551SOL     OW40111   1.750   2.447   7.488  0.1336 -0.5583 -0.3136
 9551SOL    HW140112   1.696   2.500   7.430 -0.3101 -1.9083 -1.1343
 9551SOL    HW240113   1.700   2.457   7.569 -0.6052  0.6519 -0.9186
 9552SOL     OW40114   3.899   3.519   0.815  0.4000 -0.0079  0.2455
 9552SOL    HW140115   3.958   3.508   0.890 -1.7108  0.1891  1.9508
 9552SOL    HW240116   3.952   3.485   0.743  0.0546 -1.4414  0.6713
 9553SOL     OW40117   0.569   2.283   7.808 -0.4152 -0.0118  0.1470
 9553SOL    HW140118   0.582   2.364   7.758  0.5720 -0.6942 -0.7127
 9553SOL    HW240119   0.565   2.309   7.900  0.5360  0.6388  0.0149
 9554SOL     OW40120   2.595   1.301   2.578  0.0097 -0.1055 -0.0665
 9554SOL    HW140121   2.562   1.388   2.599 -0.3059  0.2256 -1.9045
 9554SOL    HW240122   2.530   1.288   2.508  0.9829  1.3761 -1.2304
 9555SOL     OW40123   1.888   3.295   6.043  0.4359 -0.8098 -0.0905
 9555SOL    HW140124   1.832   3.312   5.968 -1.0800  1.0974  1.4745
 9555SOL    HW240125   1.848   3.348   6.112  1.3326 -0.1721 -0.0549
 9556SOL     OW40126   1.934   4.623   9.160  0.2307 -0.0019  0.2946
 9556SOL    HW140127   1.908   4.708   9.194  0.7885  0.3924 -0.2469
 9556SOL    HW240128   1.999   4.586   9.220 -0.2347 -0.9135  0.2437
 9557SOL     OW40129   2.163   3.903  13.531  0.5191  0.5612  0.2576
 9557SOL    HW140130   2.122   3.817  13.534  0.9851  0.2976 -1.3436
 9557SOL    HW240131   2.134   3.921  13.442 -0.1221  0.0010  0.3560
 9558SOL     OW40132   0.545   2.043   6.137 -0.3099  0.5837  0.4634
 9558SOL    HW140133   0.614   1.977   6.146 -0.1824  0.6191 -0.2218
 9558SOL    HW240134   0.517   2.046   6.228 -3.1517 -0.0170 -0.4063
 9559SOL     OW40135   1.927   2.549   1.896  0.0223  0.5237 -0.2215
 9559SOL    HW140136   1.835   2.530   1.877 -0.0244  0.6684 -0.1377
 9559SOL    HW240137   1.912   2.614   1.965  2.0939  0.8714 -0.0984
 9560SOL     OW40138   2.430   3.636  11.101  0.5185 -0.2908 -0.7658
 9560SOL    HW140139   2.355   3.648  11.159  2.3081 -0.8484  1.6390
 9560SOL    HW240140   2.443   3.544  11.125  0.2333 -0.2867 -0.5948
 9561SOL     OW40141   0.272   2.921   1.836 -0.0256  0.4475 -0.4585
 9561SOL    HW140142   0.198   2.863   1.821  1.1994 -0.8674 -1.4138
 9561SOL    HW240143   0.342   2.861   1.810  1.0060  1.0197  1.0111
 9562SOL     OW40144   0.596   3.902   5.307  0.2329 -0.4526 -0.2154
 9562SOL    HW140145   0.521   3.928   5.256  0.3190 -0.3685 -0.2978
 9562SOL    HW240146   0.658   3.967   5.275 -0.3604  0.5613  0.7153
 9563SOL     OW40147   2.823   3.761   6.530  0.5258  0.0165 -0.5190
 9563SOL    HW140148   2.743   3.720   6.496  0.1614  1.6891 -1.6299
 9563SOL    HW240149   2.800   3.769   6.623  0.6594  2.0122 -0.6623
 9564SOL     OW40150   3.364   0.734   9.981  0.4597  0.0183  0.2514
 9564SOL    HW140151   3.304   0.703  10.049 -1.8270  0.3059 -1.6015
 9564SOL    HW240152   3.328   0.682   9.909  1.1508 -0.0863 -0.0085
 9565SOL     OW40153   4.564   3.761   7.064 -0.3176 -0.7596  0.0481
 9565SOL    HW140154   4.656   3.764   7.093  0.2128 -2.5785 -1.4978
 9565SOL    HW240155   4.568   3.714   6.981  1.4492  1.6749 -1.2321
   4.72494   4.72494  17.70116
